;
;   File g5.5dpNcore_cooh_petim.itp  was generated
;   By user: sairam (1000)
;   On host: sairam
;   At date: Mon. February  1 14:26:01 2025
;
;   This is a standalone topology file
;
;   Created by:
;   ParmEd:       amb2gro_top_gro.py, VERSION 3.4.1
;   Executable:   amb2gro_top_gro.py
;   Library dir:  /usr/local/gromacs/share/gromacs/top
;   Command line:
;     ./amb2gro_top_gro.py -p g5.5dpNcore_cooh_petim.prmtop -c g5.5dpNcore_cooh_petim.inpcrd -t g5.5dpNcore_cooh_petim.itp -g g5.5dpNcore_cooh_petim.gro -b g5.5dpNcore_cooh_petim.pdb
;

;[ defaults ]
;; nbfunc        comb-rule       gen-pairs       fudgeLJ fudgeQQ
;1               2               yes             0.5          0.83333333  
;
;[ atomtypes ]
;; name    at.num    mass    charge ptype  sigma      epsilon
;n4             7  14.010000  0.00000000  A     0.32499985        0.71128
;c3             6  12.010000  0.00000000  A     0.33996695      0.4577296
;hx             1   1.008000  0.00000000  A     0.19599772      0.0656888
;hc             1   1.008000  0.00000000  A     0.26495328      0.0656888
;h1             1   1.008000  0.00000000  A      0.2471353      0.0656888
;hn             1   1.008000  0.00000000  A     0.10690785      0.0656888
;os             8  16.000000  0.00000000  A     0.30000123        0.71128
;c              6  12.010000  0.00000000  A     0.33996695       0.359824
;o              8  16.000000  0.00000000  A     0.29599219        0.87864
;oh             8  16.000000  0.00000000  A     0.30664734      0.8803136
;ho             1   1.008000  0.00000000  A              0              0


[ moleculetype ]
; Name            nrexcl
g5.5dpNcore_cooh_petim          3

[ atoms ]
;   nr       type  resnr residue  atom   cgnr    charge       mass  typeB    chargeB      massB
; residue    1 aaa rtp aaa q 1.0
    1         n4      1    aaa     N1      1 -0.24795800  14.010000   ; qtot -0.247958
    2         c3      1    aaa     C1      2 0.15727100  12.010000   ; qtot -0.090687
    3         hx      1    aaa     H1      3 0.05072400   1.008000   ; qtot -0.039963
    4         hx      1    aaa     H2      4 0.05072400   1.008000   ; qtot 0.010761
    5         c3      1    aaa     C2      5 0.15727100  12.010000   ; qtot 0.168032
    6         hx      1    aaa     H3      6 0.05072400   1.008000   ; qtot 0.218756
    7         hx      1    aaa     H4      7 0.05072400   1.008000   ; qtot 0.269480
    8         c3      1    aaa     C3      8 0.15727100  12.010000   ; qtot 0.426751
    9         hx      1    aaa     H5      9 0.05072400   1.008000   ; qtot 0.477475
   10         hx      1    aaa     H6     10 0.05072400   1.008000   ; qtot 0.528199
   11         c3      1    aaa     C4     11 0.05437700  12.010000   ; qtot 0.582576
   12         hc      1    aaa     H7     12 0.07708700   1.008000   ; qtot 0.659663
   13         hc      1    aaa     H8     13 0.07708700   1.008000   ; qtot 0.736750
   14         c3      1    aaa     C5     14 0.05437700  12.010000   ; qtot 0.791127
   15         hc      1    aaa     H9     15 0.07708700   1.008000   ; qtot 0.868214
   16         hc      1    aaa    H10     16 0.07708700   1.008000   ; qtot 0.945301
   17         c3      1    aaa     C6     17 0.05437700  12.010000   ; qtot 0.999678
   18         hc      1    aaa    H11     18 0.07708700   1.008000   ; qtot 1.076765
   19         hc      1    aaa    H12     19 0.07708700   1.008000   ; qtot 1.153852
   20         c3      1    aaa     C7     20 -0.74569400  12.010000   ; qtot 0.408158
   21         h1      1    aaa    H13     21 0.30837900   1.008000   ; qtot 0.716537
   22         h1      1    aaa    H14     22 0.30837900   1.008000   ; qtot 1.024916
   23         c3      1    aaa     C8     23 -0.74569400  12.010000   ; qtot 0.279222
   24         h1      1    aaa    H15     24 0.30837900   1.008000   ; qtot 0.587601
   25         h1      1    aaa    H16     25 0.30837900   1.008000   ; qtot 0.895980
   26         c3      1    aaa     C9     26 -0.74569400  12.010000   ; qtot 0.150286
   27         h1      1    aaa    H17     27 0.30837900   1.008000   ; qtot 0.458665
   28         h1      1    aaa    H18     28 0.30837900   1.008000   ; qtot 0.767044
   29         hn      1    aaa    H19     29 0.23295100   1.008000   ; qtot 0.999995
; residue    2 bbb rtp bbb q 1.0
   30         n4      2    bbb     N1     30 0.03726400  14.010000   ; qtot 1.037259
   31         c3      2    bbb     C1     31 -0.07020100  12.010000   ; qtot 0.967058
   32         hx      2    bbb     H1     32 0.12219000   1.008000   ; qtot 1.089248
   33         hx      2    bbb     H2     33 0.12219000   1.008000   ; qtot 1.211438
   34         c3      2    bbb     C2     34 -0.07020100  12.010000   ; qtot 1.141237
   35         hx      2    bbb     H3     35 0.12219000   1.008000   ; qtot 1.263427
   36         hx      2    bbb     H4     36 0.12219000   1.008000   ; qtot 1.385617
   37         c3      2    bbb     C3     37 -0.39007700  12.010000   ; qtot 0.995540
   38         hx      2    bbb     H5     38 0.14940300   1.008000   ; qtot 1.144943
   39         hx      2    bbb     H6     39 0.14940300   1.008000   ; qtot 1.294346
   40         c3      2    bbb     C4     40 0.18057300  12.010000   ; qtot 1.474919
   41         hc      2    bbb     H7     41 0.01788900   1.008000   ; qtot 1.492808
   42         hc      2    bbb     H8     42 0.01788900   1.008000   ; qtot 1.510697
   43         c3      2    bbb     C5     43 -0.11337700  12.010000   ; qtot 1.397320
   44         hc      2    bbb     H9     44 0.09515400   1.008000   ; qtot 1.492474
   45         hc      2    bbb    H10     45 0.09515400   1.008000   ; qtot 1.587628
   46         c3      2    bbb     C6     46 -0.11337700  12.010000   ; qtot 1.474251
   47         hc      2    bbb    H11     47 0.09515400   1.008000   ; qtot 1.569405
   48         hc      2    bbb    H12     48 0.09515400   1.008000   ; qtot 1.664559
   49         c3      2    bbb     C7     49 0.21842400  12.010000   ; qtot 1.882983
   50         h1      2    bbb    H13     50 0.04500300   1.008000   ; qtot 1.927986
   51         h1      2    bbb    H14     51 0.04500300   1.008000   ; qtot 1.972989
   52         c3      2    bbb     C8     52 -0.06455200  12.010000   ; qtot 1.908437
   53         h1      2    bbb    H15     53 0.13554100   1.008000   ; qtot 2.043978
   54         h1      2    bbb    H16     54 0.13554100   1.008000   ; qtot 2.179519
   55         c3      2    bbb     C9     55 -0.06455200  12.010000   ; qtot 2.114967
   56         h1      2    bbb    H17     56 0.13554100   1.008000   ; qtot 2.250508
   57         h1      2    bbb    H18     57 0.13554100   1.008000   ; qtot 2.386049
   58         os      2    bbb     O1     58 -0.62587700  16.000000   ; qtot 1.760172
   59         hn      2    bbb    H19     59 0.23982500   1.008000   ; qtot 1.999997
; residue    3 bbb rtp bbb q 1.0
   60         n4      3    bbb     N1     60 0.03726400  14.010000   ; qtot 2.037261
   61         c3      3    bbb     C1     61 -0.07020100  12.010000   ; qtot 1.967060
   62         hx      3    bbb     H1     62 0.12219000   1.008000   ; qtot 2.089250
   63         hx      3    bbb     H2     63 0.12219000   1.008000   ; qtot 2.211440
   64         c3      3    bbb     C2     64 -0.07020100  12.010000   ; qtot 2.141239
   65         hx      3    bbb     H3     65 0.12219000   1.008000   ; qtot 2.263429
   66         hx      3    bbb     H4     66 0.12219000   1.008000   ; qtot 2.385619
   67         c3      3    bbb     C3     67 -0.39007700  12.010000   ; qtot 1.995542
   68         hx      3    bbb     H5     68 0.14940300   1.008000   ; qtot 2.144945
   69         hx      3    bbb     H6     69 0.14940300   1.008000   ; qtot 2.294348
   70         c3      3    bbb     C4     70 0.18057300  12.010000   ; qtot 2.474921
   71         hc      3    bbb     H7     71 0.01788900   1.008000   ; qtot 2.492810
   72         hc      3    bbb     H8     72 0.01788900   1.008000   ; qtot 2.510699
   73         c3      3    bbb     C5     73 -0.11337700  12.010000   ; qtot 2.397322
   74         hc      3    bbb     H9     74 0.09515400   1.008000   ; qtot 2.492476
   75         hc      3    bbb    H10     75 0.09515400   1.008000   ; qtot 2.587630
   76         c3      3    bbb     C6     76 -0.11337700  12.010000   ; qtot 2.474253
   77         hc      3    bbb    H11     77 0.09515400   1.008000   ; qtot 2.569407
   78         hc      3    bbb    H12     78 0.09515400   1.008000   ; qtot 2.664561
   79         c3      3    bbb     C7     79 0.21842400  12.010000   ; qtot 2.882985
   80         h1      3    bbb    H13     80 0.04500300   1.008000   ; qtot 2.927988
   81         h1      3    bbb    H14     81 0.04500300   1.008000   ; qtot 2.972991
   82         c3      3    bbb     C8     82 -0.06455200  12.010000   ; qtot 2.908439
   83         h1      3    bbb    H15     83 0.13554100   1.008000   ; qtot 3.043980
   84         h1      3    bbb    H16     84 0.13554100   1.008000   ; qtot 3.179521
   85         c3      3    bbb     C9     85 -0.06455200  12.010000   ; qtot 3.114969
   86         h1      3    bbb    H17     86 0.13554100   1.008000   ; qtot 3.250510
   87         h1      3    bbb    H18     87 0.13554100   1.008000   ; qtot 3.386051
   88         os      3    bbb     O1     88 -0.62587700  16.000000   ; qtot 2.760174
   89         hn      3    bbb    H19     89 0.23982500   1.008000   ; qtot 2.999999
; residue    4 bbb rtp bbb q 1.0
   90         n4      4    bbb     N1     90 0.03726400  14.010000   ; qtot 3.037263
   91         c3      4    bbb     C1     91 -0.07020100  12.010000   ; qtot 2.967062
   92         hx      4    bbb     H1     92 0.12219000   1.008000   ; qtot 3.089252
   93         hx      4    bbb     H2     93 0.12219000   1.008000   ; qtot 3.211442
   94         c3      4    bbb     C2     94 -0.07020100  12.010000   ; qtot 3.141241
   95         hx      4    bbb     H3     95 0.12219000   1.008000   ; qtot 3.263431
   96         hx      4    bbb     H4     96 0.12219000   1.008000   ; qtot 3.385621
   97         c3      4    bbb     C3     97 -0.39007700  12.010000   ; qtot 2.995544
   98         hx      4    bbb     H5     98 0.14940300   1.008000   ; qtot 3.144947
   99         hx      4    bbb     H6     99 0.14940300   1.008000   ; qtot 3.294350
  100         c3      4    bbb     C4    100 0.18057300  12.010000   ; qtot 3.474923
  101         hc      4    bbb     H7    101 0.01788900   1.008000   ; qtot 3.492812
  102         hc      4    bbb     H8    102 0.01788900   1.008000   ; qtot 3.510701
  103         c3      4    bbb     C5    103 -0.11337700  12.010000   ; qtot 3.397324
  104         hc      4    bbb     H9    104 0.09515400   1.008000   ; qtot 3.492478
  105         hc      4    bbb    H10    105 0.09515400   1.008000   ; qtot 3.587632
  106         c3      4    bbb     C6    106 -0.11337700  12.010000   ; qtot 3.474255
  107         hc      4    bbb    H11    107 0.09515400   1.008000   ; qtot 3.569409
  108         hc      4    bbb    H12    108 0.09515400   1.008000   ; qtot 3.664563
  109         c3      4    bbb     C7    109 0.21842400  12.010000   ; qtot 3.882987
  110         h1      4    bbb    H13    110 0.04500300   1.008000   ; qtot 3.927990
  111         h1      4    bbb    H14    111 0.04500300   1.008000   ; qtot 3.972993
  112         c3      4    bbb     C8    112 -0.06455200  12.010000   ; qtot 3.908441
  113         h1      4    bbb    H15    113 0.13554100   1.008000   ; qtot 4.043982
  114         h1      4    bbb    H16    114 0.13554100   1.008000   ; qtot 4.179523
  115         c3      4    bbb     C9    115 -0.06455200  12.010000   ; qtot 4.114971
  116         h1      4    bbb    H17    116 0.13554100   1.008000   ; qtot 4.250512
  117         h1      4    bbb    H18    117 0.13554100   1.008000   ; qtot 4.386053
  118         os      4    bbb     O1    118 -0.62587700  16.000000   ; qtot 3.760176
  119         hn      4    bbb    H19    119 0.23982500   1.008000   ; qtot 4.000001
; residue    5 bbb rtp bbb q 1.0
  120         n4      5    bbb     N1    120 0.03726400  14.010000   ; qtot 4.037265
  121         c3      5    bbb     C1    121 -0.07020100  12.010000   ; qtot 3.967064
  122         hx      5    bbb     H1    122 0.12219000   1.008000   ; qtot 4.089254
  123         hx      5    bbb     H2    123 0.12219000   1.008000   ; qtot 4.211444
  124         c3      5    bbb     C2    124 -0.07020100  12.010000   ; qtot 4.141243
  125         hx      5    bbb     H3    125 0.12219000   1.008000   ; qtot 4.263433
  126         hx      5    bbb     H4    126 0.12219000   1.008000   ; qtot 4.385623
  127         c3      5    bbb     C3    127 -0.39007700  12.010000   ; qtot 3.995546
  128         hx      5    bbb     H5    128 0.14940300   1.008000   ; qtot 4.144949
  129         hx      5    bbb     H6    129 0.14940300   1.008000   ; qtot 4.294352
  130         c3      5    bbb     C4    130 0.18057300  12.010000   ; qtot 4.474925
  131         hc      5    bbb     H7    131 0.01788900   1.008000   ; qtot 4.492814
  132         hc      5    bbb     H8    132 0.01788900   1.008000   ; qtot 4.510703
  133         c3      5    bbb     C5    133 -0.11337700  12.010000   ; qtot 4.397326
  134         hc      5    bbb     H9    134 0.09515400   1.008000   ; qtot 4.492480
  135         hc      5    bbb    H10    135 0.09515400   1.008000   ; qtot 4.587634
  136         c3      5    bbb     C6    136 -0.11337700  12.010000   ; qtot 4.474257
  137         hc      5    bbb    H11    137 0.09515400   1.008000   ; qtot 4.569411
  138         hc      5    bbb    H12    138 0.09515400   1.008000   ; qtot 4.664565
  139         c3      5    bbb     C7    139 0.21842400  12.010000   ; qtot 4.882989
  140         h1      5    bbb    H13    140 0.04500300   1.008000   ; qtot 4.927992
  141         h1      5    bbb    H14    141 0.04500300   1.008000   ; qtot 4.972995
  142         c3      5    bbb     C8    142 -0.06455200  12.010000   ; qtot 4.908443
  143         h1      5    bbb    H15    143 0.13554100   1.008000   ; qtot 5.043984
  144         h1      5    bbb    H16    144 0.13554100   1.008000   ; qtot 5.179525
  145         c3      5    bbb     C9    145 -0.06455200  12.010000   ; qtot 5.114973
  146         h1      5    bbb    H17    146 0.13554100   1.008000   ; qtot 5.250514
  147         h1      5    bbb    H18    147 0.13554100   1.008000   ; qtot 5.386055
  148         os      5    bbb     O1    148 -0.62587700  16.000000   ; qtot 4.760178
  149         hn      5    bbb    H19    149 0.23982500   1.008000   ; qtot 5.000003
; residue    6 bbb rtp bbb q 1.0
  150         n4      6    bbb     N1    150 0.03726400  14.010000   ; qtot 5.037267
  151         c3      6    bbb     C1    151 -0.07020100  12.010000   ; qtot 4.967066
  152         hx      6    bbb     H1    152 0.12219000   1.008000   ; qtot 5.089256
  153         hx      6    bbb     H2    153 0.12219000   1.008000   ; qtot 5.211446
  154         c3      6    bbb     C2    154 -0.07020100  12.010000   ; qtot 5.141245
  155         hx      6    bbb     H3    155 0.12219000   1.008000   ; qtot 5.263435
  156         hx      6    bbb     H4    156 0.12219000   1.008000   ; qtot 5.385625
  157         c3      6    bbb     C3    157 -0.39007700  12.010000   ; qtot 4.995548
  158         hx      6    bbb     H5    158 0.14940300   1.008000   ; qtot 5.144951
  159         hx      6    bbb     H6    159 0.14940300   1.008000   ; qtot 5.294354
  160         c3      6    bbb     C4    160 0.18057300  12.010000   ; qtot 5.474927
  161         hc      6    bbb     H7    161 0.01788900   1.008000   ; qtot 5.492816
  162         hc      6    bbb     H8    162 0.01788900   1.008000   ; qtot 5.510705
  163         c3      6    bbb     C5    163 -0.11337700  12.010000   ; qtot 5.397328
  164         hc      6    bbb     H9    164 0.09515400   1.008000   ; qtot 5.492482
  165         hc      6    bbb    H10    165 0.09515400   1.008000   ; qtot 5.587636
  166         c3      6    bbb     C6    166 -0.11337700  12.010000   ; qtot 5.474259
  167         hc      6    bbb    H11    167 0.09515400   1.008000   ; qtot 5.569413
  168         hc      6    bbb    H12    168 0.09515400   1.008000   ; qtot 5.664567
  169         c3      6    bbb     C7    169 0.21842400  12.010000   ; qtot 5.882991
  170         h1      6    bbb    H13    170 0.04500300   1.008000   ; qtot 5.927994
  171         h1      6    bbb    H14    171 0.04500300   1.008000   ; qtot 5.972997
  172         c3      6    bbb     C8    172 -0.06455200  12.010000   ; qtot 5.908445
  173         h1      6    bbb    H15    173 0.13554100   1.008000   ; qtot 6.043986
  174         h1      6    bbb    H16    174 0.13554100   1.008000   ; qtot 6.179527
  175         c3      6    bbb     C9    175 -0.06455200  12.010000   ; qtot 6.114975
  176         h1      6    bbb    H17    176 0.13554100   1.008000   ; qtot 6.250516
  177         h1      6    bbb    H18    177 0.13554100   1.008000   ; qtot 6.386057
  178         os      6    bbb     O1    178 -0.62587700  16.000000   ; qtot 5.760180
  179         hn      6    bbb    H19    179 0.23982500   1.008000   ; qtot 6.000005
; residue    7 bbb rtp bbb q 1.0
  180         n4      7    bbb     N1    180 0.03726400  14.010000   ; qtot 6.037269
  181         c3      7    bbb     C1    181 -0.07020100  12.010000   ; qtot 5.967068
  182         hx      7    bbb     H1    182 0.12219000   1.008000   ; qtot 6.089258
  183         hx      7    bbb     H2    183 0.12219000   1.008000   ; qtot 6.211448
  184         c3      7    bbb     C2    184 -0.07020100  12.010000   ; qtot 6.141247
  185         hx      7    bbb     H3    185 0.12219000   1.008000   ; qtot 6.263437
  186         hx      7    bbb     H4    186 0.12219000   1.008000   ; qtot 6.385627
  187         c3      7    bbb     C3    187 -0.39007700  12.010000   ; qtot 5.995550
  188         hx      7    bbb     H5    188 0.14940300   1.008000   ; qtot 6.144953
  189         hx      7    bbb     H6    189 0.14940300   1.008000   ; qtot 6.294356
  190         c3      7    bbb     C4    190 0.18057300  12.010000   ; qtot 6.474929
  191         hc      7    bbb     H7    191 0.01788900   1.008000   ; qtot 6.492818
  192         hc      7    bbb     H8    192 0.01788900   1.008000   ; qtot 6.510707
  193         c3      7    bbb     C5    193 -0.11337700  12.010000   ; qtot 6.397330
  194         hc      7    bbb     H9    194 0.09515400   1.008000   ; qtot 6.492484
  195         hc      7    bbb    H10    195 0.09515400   1.008000   ; qtot 6.587638
  196         c3      7    bbb     C6    196 -0.11337700  12.010000   ; qtot 6.474261
  197         hc      7    bbb    H11    197 0.09515400   1.008000   ; qtot 6.569415
  198         hc      7    bbb    H12    198 0.09515400   1.008000   ; qtot 6.664569
  199         c3      7    bbb     C7    199 0.21842400  12.010000   ; qtot 6.882993
  200         h1      7    bbb    H13    200 0.04500300   1.008000   ; qtot 6.927996
  201         h1      7    bbb    H14    201 0.04500300   1.008000   ; qtot 6.972999
  202         c3      7    bbb     C8    202 -0.06455200  12.010000   ; qtot 6.908447
  203         h1      7    bbb    H15    203 0.13554100   1.008000   ; qtot 7.043988
  204         h1      7    bbb    H16    204 0.13554100   1.008000   ; qtot 7.179529
  205         c3      7    bbb     C9    205 -0.06455200  12.010000   ; qtot 7.114977
  206         h1      7    bbb    H17    206 0.13554100   1.008000   ; qtot 7.250518
  207         h1      7    bbb    H18    207 0.13554100   1.008000   ; qtot 7.386059
  208         os      7    bbb     O1    208 -0.62587700  16.000000   ; qtot 6.760182
  209         hn      7    bbb    H19    209 0.23982500   1.008000   ; qtot 7.000007
; residue    8 bbb rtp bbb q 1.0
  210         n4      8    bbb     N1    210 0.03726400  14.010000   ; qtot 7.037271
  211         c3      8    bbb     C1    211 -0.07020100  12.010000   ; qtot 6.967070
  212         hx      8    bbb     H1    212 0.12219000   1.008000   ; qtot 7.089260
  213         hx      8    bbb     H2    213 0.12219000   1.008000   ; qtot 7.211450
  214         c3      8    bbb     C2    214 -0.07020100  12.010000   ; qtot 7.141249
  215         hx      8    bbb     H3    215 0.12219000   1.008000   ; qtot 7.263439
  216         hx      8    bbb     H4    216 0.12219000   1.008000   ; qtot 7.385629
  217         c3      8    bbb     C3    217 -0.39007700  12.010000   ; qtot 6.995552
  218         hx      8    bbb     H5    218 0.14940300   1.008000   ; qtot 7.144955
  219         hx      8    bbb     H6    219 0.14940300   1.008000   ; qtot 7.294358
  220         c3      8    bbb     C4    220 0.18057300  12.010000   ; qtot 7.474931
  221         hc      8    bbb     H7    221 0.01788900   1.008000   ; qtot 7.492820
  222         hc      8    bbb     H8    222 0.01788900   1.008000   ; qtot 7.510709
  223         c3      8    bbb     C5    223 -0.11337700  12.010000   ; qtot 7.397332
  224         hc      8    bbb     H9    224 0.09515400   1.008000   ; qtot 7.492486
  225         hc      8    bbb    H10    225 0.09515400   1.008000   ; qtot 7.587640
  226         c3      8    bbb     C6    226 -0.11337700  12.010000   ; qtot 7.474263
  227         hc      8    bbb    H11    227 0.09515400   1.008000   ; qtot 7.569417
  228         hc      8    bbb    H12    228 0.09515400   1.008000   ; qtot 7.664571
  229         c3      8    bbb     C7    229 0.21842400  12.010000   ; qtot 7.882995
  230         h1      8    bbb    H13    230 0.04500300   1.008000   ; qtot 7.927998
  231         h1      8    bbb    H14    231 0.04500300   1.008000   ; qtot 7.973001
  232         c3      8    bbb     C8    232 -0.06455200  12.010000   ; qtot 7.908449
  233         h1      8    bbb    H15    233 0.13554100   1.008000   ; qtot 8.043990
  234         h1      8    bbb    H16    234 0.13554100   1.008000   ; qtot 8.179531
  235         c3      8    bbb     C9    235 -0.06455200  12.010000   ; qtot 8.114979
  236         h1      8    bbb    H17    236 0.13554100   1.008000   ; qtot 8.250520
  237         h1      8    bbb    H18    237 0.13554100   1.008000   ; qtot 8.386061
  238         os      8    bbb     O1    238 -0.62587700  16.000000   ; qtot 7.760184
  239         hn      8    bbb    H19    239 0.23982500   1.008000   ; qtot 8.000009
; residue    9 bbb rtp bbb q 1.0
  240         n4      9    bbb     N1    240 0.03726400  14.010000   ; qtot 8.037273
  241         c3      9    bbb     C1    241 -0.07020100  12.010000   ; qtot 7.967072
  242         hx      9    bbb     H1    242 0.12219000   1.008000   ; qtot 8.089262
  243         hx      9    bbb     H2    243 0.12219000   1.008000   ; qtot 8.211452
  244         c3      9    bbb     C2    244 -0.07020100  12.010000   ; qtot 8.141251
  245         hx      9    bbb     H3    245 0.12219000   1.008000   ; qtot 8.263441
  246         hx      9    bbb     H4    246 0.12219000   1.008000   ; qtot 8.385631
  247         c3      9    bbb     C3    247 -0.39007700  12.010000   ; qtot 7.995554
  248         hx      9    bbb     H5    248 0.14940300   1.008000   ; qtot 8.144957
  249         hx      9    bbb     H6    249 0.14940300   1.008000   ; qtot 8.294360
  250         c3      9    bbb     C4    250 0.18057300  12.010000   ; qtot 8.474933
  251         hc      9    bbb     H7    251 0.01788900   1.008000   ; qtot 8.492822
  252         hc      9    bbb     H8    252 0.01788900   1.008000   ; qtot 8.510711
  253         c3      9    bbb     C5    253 -0.11337700  12.010000   ; qtot 8.397334
  254         hc      9    bbb     H9    254 0.09515400   1.008000   ; qtot 8.492488
  255         hc      9    bbb    H10    255 0.09515400   1.008000   ; qtot 8.587642
  256         c3      9    bbb     C6    256 -0.11337700  12.010000   ; qtot 8.474265
  257         hc      9    bbb    H11    257 0.09515400   1.008000   ; qtot 8.569419
  258         hc      9    bbb    H12    258 0.09515400   1.008000   ; qtot 8.664573
  259         c3      9    bbb     C7    259 0.21842400  12.010000   ; qtot 8.882997
  260         h1      9    bbb    H13    260 0.04500300   1.008000   ; qtot 8.928000
  261         h1      9    bbb    H14    261 0.04500300   1.008000   ; qtot 8.973003
  262         c3      9    bbb     C8    262 -0.06455200  12.010000   ; qtot 8.908451
  263         h1      9    bbb    H15    263 0.13554100   1.008000   ; qtot 9.043992
  264         h1      9    bbb    H16    264 0.13554100   1.008000   ; qtot 9.179533
  265         c3      9    bbb     C9    265 -0.06455200  12.010000   ; qtot 9.114981
  266         h1      9    bbb    H17    266 0.13554100   1.008000   ; qtot 9.250522
  267         h1      9    bbb    H18    267 0.13554100   1.008000   ; qtot 9.386063
  268         os      9    bbb     O1    268 -0.62587700  16.000000   ; qtot 8.760186
  269         hn      9    bbb    H19    269 0.23982500   1.008000   ; qtot 9.000011
; residue   10 bbb rtp bbb q 1.0
  270         n4     10    bbb     N1    270 0.03726400  14.010000   ; qtot 9.037275
  271         c3     10    bbb     C1    271 -0.07020100  12.010000   ; qtot 8.967074
  272         hx     10    bbb     H1    272 0.12219000   1.008000   ; qtot 9.089264
  273         hx     10    bbb     H2    273 0.12219000   1.008000   ; qtot 9.211454
  274         c3     10    bbb     C2    274 -0.07020100  12.010000   ; qtot 9.141253
  275         hx     10    bbb     H3    275 0.12219000   1.008000   ; qtot 9.263443
  276         hx     10    bbb     H4    276 0.12219000   1.008000   ; qtot 9.385633
  277         c3     10    bbb     C3    277 -0.39007700  12.010000   ; qtot 8.995556
  278         hx     10    bbb     H5    278 0.14940300   1.008000   ; qtot 9.144959
  279         hx     10    bbb     H6    279 0.14940300   1.008000   ; qtot 9.294362
  280         c3     10    bbb     C4    280 0.18057300  12.010000   ; qtot 9.474935
  281         hc     10    bbb     H7    281 0.01788900   1.008000   ; qtot 9.492824
  282         hc     10    bbb     H8    282 0.01788900   1.008000   ; qtot 9.510713
  283         c3     10    bbb     C5    283 -0.11337700  12.010000   ; qtot 9.397336
  284         hc     10    bbb     H9    284 0.09515400   1.008000   ; qtot 9.492490
  285         hc     10    bbb    H10    285 0.09515400   1.008000   ; qtot 9.587644
  286         c3     10    bbb     C6    286 -0.11337700  12.010000   ; qtot 9.474267
  287         hc     10    bbb    H11    287 0.09515400   1.008000   ; qtot 9.569421
  288         hc     10    bbb    H12    288 0.09515400   1.008000   ; qtot 9.664575
  289         c3     10    bbb     C7    289 0.21842400  12.010000   ; qtot 9.882999
  290         h1     10    bbb    H13    290 0.04500300   1.008000   ; qtot 9.928002
  291         h1     10    bbb    H14    291 0.04500300   1.008000   ; qtot 9.973005
  292         c3     10    bbb     C8    292 -0.06455200  12.010000   ; qtot 9.908453
  293         h1     10    bbb    H15    293 0.13554100   1.008000   ; qtot 10.043994
  294         h1     10    bbb    H16    294 0.13554100   1.008000   ; qtot 10.179535
  295         c3     10    bbb     C9    295 -0.06455200  12.010000   ; qtot 10.114983
  296         h1     10    bbb    H17    296 0.13554100   1.008000   ; qtot 10.250524
  297         h1     10    bbb    H18    297 0.13554100   1.008000   ; qtot 10.386065
  298         os     10    bbb     O1    298 -0.62587700  16.000000   ; qtot 9.760188
  299         hn     10    bbb    H19    299 0.23982500   1.008000   ; qtot 10.000013
; residue   11 bbb rtp bbb q 1.0
  300         n4     11    bbb     N1    300 0.03726400  14.010000   ; qtot 10.037277
  301         c3     11    bbb     C1    301 -0.07020100  12.010000   ; qtot 9.967076
  302         hx     11    bbb     H1    302 0.12219000   1.008000   ; qtot 10.089266
  303         hx     11    bbb     H2    303 0.12219000   1.008000   ; qtot 10.211456
  304         c3     11    bbb     C2    304 -0.07020100  12.010000   ; qtot 10.141255
  305         hx     11    bbb     H3    305 0.12219000   1.008000   ; qtot 10.263445
  306         hx     11    bbb     H4    306 0.12219000   1.008000   ; qtot 10.385635
  307         c3     11    bbb     C3    307 -0.39007700  12.010000   ; qtot 9.995558
  308         hx     11    bbb     H5    308 0.14940300   1.008000   ; qtot 10.144961
  309         hx     11    bbb     H6    309 0.14940300   1.008000   ; qtot 10.294364
  310         c3     11    bbb     C4    310 0.18057300  12.010000   ; qtot 10.474937
  311         hc     11    bbb     H7    311 0.01788900   1.008000   ; qtot 10.492826
  312         hc     11    bbb     H8    312 0.01788900   1.008000   ; qtot 10.510715
  313         c3     11    bbb     C5    313 -0.11337700  12.010000   ; qtot 10.397338
  314         hc     11    bbb     H9    314 0.09515400   1.008000   ; qtot 10.492492
  315         hc     11    bbb    H10    315 0.09515400   1.008000   ; qtot 10.587646
  316         c3     11    bbb     C6    316 -0.11337700  12.010000   ; qtot 10.474269
  317         hc     11    bbb    H11    317 0.09515400   1.008000   ; qtot 10.569423
  318         hc     11    bbb    H12    318 0.09515400   1.008000   ; qtot 10.664577
  319         c3     11    bbb     C7    319 0.21842400  12.010000   ; qtot 10.883001
  320         h1     11    bbb    H13    320 0.04500300   1.008000   ; qtot 10.928004
  321         h1     11    bbb    H14    321 0.04500300   1.008000   ; qtot 10.973007
  322         c3     11    bbb     C8    322 -0.06455200  12.010000   ; qtot 10.908455
  323         h1     11    bbb    H15    323 0.13554100   1.008000   ; qtot 11.043996
  324         h1     11    bbb    H16    324 0.13554100   1.008000   ; qtot 11.179537
  325         c3     11    bbb     C9    325 -0.06455200  12.010000   ; qtot 11.114985
  326         h1     11    bbb    H17    326 0.13554100   1.008000   ; qtot 11.250526
  327         h1     11    bbb    H18    327 0.13554100   1.008000   ; qtot 11.386067
  328         os     11    bbb     O1    328 -0.62587700  16.000000   ; qtot 10.760190
  329         hn     11    bbb    H19    329 0.23982500   1.008000   ; qtot 11.000015
; residue   12 bbb rtp bbb q 1.0
  330         n4     12    bbb     N1    330 0.03726400  14.010000   ; qtot 11.037279
  331         c3     12    bbb     C1    331 -0.07020100  12.010000   ; qtot 10.967078
  332         hx     12    bbb     H1    332 0.12219000   1.008000   ; qtot 11.089268
  333         hx     12    bbb     H2    333 0.12219000   1.008000   ; qtot 11.211458
  334         c3     12    bbb     C2    334 -0.07020100  12.010000   ; qtot 11.141257
  335         hx     12    bbb     H3    335 0.12219000   1.008000   ; qtot 11.263447
  336         hx     12    bbb     H4    336 0.12219000   1.008000   ; qtot 11.385637
  337         c3     12    bbb     C3    337 -0.39007700  12.010000   ; qtot 10.995560
  338         hx     12    bbb     H5    338 0.14940300   1.008000   ; qtot 11.144963
  339         hx     12    bbb     H6    339 0.14940300   1.008000   ; qtot 11.294366
  340         c3     12    bbb     C4    340 0.18057300  12.010000   ; qtot 11.474939
  341         hc     12    bbb     H7    341 0.01788900   1.008000   ; qtot 11.492828
  342         hc     12    bbb     H8    342 0.01788900   1.008000   ; qtot 11.510717
  343         c3     12    bbb     C5    343 -0.11337700  12.010000   ; qtot 11.397340
  344         hc     12    bbb     H9    344 0.09515400   1.008000   ; qtot 11.492494
  345         hc     12    bbb    H10    345 0.09515400   1.008000   ; qtot 11.587648
  346         c3     12    bbb     C6    346 -0.11337700  12.010000   ; qtot 11.474271
  347         hc     12    bbb    H11    347 0.09515400   1.008000   ; qtot 11.569425
  348         hc     12    bbb    H12    348 0.09515400   1.008000   ; qtot 11.664579
  349         c3     12    bbb     C7    349 0.21842400  12.010000   ; qtot 11.883003
  350         h1     12    bbb    H13    350 0.04500300   1.008000   ; qtot 11.928006
  351         h1     12    bbb    H14    351 0.04500300   1.008000   ; qtot 11.973009
  352         c3     12    bbb     C8    352 -0.06455200  12.010000   ; qtot 11.908457
  353         h1     12    bbb    H15    353 0.13554100   1.008000   ; qtot 12.043998
  354         h1     12    bbb    H16    354 0.13554100   1.008000   ; qtot 12.179539
  355         c3     12    bbb     C9    355 -0.06455200  12.010000   ; qtot 12.114987
  356         h1     12    bbb    H17    356 0.13554100   1.008000   ; qtot 12.250528
  357         h1     12    bbb    H18    357 0.13554100   1.008000   ; qtot 12.386069
  358         os     12    bbb     O1    358 -0.62587700  16.000000   ; qtot 11.760192
  359         hn     12    bbb    H19    359 0.23982500   1.008000   ; qtot 12.000017
; residue   13 bbb rtp bbb q 1.0
  360         n4     13    bbb     N1    360 0.03726400  14.010000   ; qtot 12.037281
  361         c3     13    bbb     C1    361 -0.07020100  12.010000   ; qtot 11.967080
  362         hx     13    bbb     H1    362 0.12219000   1.008000   ; qtot 12.089270
  363         hx     13    bbb     H2    363 0.12219000   1.008000   ; qtot 12.211460
  364         c3     13    bbb     C2    364 -0.07020100  12.010000   ; qtot 12.141259
  365         hx     13    bbb     H3    365 0.12219000   1.008000   ; qtot 12.263449
  366         hx     13    bbb     H4    366 0.12219000   1.008000   ; qtot 12.385639
  367         c3     13    bbb     C3    367 -0.39007700  12.010000   ; qtot 11.995562
  368         hx     13    bbb     H5    368 0.14940300   1.008000   ; qtot 12.144965
  369         hx     13    bbb     H6    369 0.14940300   1.008000   ; qtot 12.294368
  370         c3     13    bbb     C4    370 0.18057300  12.010000   ; qtot 12.474941
  371         hc     13    bbb     H7    371 0.01788900   1.008000   ; qtot 12.492830
  372         hc     13    bbb     H8    372 0.01788900   1.008000   ; qtot 12.510719
  373         c3     13    bbb     C5    373 -0.11337700  12.010000   ; qtot 12.397342
  374         hc     13    bbb     H9    374 0.09515400   1.008000   ; qtot 12.492496
  375         hc     13    bbb    H10    375 0.09515400   1.008000   ; qtot 12.587650
  376         c3     13    bbb     C6    376 -0.11337700  12.010000   ; qtot 12.474273
  377         hc     13    bbb    H11    377 0.09515400   1.008000   ; qtot 12.569427
  378         hc     13    bbb    H12    378 0.09515400   1.008000   ; qtot 12.664581
  379         c3     13    bbb     C7    379 0.21842400  12.010000   ; qtot 12.883005
  380         h1     13    bbb    H13    380 0.04500300   1.008000   ; qtot 12.928008
  381         h1     13    bbb    H14    381 0.04500300   1.008000   ; qtot 12.973011
  382         c3     13    bbb     C8    382 -0.06455200  12.010000   ; qtot 12.908459
  383         h1     13    bbb    H15    383 0.13554100   1.008000   ; qtot 13.044000
  384         h1     13    bbb    H16    384 0.13554100   1.008000   ; qtot 13.179541
  385         c3     13    bbb     C9    385 -0.06455200  12.010000   ; qtot 13.114989
  386         h1     13    bbb    H17    386 0.13554100   1.008000   ; qtot 13.250530
  387         h1     13    bbb    H18    387 0.13554100   1.008000   ; qtot 13.386071
  388         os     13    bbb     O1    388 -0.62587700  16.000000   ; qtot 12.760194
  389         hn     13    bbb    H19    389 0.23982500   1.008000   ; qtot 13.000019
; residue   14 bbb rtp bbb q 1.0
  390         n4     14    bbb     N1    390 0.03726400  14.010000   ; qtot 13.037283
  391         c3     14    bbb     C1    391 -0.07020100  12.010000   ; qtot 12.967082
  392         hx     14    bbb     H1    392 0.12219000   1.008000   ; qtot 13.089272
  393         hx     14    bbb     H2    393 0.12219000   1.008000   ; qtot 13.211462
  394         c3     14    bbb     C2    394 -0.07020100  12.010000   ; qtot 13.141261
  395         hx     14    bbb     H3    395 0.12219000   1.008000   ; qtot 13.263451
  396         hx     14    bbb     H4    396 0.12219000   1.008000   ; qtot 13.385641
  397         c3     14    bbb     C3    397 -0.39007700  12.010000   ; qtot 12.995564
  398         hx     14    bbb     H5    398 0.14940300   1.008000   ; qtot 13.144967
  399         hx     14    bbb     H6    399 0.14940300   1.008000   ; qtot 13.294370
  400         c3     14    bbb     C4    400 0.18057300  12.010000   ; qtot 13.474943
  401         hc     14    bbb     H7    401 0.01788900   1.008000   ; qtot 13.492832
  402         hc     14    bbb     H8    402 0.01788900   1.008000   ; qtot 13.510721
  403         c3     14    bbb     C5    403 -0.11337700  12.010000   ; qtot 13.397344
  404         hc     14    bbb     H9    404 0.09515400   1.008000   ; qtot 13.492498
  405         hc     14    bbb    H10    405 0.09515400   1.008000   ; qtot 13.587652
  406         c3     14    bbb     C6    406 -0.11337700  12.010000   ; qtot 13.474275
  407         hc     14    bbb    H11    407 0.09515400   1.008000   ; qtot 13.569429
  408         hc     14    bbb    H12    408 0.09515400   1.008000   ; qtot 13.664583
  409         c3     14    bbb     C7    409 0.21842400  12.010000   ; qtot 13.883007
  410         h1     14    bbb    H13    410 0.04500300   1.008000   ; qtot 13.928010
  411         h1     14    bbb    H14    411 0.04500300   1.008000   ; qtot 13.973013
  412         c3     14    bbb     C8    412 -0.06455200  12.010000   ; qtot 13.908461
  413         h1     14    bbb    H15    413 0.13554100   1.008000   ; qtot 14.044002
  414         h1     14    bbb    H16    414 0.13554100   1.008000   ; qtot 14.179543
  415         c3     14    bbb     C9    415 -0.06455200  12.010000   ; qtot 14.114991
  416         h1     14    bbb    H17    416 0.13554100   1.008000   ; qtot 14.250532
  417         h1     14    bbb    H18    417 0.13554100   1.008000   ; qtot 14.386073
  418         os     14    bbb     O1    418 -0.62587700  16.000000   ; qtot 13.760196
  419         hn     14    bbb    H19    419 0.23982500   1.008000   ; qtot 14.000021
; residue   15 bbb rtp bbb q 1.0
  420         n4     15    bbb     N1    420 0.03726400  14.010000   ; qtot 14.037285
  421         c3     15    bbb     C1    421 -0.07020100  12.010000   ; qtot 13.967084
  422         hx     15    bbb     H1    422 0.12219000   1.008000   ; qtot 14.089274
  423         hx     15    bbb     H2    423 0.12219000   1.008000   ; qtot 14.211464
  424         c3     15    bbb     C2    424 -0.07020100  12.010000   ; qtot 14.141263
  425         hx     15    bbb     H3    425 0.12219000   1.008000   ; qtot 14.263453
  426         hx     15    bbb     H4    426 0.12219000   1.008000   ; qtot 14.385643
  427         c3     15    bbb     C3    427 -0.39007700  12.010000   ; qtot 13.995566
  428         hx     15    bbb     H5    428 0.14940300   1.008000   ; qtot 14.144969
  429         hx     15    bbb     H6    429 0.14940300   1.008000   ; qtot 14.294372
  430         c3     15    bbb     C4    430 0.18057300  12.010000   ; qtot 14.474945
  431         hc     15    bbb     H7    431 0.01788900   1.008000   ; qtot 14.492834
  432         hc     15    bbb     H8    432 0.01788900   1.008000   ; qtot 14.510723
  433         c3     15    bbb     C5    433 -0.11337700  12.010000   ; qtot 14.397346
  434         hc     15    bbb     H9    434 0.09515400   1.008000   ; qtot 14.492500
  435         hc     15    bbb    H10    435 0.09515400   1.008000   ; qtot 14.587654
  436         c3     15    bbb     C6    436 -0.11337700  12.010000   ; qtot 14.474277
  437         hc     15    bbb    H11    437 0.09515400   1.008000   ; qtot 14.569431
  438         hc     15    bbb    H12    438 0.09515400   1.008000   ; qtot 14.664585
  439         c3     15    bbb     C7    439 0.21842400  12.010000   ; qtot 14.883009
  440         h1     15    bbb    H13    440 0.04500300   1.008000   ; qtot 14.928012
  441         h1     15    bbb    H14    441 0.04500300   1.008000   ; qtot 14.973015
  442         c3     15    bbb     C8    442 -0.06455200  12.010000   ; qtot 14.908463
  443         h1     15    bbb    H15    443 0.13554100   1.008000   ; qtot 15.044004
  444         h1     15    bbb    H16    444 0.13554100   1.008000   ; qtot 15.179545
  445         c3     15    bbb     C9    445 -0.06455200  12.010000   ; qtot 15.114993
  446         h1     15    bbb    H17    446 0.13554100   1.008000   ; qtot 15.250534
  447         h1     15    bbb    H18    447 0.13554100   1.008000   ; qtot 15.386075
  448         os     15    bbb     O1    448 -0.62587700  16.000000   ; qtot 14.760198
  449         hn     15    bbb    H19    449 0.23982500   1.008000   ; qtot 15.000023
; residue   16 bbb rtp bbb q 1.0
  450         n4     16    bbb     N1    450 0.03726400  14.010000   ; qtot 15.037287
  451         c3     16    bbb     C1    451 -0.07020100  12.010000   ; qtot 14.967086
  452         hx     16    bbb     H1    452 0.12219000   1.008000   ; qtot 15.089276
  453         hx     16    bbb     H2    453 0.12219000   1.008000   ; qtot 15.211466
  454         c3     16    bbb     C2    454 -0.07020100  12.010000   ; qtot 15.141265
  455         hx     16    bbb     H3    455 0.12219000   1.008000   ; qtot 15.263455
  456         hx     16    bbb     H4    456 0.12219000   1.008000   ; qtot 15.385645
  457         c3     16    bbb     C3    457 -0.39007700  12.010000   ; qtot 14.995568
  458         hx     16    bbb     H5    458 0.14940300   1.008000   ; qtot 15.144971
  459         hx     16    bbb     H6    459 0.14940300   1.008000   ; qtot 15.294374
  460         c3     16    bbb     C4    460 0.18057300  12.010000   ; qtot 15.474947
  461         hc     16    bbb     H7    461 0.01788900   1.008000   ; qtot 15.492836
  462         hc     16    bbb     H8    462 0.01788900   1.008000   ; qtot 15.510725
  463         c3     16    bbb     C5    463 -0.11337700  12.010000   ; qtot 15.397348
  464         hc     16    bbb     H9    464 0.09515400   1.008000   ; qtot 15.492502
  465         hc     16    bbb    H10    465 0.09515400   1.008000   ; qtot 15.587656
  466         c3     16    bbb     C6    466 -0.11337700  12.010000   ; qtot 15.474279
  467         hc     16    bbb    H11    467 0.09515400   1.008000   ; qtot 15.569433
  468         hc     16    bbb    H12    468 0.09515400   1.008000   ; qtot 15.664587
  469         c3     16    bbb     C7    469 0.21842400  12.010000   ; qtot 15.883011
  470         h1     16    bbb    H13    470 0.04500300   1.008000   ; qtot 15.928014
  471         h1     16    bbb    H14    471 0.04500300   1.008000   ; qtot 15.973017
  472         c3     16    bbb     C8    472 -0.06455200  12.010000   ; qtot 15.908465
  473         h1     16    bbb    H15    473 0.13554100   1.008000   ; qtot 16.044006
  474         h1     16    bbb    H16    474 0.13554100   1.008000   ; qtot 16.179547
  475         c3     16    bbb     C9    475 -0.06455200  12.010000   ; qtot 16.114995
  476         h1     16    bbb    H17    476 0.13554100   1.008000   ; qtot 16.250536
  477         h1     16    bbb    H18    477 0.13554100   1.008000   ; qtot 16.386077
  478         os     16    bbb     O1    478 -0.62587700  16.000000   ; qtot 15.760200
  479         hn     16    bbb    H19    479 0.23982500   1.008000   ; qtot 16.000025
; residue   17 bbb rtp bbb q 1.0
  480         n4     17    bbb     N1    480 0.03726400  14.010000   ; qtot 16.037289
  481         c3     17    bbb     C1    481 -0.07020100  12.010000   ; qtot 15.967088
  482         hx     17    bbb     H1    482 0.12219000   1.008000   ; qtot 16.089278
  483         hx     17    bbb     H2    483 0.12219000   1.008000   ; qtot 16.211468
  484         c3     17    bbb     C2    484 -0.07020100  12.010000   ; qtot 16.141267
  485         hx     17    bbb     H3    485 0.12219000   1.008000   ; qtot 16.263457
  486         hx     17    bbb     H4    486 0.12219000   1.008000   ; qtot 16.385647
  487         c3     17    bbb     C3    487 -0.39007700  12.010000   ; qtot 15.995570
  488         hx     17    bbb     H5    488 0.14940300   1.008000   ; qtot 16.144973
  489         hx     17    bbb     H6    489 0.14940300   1.008000   ; qtot 16.294376
  490         c3     17    bbb     C4    490 0.18057300  12.010000   ; qtot 16.474949
  491         hc     17    bbb     H7    491 0.01788900   1.008000   ; qtot 16.492838
  492         hc     17    bbb     H8    492 0.01788900   1.008000   ; qtot 16.510727
  493         c3     17    bbb     C5    493 -0.11337700  12.010000   ; qtot 16.397350
  494         hc     17    bbb     H9    494 0.09515400   1.008000   ; qtot 16.492504
  495         hc     17    bbb    H10    495 0.09515400   1.008000   ; qtot 16.587658
  496         c3     17    bbb     C6    496 -0.11337700  12.010000   ; qtot 16.474281
  497         hc     17    bbb    H11    497 0.09515400   1.008000   ; qtot 16.569435
  498         hc     17    bbb    H12    498 0.09515400   1.008000   ; qtot 16.664589
  499         c3     17    bbb     C7    499 0.21842400  12.010000   ; qtot 16.883013
  500         h1     17    bbb    H13    500 0.04500300   1.008000   ; qtot 16.928016
  501         h1     17    bbb    H14    501 0.04500300   1.008000   ; qtot 16.973019
  502         c3     17    bbb     C8    502 -0.06455200  12.010000   ; qtot 16.908467
  503         h1     17    bbb    H15    503 0.13554100   1.008000   ; qtot 17.044008
  504         h1     17    bbb    H16    504 0.13554100   1.008000   ; qtot 17.179549
  505         c3     17    bbb     C9    505 -0.06455200  12.010000   ; qtot 17.114997
  506         h1     17    bbb    H17    506 0.13554100   1.008000   ; qtot 17.250538
  507         h1     17    bbb    H18    507 0.13554100   1.008000   ; qtot 17.386079
  508         os     17    bbb     O1    508 -0.62587700  16.000000   ; qtot 16.760202
  509         hn     17    bbb    H19    509 0.23982500   1.008000   ; qtot 17.000027
; residue   18 bbb rtp bbb q 1.0
  510         n4     18    bbb     N1    510 0.03726400  14.010000   ; qtot 17.037291
  511         c3     18    bbb     C1    511 -0.07020100  12.010000   ; qtot 16.967090
  512         hx     18    bbb     H1    512 0.12219000   1.008000   ; qtot 17.089280
  513         hx     18    bbb     H2    513 0.12219000   1.008000   ; qtot 17.211470
  514         c3     18    bbb     C2    514 -0.07020100  12.010000   ; qtot 17.141269
  515         hx     18    bbb     H3    515 0.12219000   1.008000   ; qtot 17.263459
  516         hx     18    bbb     H4    516 0.12219000   1.008000   ; qtot 17.385649
  517         c3     18    bbb     C3    517 -0.39007700  12.010000   ; qtot 16.995572
  518         hx     18    bbb     H5    518 0.14940300   1.008000   ; qtot 17.144975
  519         hx     18    bbb     H6    519 0.14940300   1.008000   ; qtot 17.294378
  520         c3     18    bbb     C4    520 0.18057300  12.010000   ; qtot 17.474951
  521         hc     18    bbb     H7    521 0.01788900   1.008000   ; qtot 17.492840
  522         hc     18    bbb     H8    522 0.01788900   1.008000   ; qtot 17.510729
  523         c3     18    bbb     C5    523 -0.11337700  12.010000   ; qtot 17.397352
  524         hc     18    bbb     H9    524 0.09515400   1.008000   ; qtot 17.492506
  525         hc     18    bbb    H10    525 0.09515400   1.008000   ; qtot 17.587660
  526         c3     18    bbb     C6    526 -0.11337700  12.010000   ; qtot 17.474283
  527         hc     18    bbb    H11    527 0.09515400   1.008000   ; qtot 17.569437
  528         hc     18    bbb    H12    528 0.09515400   1.008000   ; qtot 17.664591
  529         c3     18    bbb     C7    529 0.21842400  12.010000   ; qtot 17.883015
  530         h1     18    bbb    H13    530 0.04500300   1.008000   ; qtot 17.928018
  531         h1     18    bbb    H14    531 0.04500300   1.008000   ; qtot 17.973021
  532         c3     18    bbb     C8    532 -0.06455200  12.010000   ; qtot 17.908469
  533         h1     18    bbb    H15    533 0.13554100   1.008000   ; qtot 18.044010
  534         h1     18    bbb    H16    534 0.13554100   1.008000   ; qtot 18.179551
  535         c3     18    bbb     C9    535 -0.06455200  12.010000   ; qtot 18.114999
  536         h1     18    bbb    H17    536 0.13554100   1.008000   ; qtot 18.250540
  537         h1     18    bbb    H18    537 0.13554100   1.008000   ; qtot 18.386081
  538         os     18    bbb     O1    538 -0.62587700  16.000000   ; qtot 17.760204
  539         hn     18    bbb    H19    539 0.23982500   1.008000   ; qtot 18.000029
; residue   19 bbb rtp bbb q 1.0
  540         n4     19    bbb     N1    540 0.03726400  14.010000   ; qtot 18.037293
  541         c3     19    bbb     C1    541 -0.07020100  12.010000   ; qtot 17.967092
  542         hx     19    bbb     H1    542 0.12219000   1.008000   ; qtot 18.089282
  543         hx     19    bbb     H2    543 0.12219000   1.008000   ; qtot 18.211472
  544         c3     19    bbb     C2    544 -0.07020100  12.010000   ; qtot 18.141271
  545         hx     19    bbb     H3    545 0.12219000   1.008000   ; qtot 18.263461
  546         hx     19    bbb     H4    546 0.12219000   1.008000   ; qtot 18.385651
  547         c3     19    bbb     C3    547 -0.39007700  12.010000   ; qtot 17.995574
  548         hx     19    bbb     H5    548 0.14940300   1.008000   ; qtot 18.144977
  549         hx     19    bbb     H6    549 0.14940300   1.008000   ; qtot 18.294380
  550         c3     19    bbb     C4    550 0.18057300  12.010000   ; qtot 18.474953
  551         hc     19    bbb     H7    551 0.01788900   1.008000   ; qtot 18.492842
  552         hc     19    bbb     H8    552 0.01788900   1.008000   ; qtot 18.510731
  553         c3     19    bbb     C5    553 -0.11337700  12.010000   ; qtot 18.397354
  554         hc     19    bbb     H9    554 0.09515400   1.008000   ; qtot 18.492508
  555         hc     19    bbb    H10    555 0.09515400   1.008000   ; qtot 18.587662
  556         c3     19    bbb     C6    556 -0.11337700  12.010000   ; qtot 18.474285
  557         hc     19    bbb    H11    557 0.09515400   1.008000   ; qtot 18.569439
  558         hc     19    bbb    H12    558 0.09515400   1.008000   ; qtot 18.664593
  559         c3     19    bbb     C7    559 0.21842400  12.010000   ; qtot 18.883017
  560         h1     19    bbb    H13    560 0.04500300   1.008000   ; qtot 18.928020
  561         h1     19    bbb    H14    561 0.04500300   1.008000   ; qtot 18.973023
  562         c3     19    bbb     C8    562 -0.06455200  12.010000   ; qtot 18.908471
  563         h1     19    bbb    H15    563 0.13554100   1.008000   ; qtot 19.044012
  564         h1     19    bbb    H16    564 0.13554100   1.008000   ; qtot 19.179553
  565         c3     19    bbb     C9    565 -0.06455200  12.010000   ; qtot 19.115001
  566         h1     19    bbb    H17    566 0.13554100   1.008000   ; qtot 19.250542
  567         h1     19    bbb    H18    567 0.13554100   1.008000   ; qtot 19.386083
  568         os     19    bbb     O1    568 -0.62587700  16.000000   ; qtot 18.760206
  569         hn     19    bbb    H19    569 0.23982500   1.008000   ; qtot 19.000031
; residue   20 bbb rtp bbb q 1.0
  570         n4     20    bbb     N1    570 0.03726400  14.010000   ; qtot 19.037295
  571         c3     20    bbb     C1    571 -0.07020100  12.010000   ; qtot 18.967094
  572         hx     20    bbb     H1    572 0.12219000   1.008000   ; qtot 19.089284
  573         hx     20    bbb     H2    573 0.12219000   1.008000   ; qtot 19.211474
  574         c3     20    bbb     C2    574 -0.07020100  12.010000   ; qtot 19.141273
  575         hx     20    bbb     H3    575 0.12219000   1.008000   ; qtot 19.263463
  576         hx     20    bbb     H4    576 0.12219000   1.008000   ; qtot 19.385653
  577         c3     20    bbb     C3    577 -0.39007700  12.010000   ; qtot 18.995576
  578         hx     20    bbb     H5    578 0.14940300   1.008000   ; qtot 19.144979
  579         hx     20    bbb     H6    579 0.14940300   1.008000   ; qtot 19.294382
  580         c3     20    bbb     C4    580 0.18057300  12.010000   ; qtot 19.474955
  581         hc     20    bbb     H7    581 0.01788900   1.008000   ; qtot 19.492844
  582         hc     20    bbb     H8    582 0.01788900   1.008000   ; qtot 19.510733
  583         c3     20    bbb     C5    583 -0.11337700  12.010000   ; qtot 19.397356
  584         hc     20    bbb     H9    584 0.09515400   1.008000   ; qtot 19.492510
  585         hc     20    bbb    H10    585 0.09515400   1.008000   ; qtot 19.587664
  586         c3     20    bbb     C6    586 -0.11337700  12.010000   ; qtot 19.474287
  587         hc     20    bbb    H11    587 0.09515400   1.008000   ; qtot 19.569441
  588         hc     20    bbb    H12    588 0.09515400   1.008000   ; qtot 19.664595
  589         c3     20    bbb     C7    589 0.21842400  12.010000   ; qtot 19.883019
  590         h1     20    bbb    H13    590 0.04500300   1.008000   ; qtot 19.928022
  591         h1     20    bbb    H14    591 0.04500300   1.008000   ; qtot 19.973025
  592         c3     20    bbb     C8    592 -0.06455200  12.010000   ; qtot 19.908473
  593         h1     20    bbb    H15    593 0.13554100   1.008000   ; qtot 20.044014
  594         h1     20    bbb    H16    594 0.13554100   1.008000   ; qtot 20.179555
  595         c3     20    bbb     C9    595 -0.06455200  12.010000   ; qtot 20.115003
  596         h1     20    bbb    H17    596 0.13554100   1.008000   ; qtot 20.250544
  597         h1     20    bbb    H18    597 0.13554100   1.008000   ; qtot 20.386085
  598         os     20    bbb     O1    598 -0.62587700  16.000000   ; qtot 19.760208
  599         hn     20    bbb    H19    599 0.23982500   1.008000   ; qtot 20.000033
; residue   21 bbb rtp bbb q 1.0
  600         n4     21    bbb     N1    600 0.03726400  14.010000   ; qtot 20.037297
  601         c3     21    bbb     C1    601 -0.07020100  12.010000   ; qtot 19.967096
  602         hx     21    bbb     H1    602 0.12219000   1.008000   ; qtot 20.089286
  603         hx     21    bbb     H2    603 0.12219000   1.008000   ; qtot 20.211476
  604         c3     21    bbb     C2    604 -0.07020100  12.010000   ; qtot 20.141275
  605         hx     21    bbb     H3    605 0.12219000   1.008000   ; qtot 20.263465
  606         hx     21    bbb     H4    606 0.12219000   1.008000   ; qtot 20.385655
  607         c3     21    bbb     C3    607 -0.39007700  12.010000   ; qtot 19.995578
  608         hx     21    bbb     H5    608 0.14940300   1.008000   ; qtot 20.144981
  609         hx     21    bbb     H6    609 0.14940300   1.008000   ; qtot 20.294384
  610         c3     21    bbb     C4    610 0.18057300  12.010000   ; qtot 20.474957
  611         hc     21    bbb     H7    611 0.01788900   1.008000   ; qtot 20.492846
  612         hc     21    bbb     H8    612 0.01788900   1.008000   ; qtot 20.510735
  613         c3     21    bbb     C5    613 -0.11337700  12.010000   ; qtot 20.397358
  614         hc     21    bbb     H9    614 0.09515400   1.008000   ; qtot 20.492512
  615         hc     21    bbb    H10    615 0.09515400   1.008000   ; qtot 20.587666
  616         c3     21    bbb     C6    616 -0.11337700  12.010000   ; qtot 20.474289
  617         hc     21    bbb    H11    617 0.09515400   1.008000   ; qtot 20.569443
  618         hc     21    bbb    H12    618 0.09515400   1.008000   ; qtot 20.664597
  619         c3     21    bbb     C7    619 0.21842400  12.010000   ; qtot 20.883021
  620         h1     21    bbb    H13    620 0.04500300   1.008000   ; qtot 20.928024
  621         h1     21    bbb    H14    621 0.04500300   1.008000   ; qtot 20.973027
  622         c3     21    bbb     C8    622 -0.06455200  12.010000   ; qtot 20.908475
  623         h1     21    bbb    H15    623 0.13554100   1.008000   ; qtot 21.044016
  624         h1     21    bbb    H16    624 0.13554100   1.008000   ; qtot 21.179557
  625         c3     21    bbb     C9    625 -0.06455200  12.010000   ; qtot 21.115005
  626         h1     21    bbb    H17    626 0.13554100   1.008000   ; qtot 21.250546
  627         h1     21    bbb    H18    627 0.13554100   1.008000   ; qtot 21.386087
  628         os     21    bbb     O1    628 -0.62587700  16.000000   ; qtot 20.760210
  629         hn     21    bbb    H19    629 0.23982500   1.008000   ; qtot 21.000035
; residue   22 bbb rtp bbb q 1.0
  630         n4     22    bbb     N1    630 0.03726400  14.010000   ; qtot 21.037299
  631         c3     22    bbb     C1    631 -0.07020100  12.010000   ; qtot 20.967098
  632         hx     22    bbb     H1    632 0.12219000   1.008000   ; qtot 21.089288
  633         hx     22    bbb     H2    633 0.12219000   1.008000   ; qtot 21.211478
  634         c3     22    bbb     C2    634 -0.07020100  12.010000   ; qtot 21.141277
  635         hx     22    bbb     H3    635 0.12219000   1.008000   ; qtot 21.263467
  636         hx     22    bbb     H4    636 0.12219000   1.008000   ; qtot 21.385657
  637         c3     22    bbb     C3    637 -0.39007700  12.010000   ; qtot 20.995580
  638         hx     22    bbb     H5    638 0.14940300   1.008000   ; qtot 21.144983
  639         hx     22    bbb     H6    639 0.14940300   1.008000   ; qtot 21.294386
  640         c3     22    bbb     C4    640 0.18057300  12.010000   ; qtot 21.474959
  641         hc     22    bbb     H7    641 0.01788900   1.008000   ; qtot 21.492848
  642         hc     22    bbb     H8    642 0.01788900   1.008000   ; qtot 21.510737
  643         c3     22    bbb     C5    643 -0.11337700  12.010000   ; qtot 21.397360
  644         hc     22    bbb     H9    644 0.09515400   1.008000   ; qtot 21.492514
  645         hc     22    bbb    H10    645 0.09515400   1.008000   ; qtot 21.587668
  646         c3     22    bbb     C6    646 -0.11337700  12.010000   ; qtot 21.474291
  647         hc     22    bbb    H11    647 0.09515400   1.008000   ; qtot 21.569445
  648         hc     22    bbb    H12    648 0.09515400   1.008000   ; qtot 21.664599
  649         c3     22    bbb     C7    649 0.21842400  12.010000   ; qtot 21.883023
  650         h1     22    bbb    H13    650 0.04500300   1.008000   ; qtot 21.928026
  651         h1     22    bbb    H14    651 0.04500300   1.008000   ; qtot 21.973029
  652         c3     22    bbb     C8    652 -0.06455200  12.010000   ; qtot 21.908477
  653         h1     22    bbb    H15    653 0.13554100   1.008000   ; qtot 22.044018
  654         h1     22    bbb    H16    654 0.13554100   1.008000   ; qtot 22.179559
  655         c3     22    bbb     C9    655 -0.06455200  12.010000   ; qtot 22.115007
  656         h1     22    bbb    H17    656 0.13554100   1.008000   ; qtot 22.250548
  657         h1     22    bbb    H18    657 0.13554100   1.008000   ; qtot 22.386089
  658         os     22    bbb     O1    658 -0.62587700  16.000000   ; qtot 21.760212
  659         hn     22    bbb    H19    659 0.23982500   1.008000   ; qtot 22.000037
; residue   23 bbb rtp bbb q 1.0
  660         n4     23    bbb     N1    660 0.03726400  14.010000   ; qtot 22.037301
  661         c3     23    bbb     C1    661 -0.07020100  12.010000   ; qtot 21.967100
  662         hx     23    bbb     H1    662 0.12219000   1.008000   ; qtot 22.089290
  663         hx     23    bbb     H2    663 0.12219000   1.008000   ; qtot 22.211480
  664         c3     23    bbb     C2    664 -0.07020100  12.010000   ; qtot 22.141279
  665         hx     23    bbb     H3    665 0.12219000   1.008000   ; qtot 22.263469
  666         hx     23    bbb     H4    666 0.12219000   1.008000   ; qtot 22.385659
  667         c3     23    bbb     C3    667 -0.39007700  12.010000   ; qtot 21.995582
  668         hx     23    bbb     H5    668 0.14940300   1.008000   ; qtot 22.144985
  669         hx     23    bbb     H6    669 0.14940300   1.008000   ; qtot 22.294388
  670         c3     23    bbb     C4    670 0.18057300  12.010000   ; qtot 22.474961
  671         hc     23    bbb     H7    671 0.01788900   1.008000   ; qtot 22.492850
  672         hc     23    bbb     H8    672 0.01788900   1.008000   ; qtot 22.510739
  673         c3     23    bbb     C5    673 -0.11337700  12.010000   ; qtot 22.397362
  674         hc     23    bbb     H9    674 0.09515400   1.008000   ; qtot 22.492516
  675         hc     23    bbb    H10    675 0.09515400   1.008000   ; qtot 22.587670
  676         c3     23    bbb     C6    676 -0.11337700  12.010000   ; qtot 22.474293
  677         hc     23    bbb    H11    677 0.09515400   1.008000   ; qtot 22.569447
  678         hc     23    bbb    H12    678 0.09515400   1.008000   ; qtot 22.664601
  679         c3     23    bbb     C7    679 0.21842400  12.010000   ; qtot 22.883025
  680         h1     23    bbb    H13    680 0.04500300   1.008000   ; qtot 22.928028
  681         h1     23    bbb    H14    681 0.04500300   1.008000   ; qtot 22.973031
  682         c3     23    bbb     C8    682 -0.06455200  12.010000   ; qtot 22.908479
  683         h1     23    bbb    H15    683 0.13554100   1.008000   ; qtot 23.044020
  684         h1     23    bbb    H16    684 0.13554100   1.008000   ; qtot 23.179561
  685         c3     23    bbb     C9    685 -0.06455200  12.010000   ; qtot 23.115009
  686         h1     23    bbb    H17    686 0.13554100   1.008000   ; qtot 23.250550
  687         h1     23    bbb    H18    687 0.13554100   1.008000   ; qtot 23.386091
  688         os     23    bbb     O1    688 -0.62587700  16.000000   ; qtot 22.760214
  689         hn     23    bbb    H19    689 0.23982500   1.008000   ; qtot 23.000039
; residue   24 bbb rtp bbb q 1.0
  690         n4     24    bbb     N1    690 0.03726400  14.010000   ; qtot 23.037303
  691         c3     24    bbb     C1    691 -0.07020100  12.010000   ; qtot 22.967102
  692         hx     24    bbb     H1    692 0.12219000   1.008000   ; qtot 23.089292
  693         hx     24    bbb     H2    693 0.12219000   1.008000   ; qtot 23.211482
  694         c3     24    bbb     C2    694 -0.07020100  12.010000   ; qtot 23.141281
  695         hx     24    bbb     H3    695 0.12219000   1.008000   ; qtot 23.263471
  696         hx     24    bbb     H4    696 0.12219000   1.008000   ; qtot 23.385661
  697         c3     24    bbb     C3    697 -0.39007700  12.010000   ; qtot 22.995584
  698         hx     24    bbb     H5    698 0.14940300   1.008000   ; qtot 23.144987
  699         hx     24    bbb     H6    699 0.14940300   1.008000   ; qtot 23.294390
  700         c3     24    bbb     C4    700 0.18057300  12.010000   ; qtot 23.474963
  701         hc     24    bbb     H7    701 0.01788900   1.008000   ; qtot 23.492852
  702         hc     24    bbb     H8    702 0.01788900   1.008000   ; qtot 23.510741
  703         c3     24    bbb     C5    703 -0.11337700  12.010000   ; qtot 23.397364
  704         hc     24    bbb     H9    704 0.09515400   1.008000   ; qtot 23.492518
  705         hc     24    bbb    H10    705 0.09515400   1.008000   ; qtot 23.587672
  706         c3     24    bbb     C6    706 -0.11337700  12.010000   ; qtot 23.474295
  707         hc     24    bbb    H11    707 0.09515400   1.008000   ; qtot 23.569449
  708         hc     24    bbb    H12    708 0.09515400   1.008000   ; qtot 23.664603
  709         c3     24    bbb     C7    709 0.21842400  12.010000   ; qtot 23.883027
  710         h1     24    bbb    H13    710 0.04500300   1.008000   ; qtot 23.928030
  711         h1     24    bbb    H14    711 0.04500300   1.008000   ; qtot 23.973033
  712         c3     24    bbb     C8    712 -0.06455200  12.010000   ; qtot 23.908481
  713         h1     24    bbb    H15    713 0.13554100   1.008000   ; qtot 24.044022
  714         h1     24    bbb    H16    714 0.13554100   1.008000   ; qtot 24.179563
  715         c3     24    bbb     C9    715 -0.06455200  12.010000   ; qtot 24.115011
  716         h1     24    bbb    H17    716 0.13554100   1.008000   ; qtot 24.250552
  717         h1     24    bbb    H18    717 0.13554100   1.008000   ; qtot 24.386093
  718         os     24    bbb     O1    718 -0.62587700  16.000000   ; qtot 23.760216
  719         hn     24    bbb    H19    719 0.23982500   1.008000   ; qtot 24.000041
; residue   25 bbb rtp bbb q 1.0
  720         n4     25    bbb     N1    720 0.03726400  14.010000   ; qtot 24.037305
  721         c3     25    bbb     C1    721 -0.07020100  12.010000   ; qtot 23.967104
  722         hx     25    bbb     H1    722 0.12219000   1.008000   ; qtot 24.089294
  723         hx     25    bbb     H2    723 0.12219000   1.008000   ; qtot 24.211484
  724         c3     25    bbb     C2    724 -0.07020100  12.010000   ; qtot 24.141283
  725         hx     25    bbb     H3    725 0.12219000   1.008000   ; qtot 24.263473
  726         hx     25    bbb     H4    726 0.12219000   1.008000   ; qtot 24.385663
  727         c3     25    bbb     C3    727 -0.39007700  12.010000   ; qtot 23.995586
  728         hx     25    bbb     H5    728 0.14940300   1.008000   ; qtot 24.144989
  729         hx     25    bbb     H6    729 0.14940300   1.008000   ; qtot 24.294392
  730         c3     25    bbb     C4    730 0.18057300  12.010000   ; qtot 24.474965
  731         hc     25    bbb     H7    731 0.01788900   1.008000   ; qtot 24.492854
  732         hc     25    bbb     H8    732 0.01788900   1.008000   ; qtot 24.510743
  733         c3     25    bbb     C5    733 -0.11337700  12.010000   ; qtot 24.397366
  734         hc     25    bbb     H9    734 0.09515400   1.008000   ; qtot 24.492520
  735         hc     25    bbb    H10    735 0.09515400   1.008000   ; qtot 24.587674
  736         c3     25    bbb     C6    736 -0.11337700  12.010000   ; qtot 24.474297
  737         hc     25    bbb    H11    737 0.09515400   1.008000   ; qtot 24.569451
  738         hc     25    bbb    H12    738 0.09515400   1.008000   ; qtot 24.664605
  739         c3     25    bbb     C7    739 0.21842400  12.010000   ; qtot 24.883029
  740         h1     25    bbb    H13    740 0.04500300   1.008000   ; qtot 24.928032
  741         h1     25    bbb    H14    741 0.04500300   1.008000   ; qtot 24.973035
  742         c3     25    bbb     C8    742 -0.06455200  12.010000   ; qtot 24.908483
  743         h1     25    bbb    H15    743 0.13554100   1.008000   ; qtot 25.044024
  744         h1     25    bbb    H16    744 0.13554100   1.008000   ; qtot 25.179565
  745         c3     25    bbb     C9    745 -0.06455200  12.010000   ; qtot 25.115013
  746         h1     25    bbb    H17    746 0.13554100   1.008000   ; qtot 25.250554
  747         h1     25    bbb    H18    747 0.13554100   1.008000   ; qtot 25.386095
  748         os     25    bbb     O1    748 -0.62587700  16.000000   ; qtot 24.760218
  749         hn     25    bbb    H19    749 0.23982500   1.008000   ; qtot 25.000043
; residue   26 bbb rtp bbb q 1.0
  750         n4     26    bbb     N1    750 0.03726400  14.010000   ; qtot 25.037307
  751         c3     26    bbb     C1    751 -0.07020100  12.010000   ; qtot 24.967106
  752         hx     26    bbb     H1    752 0.12219000   1.008000   ; qtot 25.089296
  753         hx     26    bbb     H2    753 0.12219000   1.008000   ; qtot 25.211486
  754         c3     26    bbb     C2    754 -0.07020100  12.010000   ; qtot 25.141285
  755         hx     26    bbb     H3    755 0.12219000   1.008000   ; qtot 25.263475
  756         hx     26    bbb     H4    756 0.12219000   1.008000   ; qtot 25.385665
  757         c3     26    bbb     C3    757 -0.39007700  12.010000   ; qtot 24.995588
  758         hx     26    bbb     H5    758 0.14940300   1.008000   ; qtot 25.144991
  759         hx     26    bbb     H6    759 0.14940300   1.008000   ; qtot 25.294394
  760         c3     26    bbb     C4    760 0.18057300  12.010000   ; qtot 25.474967
  761         hc     26    bbb     H7    761 0.01788900   1.008000   ; qtot 25.492856
  762         hc     26    bbb     H8    762 0.01788900   1.008000   ; qtot 25.510745
  763         c3     26    bbb     C5    763 -0.11337700  12.010000   ; qtot 25.397368
  764         hc     26    bbb     H9    764 0.09515400   1.008000   ; qtot 25.492522
  765         hc     26    bbb    H10    765 0.09515400   1.008000   ; qtot 25.587676
  766         c3     26    bbb     C6    766 -0.11337700  12.010000   ; qtot 25.474299
  767         hc     26    bbb    H11    767 0.09515400   1.008000   ; qtot 25.569453
  768         hc     26    bbb    H12    768 0.09515400   1.008000   ; qtot 25.664607
  769         c3     26    bbb     C7    769 0.21842400  12.010000   ; qtot 25.883031
  770         h1     26    bbb    H13    770 0.04500300   1.008000   ; qtot 25.928034
  771         h1     26    bbb    H14    771 0.04500300   1.008000   ; qtot 25.973037
  772         c3     26    bbb     C8    772 -0.06455200  12.010000   ; qtot 25.908485
  773         h1     26    bbb    H15    773 0.13554100   1.008000   ; qtot 26.044026
  774         h1     26    bbb    H16    774 0.13554100   1.008000   ; qtot 26.179567
  775         c3     26    bbb     C9    775 -0.06455200  12.010000   ; qtot 26.115015
  776         h1     26    bbb    H17    776 0.13554100   1.008000   ; qtot 26.250556
  777         h1     26    bbb    H18    777 0.13554100   1.008000   ; qtot 26.386097
  778         os     26    bbb     O1    778 -0.62587700  16.000000   ; qtot 25.760220
  779         hn     26    bbb    H19    779 0.23982500   1.008000   ; qtot 26.000045
; residue   27 bbb rtp bbb q 1.0
  780         n4     27    bbb     N1    780 0.03726400  14.010000   ; qtot 26.037309
  781         c3     27    bbb     C1    781 -0.07020100  12.010000   ; qtot 25.967108
  782         hx     27    bbb     H1    782 0.12219000   1.008000   ; qtot 26.089298
  783         hx     27    bbb     H2    783 0.12219000   1.008000   ; qtot 26.211488
  784         c3     27    bbb     C2    784 -0.07020100  12.010000   ; qtot 26.141287
  785         hx     27    bbb     H3    785 0.12219000   1.008000   ; qtot 26.263477
  786         hx     27    bbb     H4    786 0.12219000   1.008000   ; qtot 26.385667
  787         c3     27    bbb     C3    787 -0.39007700  12.010000   ; qtot 25.995590
  788         hx     27    bbb     H5    788 0.14940300   1.008000   ; qtot 26.144993
  789         hx     27    bbb     H6    789 0.14940300   1.008000   ; qtot 26.294396
  790         c3     27    bbb     C4    790 0.18057300  12.010000   ; qtot 26.474969
  791         hc     27    bbb     H7    791 0.01788900   1.008000   ; qtot 26.492858
  792         hc     27    bbb     H8    792 0.01788900   1.008000   ; qtot 26.510747
  793         c3     27    bbb     C5    793 -0.11337700  12.010000   ; qtot 26.397370
  794         hc     27    bbb     H9    794 0.09515400   1.008000   ; qtot 26.492524
  795         hc     27    bbb    H10    795 0.09515400   1.008000   ; qtot 26.587678
  796         c3     27    bbb     C6    796 -0.11337700  12.010000   ; qtot 26.474301
  797         hc     27    bbb    H11    797 0.09515400   1.008000   ; qtot 26.569455
  798         hc     27    bbb    H12    798 0.09515400   1.008000   ; qtot 26.664609
  799         c3     27    bbb     C7    799 0.21842400  12.010000   ; qtot 26.883033
  800         h1     27    bbb    H13    800 0.04500300   1.008000   ; qtot 26.928036
  801         h1     27    bbb    H14    801 0.04500300   1.008000   ; qtot 26.973039
  802         c3     27    bbb     C8    802 -0.06455200  12.010000   ; qtot 26.908487
  803         h1     27    bbb    H15    803 0.13554100   1.008000   ; qtot 27.044028
  804         h1     27    bbb    H16    804 0.13554100   1.008000   ; qtot 27.179569
  805         c3     27    bbb     C9    805 -0.06455200  12.010000   ; qtot 27.115017
  806         h1     27    bbb    H17    806 0.13554100   1.008000   ; qtot 27.250558
  807         h1     27    bbb    H18    807 0.13554100   1.008000   ; qtot 27.386099
  808         os     27    bbb     O1    808 -0.62587700  16.000000   ; qtot 26.760222
  809         hn     27    bbb    H19    809 0.23982500   1.008000   ; qtot 27.000047
; residue   28 bbb rtp bbb q 1.0
  810         n4     28    bbb     N1    810 0.03726400  14.010000   ; qtot 27.037311
  811         c3     28    bbb     C1    811 -0.07020100  12.010000   ; qtot 26.967110
  812         hx     28    bbb     H1    812 0.12219000   1.008000   ; qtot 27.089300
  813         hx     28    bbb     H2    813 0.12219000   1.008000   ; qtot 27.211490
  814         c3     28    bbb     C2    814 -0.07020100  12.010000   ; qtot 27.141289
  815         hx     28    bbb     H3    815 0.12219000   1.008000   ; qtot 27.263479
  816         hx     28    bbb     H4    816 0.12219000   1.008000   ; qtot 27.385669
  817         c3     28    bbb     C3    817 -0.39007700  12.010000   ; qtot 26.995592
  818         hx     28    bbb     H5    818 0.14940300   1.008000   ; qtot 27.144995
  819         hx     28    bbb     H6    819 0.14940300   1.008000   ; qtot 27.294398
  820         c3     28    bbb     C4    820 0.18057300  12.010000   ; qtot 27.474971
  821         hc     28    bbb     H7    821 0.01788900   1.008000   ; qtot 27.492860
  822         hc     28    bbb     H8    822 0.01788900   1.008000   ; qtot 27.510749
  823         c3     28    bbb     C5    823 -0.11337700  12.010000   ; qtot 27.397372
  824         hc     28    bbb     H9    824 0.09515400   1.008000   ; qtot 27.492526
  825         hc     28    bbb    H10    825 0.09515400   1.008000   ; qtot 27.587680
  826         c3     28    bbb     C6    826 -0.11337700  12.010000   ; qtot 27.474303
  827         hc     28    bbb    H11    827 0.09515400   1.008000   ; qtot 27.569457
  828         hc     28    bbb    H12    828 0.09515400   1.008000   ; qtot 27.664611
  829         c3     28    bbb     C7    829 0.21842400  12.010000   ; qtot 27.883035
  830         h1     28    bbb    H13    830 0.04500300   1.008000   ; qtot 27.928038
  831         h1     28    bbb    H14    831 0.04500300   1.008000   ; qtot 27.973041
  832         c3     28    bbb     C8    832 -0.06455200  12.010000   ; qtot 27.908489
  833         h1     28    bbb    H15    833 0.13554100   1.008000   ; qtot 28.044030
  834         h1     28    bbb    H16    834 0.13554100   1.008000   ; qtot 28.179571
  835         c3     28    bbb     C9    835 -0.06455200  12.010000   ; qtot 28.115019
  836         h1     28    bbb    H17    836 0.13554100   1.008000   ; qtot 28.250560
  837         h1     28    bbb    H18    837 0.13554100   1.008000   ; qtot 28.386101
  838         os     28    bbb     O1    838 -0.62587700  16.000000   ; qtot 27.760224
  839         hn     28    bbb    H19    839 0.23982500   1.008000   ; qtot 28.000049
; residue   29 bbb rtp bbb q 1.0
  840         n4     29    bbb     N1    840 0.03726400  14.010000   ; qtot 28.037313
  841         c3     29    bbb     C1    841 -0.07020100  12.010000   ; qtot 27.967112
  842         hx     29    bbb     H1    842 0.12219000   1.008000   ; qtot 28.089302
  843         hx     29    bbb     H2    843 0.12219000   1.008000   ; qtot 28.211492
  844         c3     29    bbb     C2    844 -0.07020100  12.010000   ; qtot 28.141291
  845         hx     29    bbb     H3    845 0.12219000   1.008000   ; qtot 28.263481
  846         hx     29    bbb     H4    846 0.12219000   1.008000   ; qtot 28.385671
  847         c3     29    bbb     C3    847 -0.39007700  12.010000   ; qtot 27.995594
  848         hx     29    bbb     H5    848 0.14940300   1.008000   ; qtot 28.144997
  849         hx     29    bbb     H6    849 0.14940300   1.008000   ; qtot 28.294400
  850         c3     29    bbb     C4    850 0.18057300  12.010000   ; qtot 28.474973
  851         hc     29    bbb     H7    851 0.01788900   1.008000   ; qtot 28.492862
  852         hc     29    bbb     H8    852 0.01788900   1.008000   ; qtot 28.510751
  853         c3     29    bbb     C5    853 -0.11337700  12.010000   ; qtot 28.397374
  854         hc     29    bbb     H9    854 0.09515400   1.008000   ; qtot 28.492528
  855         hc     29    bbb    H10    855 0.09515400   1.008000   ; qtot 28.587682
  856         c3     29    bbb     C6    856 -0.11337700  12.010000   ; qtot 28.474305
  857         hc     29    bbb    H11    857 0.09515400   1.008000   ; qtot 28.569459
  858         hc     29    bbb    H12    858 0.09515400   1.008000   ; qtot 28.664613
  859         c3     29    bbb     C7    859 0.21842400  12.010000   ; qtot 28.883037
  860         h1     29    bbb    H13    860 0.04500300   1.008000   ; qtot 28.928040
  861         h1     29    bbb    H14    861 0.04500300   1.008000   ; qtot 28.973043
  862         c3     29    bbb     C8    862 -0.06455200  12.010000   ; qtot 28.908491
  863         h1     29    bbb    H15    863 0.13554100   1.008000   ; qtot 29.044032
  864         h1     29    bbb    H16    864 0.13554100   1.008000   ; qtot 29.179573
  865         c3     29    bbb     C9    865 -0.06455200  12.010000   ; qtot 29.115021
  866         h1     29    bbb    H17    866 0.13554100   1.008000   ; qtot 29.250562
  867         h1     29    bbb    H18    867 0.13554100   1.008000   ; qtot 29.386103
  868         os     29    bbb     O1    868 -0.62587700  16.000000   ; qtot 28.760226
  869         hn     29    bbb    H19    869 0.23982500   1.008000   ; qtot 29.000051
; residue   30 bbb rtp bbb q 1.0
  870         n4     30    bbb     N1    870 0.03726400  14.010000   ; qtot 29.037315
  871         c3     30    bbb     C1    871 -0.07020100  12.010000   ; qtot 28.967114
  872         hx     30    bbb     H1    872 0.12219000   1.008000   ; qtot 29.089304
  873         hx     30    bbb     H2    873 0.12219000   1.008000   ; qtot 29.211494
  874         c3     30    bbb     C2    874 -0.07020100  12.010000   ; qtot 29.141293
  875         hx     30    bbb     H3    875 0.12219000   1.008000   ; qtot 29.263483
  876         hx     30    bbb     H4    876 0.12219000   1.008000   ; qtot 29.385673
  877         c3     30    bbb     C3    877 -0.39007700  12.010000   ; qtot 28.995596
  878         hx     30    bbb     H5    878 0.14940300   1.008000   ; qtot 29.144999
  879         hx     30    bbb     H6    879 0.14940300   1.008000   ; qtot 29.294402
  880         c3     30    bbb     C4    880 0.18057300  12.010000   ; qtot 29.474975
  881         hc     30    bbb     H7    881 0.01788900   1.008000   ; qtot 29.492864
  882         hc     30    bbb     H8    882 0.01788900   1.008000   ; qtot 29.510753
  883         c3     30    bbb     C5    883 -0.11337700  12.010000   ; qtot 29.397376
  884         hc     30    bbb     H9    884 0.09515400   1.008000   ; qtot 29.492530
  885         hc     30    bbb    H10    885 0.09515400   1.008000   ; qtot 29.587684
  886         c3     30    bbb     C6    886 -0.11337700  12.010000   ; qtot 29.474307
  887         hc     30    bbb    H11    887 0.09515400   1.008000   ; qtot 29.569461
  888         hc     30    bbb    H12    888 0.09515400   1.008000   ; qtot 29.664615
  889         c3     30    bbb     C7    889 0.21842400  12.010000   ; qtot 29.883039
  890         h1     30    bbb    H13    890 0.04500300   1.008000   ; qtot 29.928042
  891         h1     30    bbb    H14    891 0.04500300   1.008000   ; qtot 29.973045
  892         c3     30    bbb     C8    892 -0.06455200  12.010000   ; qtot 29.908493
  893         h1     30    bbb    H15    893 0.13554100   1.008000   ; qtot 30.044034
  894         h1     30    bbb    H16    894 0.13554100   1.008000   ; qtot 30.179575
  895         c3     30    bbb     C9    895 -0.06455200  12.010000   ; qtot 30.115023
  896         h1     30    bbb    H17    896 0.13554100   1.008000   ; qtot 30.250564
  897         h1     30    bbb    H18    897 0.13554100   1.008000   ; qtot 30.386105
  898         os     30    bbb     O1    898 -0.62587700  16.000000   ; qtot 29.760228
  899         hn     30    bbb    H19    899 0.23982500   1.008000   ; qtot 30.000053
; residue   31 bbb rtp bbb q 1.0
  900         n4     31    bbb     N1    900 0.03726400  14.010000   ; qtot 30.037317
  901         c3     31    bbb     C1    901 -0.07020100  12.010000   ; qtot 29.967116
  902         hx     31    bbb     H1    902 0.12219000   1.008000   ; qtot 30.089306
  903         hx     31    bbb     H2    903 0.12219000   1.008000   ; qtot 30.211496
  904         c3     31    bbb     C2    904 -0.07020100  12.010000   ; qtot 30.141295
  905         hx     31    bbb     H3    905 0.12219000   1.008000   ; qtot 30.263485
  906         hx     31    bbb     H4    906 0.12219000   1.008000   ; qtot 30.385675
  907         c3     31    bbb     C3    907 -0.39007700  12.010000   ; qtot 29.995598
  908         hx     31    bbb     H5    908 0.14940300   1.008000   ; qtot 30.145001
  909         hx     31    bbb     H6    909 0.14940300   1.008000   ; qtot 30.294404
  910         c3     31    bbb     C4    910 0.18057300  12.010000   ; qtot 30.474977
  911         hc     31    bbb     H7    911 0.01788900   1.008000   ; qtot 30.492866
  912         hc     31    bbb     H8    912 0.01788900   1.008000   ; qtot 30.510755
  913         c3     31    bbb     C5    913 -0.11337700  12.010000   ; qtot 30.397378
  914         hc     31    bbb     H9    914 0.09515400   1.008000   ; qtot 30.492532
  915         hc     31    bbb    H10    915 0.09515400   1.008000   ; qtot 30.587686
  916         c3     31    bbb     C6    916 -0.11337700  12.010000   ; qtot 30.474309
  917         hc     31    bbb    H11    917 0.09515400   1.008000   ; qtot 30.569463
  918         hc     31    bbb    H12    918 0.09515400   1.008000   ; qtot 30.664617
  919         c3     31    bbb     C7    919 0.21842400  12.010000   ; qtot 30.883041
  920         h1     31    bbb    H13    920 0.04500300   1.008000   ; qtot 30.928044
  921         h1     31    bbb    H14    921 0.04500300   1.008000   ; qtot 30.973047
  922         c3     31    bbb     C8    922 -0.06455200  12.010000   ; qtot 30.908495
  923         h1     31    bbb    H15    923 0.13554100   1.008000   ; qtot 31.044036
  924         h1     31    bbb    H16    924 0.13554100   1.008000   ; qtot 31.179577
  925         c3     31    bbb     C9    925 -0.06455200  12.010000   ; qtot 31.115025
  926         h1     31    bbb    H17    926 0.13554100   1.008000   ; qtot 31.250566
  927         h1     31    bbb    H18    927 0.13554100   1.008000   ; qtot 31.386107
  928         os     31    bbb     O1    928 -0.62587700  16.000000   ; qtot 30.760230
  929         hn     31    bbb    H19    929 0.23982500   1.008000   ; qtot 31.000055
; residue   32 bbb rtp bbb q 1.0
  930         n4     32    bbb     N1    930 0.03726400  14.010000   ; qtot 31.037319
  931         c3     32    bbb     C1    931 -0.07020100  12.010000   ; qtot 30.967118
  932         hx     32    bbb     H1    932 0.12219000   1.008000   ; qtot 31.089308
  933         hx     32    bbb     H2    933 0.12219000   1.008000   ; qtot 31.211498
  934         c3     32    bbb     C2    934 -0.07020100  12.010000   ; qtot 31.141297
  935         hx     32    bbb     H3    935 0.12219000   1.008000   ; qtot 31.263487
  936         hx     32    bbb     H4    936 0.12219000   1.008000   ; qtot 31.385677
  937         c3     32    bbb     C3    937 -0.39007700  12.010000   ; qtot 30.995600
  938         hx     32    bbb     H5    938 0.14940300   1.008000   ; qtot 31.145003
  939         hx     32    bbb     H6    939 0.14940300   1.008000   ; qtot 31.294406
  940         c3     32    bbb     C4    940 0.18057300  12.010000   ; qtot 31.474979
  941         hc     32    bbb     H7    941 0.01788900   1.008000   ; qtot 31.492868
  942         hc     32    bbb     H8    942 0.01788900   1.008000   ; qtot 31.510757
  943         c3     32    bbb     C5    943 -0.11337700  12.010000   ; qtot 31.397380
  944         hc     32    bbb     H9    944 0.09515400   1.008000   ; qtot 31.492534
  945         hc     32    bbb    H10    945 0.09515400   1.008000   ; qtot 31.587688
  946         c3     32    bbb     C6    946 -0.11337700  12.010000   ; qtot 31.474311
  947         hc     32    bbb    H11    947 0.09515400   1.008000   ; qtot 31.569465
  948         hc     32    bbb    H12    948 0.09515400   1.008000   ; qtot 31.664619
  949         c3     32    bbb     C7    949 0.21842400  12.010000   ; qtot 31.883043
  950         h1     32    bbb    H13    950 0.04500300   1.008000   ; qtot 31.928046
  951         h1     32    bbb    H14    951 0.04500300   1.008000   ; qtot 31.973049
  952         c3     32    bbb     C8    952 -0.06455200  12.010000   ; qtot 31.908497
  953         h1     32    bbb    H15    953 0.13554100   1.008000   ; qtot 32.044038
  954         h1     32    bbb    H16    954 0.13554100   1.008000   ; qtot 32.179579
  955         c3     32    bbb     C9    955 -0.06455200  12.010000   ; qtot 32.115027
  956         h1     32    bbb    H17    956 0.13554100   1.008000   ; qtot 32.250568
  957         h1     32    bbb    H18    957 0.13554100   1.008000   ; qtot 32.386109
  958         os     32    bbb     O1    958 -0.62587700  16.000000   ; qtot 31.760232
  959         hn     32    bbb    H19    959 0.23982500   1.008000   ; qtot 32.000057
; residue   33 bbb rtp bbb q 1.0
  960         n4     33    bbb     N1    960 0.03726400  14.010000   ; qtot 32.037321
  961         c3     33    bbb     C1    961 -0.07020100  12.010000   ; qtot 31.967120
  962         hx     33    bbb     H1    962 0.12219000   1.008000   ; qtot 32.089310
  963         hx     33    bbb     H2    963 0.12219000   1.008000   ; qtot 32.211500
  964         c3     33    bbb     C2    964 -0.07020100  12.010000   ; qtot 32.141299
  965         hx     33    bbb     H3    965 0.12219000   1.008000   ; qtot 32.263489
  966         hx     33    bbb     H4    966 0.12219000   1.008000   ; qtot 32.385679
  967         c3     33    bbb     C3    967 -0.39007700  12.010000   ; qtot 31.995602
  968         hx     33    bbb     H5    968 0.14940300   1.008000   ; qtot 32.145005
  969         hx     33    bbb     H6    969 0.14940300   1.008000   ; qtot 32.294408
  970         c3     33    bbb     C4    970 0.18057300  12.010000   ; qtot 32.474981
  971         hc     33    bbb     H7    971 0.01788900   1.008000   ; qtot 32.492870
  972         hc     33    bbb     H8    972 0.01788900   1.008000   ; qtot 32.510759
  973         c3     33    bbb     C5    973 -0.11337700  12.010000   ; qtot 32.397382
  974         hc     33    bbb     H9    974 0.09515400   1.008000   ; qtot 32.492536
  975         hc     33    bbb    H10    975 0.09515400   1.008000   ; qtot 32.587690
  976         c3     33    bbb     C6    976 -0.11337700  12.010000   ; qtot 32.474313
  977         hc     33    bbb    H11    977 0.09515400   1.008000   ; qtot 32.569467
  978         hc     33    bbb    H12    978 0.09515400   1.008000   ; qtot 32.664621
  979         c3     33    bbb     C7    979 0.21842400  12.010000   ; qtot 32.883045
  980         h1     33    bbb    H13    980 0.04500300   1.008000   ; qtot 32.928048
  981         h1     33    bbb    H14    981 0.04500300   1.008000   ; qtot 32.973051
  982         c3     33    bbb     C8    982 -0.06455200  12.010000   ; qtot 32.908499
  983         h1     33    bbb    H15    983 0.13554100   1.008000   ; qtot 33.044040
  984         h1     33    bbb    H16    984 0.13554100   1.008000   ; qtot 33.179581
  985         c3     33    bbb     C9    985 -0.06455200  12.010000   ; qtot 33.115029
  986         h1     33    bbb    H17    986 0.13554100   1.008000   ; qtot 33.250570
  987         h1     33    bbb    H18    987 0.13554100   1.008000   ; qtot 33.386111
  988         os     33    bbb     O1    988 -0.62587700  16.000000   ; qtot 32.760234
  989         hn     33    bbb    H19    989 0.23982500   1.008000   ; qtot 33.000059
; residue   34 bbb rtp bbb q 1.0
  990         n4     34    bbb     N1    990 0.03726400  14.010000   ; qtot 33.037323
  991         c3     34    bbb     C1    991 -0.07020100  12.010000   ; qtot 32.967122
  992         hx     34    bbb     H1    992 0.12219000   1.008000   ; qtot 33.089312
  993         hx     34    bbb     H2    993 0.12219000   1.008000   ; qtot 33.211502
  994         c3     34    bbb     C2    994 -0.07020100  12.010000   ; qtot 33.141301
  995         hx     34    bbb     H3    995 0.12219000   1.008000   ; qtot 33.263491
  996         hx     34    bbb     H4    996 0.12219000   1.008000   ; qtot 33.385681
  997         c3     34    bbb     C3    997 -0.39007700  12.010000   ; qtot 32.995604
  998         hx     34    bbb     H5    998 0.14940300   1.008000   ; qtot 33.145007
  999         hx     34    bbb     H6    999 0.14940300   1.008000   ; qtot 33.294410
 1000         c3     34    bbb     C4   1000 0.18057300  12.010000   ; qtot 33.474983
 1001         hc     34    bbb     H7   1001 0.01788900   1.008000   ; qtot 33.492872
 1002         hc     34    bbb     H8   1002 0.01788900   1.008000   ; qtot 33.510761
 1003         c3     34    bbb     C5   1003 -0.11337700  12.010000   ; qtot 33.397384
 1004         hc     34    bbb     H9   1004 0.09515400   1.008000   ; qtot 33.492538
 1005         hc     34    bbb    H10   1005 0.09515400   1.008000   ; qtot 33.587692
 1006         c3     34    bbb     C6   1006 -0.11337700  12.010000   ; qtot 33.474315
 1007         hc     34    bbb    H11   1007 0.09515400   1.008000   ; qtot 33.569469
 1008         hc     34    bbb    H12   1008 0.09515400   1.008000   ; qtot 33.664623
 1009         c3     34    bbb     C7   1009 0.21842400  12.010000   ; qtot 33.883047
 1010         h1     34    bbb    H13   1010 0.04500300   1.008000   ; qtot 33.928050
 1011         h1     34    bbb    H14   1011 0.04500300   1.008000   ; qtot 33.973053
 1012         c3     34    bbb     C8   1012 -0.06455200  12.010000   ; qtot 33.908501
 1013         h1     34    bbb    H15   1013 0.13554100   1.008000   ; qtot 34.044042
 1014         h1     34    bbb    H16   1014 0.13554100   1.008000   ; qtot 34.179583
 1015         c3     34    bbb     C9   1015 -0.06455200  12.010000   ; qtot 34.115031
 1016         h1     34    bbb    H17   1016 0.13554100   1.008000   ; qtot 34.250572
 1017         h1     34    bbb    H18   1017 0.13554100   1.008000   ; qtot 34.386113
 1018         os     34    bbb     O1   1018 -0.62587700  16.000000   ; qtot 33.760236
 1019         hn     34    bbb    H19   1019 0.23982500   1.008000   ; qtot 34.000061
; residue   35 bbb rtp bbb q 1.0
 1020         n4     35    bbb     N1   1020 0.03726400  14.010000   ; qtot 34.037325
 1021         c3     35    bbb     C1   1021 -0.07020100  12.010000   ; qtot 33.967124
 1022         hx     35    bbb     H1   1022 0.12219000   1.008000   ; qtot 34.089314
 1023         hx     35    bbb     H2   1023 0.12219000   1.008000   ; qtot 34.211504
 1024         c3     35    bbb     C2   1024 -0.07020100  12.010000   ; qtot 34.141303
 1025         hx     35    bbb     H3   1025 0.12219000   1.008000   ; qtot 34.263493
 1026         hx     35    bbb     H4   1026 0.12219000   1.008000   ; qtot 34.385683
 1027         c3     35    bbb     C3   1027 -0.39007700  12.010000   ; qtot 33.995606
 1028         hx     35    bbb     H5   1028 0.14940300   1.008000   ; qtot 34.145009
 1029         hx     35    bbb     H6   1029 0.14940300   1.008000   ; qtot 34.294412
 1030         c3     35    bbb     C4   1030 0.18057300  12.010000   ; qtot 34.474985
 1031         hc     35    bbb     H7   1031 0.01788900   1.008000   ; qtot 34.492874
 1032         hc     35    bbb     H8   1032 0.01788900   1.008000   ; qtot 34.510763
 1033         c3     35    bbb     C5   1033 -0.11337700  12.010000   ; qtot 34.397386
 1034         hc     35    bbb     H9   1034 0.09515400   1.008000   ; qtot 34.492540
 1035         hc     35    bbb    H10   1035 0.09515400   1.008000   ; qtot 34.587694
 1036         c3     35    bbb     C6   1036 -0.11337700  12.010000   ; qtot 34.474317
 1037         hc     35    bbb    H11   1037 0.09515400   1.008000   ; qtot 34.569471
 1038         hc     35    bbb    H12   1038 0.09515400   1.008000   ; qtot 34.664625
 1039         c3     35    bbb     C7   1039 0.21842400  12.010000   ; qtot 34.883049
 1040         h1     35    bbb    H13   1040 0.04500300   1.008000   ; qtot 34.928052
 1041         h1     35    bbb    H14   1041 0.04500300   1.008000   ; qtot 34.973055
 1042         c3     35    bbb     C8   1042 -0.06455200  12.010000   ; qtot 34.908503
 1043         h1     35    bbb    H15   1043 0.13554100   1.008000   ; qtot 35.044044
 1044         h1     35    bbb    H16   1044 0.13554100   1.008000   ; qtot 35.179585
 1045         c3     35    bbb     C9   1045 -0.06455200  12.010000   ; qtot 35.115033
 1046         h1     35    bbb    H17   1046 0.13554100   1.008000   ; qtot 35.250574
 1047         h1     35    bbb    H18   1047 0.13554100   1.008000   ; qtot 35.386115
 1048         os     35    bbb     O1   1048 -0.62587700  16.000000   ; qtot 34.760238
 1049         hn     35    bbb    H19   1049 0.23982500   1.008000   ; qtot 35.000063
; residue   36 bbb rtp bbb q 1.0
 1050         n4     36    bbb     N1   1050 0.03726400  14.010000   ; qtot 35.037327
 1051         c3     36    bbb     C1   1051 -0.07020100  12.010000   ; qtot 34.967126
 1052         hx     36    bbb     H1   1052 0.12219000   1.008000   ; qtot 35.089316
 1053         hx     36    bbb     H2   1053 0.12219000   1.008000   ; qtot 35.211506
 1054         c3     36    bbb     C2   1054 -0.07020100  12.010000   ; qtot 35.141305
 1055         hx     36    bbb     H3   1055 0.12219000   1.008000   ; qtot 35.263495
 1056         hx     36    bbb     H4   1056 0.12219000   1.008000   ; qtot 35.385685
 1057         c3     36    bbb     C3   1057 -0.39007700  12.010000   ; qtot 34.995608
 1058         hx     36    bbb     H5   1058 0.14940300   1.008000   ; qtot 35.145011
 1059         hx     36    bbb     H6   1059 0.14940300   1.008000   ; qtot 35.294414
 1060         c3     36    bbb     C4   1060 0.18057300  12.010000   ; qtot 35.474987
 1061         hc     36    bbb     H7   1061 0.01788900   1.008000   ; qtot 35.492876
 1062         hc     36    bbb     H8   1062 0.01788900   1.008000   ; qtot 35.510765
 1063         c3     36    bbb     C5   1063 -0.11337700  12.010000   ; qtot 35.397388
 1064         hc     36    bbb     H9   1064 0.09515400   1.008000   ; qtot 35.492542
 1065         hc     36    bbb    H10   1065 0.09515400   1.008000   ; qtot 35.587696
 1066         c3     36    bbb     C6   1066 -0.11337700  12.010000   ; qtot 35.474319
 1067         hc     36    bbb    H11   1067 0.09515400   1.008000   ; qtot 35.569473
 1068         hc     36    bbb    H12   1068 0.09515400   1.008000   ; qtot 35.664627
 1069         c3     36    bbb     C7   1069 0.21842400  12.010000   ; qtot 35.883051
 1070         h1     36    bbb    H13   1070 0.04500300   1.008000   ; qtot 35.928054
 1071         h1     36    bbb    H14   1071 0.04500300   1.008000   ; qtot 35.973057
 1072         c3     36    bbb     C8   1072 -0.06455200  12.010000   ; qtot 35.908505
 1073         h1     36    bbb    H15   1073 0.13554100   1.008000   ; qtot 36.044046
 1074         h1     36    bbb    H16   1074 0.13554100   1.008000   ; qtot 36.179587
 1075         c3     36    bbb     C9   1075 -0.06455200  12.010000   ; qtot 36.115035
 1076         h1     36    bbb    H17   1076 0.13554100   1.008000   ; qtot 36.250576
 1077         h1     36    bbb    H18   1077 0.13554100   1.008000   ; qtot 36.386117
 1078         os     36    bbb     O1   1078 -0.62587700  16.000000   ; qtot 35.760240
 1079         hn     36    bbb    H19   1079 0.23982500   1.008000   ; qtot 36.000065
; residue   37 bbb rtp bbb q 1.0
 1080         n4     37    bbb     N1   1080 0.03726400  14.010000   ; qtot 36.037329
 1081         c3     37    bbb     C1   1081 -0.07020100  12.010000   ; qtot 35.967128
 1082         hx     37    bbb     H1   1082 0.12219000   1.008000   ; qtot 36.089318
 1083         hx     37    bbb     H2   1083 0.12219000   1.008000   ; qtot 36.211508
 1084         c3     37    bbb     C2   1084 -0.07020100  12.010000   ; qtot 36.141307
 1085         hx     37    bbb     H3   1085 0.12219000   1.008000   ; qtot 36.263497
 1086         hx     37    bbb     H4   1086 0.12219000   1.008000   ; qtot 36.385687
 1087         c3     37    bbb     C3   1087 -0.39007700  12.010000   ; qtot 35.995610
 1088         hx     37    bbb     H5   1088 0.14940300   1.008000   ; qtot 36.145013
 1089         hx     37    bbb     H6   1089 0.14940300   1.008000   ; qtot 36.294416
 1090         c3     37    bbb     C4   1090 0.18057300  12.010000   ; qtot 36.474989
 1091         hc     37    bbb     H7   1091 0.01788900   1.008000   ; qtot 36.492878
 1092         hc     37    bbb     H8   1092 0.01788900   1.008000   ; qtot 36.510767
 1093         c3     37    bbb     C5   1093 -0.11337700  12.010000   ; qtot 36.397390
 1094         hc     37    bbb     H9   1094 0.09515400   1.008000   ; qtot 36.492544
 1095         hc     37    bbb    H10   1095 0.09515400   1.008000   ; qtot 36.587698
 1096         c3     37    bbb     C6   1096 -0.11337700  12.010000   ; qtot 36.474321
 1097         hc     37    bbb    H11   1097 0.09515400   1.008000   ; qtot 36.569475
 1098         hc     37    bbb    H12   1098 0.09515400   1.008000   ; qtot 36.664629
 1099         c3     37    bbb     C7   1099 0.21842400  12.010000   ; qtot 36.883053
 1100         h1     37    bbb    H13   1100 0.04500300   1.008000   ; qtot 36.928056
 1101         h1     37    bbb    H14   1101 0.04500300   1.008000   ; qtot 36.973059
 1102         c3     37    bbb     C8   1102 -0.06455200  12.010000   ; qtot 36.908507
 1103         h1     37    bbb    H15   1103 0.13554100   1.008000   ; qtot 37.044048
 1104         h1     37    bbb    H16   1104 0.13554100   1.008000   ; qtot 37.179589
 1105         c3     37    bbb     C9   1105 -0.06455200  12.010000   ; qtot 37.115037
 1106         h1     37    bbb    H17   1106 0.13554100   1.008000   ; qtot 37.250578
 1107         h1     37    bbb    H18   1107 0.13554100   1.008000   ; qtot 37.386119
 1108         os     37    bbb     O1   1108 -0.62587700  16.000000   ; qtot 36.760242
 1109         hn     37    bbb    H19   1109 0.23982500   1.008000   ; qtot 37.000067
; residue   38 bbb rtp bbb q 1.0
 1110         n4     38    bbb     N1   1110 0.03726400  14.010000   ; qtot 37.037331
 1111         c3     38    bbb     C1   1111 -0.07020100  12.010000   ; qtot 36.967130
 1112         hx     38    bbb     H1   1112 0.12219000   1.008000   ; qtot 37.089320
 1113         hx     38    bbb     H2   1113 0.12219000   1.008000   ; qtot 37.211510
 1114         c3     38    bbb     C2   1114 -0.07020100  12.010000   ; qtot 37.141309
 1115         hx     38    bbb     H3   1115 0.12219000   1.008000   ; qtot 37.263499
 1116         hx     38    bbb     H4   1116 0.12219000   1.008000   ; qtot 37.385689
 1117         c3     38    bbb     C3   1117 -0.39007700  12.010000   ; qtot 36.995612
 1118         hx     38    bbb     H5   1118 0.14940300   1.008000   ; qtot 37.145015
 1119         hx     38    bbb     H6   1119 0.14940300   1.008000   ; qtot 37.294418
 1120         c3     38    bbb     C4   1120 0.18057300  12.010000   ; qtot 37.474991
 1121         hc     38    bbb     H7   1121 0.01788900   1.008000   ; qtot 37.492880
 1122         hc     38    bbb     H8   1122 0.01788900   1.008000   ; qtot 37.510769
 1123         c3     38    bbb     C5   1123 -0.11337700  12.010000   ; qtot 37.397392
 1124         hc     38    bbb     H9   1124 0.09515400   1.008000   ; qtot 37.492546
 1125         hc     38    bbb    H10   1125 0.09515400   1.008000   ; qtot 37.587700
 1126         c3     38    bbb     C6   1126 -0.11337700  12.010000   ; qtot 37.474323
 1127         hc     38    bbb    H11   1127 0.09515400   1.008000   ; qtot 37.569477
 1128         hc     38    bbb    H12   1128 0.09515400   1.008000   ; qtot 37.664631
 1129         c3     38    bbb     C7   1129 0.21842400  12.010000   ; qtot 37.883055
 1130         h1     38    bbb    H13   1130 0.04500300   1.008000   ; qtot 37.928058
 1131         h1     38    bbb    H14   1131 0.04500300   1.008000   ; qtot 37.973061
 1132         c3     38    bbb     C8   1132 -0.06455200  12.010000   ; qtot 37.908509
 1133         h1     38    bbb    H15   1133 0.13554100   1.008000   ; qtot 38.044050
 1134         h1     38    bbb    H16   1134 0.13554100   1.008000   ; qtot 38.179591
 1135         c3     38    bbb     C9   1135 -0.06455200  12.010000   ; qtot 38.115039
 1136         h1     38    bbb    H17   1136 0.13554100   1.008000   ; qtot 38.250580
 1137         h1     38    bbb    H18   1137 0.13554100   1.008000   ; qtot 38.386121
 1138         os     38    bbb     O1   1138 -0.62587700  16.000000   ; qtot 37.760244
 1139         hn     38    bbb    H19   1139 0.23982500   1.008000   ; qtot 38.000069
; residue   39 bbb rtp bbb q 1.0
 1140         n4     39    bbb     N1   1140 0.03726400  14.010000   ; qtot 38.037333
 1141         c3     39    bbb     C1   1141 -0.07020100  12.010000   ; qtot 37.967132
 1142         hx     39    bbb     H1   1142 0.12219000   1.008000   ; qtot 38.089322
 1143         hx     39    bbb     H2   1143 0.12219000   1.008000   ; qtot 38.211512
 1144         c3     39    bbb     C2   1144 -0.07020100  12.010000   ; qtot 38.141311
 1145         hx     39    bbb     H3   1145 0.12219000   1.008000   ; qtot 38.263501
 1146         hx     39    bbb     H4   1146 0.12219000   1.008000   ; qtot 38.385691
 1147         c3     39    bbb     C3   1147 -0.39007700  12.010000   ; qtot 37.995614
 1148         hx     39    bbb     H5   1148 0.14940300   1.008000   ; qtot 38.145017
 1149         hx     39    bbb     H6   1149 0.14940300   1.008000   ; qtot 38.294420
 1150         c3     39    bbb     C4   1150 0.18057300  12.010000   ; qtot 38.474993
 1151         hc     39    bbb     H7   1151 0.01788900   1.008000   ; qtot 38.492882
 1152         hc     39    bbb     H8   1152 0.01788900   1.008000   ; qtot 38.510771
 1153         c3     39    bbb     C5   1153 -0.11337700  12.010000   ; qtot 38.397394
 1154         hc     39    bbb     H9   1154 0.09515400   1.008000   ; qtot 38.492548
 1155         hc     39    bbb    H10   1155 0.09515400   1.008000   ; qtot 38.587702
 1156         c3     39    bbb     C6   1156 -0.11337700  12.010000   ; qtot 38.474325
 1157         hc     39    bbb    H11   1157 0.09515400   1.008000   ; qtot 38.569479
 1158         hc     39    bbb    H12   1158 0.09515400   1.008000   ; qtot 38.664633
 1159         c3     39    bbb     C7   1159 0.21842400  12.010000   ; qtot 38.883057
 1160         h1     39    bbb    H13   1160 0.04500300   1.008000   ; qtot 38.928060
 1161         h1     39    bbb    H14   1161 0.04500300   1.008000   ; qtot 38.973063
 1162         c3     39    bbb     C8   1162 -0.06455200  12.010000   ; qtot 38.908511
 1163         h1     39    bbb    H15   1163 0.13554100   1.008000   ; qtot 39.044052
 1164         h1     39    bbb    H16   1164 0.13554100   1.008000   ; qtot 39.179593
 1165         c3     39    bbb     C9   1165 -0.06455200  12.010000   ; qtot 39.115041
 1166         h1     39    bbb    H17   1166 0.13554100   1.008000   ; qtot 39.250582
 1167         h1     39    bbb    H18   1167 0.13554100   1.008000   ; qtot 39.386123
 1168         os     39    bbb     O1   1168 -0.62587700  16.000000   ; qtot 38.760246
 1169         hn     39    bbb    H19   1169 0.23982500   1.008000   ; qtot 39.000071
; residue   40 bbb rtp bbb q 1.0
 1170         n4     40    bbb     N1   1170 0.03726400  14.010000   ; qtot 39.037335
 1171         c3     40    bbb     C1   1171 -0.07020100  12.010000   ; qtot 38.967134
 1172         hx     40    bbb     H1   1172 0.12219000   1.008000   ; qtot 39.089324
 1173         hx     40    bbb     H2   1173 0.12219000   1.008000   ; qtot 39.211514
 1174         c3     40    bbb     C2   1174 -0.07020100  12.010000   ; qtot 39.141313
 1175         hx     40    bbb     H3   1175 0.12219000   1.008000   ; qtot 39.263503
 1176         hx     40    bbb     H4   1176 0.12219000   1.008000   ; qtot 39.385693
 1177         c3     40    bbb     C3   1177 -0.39007700  12.010000   ; qtot 38.995616
 1178         hx     40    bbb     H5   1178 0.14940300   1.008000   ; qtot 39.145019
 1179         hx     40    bbb     H6   1179 0.14940300   1.008000   ; qtot 39.294422
 1180         c3     40    bbb     C4   1180 0.18057300  12.010000   ; qtot 39.474995
 1181         hc     40    bbb     H7   1181 0.01788900   1.008000   ; qtot 39.492884
 1182         hc     40    bbb     H8   1182 0.01788900   1.008000   ; qtot 39.510773
 1183         c3     40    bbb     C5   1183 -0.11337700  12.010000   ; qtot 39.397396
 1184         hc     40    bbb     H9   1184 0.09515400   1.008000   ; qtot 39.492550
 1185         hc     40    bbb    H10   1185 0.09515400   1.008000   ; qtot 39.587704
 1186         c3     40    bbb     C6   1186 -0.11337700  12.010000   ; qtot 39.474327
 1187         hc     40    bbb    H11   1187 0.09515400   1.008000   ; qtot 39.569481
 1188         hc     40    bbb    H12   1188 0.09515400   1.008000   ; qtot 39.664635
 1189         c3     40    bbb     C7   1189 0.21842400  12.010000   ; qtot 39.883059
 1190         h1     40    bbb    H13   1190 0.04500300   1.008000   ; qtot 39.928062
 1191         h1     40    bbb    H14   1191 0.04500300   1.008000   ; qtot 39.973065
 1192         c3     40    bbb     C8   1192 -0.06455200  12.010000   ; qtot 39.908513
 1193         h1     40    bbb    H15   1193 0.13554100   1.008000   ; qtot 40.044054
 1194         h1     40    bbb    H16   1194 0.13554100   1.008000   ; qtot 40.179595
 1195         c3     40    bbb     C9   1195 -0.06455200  12.010000   ; qtot 40.115043
 1196         h1     40    bbb    H17   1196 0.13554100   1.008000   ; qtot 40.250584
 1197         h1     40    bbb    H18   1197 0.13554100   1.008000   ; qtot 40.386125
 1198         os     40    bbb     O1   1198 -0.62587700  16.000000   ; qtot 39.760248
 1199         hn     40    bbb    H19   1199 0.23982500   1.008000   ; qtot 40.000073
; residue   41 bbb rtp bbb q 1.0
 1200         n4     41    bbb     N1   1200 0.03726400  14.010000   ; qtot 40.037337
 1201         c3     41    bbb     C1   1201 -0.07020100  12.010000   ; qtot 39.967136
 1202         hx     41    bbb     H1   1202 0.12219000   1.008000   ; qtot 40.089326
 1203         hx     41    bbb     H2   1203 0.12219000   1.008000   ; qtot 40.211516
 1204         c3     41    bbb     C2   1204 -0.07020100  12.010000   ; qtot 40.141315
 1205         hx     41    bbb     H3   1205 0.12219000   1.008000   ; qtot 40.263505
 1206         hx     41    bbb     H4   1206 0.12219000   1.008000   ; qtot 40.385695
 1207         c3     41    bbb     C3   1207 -0.39007700  12.010000   ; qtot 39.995618
 1208         hx     41    bbb     H5   1208 0.14940300   1.008000   ; qtot 40.145021
 1209         hx     41    bbb     H6   1209 0.14940300   1.008000   ; qtot 40.294424
 1210         c3     41    bbb     C4   1210 0.18057300  12.010000   ; qtot 40.474997
 1211         hc     41    bbb     H7   1211 0.01788900   1.008000   ; qtot 40.492886
 1212         hc     41    bbb     H8   1212 0.01788900   1.008000   ; qtot 40.510775
 1213         c3     41    bbb     C5   1213 -0.11337700  12.010000   ; qtot 40.397398
 1214         hc     41    bbb     H9   1214 0.09515400   1.008000   ; qtot 40.492552
 1215         hc     41    bbb    H10   1215 0.09515400   1.008000   ; qtot 40.587706
 1216         c3     41    bbb     C6   1216 -0.11337700  12.010000   ; qtot 40.474329
 1217         hc     41    bbb    H11   1217 0.09515400   1.008000   ; qtot 40.569483
 1218         hc     41    bbb    H12   1218 0.09515400   1.008000   ; qtot 40.664637
 1219         c3     41    bbb     C7   1219 0.21842400  12.010000   ; qtot 40.883061
 1220         h1     41    bbb    H13   1220 0.04500300   1.008000   ; qtot 40.928064
 1221         h1     41    bbb    H14   1221 0.04500300   1.008000   ; qtot 40.973067
 1222         c3     41    bbb     C8   1222 -0.06455200  12.010000   ; qtot 40.908515
 1223         h1     41    bbb    H15   1223 0.13554100   1.008000   ; qtot 41.044056
 1224         h1     41    bbb    H16   1224 0.13554100   1.008000   ; qtot 41.179597
 1225         c3     41    bbb     C9   1225 -0.06455200  12.010000   ; qtot 41.115045
 1226         h1     41    bbb    H17   1226 0.13554100   1.008000   ; qtot 41.250586
 1227         h1     41    bbb    H18   1227 0.13554100   1.008000   ; qtot 41.386127
 1228         os     41    bbb     O1   1228 -0.62587700  16.000000   ; qtot 40.760250
 1229         hn     41    bbb    H19   1229 0.23982500   1.008000   ; qtot 41.000075
; residue   42 bbb rtp bbb q 1.0
 1230         n4     42    bbb     N1   1230 0.03726400  14.010000   ; qtot 41.037339
 1231         c3     42    bbb     C1   1231 -0.07020100  12.010000   ; qtot 40.967138
 1232         hx     42    bbb     H1   1232 0.12219000   1.008000   ; qtot 41.089328
 1233         hx     42    bbb     H2   1233 0.12219000   1.008000   ; qtot 41.211518
 1234         c3     42    bbb     C2   1234 -0.07020100  12.010000   ; qtot 41.141317
 1235         hx     42    bbb     H3   1235 0.12219000   1.008000   ; qtot 41.263507
 1236         hx     42    bbb     H4   1236 0.12219000   1.008000   ; qtot 41.385697
 1237         c3     42    bbb     C3   1237 -0.39007700  12.010000   ; qtot 40.995620
 1238         hx     42    bbb     H5   1238 0.14940300   1.008000   ; qtot 41.145023
 1239         hx     42    bbb     H6   1239 0.14940300   1.008000   ; qtot 41.294426
 1240         c3     42    bbb     C4   1240 0.18057300  12.010000   ; qtot 41.474999
 1241         hc     42    bbb     H7   1241 0.01788900   1.008000   ; qtot 41.492888
 1242         hc     42    bbb     H8   1242 0.01788900   1.008000   ; qtot 41.510777
 1243         c3     42    bbb     C5   1243 -0.11337700  12.010000   ; qtot 41.397400
 1244         hc     42    bbb     H9   1244 0.09515400   1.008000   ; qtot 41.492554
 1245         hc     42    bbb    H10   1245 0.09515400   1.008000   ; qtot 41.587708
 1246         c3     42    bbb     C6   1246 -0.11337700  12.010000   ; qtot 41.474331
 1247         hc     42    bbb    H11   1247 0.09515400   1.008000   ; qtot 41.569485
 1248         hc     42    bbb    H12   1248 0.09515400   1.008000   ; qtot 41.664639
 1249         c3     42    bbb     C7   1249 0.21842400  12.010000   ; qtot 41.883063
 1250         h1     42    bbb    H13   1250 0.04500300   1.008000   ; qtot 41.928066
 1251         h1     42    bbb    H14   1251 0.04500300   1.008000   ; qtot 41.973069
 1252         c3     42    bbb     C8   1252 -0.06455200  12.010000   ; qtot 41.908517
 1253         h1     42    bbb    H15   1253 0.13554100   1.008000   ; qtot 42.044058
 1254         h1     42    bbb    H16   1254 0.13554100   1.008000   ; qtot 42.179599
 1255         c3     42    bbb     C9   1255 -0.06455200  12.010000   ; qtot 42.115047
 1256         h1     42    bbb    H17   1256 0.13554100   1.008000   ; qtot 42.250588
 1257         h1     42    bbb    H18   1257 0.13554100   1.008000   ; qtot 42.386129
 1258         os     42    bbb     O1   1258 -0.62587700  16.000000   ; qtot 41.760252
 1259         hn     42    bbb    H19   1259 0.23982500   1.008000   ; qtot 42.000077
; residue   43 bbb rtp bbb q 1.0
 1260         n4     43    bbb     N1   1260 0.03726400  14.010000   ; qtot 42.037341
 1261         c3     43    bbb     C1   1261 -0.07020100  12.010000   ; qtot 41.967140
 1262         hx     43    bbb     H1   1262 0.12219000   1.008000   ; qtot 42.089330
 1263         hx     43    bbb     H2   1263 0.12219000   1.008000   ; qtot 42.211520
 1264         c3     43    bbb     C2   1264 -0.07020100  12.010000   ; qtot 42.141319
 1265         hx     43    bbb     H3   1265 0.12219000   1.008000   ; qtot 42.263509
 1266         hx     43    bbb     H4   1266 0.12219000   1.008000   ; qtot 42.385699
 1267         c3     43    bbb     C3   1267 -0.39007700  12.010000   ; qtot 41.995622
 1268         hx     43    bbb     H5   1268 0.14940300   1.008000   ; qtot 42.145025
 1269         hx     43    bbb     H6   1269 0.14940300   1.008000   ; qtot 42.294428
 1270         c3     43    bbb     C4   1270 0.18057300  12.010000   ; qtot 42.475001
 1271         hc     43    bbb     H7   1271 0.01788900   1.008000   ; qtot 42.492890
 1272         hc     43    bbb     H8   1272 0.01788900   1.008000   ; qtot 42.510779
 1273         c3     43    bbb     C5   1273 -0.11337700  12.010000   ; qtot 42.397402
 1274         hc     43    bbb     H9   1274 0.09515400   1.008000   ; qtot 42.492556
 1275         hc     43    bbb    H10   1275 0.09515400   1.008000   ; qtot 42.587710
 1276         c3     43    bbb     C6   1276 -0.11337700  12.010000   ; qtot 42.474333
 1277         hc     43    bbb    H11   1277 0.09515400   1.008000   ; qtot 42.569487
 1278         hc     43    bbb    H12   1278 0.09515400   1.008000   ; qtot 42.664641
 1279         c3     43    bbb     C7   1279 0.21842400  12.010000   ; qtot 42.883065
 1280         h1     43    bbb    H13   1280 0.04500300   1.008000   ; qtot 42.928068
 1281         h1     43    bbb    H14   1281 0.04500300   1.008000   ; qtot 42.973071
 1282         c3     43    bbb     C8   1282 -0.06455200  12.010000   ; qtot 42.908519
 1283         h1     43    bbb    H15   1283 0.13554100   1.008000   ; qtot 43.044060
 1284         h1     43    bbb    H16   1284 0.13554100   1.008000   ; qtot 43.179601
 1285         c3     43    bbb     C9   1285 -0.06455200  12.010000   ; qtot 43.115049
 1286         h1     43    bbb    H17   1286 0.13554100   1.008000   ; qtot 43.250590
 1287         h1     43    bbb    H18   1287 0.13554100   1.008000   ; qtot 43.386131
 1288         os     43    bbb     O1   1288 -0.62587700  16.000000   ; qtot 42.760254
 1289         hn     43    bbb    H19   1289 0.23982500   1.008000   ; qtot 43.000079
; residue   44 bbb rtp bbb q 1.0
 1290         n4     44    bbb     N1   1290 0.03726400  14.010000   ; qtot 43.037343
 1291         c3     44    bbb     C1   1291 -0.07020100  12.010000   ; qtot 42.967142
 1292         hx     44    bbb     H1   1292 0.12219000   1.008000   ; qtot 43.089332
 1293         hx     44    bbb     H2   1293 0.12219000   1.008000   ; qtot 43.211522
 1294         c3     44    bbb     C2   1294 -0.07020100  12.010000   ; qtot 43.141321
 1295         hx     44    bbb     H3   1295 0.12219000   1.008000   ; qtot 43.263511
 1296         hx     44    bbb     H4   1296 0.12219000   1.008000   ; qtot 43.385701
 1297         c3     44    bbb     C3   1297 -0.39007700  12.010000   ; qtot 42.995624
 1298         hx     44    bbb     H5   1298 0.14940300   1.008000   ; qtot 43.145027
 1299         hx     44    bbb     H6   1299 0.14940300   1.008000   ; qtot 43.294430
 1300         c3     44    bbb     C4   1300 0.18057300  12.010000   ; qtot 43.475003
 1301         hc     44    bbb     H7   1301 0.01788900   1.008000   ; qtot 43.492892
 1302         hc     44    bbb     H8   1302 0.01788900   1.008000   ; qtot 43.510781
 1303         c3     44    bbb     C5   1303 -0.11337700  12.010000   ; qtot 43.397404
 1304         hc     44    bbb     H9   1304 0.09515400   1.008000   ; qtot 43.492558
 1305         hc     44    bbb    H10   1305 0.09515400   1.008000   ; qtot 43.587712
 1306         c3     44    bbb     C6   1306 -0.11337700  12.010000   ; qtot 43.474335
 1307         hc     44    bbb    H11   1307 0.09515400   1.008000   ; qtot 43.569489
 1308         hc     44    bbb    H12   1308 0.09515400   1.008000   ; qtot 43.664643
 1309         c3     44    bbb     C7   1309 0.21842400  12.010000   ; qtot 43.883067
 1310         h1     44    bbb    H13   1310 0.04500300   1.008000   ; qtot 43.928070
 1311         h1     44    bbb    H14   1311 0.04500300   1.008000   ; qtot 43.973073
 1312         c3     44    bbb     C8   1312 -0.06455200  12.010000   ; qtot 43.908521
 1313         h1     44    bbb    H15   1313 0.13554100   1.008000   ; qtot 44.044062
 1314         h1     44    bbb    H16   1314 0.13554100   1.008000   ; qtot 44.179603
 1315         c3     44    bbb     C9   1315 -0.06455200  12.010000   ; qtot 44.115051
 1316         h1     44    bbb    H17   1316 0.13554100   1.008000   ; qtot 44.250592
 1317         h1     44    bbb    H18   1317 0.13554100   1.008000   ; qtot 44.386133
 1318         os     44    bbb     O1   1318 -0.62587700  16.000000   ; qtot 43.760256
 1319         hn     44    bbb    H19   1319 0.23982500   1.008000   ; qtot 44.000081
; residue   45 bbb rtp bbb q 1.0
 1320         n4     45    bbb     N1   1320 0.03726400  14.010000   ; qtot 44.037345
 1321         c3     45    bbb     C1   1321 -0.07020100  12.010000   ; qtot 43.967144
 1322         hx     45    bbb     H1   1322 0.12219000   1.008000   ; qtot 44.089334
 1323         hx     45    bbb     H2   1323 0.12219000   1.008000   ; qtot 44.211524
 1324         c3     45    bbb     C2   1324 -0.07020100  12.010000   ; qtot 44.141323
 1325         hx     45    bbb     H3   1325 0.12219000   1.008000   ; qtot 44.263513
 1326         hx     45    bbb     H4   1326 0.12219000   1.008000   ; qtot 44.385703
 1327         c3     45    bbb     C3   1327 -0.39007700  12.010000   ; qtot 43.995626
 1328         hx     45    bbb     H5   1328 0.14940300   1.008000   ; qtot 44.145029
 1329         hx     45    bbb     H6   1329 0.14940300   1.008000   ; qtot 44.294432
 1330         c3     45    bbb     C4   1330 0.18057300  12.010000   ; qtot 44.475005
 1331         hc     45    bbb     H7   1331 0.01788900   1.008000   ; qtot 44.492894
 1332         hc     45    bbb     H8   1332 0.01788900   1.008000   ; qtot 44.510783
 1333         c3     45    bbb     C5   1333 -0.11337700  12.010000   ; qtot 44.397406
 1334         hc     45    bbb     H9   1334 0.09515400   1.008000   ; qtot 44.492560
 1335         hc     45    bbb    H10   1335 0.09515400   1.008000   ; qtot 44.587714
 1336         c3     45    bbb     C6   1336 -0.11337700  12.010000   ; qtot 44.474337
 1337         hc     45    bbb    H11   1337 0.09515400   1.008000   ; qtot 44.569491
 1338         hc     45    bbb    H12   1338 0.09515400   1.008000   ; qtot 44.664645
 1339         c3     45    bbb     C7   1339 0.21842400  12.010000   ; qtot 44.883069
 1340         h1     45    bbb    H13   1340 0.04500300   1.008000   ; qtot 44.928072
 1341         h1     45    bbb    H14   1341 0.04500300   1.008000   ; qtot 44.973075
 1342         c3     45    bbb     C8   1342 -0.06455200  12.010000   ; qtot 44.908523
 1343         h1     45    bbb    H15   1343 0.13554100   1.008000   ; qtot 45.044064
 1344         h1     45    bbb    H16   1344 0.13554100   1.008000   ; qtot 45.179605
 1345         c3     45    bbb     C9   1345 -0.06455200  12.010000   ; qtot 45.115053
 1346         h1     45    bbb    H17   1346 0.13554100   1.008000   ; qtot 45.250594
 1347         h1     45    bbb    H18   1347 0.13554100   1.008000   ; qtot 45.386135
 1348         os     45    bbb     O1   1348 -0.62587700  16.000000   ; qtot 44.760258
 1349         hn     45    bbb    H19   1349 0.23982500   1.008000   ; qtot 45.000083
; residue   46 bbb rtp bbb q 1.0
 1350         n4     46    bbb     N1   1350 0.03726400  14.010000   ; qtot 45.037347
 1351         c3     46    bbb     C1   1351 -0.07020100  12.010000   ; qtot 44.967146
 1352         hx     46    bbb     H1   1352 0.12219000   1.008000   ; qtot 45.089336
 1353         hx     46    bbb     H2   1353 0.12219000   1.008000   ; qtot 45.211526
 1354         c3     46    bbb     C2   1354 -0.07020100  12.010000   ; qtot 45.141325
 1355         hx     46    bbb     H3   1355 0.12219000   1.008000   ; qtot 45.263515
 1356         hx     46    bbb     H4   1356 0.12219000   1.008000   ; qtot 45.385705
 1357         c3     46    bbb     C3   1357 -0.39007700  12.010000   ; qtot 44.995628
 1358         hx     46    bbb     H5   1358 0.14940300   1.008000   ; qtot 45.145031
 1359         hx     46    bbb     H6   1359 0.14940300   1.008000   ; qtot 45.294434
 1360         c3     46    bbb     C4   1360 0.18057300  12.010000   ; qtot 45.475007
 1361         hc     46    bbb     H7   1361 0.01788900   1.008000   ; qtot 45.492896
 1362         hc     46    bbb     H8   1362 0.01788900   1.008000   ; qtot 45.510785
 1363         c3     46    bbb     C5   1363 -0.11337700  12.010000   ; qtot 45.397408
 1364         hc     46    bbb     H9   1364 0.09515400   1.008000   ; qtot 45.492562
 1365         hc     46    bbb    H10   1365 0.09515400   1.008000   ; qtot 45.587716
 1366         c3     46    bbb     C6   1366 -0.11337700  12.010000   ; qtot 45.474339
 1367         hc     46    bbb    H11   1367 0.09515400   1.008000   ; qtot 45.569493
 1368         hc     46    bbb    H12   1368 0.09515400   1.008000   ; qtot 45.664647
 1369         c3     46    bbb     C7   1369 0.21842400  12.010000   ; qtot 45.883071
 1370         h1     46    bbb    H13   1370 0.04500300   1.008000   ; qtot 45.928074
 1371         h1     46    bbb    H14   1371 0.04500300   1.008000   ; qtot 45.973077
 1372         c3     46    bbb     C8   1372 -0.06455200  12.010000   ; qtot 45.908525
 1373         h1     46    bbb    H15   1373 0.13554100   1.008000   ; qtot 46.044066
 1374         h1     46    bbb    H16   1374 0.13554100   1.008000   ; qtot 46.179607
 1375         c3     46    bbb     C9   1375 -0.06455200  12.010000   ; qtot 46.115055
 1376         h1     46    bbb    H17   1376 0.13554100   1.008000   ; qtot 46.250596
 1377         h1     46    bbb    H18   1377 0.13554100   1.008000   ; qtot 46.386137
 1378         os     46    bbb     O1   1378 -0.62587700  16.000000   ; qtot 45.760260
 1379         hn     46    bbb    H19   1379 0.23982500   1.008000   ; qtot 46.000085
; residue   47 bbb rtp bbb q 1.0
 1380         n4     47    bbb     N1   1380 0.03726400  14.010000   ; qtot 46.037349
 1381         c3     47    bbb     C1   1381 -0.07020100  12.010000   ; qtot 45.967148
 1382         hx     47    bbb     H1   1382 0.12219000   1.008000   ; qtot 46.089338
 1383         hx     47    bbb     H2   1383 0.12219000   1.008000   ; qtot 46.211528
 1384         c3     47    bbb     C2   1384 -0.07020100  12.010000   ; qtot 46.141327
 1385         hx     47    bbb     H3   1385 0.12219000   1.008000   ; qtot 46.263517
 1386         hx     47    bbb     H4   1386 0.12219000   1.008000   ; qtot 46.385707
 1387         c3     47    bbb     C3   1387 -0.39007700  12.010000   ; qtot 45.995630
 1388         hx     47    bbb     H5   1388 0.14940300   1.008000   ; qtot 46.145033
 1389         hx     47    bbb     H6   1389 0.14940300   1.008000   ; qtot 46.294436
 1390         c3     47    bbb     C4   1390 0.18057300  12.010000   ; qtot 46.475009
 1391         hc     47    bbb     H7   1391 0.01788900   1.008000   ; qtot 46.492898
 1392         hc     47    bbb     H8   1392 0.01788900   1.008000   ; qtot 46.510787
 1393         c3     47    bbb     C5   1393 -0.11337700  12.010000   ; qtot 46.397410
 1394         hc     47    bbb     H9   1394 0.09515400   1.008000   ; qtot 46.492564
 1395         hc     47    bbb    H10   1395 0.09515400   1.008000   ; qtot 46.587718
 1396         c3     47    bbb     C6   1396 -0.11337700  12.010000   ; qtot 46.474341
 1397         hc     47    bbb    H11   1397 0.09515400   1.008000   ; qtot 46.569495
 1398         hc     47    bbb    H12   1398 0.09515400   1.008000   ; qtot 46.664649
 1399         c3     47    bbb     C7   1399 0.21842400  12.010000   ; qtot 46.883073
 1400         h1     47    bbb    H13   1400 0.04500300   1.008000   ; qtot 46.928076
 1401         h1     47    bbb    H14   1401 0.04500300   1.008000   ; qtot 46.973079
 1402         c3     47    bbb     C8   1402 -0.06455200  12.010000   ; qtot 46.908527
 1403         h1     47    bbb    H15   1403 0.13554100   1.008000   ; qtot 47.044068
 1404         h1     47    bbb    H16   1404 0.13554100   1.008000   ; qtot 47.179609
 1405         c3     47    bbb     C9   1405 -0.06455200  12.010000   ; qtot 47.115057
 1406         h1     47    bbb    H17   1406 0.13554100   1.008000   ; qtot 47.250598
 1407         h1     47    bbb    H18   1407 0.13554100   1.008000   ; qtot 47.386139
 1408         os     47    bbb     O1   1408 -0.62587700  16.000000   ; qtot 46.760262
 1409         hn     47    bbb    H19   1409 0.23982500   1.008000   ; qtot 47.000087
; residue   48 bbb rtp bbb q 1.0
 1410         n4     48    bbb     N1   1410 0.03726400  14.010000   ; qtot 47.037351
 1411         c3     48    bbb     C1   1411 -0.07020100  12.010000   ; qtot 46.967150
 1412         hx     48    bbb     H1   1412 0.12219000   1.008000   ; qtot 47.089340
 1413         hx     48    bbb     H2   1413 0.12219000   1.008000   ; qtot 47.211530
 1414         c3     48    bbb     C2   1414 -0.07020100  12.010000   ; qtot 47.141329
 1415         hx     48    bbb     H3   1415 0.12219000   1.008000   ; qtot 47.263519
 1416         hx     48    bbb     H4   1416 0.12219000   1.008000   ; qtot 47.385709
 1417         c3     48    bbb     C3   1417 -0.39007700  12.010000   ; qtot 46.995632
 1418         hx     48    bbb     H5   1418 0.14940300   1.008000   ; qtot 47.145035
 1419         hx     48    bbb     H6   1419 0.14940300   1.008000   ; qtot 47.294438
 1420         c3     48    bbb     C4   1420 0.18057300  12.010000   ; qtot 47.475011
 1421         hc     48    bbb     H7   1421 0.01788900   1.008000   ; qtot 47.492900
 1422         hc     48    bbb     H8   1422 0.01788900   1.008000   ; qtot 47.510789
 1423         c3     48    bbb     C5   1423 -0.11337700  12.010000   ; qtot 47.397412
 1424         hc     48    bbb     H9   1424 0.09515400   1.008000   ; qtot 47.492566
 1425         hc     48    bbb    H10   1425 0.09515400   1.008000   ; qtot 47.587720
 1426         c3     48    bbb     C6   1426 -0.11337700  12.010000   ; qtot 47.474343
 1427         hc     48    bbb    H11   1427 0.09515400   1.008000   ; qtot 47.569497
 1428         hc     48    bbb    H12   1428 0.09515400   1.008000   ; qtot 47.664651
 1429         c3     48    bbb     C7   1429 0.21842400  12.010000   ; qtot 47.883075
 1430         h1     48    bbb    H13   1430 0.04500300   1.008000   ; qtot 47.928078
 1431         h1     48    bbb    H14   1431 0.04500300   1.008000   ; qtot 47.973081
 1432         c3     48    bbb     C8   1432 -0.06455200  12.010000   ; qtot 47.908529
 1433         h1     48    bbb    H15   1433 0.13554100   1.008000   ; qtot 48.044070
 1434         h1     48    bbb    H16   1434 0.13554100   1.008000   ; qtot 48.179611
 1435         c3     48    bbb     C9   1435 -0.06455200  12.010000   ; qtot 48.115059
 1436         h1     48    bbb    H17   1436 0.13554100   1.008000   ; qtot 48.250600
 1437         h1     48    bbb    H18   1437 0.13554100   1.008000   ; qtot 48.386141
 1438         os     48    bbb     O1   1438 -0.62587700  16.000000   ; qtot 47.760264
 1439         hn     48    bbb    H19   1439 0.23982500   1.008000   ; qtot 48.000089
; residue   49 bbb rtp bbb q 1.0
 1440         n4     49    bbb     N1   1440 0.03726400  14.010000   ; qtot 48.037353
 1441         c3     49    bbb     C1   1441 -0.07020100  12.010000   ; qtot 47.967152
 1442         hx     49    bbb     H1   1442 0.12219000   1.008000   ; qtot 48.089342
 1443         hx     49    bbb     H2   1443 0.12219000   1.008000   ; qtot 48.211532
 1444         c3     49    bbb     C2   1444 -0.07020100  12.010000   ; qtot 48.141331
 1445         hx     49    bbb     H3   1445 0.12219000   1.008000   ; qtot 48.263521
 1446         hx     49    bbb     H4   1446 0.12219000   1.008000   ; qtot 48.385711
 1447         c3     49    bbb     C3   1447 -0.39007700  12.010000   ; qtot 47.995634
 1448         hx     49    bbb     H5   1448 0.14940300   1.008000   ; qtot 48.145037
 1449         hx     49    bbb     H6   1449 0.14940300   1.008000   ; qtot 48.294440
 1450         c3     49    bbb     C4   1450 0.18057300  12.010000   ; qtot 48.475013
 1451         hc     49    bbb     H7   1451 0.01788900   1.008000   ; qtot 48.492902
 1452         hc     49    bbb     H8   1452 0.01788900   1.008000   ; qtot 48.510791
 1453         c3     49    bbb     C5   1453 -0.11337700  12.010000   ; qtot 48.397414
 1454         hc     49    bbb     H9   1454 0.09515400   1.008000   ; qtot 48.492568
 1455         hc     49    bbb    H10   1455 0.09515400   1.008000   ; qtot 48.587722
 1456         c3     49    bbb     C6   1456 -0.11337700  12.010000   ; qtot 48.474345
 1457         hc     49    bbb    H11   1457 0.09515400   1.008000   ; qtot 48.569499
 1458         hc     49    bbb    H12   1458 0.09515400   1.008000   ; qtot 48.664653
 1459         c3     49    bbb     C7   1459 0.21842400  12.010000   ; qtot 48.883077
 1460         h1     49    bbb    H13   1460 0.04500300   1.008000   ; qtot 48.928080
 1461         h1     49    bbb    H14   1461 0.04500300   1.008000   ; qtot 48.973083
 1462         c3     49    bbb     C8   1462 -0.06455200  12.010000   ; qtot 48.908531
 1463         h1     49    bbb    H15   1463 0.13554100   1.008000   ; qtot 49.044072
 1464         h1     49    bbb    H16   1464 0.13554100   1.008000   ; qtot 49.179613
 1465         c3     49    bbb     C9   1465 -0.06455200  12.010000   ; qtot 49.115061
 1466         h1     49    bbb    H17   1466 0.13554100   1.008000   ; qtot 49.250602
 1467         h1     49    bbb    H18   1467 0.13554100   1.008000   ; qtot 49.386143
 1468         os     49    bbb     O1   1468 -0.62587700  16.000000   ; qtot 48.760266
 1469         hn     49    bbb    H19   1469 0.23982500   1.008000   ; qtot 49.000091
; residue   50 bbb rtp bbb q 1.0
 1470         n4     50    bbb     N1   1470 0.03726400  14.010000   ; qtot 49.037355
 1471         c3     50    bbb     C1   1471 -0.07020100  12.010000   ; qtot 48.967154
 1472         hx     50    bbb     H1   1472 0.12219000   1.008000   ; qtot 49.089344
 1473         hx     50    bbb     H2   1473 0.12219000   1.008000   ; qtot 49.211534
 1474         c3     50    bbb     C2   1474 -0.07020100  12.010000   ; qtot 49.141333
 1475         hx     50    bbb     H3   1475 0.12219000   1.008000   ; qtot 49.263523
 1476         hx     50    bbb     H4   1476 0.12219000   1.008000   ; qtot 49.385713
 1477         c3     50    bbb     C3   1477 -0.39007700  12.010000   ; qtot 48.995636
 1478         hx     50    bbb     H5   1478 0.14940300   1.008000   ; qtot 49.145039
 1479         hx     50    bbb     H6   1479 0.14940300   1.008000   ; qtot 49.294442
 1480         c3     50    bbb     C4   1480 0.18057300  12.010000   ; qtot 49.475015
 1481         hc     50    bbb     H7   1481 0.01788900   1.008000   ; qtot 49.492904
 1482         hc     50    bbb     H8   1482 0.01788900   1.008000   ; qtot 49.510793
 1483         c3     50    bbb     C5   1483 -0.11337700  12.010000   ; qtot 49.397416
 1484         hc     50    bbb     H9   1484 0.09515400   1.008000   ; qtot 49.492570
 1485         hc     50    bbb    H10   1485 0.09515400   1.008000   ; qtot 49.587724
 1486         c3     50    bbb     C6   1486 -0.11337700  12.010000   ; qtot 49.474347
 1487         hc     50    bbb    H11   1487 0.09515400   1.008000   ; qtot 49.569501
 1488         hc     50    bbb    H12   1488 0.09515400   1.008000   ; qtot 49.664655
 1489         c3     50    bbb     C7   1489 0.21842400  12.010000   ; qtot 49.883079
 1490         h1     50    bbb    H13   1490 0.04500300   1.008000   ; qtot 49.928082
 1491         h1     50    bbb    H14   1491 0.04500300   1.008000   ; qtot 49.973085
 1492         c3     50    bbb     C8   1492 -0.06455200  12.010000   ; qtot 49.908533
 1493         h1     50    bbb    H15   1493 0.13554100   1.008000   ; qtot 50.044074
 1494         h1     50    bbb    H16   1494 0.13554100   1.008000   ; qtot 50.179615
 1495         c3     50    bbb     C9   1495 -0.06455200  12.010000   ; qtot 50.115063
 1496         h1     50    bbb    H17   1496 0.13554100   1.008000   ; qtot 50.250604
 1497         h1     50    bbb    H18   1497 0.13554100   1.008000   ; qtot 50.386145
 1498         os     50    bbb     O1   1498 -0.62587700  16.000000   ; qtot 49.760268
 1499         hn     50    bbb    H19   1499 0.23982500   1.008000   ; qtot 50.000093
; residue   51 bbb rtp bbb q 1.0
 1500         n4     51    bbb     N1   1500 0.03726400  14.010000   ; qtot 50.037357
 1501         c3     51    bbb     C1   1501 -0.07020100  12.010000   ; qtot 49.967156
 1502         hx     51    bbb     H1   1502 0.12219000   1.008000   ; qtot 50.089346
 1503         hx     51    bbb     H2   1503 0.12219000   1.008000   ; qtot 50.211536
 1504         c3     51    bbb     C2   1504 -0.07020100  12.010000   ; qtot 50.141335
 1505         hx     51    bbb     H3   1505 0.12219000   1.008000   ; qtot 50.263525
 1506         hx     51    bbb     H4   1506 0.12219000   1.008000   ; qtot 50.385715
 1507         c3     51    bbb     C3   1507 -0.39007700  12.010000   ; qtot 49.995638
 1508         hx     51    bbb     H5   1508 0.14940300   1.008000   ; qtot 50.145041
 1509         hx     51    bbb     H6   1509 0.14940300   1.008000   ; qtot 50.294444
 1510         c3     51    bbb     C4   1510 0.18057300  12.010000   ; qtot 50.475017
 1511         hc     51    bbb     H7   1511 0.01788900   1.008000   ; qtot 50.492906
 1512         hc     51    bbb     H8   1512 0.01788900   1.008000   ; qtot 50.510795
 1513         c3     51    bbb     C5   1513 -0.11337700  12.010000   ; qtot 50.397418
 1514         hc     51    bbb     H9   1514 0.09515400   1.008000   ; qtot 50.492572
 1515         hc     51    bbb    H10   1515 0.09515400   1.008000   ; qtot 50.587726
 1516         c3     51    bbb     C6   1516 -0.11337700  12.010000   ; qtot 50.474349
 1517         hc     51    bbb    H11   1517 0.09515400   1.008000   ; qtot 50.569503
 1518         hc     51    bbb    H12   1518 0.09515400   1.008000   ; qtot 50.664657
 1519         c3     51    bbb     C7   1519 0.21842400  12.010000   ; qtot 50.883081
 1520         h1     51    bbb    H13   1520 0.04500300   1.008000   ; qtot 50.928084
 1521         h1     51    bbb    H14   1521 0.04500300   1.008000   ; qtot 50.973087
 1522         c3     51    bbb     C8   1522 -0.06455200  12.010000   ; qtot 50.908535
 1523         h1     51    bbb    H15   1523 0.13554100   1.008000   ; qtot 51.044076
 1524         h1     51    bbb    H16   1524 0.13554100   1.008000   ; qtot 51.179617
 1525         c3     51    bbb     C9   1525 -0.06455200  12.010000   ; qtot 51.115065
 1526         h1     51    bbb    H17   1526 0.13554100   1.008000   ; qtot 51.250606
 1527         h1     51    bbb    H18   1527 0.13554100   1.008000   ; qtot 51.386147
 1528         os     51    bbb     O1   1528 -0.62587700  16.000000   ; qtot 50.760270
 1529         hn     51    bbb    H19   1529 0.23982500   1.008000   ; qtot 51.000095
; residue   52 bbb rtp bbb q 1.0
 1530         n4     52    bbb     N1   1530 0.03726400  14.010000   ; qtot 51.037359
 1531         c3     52    bbb     C1   1531 -0.07020100  12.010000   ; qtot 50.967158
 1532         hx     52    bbb     H1   1532 0.12219000   1.008000   ; qtot 51.089348
 1533         hx     52    bbb     H2   1533 0.12219000   1.008000   ; qtot 51.211538
 1534         c3     52    bbb     C2   1534 -0.07020100  12.010000   ; qtot 51.141337
 1535         hx     52    bbb     H3   1535 0.12219000   1.008000   ; qtot 51.263527
 1536         hx     52    bbb     H4   1536 0.12219000   1.008000   ; qtot 51.385717
 1537         c3     52    bbb     C3   1537 -0.39007700  12.010000   ; qtot 50.995640
 1538         hx     52    bbb     H5   1538 0.14940300   1.008000   ; qtot 51.145043
 1539         hx     52    bbb     H6   1539 0.14940300   1.008000   ; qtot 51.294446
 1540         c3     52    bbb     C4   1540 0.18057300  12.010000   ; qtot 51.475019
 1541         hc     52    bbb     H7   1541 0.01788900   1.008000   ; qtot 51.492908
 1542         hc     52    bbb     H8   1542 0.01788900   1.008000   ; qtot 51.510797
 1543         c3     52    bbb     C5   1543 -0.11337700  12.010000   ; qtot 51.397420
 1544         hc     52    bbb     H9   1544 0.09515400   1.008000   ; qtot 51.492574
 1545         hc     52    bbb    H10   1545 0.09515400   1.008000   ; qtot 51.587728
 1546         c3     52    bbb     C6   1546 -0.11337700  12.010000   ; qtot 51.474351
 1547         hc     52    bbb    H11   1547 0.09515400   1.008000   ; qtot 51.569505
 1548         hc     52    bbb    H12   1548 0.09515400   1.008000   ; qtot 51.664659
 1549         c3     52    bbb     C7   1549 0.21842400  12.010000   ; qtot 51.883083
 1550         h1     52    bbb    H13   1550 0.04500300   1.008000   ; qtot 51.928086
 1551         h1     52    bbb    H14   1551 0.04500300   1.008000   ; qtot 51.973089
 1552         c3     52    bbb     C8   1552 -0.06455200  12.010000   ; qtot 51.908537
 1553         h1     52    bbb    H15   1553 0.13554100   1.008000   ; qtot 52.044078
 1554         h1     52    bbb    H16   1554 0.13554100   1.008000   ; qtot 52.179619
 1555         c3     52    bbb     C9   1555 -0.06455200  12.010000   ; qtot 52.115067
 1556         h1     52    bbb    H17   1556 0.13554100   1.008000   ; qtot 52.250608
 1557         h1     52    bbb    H18   1557 0.13554100   1.008000   ; qtot 52.386149
 1558         os     52    bbb     O1   1558 -0.62587700  16.000000   ; qtot 51.760272
 1559         hn     52    bbb    H19   1559 0.23982500   1.008000   ; qtot 52.000097
; residue   53 bbb rtp bbb q 1.0
 1560         n4     53    bbb     N1   1560 0.03726400  14.010000   ; qtot 52.037361
 1561         c3     53    bbb     C1   1561 -0.07020100  12.010000   ; qtot 51.967160
 1562         hx     53    bbb     H1   1562 0.12219000   1.008000   ; qtot 52.089350
 1563         hx     53    bbb     H2   1563 0.12219000   1.008000   ; qtot 52.211540
 1564         c3     53    bbb     C2   1564 -0.07020100  12.010000   ; qtot 52.141339
 1565         hx     53    bbb     H3   1565 0.12219000   1.008000   ; qtot 52.263529
 1566         hx     53    bbb     H4   1566 0.12219000   1.008000   ; qtot 52.385719
 1567         c3     53    bbb     C3   1567 -0.39007700  12.010000   ; qtot 51.995642
 1568         hx     53    bbb     H5   1568 0.14940300   1.008000   ; qtot 52.145045
 1569         hx     53    bbb     H6   1569 0.14940300   1.008000   ; qtot 52.294448
 1570         c3     53    bbb     C4   1570 0.18057300  12.010000   ; qtot 52.475021
 1571         hc     53    bbb     H7   1571 0.01788900   1.008000   ; qtot 52.492910
 1572         hc     53    bbb     H8   1572 0.01788900   1.008000   ; qtot 52.510799
 1573         c3     53    bbb     C5   1573 -0.11337700  12.010000   ; qtot 52.397422
 1574         hc     53    bbb     H9   1574 0.09515400   1.008000   ; qtot 52.492576
 1575         hc     53    bbb    H10   1575 0.09515400   1.008000   ; qtot 52.587730
 1576         c3     53    bbb     C6   1576 -0.11337700  12.010000   ; qtot 52.474353
 1577         hc     53    bbb    H11   1577 0.09515400   1.008000   ; qtot 52.569507
 1578         hc     53    bbb    H12   1578 0.09515400   1.008000   ; qtot 52.664661
 1579         c3     53    bbb     C7   1579 0.21842400  12.010000   ; qtot 52.883085
 1580         h1     53    bbb    H13   1580 0.04500300   1.008000   ; qtot 52.928088
 1581         h1     53    bbb    H14   1581 0.04500300   1.008000   ; qtot 52.973091
 1582         c3     53    bbb     C8   1582 -0.06455200  12.010000   ; qtot 52.908539
 1583         h1     53    bbb    H15   1583 0.13554100   1.008000   ; qtot 53.044080
 1584         h1     53    bbb    H16   1584 0.13554100   1.008000   ; qtot 53.179621
 1585         c3     53    bbb     C9   1585 -0.06455200  12.010000   ; qtot 53.115069
 1586         h1     53    bbb    H17   1586 0.13554100   1.008000   ; qtot 53.250610
 1587         h1     53    bbb    H18   1587 0.13554100   1.008000   ; qtot 53.386151
 1588         os     53    bbb     O1   1588 -0.62587700  16.000000   ; qtot 52.760274
 1589         hn     53    bbb    H19   1589 0.23982500   1.008000   ; qtot 53.000099
; residue   54 bbb rtp bbb q 1.0
 1590         n4     54    bbb     N1   1590 0.03726400  14.010000   ; qtot 53.037363
 1591         c3     54    bbb     C1   1591 -0.07020100  12.010000   ; qtot 52.967162
 1592         hx     54    bbb     H1   1592 0.12219000   1.008000   ; qtot 53.089352
 1593         hx     54    bbb     H2   1593 0.12219000   1.008000   ; qtot 53.211542
 1594         c3     54    bbb     C2   1594 -0.07020100  12.010000   ; qtot 53.141341
 1595         hx     54    bbb     H3   1595 0.12219000   1.008000   ; qtot 53.263531
 1596         hx     54    bbb     H4   1596 0.12219000   1.008000   ; qtot 53.385721
 1597         c3     54    bbb     C3   1597 -0.39007700  12.010000   ; qtot 52.995644
 1598         hx     54    bbb     H5   1598 0.14940300   1.008000   ; qtot 53.145047
 1599         hx     54    bbb     H6   1599 0.14940300   1.008000   ; qtot 53.294450
 1600         c3     54    bbb     C4   1600 0.18057300  12.010000   ; qtot 53.475023
 1601         hc     54    bbb     H7   1601 0.01788900   1.008000   ; qtot 53.492912
 1602         hc     54    bbb     H8   1602 0.01788900   1.008000   ; qtot 53.510801
 1603         c3     54    bbb     C5   1603 -0.11337700  12.010000   ; qtot 53.397424
 1604         hc     54    bbb     H9   1604 0.09515400   1.008000   ; qtot 53.492578
 1605         hc     54    bbb    H10   1605 0.09515400   1.008000   ; qtot 53.587732
 1606         c3     54    bbb     C6   1606 -0.11337700  12.010000   ; qtot 53.474355
 1607         hc     54    bbb    H11   1607 0.09515400   1.008000   ; qtot 53.569509
 1608         hc     54    bbb    H12   1608 0.09515400   1.008000   ; qtot 53.664663
 1609         c3     54    bbb     C7   1609 0.21842400  12.010000   ; qtot 53.883087
 1610         h1     54    bbb    H13   1610 0.04500300   1.008000   ; qtot 53.928090
 1611         h1     54    bbb    H14   1611 0.04500300   1.008000   ; qtot 53.973093
 1612         c3     54    bbb     C8   1612 -0.06455200  12.010000   ; qtot 53.908541
 1613         h1     54    bbb    H15   1613 0.13554100   1.008000   ; qtot 54.044082
 1614         h1     54    bbb    H16   1614 0.13554100   1.008000   ; qtot 54.179623
 1615         c3     54    bbb     C9   1615 -0.06455200  12.010000   ; qtot 54.115071
 1616         h1     54    bbb    H17   1616 0.13554100   1.008000   ; qtot 54.250612
 1617         h1     54    bbb    H18   1617 0.13554100   1.008000   ; qtot 54.386153
 1618         os     54    bbb     O1   1618 -0.62587700  16.000000   ; qtot 53.760276
 1619         hn     54    bbb    H19   1619 0.23982500   1.008000   ; qtot 54.000101
; residue   55 bbb rtp bbb q 1.0
 1620         n4     55    bbb     N1   1620 0.03726400  14.010000   ; qtot 54.037365
 1621         c3     55    bbb     C1   1621 -0.07020100  12.010000   ; qtot 53.967164
 1622         hx     55    bbb     H1   1622 0.12219000   1.008000   ; qtot 54.089354
 1623         hx     55    bbb     H2   1623 0.12219000   1.008000   ; qtot 54.211544
 1624         c3     55    bbb     C2   1624 -0.07020100  12.010000   ; qtot 54.141343
 1625         hx     55    bbb     H3   1625 0.12219000   1.008000   ; qtot 54.263533
 1626         hx     55    bbb     H4   1626 0.12219000   1.008000   ; qtot 54.385723
 1627         c3     55    bbb     C3   1627 -0.39007700  12.010000   ; qtot 53.995646
 1628         hx     55    bbb     H5   1628 0.14940300   1.008000   ; qtot 54.145049
 1629         hx     55    bbb     H6   1629 0.14940300   1.008000   ; qtot 54.294452
 1630         c3     55    bbb     C4   1630 0.18057300  12.010000   ; qtot 54.475025
 1631         hc     55    bbb     H7   1631 0.01788900   1.008000   ; qtot 54.492914
 1632         hc     55    bbb     H8   1632 0.01788900   1.008000   ; qtot 54.510803
 1633         c3     55    bbb     C5   1633 -0.11337700  12.010000   ; qtot 54.397426
 1634         hc     55    bbb     H9   1634 0.09515400   1.008000   ; qtot 54.492580
 1635         hc     55    bbb    H10   1635 0.09515400   1.008000   ; qtot 54.587734
 1636         c3     55    bbb     C6   1636 -0.11337700  12.010000   ; qtot 54.474357
 1637         hc     55    bbb    H11   1637 0.09515400   1.008000   ; qtot 54.569511
 1638         hc     55    bbb    H12   1638 0.09515400   1.008000   ; qtot 54.664665
 1639         c3     55    bbb     C7   1639 0.21842400  12.010000   ; qtot 54.883089
 1640         h1     55    bbb    H13   1640 0.04500300   1.008000   ; qtot 54.928092
 1641         h1     55    bbb    H14   1641 0.04500300   1.008000   ; qtot 54.973095
 1642         c3     55    bbb     C8   1642 -0.06455200  12.010000   ; qtot 54.908543
 1643         h1     55    bbb    H15   1643 0.13554100   1.008000   ; qtot 55.044084
 1644         h1     55    bbb    H16   1644 0.13554100   1.008000   ; qtot 55.179625
 1645         c3     55    bbb     C9   1645 -0.06455200  12.010000   ; qtot 55.115073
 1646         h1     55    bbb    H17   1646 0.13554100   1.008000   ; qtot 55.250614
 1647         h1     55    bbb    H18   1647 0.13554100   1.008000   ; qtot 55.386155
 1648         os     55    bbb     O1   1648 -0.62587700  16.000000   ; qtot 54.760278
 1649         hn     55    bbb    H19   1649 0.23982500   1.008000   ; qtot 55.000103
; residue   56 bbb rtp bbb q 1.0
 1650         n4     56    bbb     N1   1650 0.03726400  14.010000   ; qtot 55.037367
 1651         c3     56    bbb     C1   1651 -0.07020100  12.010000   ; qtot 54.967166
 1652         hx     56    bbb     H1   1652 0.12219000   1.008000   ; qtot 55.089356
 1653         hx     56    bbb     H2   1653 0.12219000   1.008000   ; qtot 55.211546
 1654         c3     56    bbb     C2   1654 -0.07020100  12.010000   ; qtot 55.141345
 1655         hx     56    bbb     H3   1655 0.12219000   1.008000   ; qtot 55.263535
 1656         hx     56    bbb     H4   1656 0.12219000   1.008000   ; qtot 55.385725
 1657         c3     56    bbb     C3   1657 -0.39007700  12.010000   ; qtot 54.995648
 1658         hx     56    bbb     H5   1658 0.14940300   1.008000   ; qtot 55.145051
 1659         hx     56    bbb     H6   1659 0.14940300   1.008000   ; qtot 55.294454
 1660         c3     56    bbb     C4   1660 0.18057300  12.010000   ; qtot 55.475027
 1661         hc     56    bbb     H7   1661 0.01788900   1.008000   ; qtot 55.492916
 1662         hc     56    bbb     H8   1662 0.01788900   1.008000   ; qtot 55.510805
 1663         c3     56    bbb     C5   1663 -0.11337700  12.010000   ; qtot 55.397428
 1664         hc     56    bbb     H9   1664 0.09515400   1.008000   ; qtot 55.492582
 1665         hc     56    bbb    H10   1665 0.09515400   1.008000   ; qtot 55.587736
 1666         c3     56    bbb     C6   1666 -0.11337700  12.010000   ; qtot 55.474359
 1667         hc     56    bbb    H11   1667 0.09515400   1.008000   ; qtot 55.569513
 1668         hc     56    bbb    H12   1668 0.09515400   1.008000   ; qtot 55.664667
 1669         c3     56    bbb     C7   1669 0.21842400  12.010000   ; qtot 55.883091
 1670         h1     56    bbb    H13   1670 0.04500300   1.008000   ; qtot 55.928094
 1671         h1     56    bbb    H14   1671 0.04500300   1.008000   ; qtot 55.973097
 1672         c3     56    bbb     C8   1672 -0.06455200  12.010000   ; qtot 55.908545
 1673         h1     56    bbb    H15   1673 0.13554100   1.008000   ; qtot 56.044086
 1674         h1     56    bbb    H16   1674 0.13554100   1.008000   ; qtot 56.179627
 1675         c3     56    bbb     C9   1675 -0.06455200  12.010000   ; qtot 56.115075
 1676         h1     56    bbb    H17   1676 0.13554100   1.008000   ; qtot 56.250616
 1677         h1     56    bbb    H18   1677 0.13554100   1.008000   ; qtot 56.386157
 1678         os     56    bbb     O1   1678 -0.62587700  16.000000   ; qtot 55.760280
 1679         hn     56    bbb    H19   1679 0.23982500   1.008000   ; qtot 56.000105
; residue   57 bbb rtp bbb q 1.0
 1680         n4     57    bbb     N1   1680 0.03726400  14.010000   ; qtot 56.037369
 1681         c3     57    bbb     C1   1681 -0.07020100  12.010000   ; qtot 55.967168
 1682         hx     57    bbb     H1   1682 0.12219000   1.008000   ; qtot 56.089358
 1683         hx     57    bbb     H2   1683 0.12219000   1.008000   ; qtot 56.211548
 1684         c3     57    bbb     C2   1684 -0.07020100  12.010000   ; qtot 56.141347
 1685         hx     57    bbb     H3   1685 0.12219000   1.008000   ; qtot 56.263537
 1686         hx     57    bbb     H4   1686 0.12219000   1.008000   ; qtot 56.385727
 1687         c3     57    bbb     C3   1687 -0.39007700  12.010000   ; qtot 55.995650
 1688         hx     57    bbb     H5   1688 0.14940300   1.008000   ; qtot 56.145053
 1689         hx     57    bbb     H6   1689 0.14940300   1.008000   ; qtot 56.294456
 1690         c3     57    bbb     C4   1690 0.18057300  12.010000   ; qtot 56.475029
 1691         hc     57    bbb     H7   1691 0.01788900   1.008000   ; qtot 56.492918
 1692         hc     57    bbb     H8   1692 0.01788900   1.008000   ; qtot 56.510807
 1693         c3     57    bbb     C5   1693 -0.11337700  12.010000   ; qtot 56.397430
 1694         hc     57    bbb     H9   1694 0.09515400   1.008000   ; qtot 56.492584
 1695         hc     57    bbb    H10   1695 0.09515400   1.008000   ; qtot 56.587738
 1696         c3     57    bbb     C6   1696 -0.11337700  12.010000   ; qtot 56.474361
 1697         hc     57    bbb    H11   1697 0.09515400   1.008000   ; qtot 56.569515
 1698         hc     57    bbb    H12   1698 0.09515400   1.008000   ; qtot 56.664669
 1699         c3     57    bbb     C7   1699 0.21842400  12.010000   ; qtot 56.883093
 1700         h1     57    bbb    H13   1700 0.04500300   1.008000   ; qtot 56.928096
 1701         h1     57    bbb    H14   1701 0.04500300   1.008000   ; qtot 56.973099
 1702         c3     57    bbb     C8   1702 -0.06455200  12.010000   ; qtot 56.908547
 1703         h1     57    bbb    H15   1703 0.13554100   1.008000   ; qtot 57.044088
 1704         h1     57    bbb    H16   1704 0.13554100   1.008000   ; qtot 57.179629
 1705         c3     57    bbb     C9   1705 -0.06455200  12.010000   ; qtot 57.115077
 1706         h1     57    bbb    H17   1706 0.13554100   1.008000   ; qtot 57.250618
 1707         h1     57    bbb    H18   1707 0.13554100   1.008000   ; qtot 57.386159
 1708         os     57    bbb     O1   1708 -0.62587700  16.000000   ; qtot 56.760282
 1709         hn     57    bbb    H19   1709 0.23982500   1.008000   ; qtot 57.000107
; residue   58 bbb rtp bbb q 1.0
 1710         n4     58    bbb     N1   1710 0.03726400  14.010000   ; qtot 57.037371
 1711         c3     58    bbb     C1   1711 -0.07020100  12.010000   ; qtot 56.967170
 1712         hx     58    bbb     H1   1712 0.12219000   1.008000   ; qtot 57.089360
 1713         hx     58    bbb     H2   1713 0.12219000   1.008000   ; qtot 57.211550
 1714         c3     58    bbb     C2   1714 -0.07020100  12.010000   ; qtot 57.141349
 1715         hx     58    bbb     H3   1715 0.12219000   1.008000   ; qtot 57.263539
 1716         hx     58    bbb     H4   1716 0.12219000   1.008000   ; qtot 57.385729
 1717         c3     58    bbb     C3   1717 -0.39007700  12.010000   ; qtot 56.995652
 1718         hx     58    bbb     H5   1718 0.14940300   1.008000   ; qtot 57.145055
 1719         hx     58    bbb     H6   1719 0.14940300   1.008000   ; qtot 57.294458
 1720         c3     58    bbb     C4   1720 0.18057300  12.010000   ; qtot 57.475031
 1721         hc     58    bbb     H7   1721 0.01788900   1.008000   ; qtot 57.492920
 1722         hc     58    bbb     H8   1722 0.01788900   1.008000   ; qtot 57.510809
 1723         c3     58    bbb     C5   1723 -0.11337700  12.010000   ; qtot 57.397432
 1724         hc     58    bbb     H9   1724 0.09515400   1.008000   ; qtot 57.492586
 1725         hc     58    bbb    H10   1725 0.09515400   1.008000   ; qtot 57.587740
 1726         c3     58    bbb     C6   1726 -0.11337700  12.010000   ; qtot 57.474363
 1727         hc     58    bbb    H11   1727 0.09515400   1.008000   ; qtot 57.569517
 1728         hc     58    bbb    H12   1728 0.09515400   1.008000   ; qtot 57.664671
 1729         c3     58    bbb     C7   1729 0.21842400  12.010000   ; qtot 57.883095
 1730         h1     58    bbb    H13   1730 0.04500300   1.008000   ; qtot 57.928098
 1731         h1     58    bbb    H14   1731 0.04500300   1.008000   ; qtot 57.973101
 1732         c3     58    bbb     C8   1732 -0.06455200  12.010000   ; qtot 57.908549
 1733         h1     58    bbb    H15   1733 0.13554100   1.008000   ; qtot 58.044090
 1734         h1     58    bbb    H16   1734 0.13554100   1.008000   ; qtot 58.179631
 1735         c3     58    bbb     C9   1735 -0.06455200  12.010000   ; qtot 58.115079
 1736         h1     58    bbb    H17   1736 0.13554100   1.008000   ; qtot 58.250620
 1737         h1     58    bbb    H18   1737 0.13554100   1.008000   ; qtot 58.386161
 1738         os     58    bbb     O1   1738 -0.62587700  16.000000   ; qtot 57.760284
 1739         hn     58    bbb    H19   1739 0.23982500   1.008000   ; qtot 58.000109
; residue   59 bbb rtp bbb q 1.0
 1740         n4     59    bbb     N1   1740 0.03726400  14.010000   ; qtot 58.037373
 1741         c3     59    bbb     C1   1741 -0.07020100  12.010000   ; qtot 57.967172
 1742         hx     59    bbb     H1   1742 0.12219000   1.008000   ; qtot 58.089362
 1743         hx     59    bbb     H2   1743 0.12219000   1.008000   ; qtot 58.211552
 1744         c3     59    bbb     C2   1744 -0.07020100  12.010000   ; qtot 58.141351
 1745         hx     59    bbb     H3   1745 0.12219000   1.008000   ; qtot 58.263541
 1746         hx     59    bbb     H4   1746 0.12219000   1.008000   ; qtot 58.385731
 1747         c3     59    bbb     C3   1747 -0.39007700  12.010000   ; qtot 57.995654
 1748         hx     59    bbb     H5   1748 0.14940300   1.008000   ; qtot 58.145057
 1749         hx     59    bbb     H6   1749 0.14940300   1.008000   ; qtot 58.294460
 1750         c3     59    bbb     C4   1750 0.18057300  12.010000   ; qtot 58.475033
 1751         hc     59    bbb     H7   1751 0.01788900   1.008000   ; qtot 58.492922
 1752         hc     59    bbb     H8   1752 0.01788900   1.008000   ; qtot 58.510811
 1753         c3     59    bbb     C5   1753 -0.11337700  12.010000   ; qtot 58.397434
 1754         hc     59    bbb     H9   1754 0.09515400   1.008000   ; qtot 58.492588
 1755         hc     59    bbb    H10   1755 0.09515400   1.008000   ; qtot 58.587742
 1756         c3     59    bbb     C6   1756 -0.11337700  12.010000   ; qtot 58.474365
 1757         hc     59    bbb    H11   1757 0.09515400   1.008000   ; qtot 58.569519
 1758         hc     59    bbb    H12   1758 0.09515400   1.008000   ; qtot 58.664673
 1759         c3     59    bbb     C7   1759 0.21842400  12.010000   ; qtot 58.883097
 1760         h1     59    bbb    H13   1760 0.04500300   1.008000   ; qtot 58.928100
 1761         h1     59    bbb    H14   1761 0.04500300   1.008000   ; qtot 58.973103
 1762         c3     59    bbb     C8   1762 -0.06455200  12.010000   ; qtot 58.908551
 1763         h1     59    bbb    H15   1763 0.13554100   1.008000   ; qtot 59.044092
 1764         h1     59    bbb    H16   1764 0.13554100   1.008000   ; qtot 59.179633
 1765         c3     59    bbb     C9   1765 -0.06455200  12.010000   ; qtot 59.115081
 1766         h1     59    bbb    H17   1766 0.13554100   1.008000   ; qtot 59.250622
 1767         h1     59    bbb    H18   1767 0.13554100   1.008000   ; qtot 59.386163
 1768         os     59    bbb     O1   1768 -0.62587700  16.000000   ; qtot 58.760286
 1769         hn     59    bbb    H19   1769 0.23982500   1.008000   ; qtot 59.000111
; residue   60 bbb rtp bbb q 1.0
 1770         n4     60    bbb     N1   1770 0.03726400  14.010000   ; qtot 59.037375
 1771         c3     60    bbb     C1   1771 -0.07020100  12.010000   ; qtot 58.967174
 1772         hx     60    bbb     H1   1772 0.12219000   1.008000   ; qtot 59.089364
 1773         hx     60    bbb     H2   1773 0.12219000   1.008000   ; qtot 59.211554
 1774         c3     60    bbb     C2   1774 -0.07020100  12.010000   ; qtot 59.141353
 1775         hx     60    bbb     H3   1775 0.12219000   1.008000   ; qtot 59.263543
 1776         hx     60    bbb     H4   1776 0.12219000   1.008000   ; qtot 59.385733
 1777         c3     60    bbb     C3   1777 -0.39007700  12.010000   ; qtot 58.995656
 1778         hx     60    bbb     H5   1778 0.14940300   1.008000   ; qtot 59.145059
 1779         hx     60    bbb     H6   1779 0.14940300   1.008000   ; qtot 59.294462
 1780         c3     60    bbb     C4   1780 0.18057300  12.010000   ; qtot 59.475035
 1781         hc     60    bbb     H7   1781 0.01788900   1.008000   ; qtot 59.492924
 1782         hc     60    bbb     H8   1782 0.01788900   1.008000   ; qtot 59.510813
 1783         c3     60    bbb     C5   1783 -0.11337700  12.010000   ; qtot 59.397436
 1784         hc     60    bbb     H9   1784 0.09515400   1.008000   ; qtot 59.492590
 1785         hc     60    bbb    H10   1785 0.09515400   1.008000   ; qtot 59.587744
 1786         c3     60    bbb     C6   1786 -0.11337700  12.010000   ; qtot 59.474367
 1787         hc     60    bbb    H11   1787 0.09515400   1.008000   ; qtot 59.569521
 1788         hc     60    bbb    H12   1788 0.09515400   1.008000   ; qtot 59.664675
 1789         c3     60    bbb     C7   1789 0.21842400  12.010000   ; qtot 59.883099
 1790         h1     60    bbb    H13   1790 0.04500300   1.008000   ; qtot 59.928102
 1791         h1     60    bbb    H14   1791 0.04500300   1.008000   ; qtot 59.973105
 1792         c3     60    bbb     C8   1792 -0.06455200  12.010000   ; qtot 59.908553
 1793         h1     60    bbb    H15   1793 0.13554100   1.008000   ; qtot 60.044094
 1794         h1     60    bbb    H16   1794 0.13554100   1.008000   ; qtot 60.179635
 1795         c3     60    bbb     C9   1795 -0.06455200  12.010000   ; qtot 60.115083
 1796         h1     60    bbb    H17   1796 0.13554100   1.008000   ; qtot 60.250624
 1797         h1     60    bbb    H18   1797 0.13554100   1.008000   ; qtot 60.386165
 1798         os     60    bbb     O1   1798 -0.62587700  16.000000   ; qtot 59.760288
 1799         hn     60    bbb    H19   1799 0.23982500   1.008000   ; qtot 60.000113
; residue   61 bbb rtp bbb q 1.0
 1800         n4     61    bbb     N1   1800 0.03726400  14.010000   ; qtot 60.037377
 1801         c3     61    bbb     C1   1801 -0.07020100  12.010000   ; qtot 59.967176
 1802         hx     61    bbb     H1   1802 0.12219000   1.008000   ; qtot 60.089366
 1803         hx     61    bbb     H2   1803 0.12219000   1.008000   ; qtot 60.211556
 1804         c3     61    bbb     C2   1804 -0.07020100  12.010000   ; qtot 60.141355
 1805         hx     61    bbb     H3   1805 0.12219000   1.008000   ; qtot 60.263545
 1806         hx     61    bbb     H4   1806 0.12219000   1.008000   ; qtot 60.385735
 1807         c3     61    bbb     C3   1807 -0.39007700  12.010000   ; qtot 59.995658
 1808         hx     61    bbb     H5   1808 0.14940300   1.008000   ; qtot 60.145061
 1809         hx     61    bbb     H6   1809 0.14940300   1.008000   ; qtot 60.294464
 1810         c3     61    bbb     C4   1810 0.18057300  12.010000   ; qtot 60.475037
 1811         hc     61    bbb     H7   1811 0.01788900   1.008000   ; qtot 60.492926
 1812         hc     61    bbb     H8   1812 0.01788900   1.008000   ; qtot 60.510815
 1813         c3     61    bbb     C5   1813 -0.11337700  12.010000   ; qtot 60.397438
 1814         hc     61    bbb     H9   1814 0.09515400   1.008000   ; qtot 60.492592
 1815         hc     61    bbb    H10   1815 0.09515400   1.008000   ; qtot 60.587746
 1816         c3     61    bbb     C6   1816 -0.11337700  12.010000   ; qtot 60.474369
 1817         hc     61    bbb    H11   1817 0.09515400   1.008000   ; qtot 60.569523
 1818         hc     61    bbb    H12   1818 0.09515400   1.008000   ; qtot 60.664677
 1819         c3     61    bbb     C7   1819 0.21842400  12.010000   ; qtot 60.883101
 1820         h1     61    bbb    H13   1820 0.04500300   1.008000   ; qtot 60.928104
 1821         h1     61    bbb    H14   1821 0.04500300   1.008000   ; qtot 60.973107
 1822         c3     61    bbb     C8   1822 -0.06455200  12.010000   ; qtot 60.908555
 1823         h1     61    bbb    H15   1823 0.13554100   1.008000   ; qtot 61.044096
 1824         h1     61    bbb    H16   1824 0.13554100   1.008000   ; qtot 61.179637
 1825         c3     61    bbb     C9   1825 -0.06455200  12.010000   ; qtot 61.115085
 1826         h1     61    bbb    H17   1826 0.13554100   1.008000   ; qtot 61.250626
 1827         h1     61    bbb    H18   1827 0.13554100   1.008000   ; qtot 61.386167
 1828         os     61    bbb     O1   1828 -0.62587700  16.000000   ; qtot 60.760290
 1829         hn     61    bbb    H19   1829 0.23982500   1.008000   ; qtot 61.000115
; residue   62 bbb rtp bbb q 1.0
 1830         n4     62    bbb     N1   1830 0.03726400  14.010000   ; qtot 61.037379
 1831         c3     62    bbb     C1   1831 -0.07020100  12.010000   ; qtot 60.967178
 1832         hx     62    bbb     H1   1832 0.12219000   1.008000   ; qtot 61.089368
 1833         hx     62    bbb     H2   1833 0.12219000   1.008000   ; qtot 61.211558
 1834         c3     62    bbb     C2   1834 -0.07020100  12.010000   ; qtot 61.141357
 1835         hx     62    bbb     H3   1835 0.12219000   1.008000   ; qtot 61.263547
 1836         hx     62    bbb     H4   1836 0.12219000   1.008000   ; qtot 61.385737
 1837         c3     62    bbb     C3   1837 -0.39007700  12.010000   ; qtot 60.995660
 1838         hx     62    bbb     H5   1838 0.14940300   1.008000   ; qtot 61.145063
 1839         hx     62    bbb     H6   1839 0.14940300   1.008000   ; qtot 61.294466
 1840         c3     62    bbb     C4   1840 0.18057300  12.010000   ; qtot 61.475039
 1841         hc     62    bbb     H7   1841 0.01788900   1.008000   ; qtot 61.492928
 1842         hc     62    bbb     H8   1842 0.01788900   1.008000   ; qtot 61.510817
 1843         c3     62    bbb     C5   1843 -0.11337700  12.010000   ; qtot 61.397440
 1844         hc     62    bbb     H9   1844 0.09515400   1.008000   ; qtot 61.492594
 1845         hc     62    bbb    H10   1845 0.09515400   1.008000   ; qtot 61.587748
 1846         c3     62    bbb     C6   1846 -0.11337700  12.010000   ; qtot 61.474371
 1847         hc     62    bbb    H11   1847 0.09515400   1.008000   ; qtot 61.569525
 1848         hc     62    bbb    H12   1848 0.09515400   1.008000   ; qtot 61.664679
 1849         c3     62    bbb     C7   1849 0.21842400  12.010000   ; qtot 61.883103
 1850         h1     62    bbb    H13   1850 0.04500300   1.008000   ; qtot 61.928106
 1851         h1     62    bbb    H14   1851 0.04500300   1.008000   ; qtot 61.973109
 1852         c3     62    bbb     C8   1852 -0.06455200  12.010000   ; qtot 61.908557
 1853         h1     62    bbb    H15   1853 0.13554100   1.008000   ; qtot 62.044098
 1854         h1     62    bbb    H16   1854 0.13554100   1.008000   ; qtot 62.179639
 1855         c3     62    bbb     C9   1855 -0.06455200  12.010000   ; qtot 62.115087
 1856         h1     62    bbb    H17   1856 0.13554100   1.008000   ; qtot 62.250628
 1857         h1     62    bbb    H18   1857 0.13554100   1.008000   ; qtot 62.386169
 1858         os     62    bbb     O1   1858 -0.62587700  16.000000   ; qtot 61.760292
 1859         hn     62    bbb    H19   1859 0.23982500   1.008000   ; qtot 62.000117
; residue   63 bbb rtp bbb q 1.0
 1860         n4     63    bbb     N1   1860 0.03726400  14.010000   ; qtot 62.037381
 1861         c3     63    bbb     C1   1861 -0.07020100  12.010000   ; qtot 61.967180
 1862         hx     63    bbb     H1   1862 0.12219000   1.008000   ; qtot 62.089370
 1863         hx     63    bbb     H2   1863 0.12219000   1.008000   ; qtot 62.211560
 1864         c3     63    bbb     C2   1864 -0.07020100  12.010000   ; qtot 62.141359
 1865         hx     63    bbb     H3   1865 0.12219000   1.008000   ; qtot 62.263549
 1866         hx     63    bbb     H4   1866 0.12219000   1.008000   ; qtot 62.385739
 1867         c3     63    bbb     C3   1867 -0.39007700  12.010000   ; qtot 61.995662
 1868         hx     63    bbb     H5   1868 0.14940300   1.008000   ; qtot 62.145065
 1869         hx     63    bbb     H6   1869 0.14940300   1.008000   ; qtot 62.294468
 1870         c3     63    bbb     C4   1870 0.18057300  12.010000   ; qtot 62.475041
 1871         hc     63    bbb     H7   1871 0.01788900   1.008000   ; qtot 62.492930
 1872         hc     63    bbb     H8   1872 0.01788900   1.008000   ; qtot 62.510819
 1873         c3     63    bbb     C5   1873 -0.11337700  12.010000   ; qtot 62.397442
 1874         hc     63    bbb     H9   1874 0.09515400   1.008000   ; qtot 62.492596
 1875         hc     63    bbb    H10   1875 0.09515400   1.008000   ; qtot 62.587750
 1876         c3     63    bbb     C6   1876 -0.11337700  12.010000   ; qtot 62.474373
 1877         hc     63    bbb    H11   1877 0.09515400   1.008000   ; qtot 62.569527
 1878         hc     63    bbb    H12   1878 0.09515400   1.008000   ; qtot 62.664681
 1879         c3     63    bbb     C7   1879 0.21842400  12.010000   ; qtot 62.883105
 1880         h1     63    bbb    H13   1880 0.04500300   1.008000   ; qtot 62.928108
 1881         h1     63    bbb    H14   1881 0.04500300   1.008000   ; qtot 62.973111
 1882         c3     63    bbb     C8   1882 -0.06455200  12.010000   ; qtot 62.908559
 1883         h1     63    bbb    H15   1883 0.13554100   1.008000   ; qtot 63.044100
 1884         h1     63    bbb    H16   1884 0.13554100   1.008000   ; qtot 63.179641
 1885         c3     63    bbb     C9   1885 -0.06455200  12.010000   ; qtot 63.115089
 1886         h1     63    bbb    H17   1886 0.13554100   1.008000   ; qtot 63.250630
 1887         h1     63    bbb    H18   1887 0.13554100   1.008000   ; qtot 63.386171
 1888         os     63    bbb     O1   1888 -0.62587700  16.000000   ; qtot 62.760294
 1889         hn     63    bbb    H19   1889 0.23982500   1.008000   ; qtot 63.000119
; residue   64 bbb rtp bbb q 1.0
 1890         n4     64    bbb     N1   1890 0.03726400  14.010000   ; qtot 63.037383
 1891         c3     64    bbb     C1   1891 -0.07020100  12.010000   ; qtot 62.967182
 1892         hx     64    bbb     H1   1892 0.12219000   1.008000   ; qtot 63.089372
 1893         hx     64    bbb     H2   1893 0.12219000   1.008000   ; qtot 63.211562
 1894         c3     64    bbb     C2   1894 -0.07020100  12.010000   ; qtot 63.141361
 1895         hx     64    bbb     H3   1895 0.12219000   1.008000   ; qtot 63.263551
 1896         hx     64    bbb     H4   1896 0.12219000   1.008000   ; qtot 63.385741
 1897         c3     64    bbb     C3   1897 -0.39007700  12.010000   ; qtot 62.995664
 1898         hx     64    bbb     H5   1898 0.14940300   1.008000   ; qtot 63.145067
 1899         hx     64    bbb     H6   1899 0.14940300   1.008000   ; qtot 63.294470
 1900         c3     64    bbb     C4   1900 0.18057300  12.010000   ; qtot 63.475043
 1901         hc     64    bbb     H7   1901 0.01788900   1.008000   ; qtot 63.492932
 1902         hc     64    bbb     H8   1902 0.01788900   1.008000   ; qtot 63.510821
 1903         c3     64    bbb     C5   1903 -0.11337700  12.010000   ; qtot 63.397444
 1904         hc     64    bbb     H9   1904 0.09515400   1.008000   ; qtot 63.492598
 1905         hc     64    bbb    H10   1905 0.09515400   1.008000   ; qtot 63.587752
 1906         c3     64    bbb     C6   1906 -0.11337700  12.010000   ; qtot 63.474375
 1907         hc     64    bbb    H11   1907 0.09515400   1.008000   ; qtot 63.569529
 1908         hc     64    bbb    H12   1908 0.09515400   1.008000   ; qtot 63.664683
 1909         c3     64    bbb     C7   1909 0.21842400  12.010000   ; qtot 63.883107
 1910         h1     64    bbb    H13   1910 0.04500300   1.008000   ; qtot 63.928110
 1911         h1     64    bbb    H14   1911 0.04500300   1.008000   ; qtot 63.973113
 1912         c3     64    bbb     C8   1912 -0.06455200  12.010000   ; qtot 63.908561
 1913         h1     64    bbb    H15   1913 0.13554100   1.008000   ; qtot 64.044102
 1914         h1     64    bbb    H16   1914 0.13554100   1.008000   ; qtot 64.179643
 1915         c3     64    bbb     C9   1915 -0.06455200  12.010000   ; qtot 64.115091
 1916         h1     64    bbb    H17   1916 0.13554100   1.008000   ; qtot 64.250632
 1917         h1     64    bbb    H18   1917 0.13554100   1.008000   ; qtot 64.386173
 1918         os     64    bbb     O1   1918 -0.62587700  16.000000   ; qtot 63.760296
 1919         hn     64    bbb    H19   1919 0.23982500   1.008000   ; qtot 64.000121
; residue   65 bbb rtp bbb q 1.0
 1920         n4     65    bbb     N1   1920 0.03726400  14.010000   ; qtot 64.037385
 1921         c3     65    bbb     C1   1921 -0.07020100  12.010000   ; qtot 63.967184
 1922         hx     65    bbb     H1   1922 0.12219000   1.008000   ; qtot 64.089374
 1923         hx     65    bbb     H2   1923 0.12219000   1.008000   ; qtot 64.211564
 1924         c3     65    bbb     C2   1924 -0.07020100  12.010000   ; qtot 64.141363
 1925         hx     65    bbb     H3   1925 0.12219000   1.008000   ; qtot 64.263553
 1926         hx     65    bbb     H4   1926 0.12219000   1.008000   ; qtot 64.385743
 1927         c3     65    bbb     C3   1927 -0.39007700  12.010000   ; qtot 63.995666
 1928         hx     65    bbb     H5   1928 0.14940300   1.008000   ; qtot 64.145069
 1929         hx     65    bbb     H6   1929 0.14940300   1.008000   ; qtot 64.294472
 1930         c3     65    bbb     C4   1930 0.18057300  12.010000   ; qtot 64.475045
 1931         hc     65    bbb     H7   1931 0.01788900   1.008000   ; qtot 64.492934
 1932         hc     65    bbb     H8   1932 0.01788900   1.008000   ; qtot 64.510823
 1933         c3     65    bbb     C5   1933 -0.11337700  12.010000   ; qtot 64.397446
 1934         hc     65    bbb     H9   1934 0.09515400   1.008000   ; qtot 64.492600
 1935         hc     65    bbb    H10   1935 0.09515400   1.008000   ; qtot 64.587754
 1936         c3     65    bbb     C6   1936 -0.11337700  12.010000   ; qtot 64.474377
 1937         hc     65    bbb    H11   1937 0.09515400   1.008000   ; qtot 64.569531
 1938         hc     65    bbb    H12   1938 0.09515400   1.008000   ; qtot 64.664685
 1939         c3     65    bbb     C7   1939 0.21842400  12.010000   ; qtot 64.883109
 1940         h1     65    bbb    H13   1940 0.04500300   1.008000   ; qtot 64.928112
 1941         h1     65    bbb    H14   1941 0.04500300   1.008000   ; qtot 64.973115
 1942         c3     65    bbb     C8   1942 -0.06455200  12.010000   ; qtot 64.908563
 1943         h1     65    bbb    H15   1943 0.13554100   1.008000   ; qtot 65.044104
 1944         h1     65    bbb    H16   1944 0.13554100   1.008000   ; qtot 65.179645
 1945         c3     65    bbb     C9   1945 -0.06455200  12.010000   ; qtot 65.115093
 1946         h1     65    bbb    H17   1946 0.13554100   1.008000   ; qtot 65.250634
 1947         h1     65    bbb    H18   1947 0.13554100   1.008000   ; qtot 65.386175
 1948         os     65    bbb     O1   1948 -0.62587700  16.000000   ; qtot 64.760298
 1949         hn     65    bbb    H19   1949 0.23982500   1.008000   ; qtot 65.000123
; residue   66 bbb rtp bbb q 1.0
 1950         n4     66    bbb     N1   1950 0.03726400  14.010000   ; qtot 65.037387
 1951         c3     66    bbb     C1   1951 -0.07020100  12.010000   ; qtot 64.967186
 1952         hx     66    bbb     H1   1952 0.12219000   1.008000   ; qtot 65.089376
 1953         hx     66    bbb     H2   1953 0.12219000   1.008000   ; qtot 65.211566
 1954         c3     66    bbb     C2   1954 -0.07020100  12.010000   ; qtot 65.141365
 1955         hx     66    bbb     H3   1955 0.12219000   1.008000   ; qtot 65.263555
 1956         hx     66    bbb     H4   1956 0.12219000   1.008000   ; qtot 65.385745
 1957         c3     66    bbb     C3   1957 -0.39007700  12.010000   ; qtot 64.995668
 1958         hx     66    bbb     H5   1958 0.14940300   1.008000   ; qtot 65.145071
 1959         hx     66    bbb     H6   1959 0.14940300   1.008000   ; qtot 65.294474
 1960         c3     66    bbb     C4   1960 0.18057300  12.010000   ; qtot 65.475047
 1961         hc     66    bbb     H7   1961 0.01788900   1.008000   ; qtot 65.492936
 1962         hc     66    bbb     H8   1962 0.01788900   1.008000   ; qtot 65.510825
 1963         c3     66    bbb     C5   1963 -0.11337700  12.010000   ; qtot 65.397448
 1964         hc     66    bbb     H9   1964 0.09515400   1.008000   ; qtot 65.492602
 1965         hc     66    bbb    H10   1965 0.09515400   1.008000   ; qtot 65.587756
 1966         c3     66    bbb     C6   1966 -0.11337700  12.010000   ; qtot 65.474379
 1967         hc     66    bbb    H11   1967 0.09515400   1.008000   ; qtot 65.569533
 1968         hc     66    bbb    H12   1968 0.09515400   1.008000   ; qtot 65.664687
 1969         c3     66    bbb     C7   1969 0.21842400  12.010000   ; qtot 65.883111
 1970         h1     66    bbb    H13   1970 0.04500300   1.008000   ; qtot 65.928114
 1971         h1     66    bbb    H14   1971 0.04500300   1.008000   ; qtot 65.973117
 1972         c3     66    bbb     C8   1972 -0.06455200  12.010000   ; qtot 65.908565
 1973         h1     66    bbb    H15   1973 0.13554100   1.008000   ; qtot 66.044106
 1974         h1     66    bbb    H16   1974 0.13554100   1.008000   ; qtot 66.179647
 1975         c3     66    bbb     C9   1975 -0.06455200  12.010000   ; qtot 66.115095
 1976         h1     66    bbb    H17   1976 0.13554100   1.008000   ; qtot 66.250636
 1977         h1     66    bbb    H18   1977 0.13554100   1.008000   ; qtot 66.386177
 1978         os     66    bbb     O1   1978 -0.62587700  16.000000   ; qtot 65.760300
 1979         hn     66    bbb    H19   1979 0.23982500   1.008000   ; qtot 66.000125
; residue   67 bbb rtp bbb q 1.0
 1980         n4     67    bbb     N1   1980 0.03726400  14.010000   ; qtot 66.037389
 1981         c3     67    bbb     C1   1981 -0.07020100  12.010000   ; qtot 65.967188
 1982         hx     67    bbb     H1   1982 0.12219000   1.008000   ; qtot 66.089378
 1983         hx     67    bbb     H2   1983 0.12219000   1.008000   ; qtot 66.211568
 1984         c3     67    bbb     C2   1984 -0.07020100  12.010000   ; qtot 66.141367
 1985         hx     67    bbb     H3   1985 0.12219000   1.008000   ; qtot 66.263557
 1986         hx     67    bbb     H4   1986 0.12219000   1.008000   ; qtot 66.385747
 1987         c3     67    bbb     C3   1987 -0.39007700  12.010000   ; qtot 65.995670
 1988         hx     67    bbb     H5   1988 0.14940300   1.008000   ; qtot 66.145073
 1989         hx     67    bbb     H6   1989 0.14940300   1.008000   ; qtot 66.294476
 1990         c3     67    bbb     C4   1990 0.18057300  12.010000   ; qtot 66.475049
 1991         hc     67    bbb     H7   1991 0.01788900   1.008000   ; qtot 66.492938
 1992         hc     67    bbb     H8   1992 0.01788900   1.008000   ; qtot 66.510827
 1993         c3     67    bbb     C5   1993 -0.11337700  12.010000   ; qtot 66.397450
 1994         hc     67    bbb     H9   1994 0.09515400   1.008000   ; qtot 66.492604
 1995         hc     67    bbb    H10   1995 0.09515400   1.008000   ; qtot 66.587758
 1996         c3     67    bbb     C6   1996 -0.11337700  12.010000   ; qtot 66.474381
 1997         hc     67    bbb    H11   1997 0.09515400   1.008000   ; qtot 66.569535
 1998         hc     67    bbb    H12   1998 0.09515400   1.008000   ; qtot 66.664689
 1999         c3     67    bbb     C7   1999 0.21842400  12.010000   ; qtot 66.883113
 2000         h1     67    bbb    H13   2000 0.04500300   1.008000   ; qtot 66.928116
 2001         h1     67    bbb    H14   2001 0.04500300   1.008000   ; qtot 66.973119
 2002         c3     67    bbb     C8   2002 -0.06455200  12.010000   ; qtot 66.908567
 2003         h1     67    bbb    H15   2003 0.13554100   1.008000   ; qtot 67.044108
 2004         h1     67    bbb    H16   2004 0.13554100   1.008000   ; qtot 67.179649
 2005         c3     67    bbb     C9   2005 -0.06455200  12.010000   ; qtot 67.115097
 2006         h1     67    bbb    H17   2006 0.13554100   1.008000   ; qtot 67.250638
 2007         h1     67    bbb    H18   2007 0.13554100   1.008000   ; qtot 67.386179
 2008         os     67    bbb     O1   2008 -0.62587700  16.000000   ; qtot 66.760302
 2009         hn     67    bbb    H19   2009 0.23982500   1.008000   ; qtot 67.000127
; residue   68 bbb rtp bbb q 1.0
 2010         n4     68    bbb     N1   2010 0.03726400  14.010000   ; qtot 67.037391
 2011         c3     68    bbb     C1   2011 -0.07020100  12.010000   ; qtot 66.967190
 2012         hx     68    bbb     H1   2012 0.12219000   1.008000   ; qtot 67.089380
 2013         hx     68    bbb     H2   2013 0.12219000   1.008000   ; qtot 67.211570
 2014         c3     68    bbb     C2   2014 -0.07020100  12.010000   ; qtot 67.141369
 2015         hx     68    bbb     H3   2015 0.12219000   1.008000   ; qtot 67.263559
 2016         hx     68    bbb     H4   2016 0.12219000   1.008000   ; qtot 67.385749
 2017         c3     68    bbb     C3   2017 -0.39007700  12.010000   ; qtot 66.995672
 2018         hx     68    bbb     H5   2018 0.14940300   1.008000   ; qtot 67.145075
 2019         hx     68    bbb     H6   2019 0.14940300   1.008000   ; qtot 67.294478
 2020         c3     68    bbb     C4   2020 0.18057300  12.010000   ; qtot 67.475051
 2021         hc     68    bbb     H7   2021 0.01788900   1.008000   ; qtot 67.492940
 2022         hc     68    bbb     H8   2022 0.01788900   1.008000   ; qtot 67.510829
 2023         c3     68    bbb     C5   2023 -0.11337700  12.010000   ; qtot 67.397452
 2024         hc     68    bbb     H9   2024 0.09515400   1.008000   ; qtot 67.492606
 2025         hc     68    bbb    H10   2025 0.09515400   1.008000   ; qtot 67.587760
 2026         c3     68    bbb     C6   2026 -0.11337700  12.010000   ; qtot 67.474383
 2027         hc     68    bbb    H11   2027 0.09515400   1.008000   ; qtot 67.569537
 2028         hc     68    bbb    H12   2028 0.09515400   1.008000   ; qtot 67.664691
 2029         c3     68    bbb     C7   2029 0.21842400  12.010000   ; qtot 67.883115
 2030         h1     68    bbb    H13   2030 0.04500300   1.008000   ; qtot 67.928118
 2031         h1     68    bbb    H14   2031 0.04500300   1.008000   ; qtot 67.973121
 2032         c3     68    bbb     C8   2032 -0.06455200  12.010000   ; qtot 67.908569
 2033         h1     68    bbb    H15   2033 0.13554100   1.008000   ; qtot 68.044110
 2034         h1     68    bbb    H16   2034 0.13554100   1.008000   ; qtot 68.179651
 2035         c3     68    bbb     C9   2035 -0.06455200  12.010000   ; qtot 68.115099
 2036         h1     68    bbb    H17   2036 0.13554100   1.008000   ; qtot 68.250640
 2037         h1     68    bbb    H18   2037 0.13554100   1.008000   ; qtot 68.386181
 2038         os     68    bbb     O1   2038 -0.62587700  16.000000   ; qtot 67.760304
 2039         hn     68    bbb    H19   2039 0.23982500   1.008000   ; qtot 68.000129
; residue   69 bbb rtp bbb q 1.0
 2040         n4     69    bbb     N1   2040 0.03726400  14.010000   ; qtot 68.037393
 2041         c3     69    bbb     C1   2041 -0.07020100  12.010000   ; qtot 67.967192
 2042         hx     69    bbb     H1   2042 0.12219000   1.008000   ; qtot 68.089382
 2043         hx     69    bbb     H2   2043 0.12219000   1.008000   ; qtot 68.211572
 2044         c3     69    bbb     C2   2044 -0.07020100  12.010000   ; qtot 68.141371
 2045         hx     69    bbb     H3   2045 0.12219000   1.008000   ; qtot 68.263561
 2046         hx     69    bbb     H4   2046 0.12219000   1.008000   ; qtot 68.385751
 2047         c3     69    bbb     C3   2047 -0.39007700  12.010000   ; qtot 67.995674
 2048         hx     69    bbb     H5   2048 0.14940300   1.008000   ; qtot 68.145077
 2049         hx     69    bbb     H6   2049 0.14940300   1.008000   ; qtot 68.294480
 2050         c3     69    bbb     C4   2050 0.18057300  12.010000   ; qtot 68.475053
 2051         hc     69    bbb     H7   2051 0.01788900   1.008000   ; qtot 68.492942
 2052         hc     69    bbb     H8   2052 0.01788900   1.008000   ; qtot 68.510831
 2053         c3     69    bbb     C5   2053 -0.11337700  12.010000   ; qtot 68.397454
 2054         hc     69    bbb     H9   2054 0.09515400   1.008000   ; qtot 68.492608
 2055         hc     69    bbb    H10   2055 0.09515400   1.008000   ; qtot 68.587762
 2056         c3     69    bbb     C6   2056 -0.11337700  12.010000   ; qtot 68.474385
 2057         hc     69    bbb    H11   2057 0.09515400   1.008000   ; qtot 68.569539
 2058         hc     69    bbb    H12   2058 0.09515400   1.008000   ; qtot 68.664693
 2059         c3     69    bbb     C7   2059 0.21842400  12.010000   ; qtot 68.883117
 2060         h1     69    bbb    H13   2060 0.04500300   1.008000   ; qtot 68.928120
 2061         h1     69    bbb    H14   2061 0.04500300   1.008000   ; qtot 68.973123
 2062         c3     69    bbb     C8   2062 -0.06455200  12.010000   ; qtot 68.908571
 2063         h1     69    bbb    H15   2063 0.13554100   1.008000   ; qtot 69.044112
 2064         h1     69    bbb    H16   2064 0.13554100   1.008000   ; qtot 69.179653
 2065         c3     69    bbb     C9   2065 -0.06455200  12.010000   ; qtot 69.115101
 2066         h1     69    bbb    H17   2066 0.13554100   1.008000   ; qtot 69.250642
 2067         h1     69    bbb    H18   2067 0.13554100   1.008000   ; qtot 69.386183
 2068         os     69    bbb     O1   2068 -0.62587700  16.000000   ; qtot 68.760306
 2069         hn     69    bbb    H19   2069 0.23982500   1.008000   ; qtot 69.000131
; residue   70 bbb rtp bbb q 1.0
 2070         n4     70    bbb     N1   2070 0.03726400  14.010000   ; qtot 69.037395
 2071         c3     70    bbb     C1   2071 -0.07020100  12.010000   ; qtot 68.967194
 2072         hx     70    bbb     H1   2072 0.12219000   1.008000   ; qtot 69.089384
 2073         hx     70    bbb     H2   2073 0.12219000   1.008000   ; qtot 69.211574
 2074         c3     70    bbb     C2   2074 -0.07020100  12.010000   ; qtot 69.141373
 2075         hx     70    bbb     H3   2075 0.12219000   1.008000   ; qtot 69.263563
 2076         hx     70    bbb     H4   2076 0.12219000   1.008000   ; qtot 69.385753
 2077         c3     70    bbb     C3   2077 -0.39007700  12.010000   ; qtot 68.995676
 2078         hx     70    bbb     H5   2078 0.14940300   1.008000   ; qtot 69.145079
 2079         hx     70    bbb     H6   2079 0.14940300   1.008000   ; qtot 69.294482
 2080         c3     70    bbb     C4   2080 0.18057300  12.010000   ; qtot 69.475055
 2081         hc     70    bbb     H7   2081 0.01788900   1.008000   ; qtot 69.492944
 2082         hc     70    bbb     H8   2082 0.01788900   1.008000   ; qtot 69.510833
 2083         c3     70    bbb     C5   2083 -0.11337700  12.010000   ; qtot 69.397456
 2084         hc     70    bbb     H9   2084 0.09515400   1.008000   ; qtot 69.492610
 2085         hc     70    bbb    H10   2085 0.09515400   1.008000   ; qtot 69.587764
 2086         c3     70    bbb     C6   2086 -0.11337700  12.010000   ; qtot 69.474387
 2087         hc     70    bbb    H11   2087 0.09515400   1.008000   ; qtot 69.569541
 2088         hc     70    bbb    H12   2088 0.09515400   1.008000   ; qtot 69.664695
 2089         c3     70    bbb     C7   2089 0.21842400  12.010000   ; qtot 69.883119
 2090         h1     70    bbb    H13   2090 0.04500300   1.008000   ; qtot 69.928122
 2091         h1     70    bbb    H14   2091 0.04500300   1.008000   ; qtot 69.973125
 2092         c3     70    bbb     C8   2092 -0.06455200  12.010000   ; qtot 69.908573
 2093         h1     70    bbb    H15   2093 0.13554100   1.008000   ; qtot 70.044114
 2094         h1     70    bbb    H16   2094 0.13554100   1.008000   ; qtot 70.179655
 2095         c3     70    bbb     C9   2095 -0.06455200  12.010000   ; qtot 70.115103
 2096         h1     70    bbb    H17   2096 0.13554100   1.008000   ; qtot 70.250644
 2097         h1     70    bbb    H18   2097 0.13554100   1.008000   ; qtot 70.386185
 2098         os     70    bbb     O1   2098 -0.62587700  16.000000   ; qtot 69.760308
 2099         hn     70    bbb    H19   2099 0.23982500   1.008000   ; qtot 70.000133
; residue   71 bbb rtp bbb q 1.0
 2100         n4     71    bbb     N1   2100 0.03726400  14.010000   ; qtot 70.037397
 2101         c3     71    bbb     C1   2101 -0.07020100  12.010000   ; qtot 69.967196
 2102         hx     71    bbb     H1   2102 0.12219000   1.008000   ; qtot 70.089386
 2103         hx     71    bbb     H2   2103 0.12219000   1.008000   ; qtot 70.211576
 2104         c3     71    bbb     C2   2104 -0.07020100  12.010000   ; qtot 70.141375
 2105         hx     71    bbb     H3   2105 0.12219000   1.008000   ; qtot 70.263565
 2106         hx     71    bbb     H4   2106 0.12219000   1.008000   ; qtot 70.385755
 2107         c3     71    bbb     C3   2107 -0.39007700  12.010000   ; qtot 69.995678
 2108         hx     71    bbb     H5   2108 0.14940300   1.008000   ; qtot 70.145081
 2109         hx     71    bbb     H6   2109 0.14940300   1.008000   ; qtot 70.294484
 2110         c3     71    bbb     C4   2110 0.18057300  12.010000   ; qtot 70.475057
 2111         hc     71    bbb     H7   2111 0.01788900   1.008000   ; qtot 70.492946
 2112         hc     71    bbb     H8   2112 0.01788900   1.008000   ; qtot 70.510835
 2113         c3     71    bbb     C5   2113 -0.11337700  12.010000   ; qtot 70.397458
 2114         hc     71    bbb     H9   2114 0.09515400   1.008000   ; qtot 70.492612
 2115         hc     71    bbb    H10   2115 0.09515400   1.008000   ; qtot 70.587766
 2116         c3     71    bbb     C6   2116 -0.11337700  12.010000   ; qtot 70.474389
 2117         hc     71    bbb    H11   2117 0.09515400   1.008000   ; qtot 70.569543
 2118         hc     71    bbb    H12   2118 0.09515400   1.008000   ; qtot 70.664697
 2119         c3     71    bbb     C7   2119 0.21842400  12.010000   ; qtot 70.883121
 2120         h1     71    bbb    H13   2120 0.04500300   1.008000   ; qtot 70.928124
 2121         h1     71    bbb    H14   2121 0.04500300   1.008000   ; qtot 70.973127
 2122         c3     71    bbb     C8   2122 -0.06455200  12.010000   ; qtot 70.908575
 2123         h1     71    bbb    H15   2123 0.13554100   1.008000   ; qtot 71.044116
 2124         h1     71    bbb    H16   2124 0.13554100   1.008000   ; qtot 71.179657
 2125         c3     71    bbb     C9   2125 -0.06455200  12.010000   ; qtot 71.115105
 2126         h1     71    bbb    H17   2126 0.13554100   1.008000   ; qtot 71.250646
 2127         h1     71    bbb    H18   2127 0.13554100   1.008000   ; qtot 71.386187
 2128         os     71    bbb     O1   2128 -0.62587700  16.000000   ; qtot 70.760310
 2129         hn     71    bbb    H19   2129 0.23982500   1.008000   ; qtot 71.000135
; residue   72 bbb rtp bbb q 1.0
 2130         n4     72    bbb     N1   2130 0.03726400  14.010000   ; qtot 71.037399
 2131         c3     72    bbb     C1   2131 -0.07020100  12.010000   ; qtot 70.967198
 2132         hx     72    bbb     H1   2132 0.12219000   1.008000   ; qtot 71.089388
 2133         hx     72    bbb     H2   2133 0.12219000   1.008000   ; qtot 71.211578
 2134         c3     72    bbb     C2   2134 -0.07020100  12.010000   ; qtot 71.141377
 2135         hx     72    bbb     H3   2135 0.12219000   1.008000   ; qtot 71.263567
 2136         hx     72    bbb     H4   2136 0.12219000   1.008000   ; qtot 71.385757
 2137         c3     72    bbb     C3   2137 -0.39007700  12.010000   ; qtot 70.995680
 2138         hx     72    bbb     H5   2138 0.14940300   1.008000   ; qtot 71.145083
 2139         hx     72    bbb     H6   2139 0.14940300   1.008000   ; qtot 71.294486
 2140         c3     72    bbb     C4   2140 0.18057300  12.010000   ; qtot 71.475059
 2141         hc     72    bbb     H7   2141 0.01788900   1.008000   ; qtot 71.492948
 2142         hc     72    bbb     H8   2142 0.01788900   1.008000   ; qtot 71.510837
 2143         c3     72    bbb     C5   2143 -0.11337700  12.010000   ; qtot 71.397460
 2144         hc     72    bbb     H9   2144 0.09515400   1.008000   ; qtot 71.492614
 2145         hc     72    bbb    H10   2145 0.09515400   1.008000   ; qtot 71.587768
 2146         c3     72    bbb     C6   2146 -0.11337700  12.010000   ; qtot 71.474391
 2147         hc     72    bbb    H11   2147 0.09515400   1.008000   ; qtot 71.569545
 2148         hc     72    bbb    H12   2148 0.09515400   1.008000   ; qtot 71.664699
 2149         c3     72    bbb     C7   2149 0.21842400  12.010000   ; qtot 71.883123
 2150         h1     72    bbb    H13   2150 0.04500300   1.008000   ; qtot 71.928126
 2151         h1     72    bbb    H14   2151 0.04500300   1.008000   ; qtot 71.973129
 2152         c3     72    bbb     C8   2152 -0.06455200  12.010000   ; qtot 71.908577
 2153         h1     72    bbb    H15   2153 0.13554100   1.008000   ; qtot 72.044118
 2154         h1     72    bbb    H16   2154 0.13554100   1.008000   ; qtot 72.179659
 2155         c3     72    bbb     C9   2155 -0.06455200  12.010000   ; qtot 72.115107
 2156         h1     72    bbb    H17   2156 0.13554100   1.008000   ; qtot 72.250648
 2157         h1     72    bbb    H18   2157 0.13554100   1.008000   ; qtot 72.386189
 2158         os     72    bbb     O1   2158 -0.62587700  16.000000   ; qtot 71.760312
 2159         hn     72    bbb    H19   2159 0.23982500   1.008000   ; qtot 72.000137
; residue   73 bbb rtp bbb q 1.0
 2160         n4     73    bbb     N1   2160 0.03726400  14.010000   ; qtot 72.037401
 2161         c3     73    bbb     C1   2161 -0.07020100  12.010000   ; qtot 71.967200
 2162         hx     73    bbb     H1   2162 0.12219000   1.008000   ; qtot 72.089390
 2163         hx     73    bbb     H2   2163 0.12219000   1.008000   ; qtot 72.211580
 2164         c3     73    bbb     C2   2164 -0.07020100  12.010000   ; qtot 72.141379
 2165         hx     73    bbb     H3   2165 0.12219000   1.008000   ; qtot 72.263569
 2166         hx     73    bbb     H4   2166 0.12219000   1.008000   ; qtot 72.385759
 2167         c3     73    bbb     C3   2167 -0.39007700  12.010000   ; qtot 71.995682
 2168         hx     73    bbb     H5   2168 0.14940300   1.008000   ; qtot 72.145085
 2169         hx     73    bbb     H6   2169 0.14940300   1.008000   ; qtot 72.294488
 2170         c3     73    bbb     C4   2170 0.18057300  12.010000   ; qtot 72.475061
 2171         hc     73    bbb     H7   2171 0.01788900   1.008000   ; qtot 72.492950
 2172         hc     73    bbb     H8   2172 0.01788900   1.008000   ; qtot 72.510839
 2173         c3     73    bbb     C5   2173 -0.11337700  12.010000   ; qtot 72.397462
 2174         hc     73    bbb     H9   2174 0.09515400   1.008000   ; qtot 72.492616
 2175         hc     73    bbb    H10   2175 0.09515400   1.008000   ; qtot 72.587770
 2176         c3     73    bbb     C6   2176 -0.11337700  12.010000   ; qtot 72.474393
 2177         hc     73    bbb    H11   2177 0.09515400   1.008000   ; qtot 72.569547
 2178         hc     73    bbb    H12   2178 0.09515400   1.008000   ; qtot 72.664701
 2179         c3     73    bbb     C7   2179 0.21842400  12.010000   ; qtot 72.883125
 2180         h1     73    bbb    H13   2180 0.04500300   1.008000   ; qtot 72.928128
 2181         h1     73    bbb    H14   2181 0.04500300   1.008000   ; qtot 72.973131
 2182         c3     73    bbb     C8   2182 -0.06455200  12.010000   ; qtot 72.908579
 2183         h1     73    bbb    H15   2183 0.13554100   1.008000   ; qtot 73.044120
 2184         h1     73    bbb    H16   2184 0.13554100   1.008000   ; qtot 73.179661
 2185         c3     73    bbb     C9   2185 -0.06455200  12.010000   ; qtot 73.115109
 2186         h1     73    bbb    H17   2186 0.13554100   1.008000   ; qtot 73.250650
 2187         h1     73    bbb    H18   2187 0.13554100   1.008000   ; qtot 73.386191
 2188         os     73    bbb     O1   2188 -0.62587700  16.000000   ; qtot 72.760314
 2189         hn     73    bbb    H19   2189 0.23982500   1.008000   ; qtot 73.000139
; residue   74 bbb rtp bbb q 1.0
 2190         n4     74    bbb     N1   2190 0.03726400  14.010000   ; qtot 73.037403
 2191         c3     74    bbb     C1   2191 -0.07020100  12.010000   ; qtot 72.967202
 2192         hx     74    bbb     H1   2192 0.12219000   1.008000   ; qtot 73.089392
 2193         hx     74    bbb     H2   2193 0.12219000   1.008000   ; qtot 73.211582
 2194         c3     74    bbb     C2   2194 -0.07020100  12.010000   ; qtot 73.141381
 2195         hx     74    bbb     H3   2195 0.12219000   1.008000   ; qtot 73.263571
 2196         hx     74    bbb     H4   2196 0.12219000   1.008000   ; qtot 73.385761
 2197         c3     74    bbb     C3   2197 -0.39007700  12.010000   ; qtot 72.995684
 2198         hx     74    bbb     H5   2198 0.14940300   1.008000   ; qtot 73.145087
 2199         hx     74    bbb     H6   2199 0.14940300   1.008000   ; qtot 73.294490
 2200         c3     74    bbb     C4   2200 0.18057300  12.010000   ; qtot 73.475063
 2201         hc     74    bbb     H7   2201 0.01788900   1.008000   ; qtot 73.492952
 2202         hc     74    bbb     H8   2202 0.01788900   1.008000   ; qtot 73.510841
 2203         c3     74    bbb     C5   2203 -0.11337700  12.010000   ; qtot 73.397464
 2204         hc     74    bbb     H9   2204 0.09515400   1.008000   ; qtot 73.492618
 2205         hc     74    bbb    H10   2205 0.09515400   1.008000   ; qtot 73.587772
 2206         c3     74    bbb     C6   2206 -0.11337700  12.010000   ; qtot 73.474395
 2207         hc     74    bbb    H11   2207 0.09515400   1.008000   ; qtot 73.569549
 2208         hc     74    bbb    H12   2208 0.09515400   1.008000   ; qtot 73.664703
 2209         c3     74    bbb     C7   2209 0.21842400  12.010000   ; qtot 73.883127
 2210         h1     74    bbb    H13   2210 0.04500300   1.008000   ; qtot 73.928130
 2211         h1     74    bbb    H14   2211 0.04500300   1.008000   ; qtot 73.973133
 2212         c3     74    bbb     C8   2212 -0.06455200  12.010000   ; qtot 73.908581
 2213         h1     74    bbb    H15   2213 0.13554100   1.008000   ; qtot 74.044122
 2214         h1     74    bbb    H16   2214 0.13554100   1.008000   ; qtot 74.179663
 2215         c3     74    bbb     C9   2215 -0.06455200  12.010000   ; qtot 74.115111
 2216         h1     74    bbb    H17   2216 0.13554100   1.008000   ; qtot 74.250652
 2217         h1     74    bbb    H18   2217 0.13554100   1.008000   ; qtot 74.386193
 2218         os     74    bbb     O1   2218 -0.62587700  16.000000   ; qtot 73.760316
 2219         hn     74    bbb    H19   2219 0.23982500   1.008000   ; qtot 74.000141
; residue   75 bbb rtp bbb q 1.0
 2220         n4     75    bbb     N1   2220 0.03726400  14.010000   ; qtot 74.037405
 2221         c3     75    bbb     C1   2221 -0.07020100  12.010000   ; qtot 73.967204
 2222         hx     75    bbb     H1   2222 0.12219000   1.008000   ; qtot 74.089394
 2223         hx     75    bbb     H2   2223 0.12219000   1.008000   ; qtot 74.211584
 2224         c3     75    bbb     C2   2224 -0.07020100  12.010000   ; qtot 74.141383
 2225         hx     75    bbb     H3   2225 0.12219000   1.008000   ; qtot 74.263573
 2226         hx     75    bbb     H4   2226 0.12219000   1.008000   ; qtot 74.385763
 2227         c3     75    bbb     C3   2227 -0.39007700  12.010000   ; qtot 73.995686
 2228         hx     75    bbb     H5   2228 0.14940300   1.008000   ; qtot 74.145089
 2229         hx     75    bbb     H6   2229 0.14940300   1.008000   ; qtot 74.294492
 2230         c3     75    bbb     C4   2230 0.18057300  12.010000   ; qtot 74.475065
 2231         hc     75    bbb     H7   2231 0.01788900   1.008000   ; qtot 74.492954
 2232         hc     75    bbb     H8   2232 0.01788900   1.008000   ; qtot 74.510843
 2233         c3     75    bbb     C5   2233 -0.11337700  12.010000   ; qtot 74.397466
 2234         hc     75    bbb     H9   2234 0.09515400   1.008000   ; qtot 74.492620
 2235         hc     75    bbb    H10   2235 0.09515400   1.008000   ; qtot 74.587774
 2236         c3     75    bbb     C6   2236 -0.11337700  12.010000   ; qtot 74.474397
 2237         hc     75    bbb    H11   2237 0.09515400   1.008000   ; qtot 74.569551
 2238         hc     75    bbb    H12   2238 0.09515400   1.008000   ; qtot 74.664705
 2239         c3     75    bbb     C7   2239 0.21842400  12.010000   ; qtot 74.883129
 2240         h1     75    bbb    H13   2240 0.04500300   1.008000   ; qtot 74.928132
 2241         h1     75    bbb    H14   2241 0.04500300   1.008000   ; qtot 74.973135
 2242         c3     75    bbb     C8   2242 -0.06455200  12.010000   ; qtot 74.908583
 2243         h1     75    bbb    H15   2243 0.13554100   1.008000   ; qtot 75.044124
 2244         h1     75    bbb    H16   2244 0.13554100   1.008000   ; qtot 75.179665
 2245         c3     75    bbb     C9   2245 -0.06455200  12.010000   ; qtot 75.115113
 2246         h1     75    bbb    H17   2246 0.13554100   1.008000   ; qtot 75.250654
 2247         h1     75    bbb    H18   2247 0.13554100   1.008000   ; qtot 75.386195
 2248         os     75    bbb     O1   2248 -0.62587700  16.000000   ; qtot 74.760318
 2249         hn     75    bbb    H19   2249 0.23982500   1.008000   ; qtot 75.000143
; residue   76 bbb rtp bbb q 1.0
 2250         n4     76    bbb     N1   2250 0.03726400  14.010000   ; qtot 75.037407
 2251         c3     76    bbb     C1   2251 -0.07020100  12.010000   ; qtot 74.967206
 2252         hx     76    bbb     H1   2252 0.12219000   1.008000   ; qtot 75.089396
 2253         hx     76    bbb     H2   2253 0.12219000   1.008000   ; qtot 75.211586
 2254         c3     76    bbb     C2   2254 -0.07020100  12.010000   ; qtot 75.141385
 2255         hx     76    bbb     H3   2255 0.12219000   1.008000   ; qtot 75.263575
 2256         hx     76    bbb     H4   2256 0.12219000   1.008000   ; qtot 75.385765
 2257         c3     76    bbb     C3   2257 -0.39007700  12.010000   ; qtot 74.995688
 2258         hx     76    bbb     H5   2258 0.14940300   1.008000   ; qtot 75.145091
 2259         hx     76    bbb     H6   2259 0.14940300   1.008000   ; qtot 75.294494
 2260         c3     76    bbb     C4   2260 0.18057300  12.010000   ; qtot 75.475067
 2261         hc     76    bbb     H7   2261 0.01788900   1.008000   ; qtot 75.492956
 2262         hc     76    bbb     H8   2262 0.01788900   1.008000   ; qtot 75.510845
 2263         c3     76    bbb     C5   2263 -0.11337700  12.010000   ; qtot 75.397468
 2264         hc     76    bbb     H9   2264 0.09515400   1.008000   ; qtot 75.492622
 2265         hc     76    bbb    H10   2265 0.09515400   1.008000   ; qtot 75.587776
 2266         c3     76    bbb     C6   2266 -0.11337700  12.010000   ; qtot 75.474399
 2267         hc     76    bbb    H11   2267 0.09515400   1.008000   ; qtot 75.569553
 2268         hc     76    bbb    H12   2268 0.09515400   1.008000   ; qtot 75.664707
 2269         c3     76    bbb     C7   2269 0.21842400  12.010000   ; qtot 75.883131
 2270         h1     76    bbb    H13   2270 0.04500300   1.008000   ; qtot 75.928134
 2271         h1     76    bbb    H14   2271 0.04500300   1.008000   ; qtot 75.973137
 2272         c3     76    bbb     C8   2272 -0.06455200  12.010000   ; qtot 75.908585
 2273         h1     76    bbb    H15   2273 0.13554100   1.008000   ; qtot 76.044126
 2274         h1     76    bbb    H16   2274 0.13554100   1.008000   ; qtot 76.179667
 2275         c3     76    bbb     C9   2275 -0.06455200  12.010000   ; qtot 76.115115
 2276         h1     76    bbb    H17   2276 0.13554100   1.008000   ; qtot 76.250656
 2277         h1     76    bbb    H18   2277 0.13554100   1.008000   ; qtot 76.386197
 2278         os     76    bbb     O1   2278 -0.62587700  16.000000   ; qtot 75.760320
 2279         hn     76    bbb    H19   2279 0.23982500   1.008000   ; qtot 76.000145
; residue   77 bbb rtp bbb q 1.0
 2280         n4     77    bbb     N1   2280 0.03726400  14.010000   ; qtot 76.037409
 2281         c3     77    bbb     C1   2281 -0.07020100  12.010000   ; qtot 75.967208
 2282         hx     77    bbb     H1   2282 0.12219000   1.008000   ; qtot 76.089398
 2283         hx     77    bbb     H2   2283 0.12219000   1.008000   ; qtot 76.211588
 2284         c3     77    bbb     C2   2284 -0.07020100  12.010000   ; qtot 76.141387
 2285         hx     77    bbb     H3   2285 0.12219000   1.008000   ; qtot 76.263577
 2286         hx     77    bbb     H4   2286 0.12219000   1.008000   ; qtot 76.385767
 2287         c3     77    bbb     C3   2287 -0.39007700  12.010000   ; qtot 75.995690
 2288         hx     77    bbb     H5   2288 0.14940300   1.008000   ; qtot 76.145093
 2289         hx     77    bbb     H6   2289 0.14940300   1.008000   ; qtot 76.294496
 2290         c3     77    bbb     C4   2290 0.18057300  12.010000   ; qtot 76.475069
 2291         hc     77    bbb     H7   2291 0.01788900   1.008000   ; qtot 76.492958
 2292         hc     77    bbb     H8   2292 0.01788900   1.008000   ; qtot 76.510847
 2293         c3     77    bbb     C5   2293 -0.11337700  12.010000   ; qtot 76.397470
 2294         hc     77    bbb     H9   2294 0.09515400   1.008000   ; qtot 76.492624
 2295         hc     77    bbb    H10   2295 0.09515400   1.008000   ; qtot 76.587778
 2296         c3     77    bbb     C6   2296 -0.11337700  12.010000   ; qtot 76.474401
 2297         hc     77    bbb    H11   2297 0.09515400   1.008000   ; qtot 76.569555
 2298         hc     77    bbb    H12   2298 0.09515400   1.008000   ; qtot 76.664709
 2299         c3     77    bbb     C7   2299 0.21842400  12.010000   ; qtot 76.883133
 2300         h1     77    bbb    H13   2300 0.04500300   1.008000   ; qtot 76.928136
 2301         h1     77    bbb    H14   2301 0.04500300   1.008000   ; qtot 76.973139
 2302         c3     77    bbb     C8   2302 -0.06455200  12.010000   ; qtot 76.908587
 2303         h1     77    bbb    H15   2303 0.13554100   1.008000   ; qtot 77.044128
 2304         h1     77    bbb    H16   2304 0.13554100   1.008000   ; qtot 77.179669
 2305         c3     77    bbb     C9   2305 -0.06455200  12.010000   ; qtot 77.115117
 2306         h1     77    bbb    H17   2306 0.13554100   1.008000   ; qtot 77.250658
 2307         h1     77    bbb    H18   2307 0.13554100   1.008000   ; qtot 77.386199
 2308         os     77    bbb     O1   2308 -0.62587700  16.000000   ; qtot 76.760322
 2309         hn     77    bbb    H19   2309 0.23982500   1.008000   ; qtot 77.000147
; residue   78 bbb rtp bbb q 1.0
 2310         n4     78    bbb     N1   2310 0.03726400  14.010000   ; qtot 77.037411
 2311         c3     78    bbb     C1   2311 -0.07020100  12.010000   ; qtot 76.967210
 2312         hx     78    bbb     H1   2312 0.12219000   1.008000   ; qtot 77.089400
 2313         hx     78    bbb     H2   2313 0.12219000   1.008000   ; qtot 77.211590
 2314         c3     78    bbb     C2   2314 -0.07020100  12.010000   ; qtot 77.141389
 2315         hx     78    bbb     H3   2315 0.12219000   1.008000   ; qtot 77.263579
 2316         hx     78    bbb     H4   2316 0.12219000   1.008000   ; qtot 77.385769
 2317         c3     78    bbb     C3   2317 -0.39007700  12.010000   ; qtot 76.995692
 2318         hx     78    bbb     H5   2318 0.14940300   1.008000   ; qtot 77.145095
 2319         hx     78    bbb     H6   2319 0.14940300   1.008000   ; qtot 77.294498
 2320         c3     78    bbb     C4   2320 0.18057300  12.010000   ; qtot 77.475071
 2321         hc     78    bbb     H7   2321 0.01788900   1.008000   ; qtot 77.492960
 2322         hc     78    bbb     H8   2322 0.01788900   1.008000   ; qtot 77.510849
 2323         c3     78    bbb     C5   2323 -0.11337700  12.010000   ; qtot 77.397472
 2324         hc     78    bbb     H9   2324 0.09515400   1.008000   ; qtot 77.492626
 2325         hc     78    bbb    H10   2325 0.09515400   1.008000   ; qtot 77.587780
 2326         c3     78    bbb     C6   2326 -0.11337700  12.010000   ; qtot 77.474403
 2327         hc     78    bbb    H11   2327 0.09515400   1.008000   ; qtot 77.569557
 2328         hc     78    bbb    H12   2328 0.09515400   1.008000   ; qtot 77.664711
 2329         c3     78    bbb     C7   2329 0.21842400  12.010000   ; qtot 77.883135
 2330         h1     78    bbb    H13   2330 0.04500300   1.008000   ; qtot 77.928138
 2331         h1     78    bbb    H14   2331 0.04500300   1.008000   ; qtot 77.973141
 2332         c3     78    bbb     C8   2332 -0.06455200  12.010000   ; qtot 77.908589
 2333         h1     78    bbb    H15   2333 0.13554100   1.008000   ; qtot 78.044130
 2334         h1     78    bbb    H16   2334 0.13554100   1.008000   ; qtot 78.179671
 2335         c3     78    bbb     C9   2335 -0.06455200  12.010000   ; qtot 78.115119
 2336         h1     78    bbb    H17   2336 0.13554100   1.008000   ; qtot 78.250660
 2337         h1     78    bbb    H18   2337 0.13554100   1.008000   ; qtot 78.386201
 2338         os     78    bbb     O1   2338 -0.62587700  16.000000   ; qtot 77.760324
 2339         hn     78    bbb    H19   2339 0.23982500   1.008000   ; qtot 78.000149
; residue   79 bbb rtp bbb q 1.0
 2340         n4     79    bbb     N1   2340 0.03726400  14.010000   ; qtot 78.037413
 2341         c3     79    bbb     C1   2341 -0.07020100  12.010000   ; qtot 77.967212
 2342         hx     79    bbb     H1   2342 0.12219000   1.008000   ; qtot 78.089402
 2343         hx     79    bbb     H2   2343 0.12219000   1.008000   ; qtot 78.211592
 2344         c3     79    bbb     C2   2344 -0.07020100  12.010000   ; qtot 78.141391
 2345         hx     79    bbb     H3   2345 0.12219000   1.008000   ; qtot 78.263581
 2346         hx     79    bbb     H4   2346 0.12219000   1.008000   ; qtot 78.385771
 2347         c3     79    bbb     C3   2347 -0.39007700  12.010000   ; qtot 77.995694
 2348         hx     79    bbb     H5   2348 0.14940300   1.008000   ; qtot 78.145097
 2349         hx     79    bbb     H6   2349 0.14940300   1.008000   ; qtot 78.294500
 2350         c3     79    bbb     C4   2350 0.18057300  12.010000   ; qtot 78.475073
 2351         hc     79    bbb     H7   2351 0.01788900   1.008000   ; qtot 78.492962
 2352         hc     79    bbb     H8   2352 0.01788900   1.008000   ; qtot 78.510851
 2353         c3     79    bbb     C5   2353 -0.11337700  12.010000   ; qtot 78.397474
 2354         hc     79    bbb     H9   2354 0.09515400   1.008000   ; qtot 78.492628
 2355         hc     79    bbb    H10   2355 0.09515400   1.008000   ; qtot 78.587782
 2356         c3     79    bbb     C6   2356 -0.11337700  12.010000   ; qtot 78.474405
 2357         hc     79    bbb    H11   2357 0.09515400   1.008000   ; qtot 78.569559
 2358         hc     79    bbb    H12   2358 0.09515400   1.008000   ; qtot 78.664713
 2359         c3     79    bbb     C7   2359 0.21842400  12.010000   ; qtot 78.883137
 2360         h1     79    bbb    H13   2360 0.04500300   1.008000   ; qtot 78.928140
 2361         h1     79    bbb    H14   2361 0.04500300   1.008000   ; qtot 78.973143
 2362         c3     79    bbb     C8   2362 -0.06455200  12.010000   ; qtot 78.908591
 2363         h1     79    bbb    H15   2363 0.13554100   1.008000   ; qtot 79.044132
 2364         h1     79    bbb    H16   2364 0.13554100   1.008000   ; qtot 79.179673
 2365         c3     79    bbb     C9   2365 -0.06455200  12.010000   ; qtot 79.115121
 2366         h1     79    bbb    H17   2366 0.13554100   1.008000   ; qtot 79.250662
 2367         h1     79    bbb    H18   2367 0.13554100   1.008000   ; qtot 79.386203
 2368         os     79    bbb     O1   2368 -0.62587700  16.000000   ; qtot 78.760326
 2369         hn     79    bbb    H19   2369 0.23982500   1.008000   ; qtot 79.000151
; residue   80 bbb rtp bbb q 1.0
 2370         n4     80    bbb     N1   2370 0.03726400  14.010000   ; qtot 79.037415
 2371         c3     80    bbb     C1   2371 -0.07020100  12.010000   ; qtot 78.967214
 2372         hx     80    bbb     H1   2372 0.12219000   1.008000   ; qtot 79.089404
 2373         hx     80    bbb     H2   2373 0.12219000   1.008000   ; qtot 79.211594
 2374         c3     80    bbb     C2   2374 -0.07020100  12.010000   ; qtot 79.141393
 2375         hx     80    bbb     H3   2375 0.12219000   1.008000   ; qtot 79.263583
 2376         hx     80    bbb     H4   2376 0.12219000   1.008000   ; qtot 79.385773
 2377         c3     80    bbb     C3   2377 -0.39007700  12.010000   ; qtot 78.995696
 2378         hx     80    bbb     H5   2378 0.14940300   1.008000   ; qtot 79.145099
 2379         hx     80    bbb     H6   2379 0.14940300   1.008000   ; qtot 79.294502
 2380         c3     80    bbb     C4   2380 0.18057300  12.010000   ; qtot 79.475075
 2381         hc     80    bbb     H7   2381 0.01788900   1.008000   ; qtot 79.492964
 2382         hc     80    bbb     H8   2382 0.01788900   1.008000   ; qtot 79.510853
 2383         c3     80    bbb     C5   2383 -0.11337700  12.010000   ; qtot 79.397476
 2384         hc     80    bbb     H9   2384 0.09515400   1.008000   ; qtot 79.492630
 2385         hc     80    bbb    H10   2385 0.09515400   1.008000   ; qtot 79.587784
 2386         c3     80    bbb     C6   2386 -0.11337700  12.010000   ; qtot 79.474407
 2387         hc     80    bbb    H11   2387 0.09515400   1.008000   ; qtot 79.569561
 2388         hc     80    bbb    H12   2388 0.09515400   1.008000   ; qtot 79.664715
 2389         c3     80    bbb     C7   2389 0.21842400  12.010000   ; qtot 79.883139
 2390         h1     80    bbb    H13   2390 0.04500300   1.008000   ; qtot 79.928142
 2391         h1     80    bbb    H14   2391 0.04500300   1.008000   ; qtot 79.973145
 2392         c3     80    bbb     C8   2392 -0.06455200  12.010000   ; qtot 79.908593
 2393         h1     80    bbb    H15   2393 0.13554100   1.008000   ; qtot 80.044134
 2394         h1     80    bbb    H16   2394 0.13554100   1.008000   ; qtot 80.179675
 2395         c3     80    bbb     C9   2395 -0.06455200  12.010000   ; qtot 80.115123
 2396         h1     80    bbb    H17   2396 0.13554100   1.008000   ; qtot 80.250664
 2397         h1     80    bbb    H18   2397 0.13554100   1.008000   ; qtot 80.386205
 2398         os     80    bbb     O1   2398 -0.62587700  16.000000   ; qtot 79.760328
 2399         hn     80    bbb    H19   2399 0.23982500   1.008000   ; qtot 80.000153
; residue   81 bbb rtp bbb q 1.0
 2400         n4     81    bbb     N1   2400 0.03726400  14.010000   ; qtot 80.037417
 2401         c3     81    bbb     C1   2401 -0.07020100  12.010000   ; qtot 79.967216
 2402         hx     81    bbb     H1   2402 0.12219000   1.008000   ; qtot 80.089406
 2403         hx     81    bbb     H2   2403 0.12219000   1.008000   ; qtot 80.211596
 2404         c3     81    bbb     C2   2404 -0.07020100  12.010000   ; qtot 80.141395
 2405         hx     81    bbb     H3   2405 0.12219000   1.008000   ; qtot 80.263585
 2406         hx     81    bbb     H4   2406 0.12219000   1.008000   ; qtot 80.385775
 2407         c3     81    bbb     C3   2407 -0.39007700  12.010000   ; qtot 79.995698
 2408         hx     81    bbb     H5   2408 0.14940300   1.008000   ; qtot 80.145101
 2409         hx     81    bbb     H6   2409 0.14940300   1.008000   ; qtot 80.294504
 2410         c3     81    bbb     C4   2410 0.18057300  12.010000   ; qtot 80.475077
 2411         hc     81    bbb     H7   2411 0.01788900   1.008000   ; qtot 80.492966
 2412         hc     81    bbb     H8   2412 0.01788900   1.008000   ; qtot 80.510855
 2413         c3     81    bbb     C5   2413 -0.11337700  12.010000   ; qtot 80.397478
 2414         hc     81    bbb     H9   2414 0.09515400   1.008000   ; qtot 80.492632
 2415         hc     81    bbb    H10   2415 0.09515400   1.008000   ; qtot 80.587786
 2416         c3     81    bbb     C6   2416 -0.11337700  12.010000   ; qtot 80.474409
 2417         hc     81    bbb    H11   2417 0.09515400   1.008000   ; qtot 80.569563
 2418         hc     81    bbb    H12   2418 0.09515400   1.008000   ; qtot 80.664717
 2419         c3     81    bbb     C7   2419 0.21842400  12.010000   ; qtot 80.883141
 2420         h1     81    bbb    H13   2420 0.04500300   1.008000   ; qtot 80.928144
 2421         h1     81    bbb    H14   2421 0.04500300   1.008000   ; qtot 80.973147
 2422         c3     81    bbb     C8   2422 -0.06455200  12.010000   ; qtot 80.908595
 2423         h1     81    bbb    H15   2423 0.13554100   1.008000   ; qtot 81.044136
 2424         h1     81    bbb    H16   2424 0.13554100   1.008000   ; qtot 81.179677
 2425         c3     81    bbb     C9   2425 -0.06455200  12.010000   ; qtot 81.115125
 2426         h1     81    bbb    H17   2426 0.13554100   1.008000   ; qtot 81.250666
 2427         h1     81    bbb    H18   2427 0.13554100   1.008000   ; qtot 81.386207
 2428         os     81    bbb     O1   2428 -0.62587700  16.000000   ; qtot 80.760330
 2429         hn     81    bbb    H19   2429 0.23982500   1.008000   ; qtot 81.000155
; residue   82 bbb rtp bbb q 1.0
 2430         n4     82    bbb     N1   2430 0.03726400  14.010000   ; qtot 81.037419
 2431         c3     82    bbb     C1   2431 -0.07020100  12.010000   ; qtot 80.967218
 2432         hx     82    bbb     H1   2432 0.12219000   1.008000   ; qtot 81.089408
 2433         hx     82    bbb     H2   2433 0.12219000   1.008000   ; qtot 81.211598
 2434         c3     82    bbb     C2   2434 -0.07020100  12.010000   ; qtot 81.141397
 2435         hx     82    bbb     H3   2435 0.12219000   1.008000   ; qtot 81.263587
 2436         hx     82    bbb     H4   2436 0.12219000   1.008000   ; qtot 81.385777
 2437         c3     82    bbb     C3   2437 -0.39007700  12.010000   ; qtot 80.995700
 2438         hx     82    bbb     H5   2438 0.14940300   1.008000   ; qtot 81.145103
 2439         hx     82    bbb     H6   2439 0.14940300   1.008000   ; qtot 81.294506
 2440         c3     82    bbb     C4   2440 0.18057300  12.010000   ; qtot 81.475079
 2441         hc     82    bbb     H7   2441 0.01788900   1.008000   ; qtot 81.492968
 2442         hc     82    bbb     H8   2442 0.01788900   1.008000   ; qtot 81.510857
 2443         c3     82    bbb     C5   2443 -0.11337700  12.010000   ; qtot 81.397480
 2444         hc     82    bbb     H9   2444 0.09515400   1.008000   ; qtot 81.492634
 2445         hc     82    bbb    H10   2445 0.09515400   1.008000   ; qtot 81.587788
 2446         c3     82    bbb     C6   2446 -0.11337700  12.010000   ; qtot 81.474411
 2447         hc     82    bbb    H11   2447 0.09515400   1.008000   ; qtot 81.569565
 2448         hc     82    bbb    H12   2448 0.09515400   1.008000   ; qtot 81.664719
 2449         c3     82    bbb     C7   2449 0.21842400  12.010000   ; qtot 81.883143
 2450         h1     82    bbb    H13   2450 0.04500300   1.008000   ; qtot 81.928146
 2451         h1     82    bbb    H14   2451 0.04500300   1.008000   ; qtot 81.973149
 2452         c3     82    bbb     C8   2452 -0.06455200  12.010000   ; qtot 81.908597
 2453         h1     82    bbb    H15   2453 0.13554100   1.008000   ; qtot 82.044138
 2454         h1     82    bbb    H16   2454 0.13554100   1.008000   ; qtot 82.179679
 2455         c3     82    bbb     C9   2455 -0.06455200  12.010000   ; qtot 82.115127
 2456         h1     82    bbb    H17   2456 0.13554100   1.008000   ; qtot 82.250668
 2457         h1     82    bbb    H18   2457 0.13554100   1.008000   ; qtot 82.386209
 2458         os     82    bbb     O1   2458 -0.62587700  16.000000   ; qtot 81.760332
 2459         hn     82    bbb    H19   2459 0.23982500   1.008000   ; qtot 82.000157
; residue   83 bbb rtp bbb q 1.0
 2460         n4     83    bbb     N1   2460 0.03726400  14.010000   ; qtot 82.037421
 2461         c3     83    bbb     C1   2461 -0.07020100  12.010000   ; qtot 81.967220
 2462         hx     83    bbb     H1   2462 0.12219000   1.008000   ; qtot 82.089410
 2463         hx     83    bbb     H2   2463 0.12219000   1.008000   ; qtot 82.211600
 2464         c3     83    bbb     C2   2464 -0.07020100  12.010000   ; qtot 82.141399
 2465         hx     83    bbb     H3   2465 0.12219000   1.008000   ; qtot 82.263589
 2466         hx     83    bbb     H4   2466 0.12219000   1.008000   ; qtot 82.385779
 2467         c3     83    bbb     C3   2467 -0.39007700  12.010000   ; qtot 81.995702
 2468         hx     83    bbb     H5   2468 0.14940300   1.008000   ; qtot 82.145105
 2469         hx     83    bbb     H6   2469 0.14940300   1.008000   ; qtot 82.294508
 2470         c3     83    bbb     C4   2470 0.18057300  12.010000   ; qtot 82.475081
 2471         hc     83    bbb     H7   2471 0.01788900   1.008000   ; qtot 82.492970
 2472         hc     83    bbb     H8   2472 0.01788900   1.008000   ; qtot 82.510859
 2473         c3     83    bbb     C5   2473 -0.11337700  12.010000   ; qtot 82.397482
 2474         hc     83    bbb     H9   2474 0.09515400   1.008000   ; qtot 82.492636
 2475         hc     83    bbb    H10   2475 0.09515400   1.008000   ; qtot 82.587790
 2476         c3     83    bbb     C6   2476 -0.11337700  12.010000   ; qtot 82.474413
 2477         hc     83    bbb    H11   2477 0.09515400   1.008000   ; qtot 82.569567
 2478         hc     83    bbb    H12   2478 0.09515400   1.008000   ; qtot 82.664721
 2479         c3     83    bbb     C7   2479 0.21842400  12.010000   ; qtot 82.883145
 2480         h1     83    bbb    H13   2480 0.04500300   1.008000   ; qtot 82.928148
 2481         h1     83    bbb    H14   2481 0.04500300   1.008000   ; qtot 82.973151
 2482         c3     83    bbb     C8   2482 -0.06455200  12.010000   ; qtot 82.908599
 2483         h1     83    bbb    H15   2483 0.13554100   1.008000   ; qtot 83.044140
 2484         h1     83    bbb    H16   2484 0.13554100   1.008000   ; qtot 83.179681
 2485         c3     83    bbb     C9   2485 -0.06455200  12.010000   ; qtot 83.115129
 2486         h1     83    bbb    H17   2486 0.13554100   1.008000   ; qtot 83.250670
 2487         h1     83    bbb    H18   2487 0.13554100   1.008000   ; qtot 83.386211
 2488         os     83    bbb     O1   2488 -0.62587700  16.000000   ; qtot 82.760334
 2489         hn     83    bbb    H19   2489 0.23982500   1.008000   ; qtot 83.000159
; residue   84 bbb rtp bbb q 1.0
 2490         n4     84    bbb     N1   2490 0.03726400  14.010000   ; qtot 83.037423
 2491         c3     84    bbb     C1   2491 -0.07020100  12.010000   ; qtot 82.967222
 2492         hx     84    bbb     H1   2492 0.12219000   1.008000   ; qtot 83.089412
 2493         hx     84    bbb     H2   2493 0.12219000   1.008000   ; qtot 83.211602
 2494         c3     84    bbb     C2   2494 -0.07020100  12.010000   ; qtot 83.141401
 2495         hx     84    bbb     H3   2495 0.12219000   1.008000   ; qtot 83.263591
 2496         hx     84    bbb     H4   2496 0.12219000   1.008000   ; qtot 83.385781
 2497         c3     84    bbb     C3   2497 -0.39007700  12.010000   ; qtot 82.995704
 2498         hx     84    bbb     H5   2498 0.14940300   1.008000   ; qtot 83.145107
 2499         hx     84    bbb     H6   2499 0.14940300   1.008000   ; qtot 83.294510
 2500         c3     84    bbb     C4   2500 0.18057300  12.010000   ; qtot 83.475083
 2501         hc     84    bbb     H7   2501 0.01788900   1.008000   ; qtot 83.492972
 2502         hc     84    bbb     H8   2502 0.01788900   1.008000   ; qtot 83.510861
 2503         c3     84    bbb     C5   2503 -0.11337700  12.010000   ; qtot 83.397484
 2504         hc     84    bbb     H9   2504 0.09515400   1.008000   ; qtot 83.492638
 2505         hc     84    bbb    H10   2505 0.09515400   1.008000   ; qtot 83.587792
 2506         c3     84    bbb     C6   2506 -0.11337700  12.010000   ; qtot 83.474415
 2507         hc     84    bbb    H11   2507 0.09515400   1.008000   ; qtot 83.569569
 2508         hc     84    bbb    H12   2508 0.09515400   1.008000   ; qtot 83.664723
 2509         c3     84    bbb     C7   2509 0.21842400  12.010000   ; qtot 83.883147
 2510         h1     84    bbb    H13   2510 0.04500300   1.008000   ; qtot 83.928150
 2511         h1     84    bbb    H14   2511 0.04500300   1.008000   ; qtot 83.973153
 2512         c3     84    bbb     C8   2512 -0.06455200  12.010000   ; qtot 83.908601
 2513         h1     84    bbb    H15   2513 0.13554100   1.008000   ; qtot 84.044142
 2514         h1     84    bbb    H16   2514 0.13554100   1.008000   ; qtot 84.179683
 2515         c3     84    bbb     C9   2515 -0.06455200  12.010000   ; qtot 84.115131
 2516         h1     84    bbb    H17   2516 0.13554100   1.008000   ; qtot 84.250672
 2517         h1     84    bbb    H18   2517 0.13554100   1.008000   ; qtot 84.386213
 2518         os     84    bbb     O1   2518 -0.62587700  16.000000   ; qtot 83.760336
 2519         hn     84    bbb    H19   2519 0.23982500   1.008000   ; qtot 84.000161
; residue   85 bbb rtp bbb q 1.0
 2520         n4     85    bbb     N1   2520 0.03726400  14.010000   ; qtot 84.037425
 2521         c3     85    bbb     C1   2521 -0.07020100  12.010000   ; qtot 83.967224
 2522         hx     85    bbb     H1   2522 0.12219000   1.008000   ; qtot 84.089414
 2523         hx     85    bbb     H2   2523 0.12219000   1.008000   ; qtot 84.211604
 2524         c3     85    bbb     C2   2524 -0.07020100  12.010000   ; qtot 84.141403
 2525         hx     85    bbb     H3   2525 0.12219000   1.008000   ; qtot 84.263593
 2526         hx     85    bbb     H4   2526 0.12219000   1.008000   ; qtot 84.385783
 2527         c3     85    bbb     C3   2527 -0.39007700  12.010000   ; qtot 83.995706
 2528         hx     85    bbb     H5   2528 0.14940300   1.008000   ; qtot 84.145109
 2529         hx     85    bbb     H6   2529 0.14940300   1.008000   ; qtot 84.294512
 2530         c3     85    bbb     C4   2530 0.18057300  12.010000   ; qtot 84.475085
 2531         hc     85    bbb     H7   2531 0.01788900   1.008000   ; qtot 84.492974
 2532         hc     85    bbb     H8   2532 0.01788900   1.008000   ; qtot 84.510863
 2533         c3     85    bbb     C5   2533 -0.11337700  12.010000   ; qtot 84.397486
 2534         hc     85    bbb     H9   2534 0.09515400   1.008000   ; qtot 84.492640
 2535         hc     85    bbb    H10   2535 0.09515400   1.008000   ; qtot 84.587794
 2536         c3     85    bbb     C6   2536 -0.11337700  12.010000   ; qtot 84.474417
 2537         hc     85    bbb    H11   2537 0.09515400   1.008000   ; qtot 84.569571
 2538         hc     85    bbb    H12   2538 0.09515400   1.008000   ; qtot 84.664725
 2539         c3     85    bbb     C7   2539 0.21842400  12.010000   ; qtot 84.883149
 2540         h1     85    bbb    H13   2540 0.04500300   1.008000   ; qtot 84.928152
 2541         h1     85    bbb    H14   2541 0.04500300   1.008000   ; qtot 84.973155
 2542         c3     85    bbb     C8   2542 -0.06455200  12.010000   ; qtot 84.908603
 2543         h1     85    bbb    H15   2543 0.13554100   1.008000   ; qtot 85.044144
 2544         h1     85    bbb    H16   2544 0.13554100   1.008000   ; qtot 85.179685
 2545         c3     85    bbb     C9   2545 -0.06455200  12.010000   ; qtot 85.115133
 2546         h1     85    bbb    H17   2546 0.13554100   1.008000   ; qtot 85.250674
 2547         h1     85    bbb    H18   2547 0.13554100   1.008000   ; qtot 85.386215
 2548         os     85    bbb     O1   2548 -0.62587700  16.000000   ; qtot 84.760338
 2549         hn     85    bbb    H19   2549 0.23982500   1.008000   ; qtot 85.000163
; residue   86 bbb rtp bbb q 1.0
 2550         n4     86    bbb     N1   2550 0.03726400  14.010000   ; qtot 85.037427
 2551         c3     86    bbb     C1   2551 -0.07020100  12.010000   ; qtot 84.967226
 2552         hx     86    bbb     H1   2552 0.12219000   1.008000   ; qtot 85.089416
 2553         hx     86    bbb     H2   2553 0.12219000   1.008000   ; qtot 85.211606
 2554         c3     86    bbb     C2   2554 -0.07020100  12.010000   ; qtot 85.141405
 2555         hx     86    bbb     H3   2555 0.12219000   1.008000   ; qtot 85.263595
 2556         hx     86    bbb     H4   2556 0.12219000   1.008000   ; qtot 85.385785
 2557         c3     86    bbb     C3   2557 -0.39007700  12.010000   ; qtot 84.995708
 2558         hx     86    bbb     H5   2558 0.14940300   1.008000   ; qtot 85.145111
 2559         hx     86    bbb     H6   2559 0.14940300   1.008000   ; qtot 85.294514
 2560         c3     86    bbb     C4   2560 0.18057300  12.010000   ; qtot 85.475087
 2561         hc     86    bbb     H7   2561 0.01788900   1.008000   ; qtot 85.492976
 2562         hc     86    bbb     H8   2562 0.01788900   1.008000   ; qtot 85.510865
 2563         c3     86    bbb     C5   2563 -0.11337700  12.010000   ; qtot 85.397488
 2564         hc     86    bbb     H9   2564 0.09515400   1.008000   ; qtot 85.492642
 2565         hc     86    bbb    H10   2565 0.09515400   1.008000   ; qtot 85.587796
 2566         c3     86    bbb     C6   2566 -0.11337700  12.010000   ; qtot 85.474419
 2567         hc     86    bbb    H11   2567 0.09515400   1.008000   ; qtot 85.569573
 2568         hc     86    bbb    H12   2568 0.09515400   1.008000   ; qtot 85.664727
 2569         c3     86    bbb     C7   2569 0.21842400  12.010000   ; qtot 85.883151
 2570         h1     86    bbb    H13   2570 0.04500300   1.008000   ; qtot 85.928154
 2571         h1     86    bbb    H14   2571 0.04500300   1.008000   ; qtot 85.973157
 2572         c3     86    bbb     C8   2572 -0.06455200  12.010000   ; qtot 85.908605
 2573         h1     86    bbb    H15   2573 0.13554100   1.008000   ; qtot 86.044146
 2574         h1     86    bbb    H16   2574 0.13554100   1.008000   ; qtot 86.179687
 2575         c3     86    bbb     C9   2575 -0.06455200  12.010000   ; qtot 86.115135
 2576         h1     86    bbb    H17   2576 0.13554100   1.008000   ; qtot 86.250676
 2577         h1     86    bbb    H18   2577 0.13554100   1.008000   ; qtot 86.386217
 2578         os     86    bbb     O1   2578 -0.62587700  16.000000   ; qtot 85.760340
 2579         hn     86    bbb    H19   2579 0.23982500   1.008000   ; qtot 86.000165
; residue   87 bbb rtp bbb q 1.0
 2580         n4     87    bbb     N1   2580 0.03726400  14.010000   ; qtot 86.037429
 2581         c3     87    bbb     C1   2581 -0.07020100  12.010000   ; qtot 85.967228
 2582         hx     87    bbb     H1   2582 0.12219000   1.008000   ; qtot 86.089418
 2583         hx     87    bbb     H2   2583 0.12219000   1.008000   ; qtot 86.211608
 2584         c3     87    bbb     C2   2584 -0.07020100  12.010000   ; qtot 86.141407
 2585         hx     87    bbb     H3   2585 0.12219000   1.008000   ; qtot 86.263597
 2586         hx     87    bbb     H4   2586 0.12219000   1.008000   ; qtot 86.385787
 2587         c3     87    bbb     C3   2587 -0.39007700  12.010000   ; qtot 85.995710
 2588         hx     87    bbb     H5   2588 0.14940300   1.008000   ; qtot 86.145113
 2589         hx     87    bbb     H6   2589 0.14940300   1.008000   ; qtot 86.294516
 2590         c3     87    bbb     C4   2590 0.18057300  12.010000   ; qtot 86.475089
 2591         hc     87    bbb     H7   2591 0.01788900   1.008000   ; qtot 86.492978
 2592         hc     87    bbb     H8   2592 0.01788900   1.008000   ; qtot 86.510867
 2593         c3     87    bbb     C5   2593 -0.11337700  12.010000   ; qtot 86.397490
 2594         hc     87    bbb     H9   2594 0.09515400   1.008000   ; qtot 86.492644
 2595         hc     87    bbb    H10   2595 0.09515400   1.008000   ; qtot 86.587798
 2596         c3     87    bbb     C6   2596 -0.11337700  12.010000   ; qtot 86.474421
 2597         hc     87    bbb    H11   2597 0.09515400   1.008000   ; qtot 86.569575
 2598         hc     87    bbb    H12   2598 0.09515400   1.008000   ; qtot 86.664729
 2599         c3     87    bbb     C7   2599 0.21842400  12.010000   ; qtot 86.883153
 2600         h1     87    bbb    H13   2600 0.04500300   1.008000   ; qtot 86.928156
 2601         h1     87    bbb    H14   2601 0.04500300   1.008000   ; qtot 86.973159
 2602         c3     87    bbb     C8   2602 -0.06455200  12.010000   ; qtot 86.908607
 2603         h1     87    bbb    H15   2603 0.13554100   1.008000   ; qtot 87.044148
 2604         h1     87    bbb    H16   2604 0.13554100   1.008000   ; qtot 87.179689
 2605         c3     87    bbb     C9   2605 -0.06455200  12.010000   ; qtot 87.115137
 2606         h1     87    bbb    H17   2606 0.13554100   1.008000   ; qtot 87.250678
 2607         h1     87    bbb    H18   2607 0.13554100   1.008000   ; qtot 87.386219
 2608         os     87    bbb     O1   2608 -0.62587700  16.000000   ; qtot 86.760342
 2609         hn     87    bbb    H19   2609 0.23982500   1.008000   ; qtot 87.000167
; residue   88 bbb rtp bbb q 1.0
 2610         n4     88    bbb     N1   2610 0.03726400  14.010000   ; qtot 87.037431
 2611         c3     88    bbb     C1   2611 -0.07020100  12.010000   ; qtot 86.967230
 2612         hx     88    bbb     H1   2612 0.12219000   1.008000   ; qtot 87.089420
 2613         hx     88    bbb     H2   2613 0.12219000   1.008000   ; qtot 87.211610
 2614         c3     88    bbb     C2   2614 -0.07020100  12.010000   ; qtot 87.141409
 2615         hx     88    bbb     H3   2615 0.12219000   1.008000   ; qtot 87.263599
 2616         hx     88    bbb     H4   2616 0.12219000   1.008000   ; qtot 87.385789
 2617         c3     88    bbb     C3   2617 -0.39007700  12.010000   ; qtot 86.995712
 2618         hx     88    bbb     H5   2618 0.14940300   1.008000   ; qtot 87.145115
 2619         hx     88    bbb     H6   2619 0.14940300   1.008000   ; qtot 87.294518
 2620         c3     88    bbb     C4   2620 0.18057300  12.010000   ; qtot 87.475091
 2621         hc     88    bbb     H7   2621 0.01788900   1.008000   ; qtot 87.492980
 2622         hc     88    bbb     H8   2622 0.01788900   1.008000   ; qtot 87.510869
 2623         c3     88    bbb     C5   2623 -0.11337700  12.010000   ; qtot 87.397492
 2624         hc     88    bbb     H9   2624 0.09515400   1.008000   ; qtot 87.492646
 2625         hc     88    bbb    H10   2625 0.09515400   1.008000   ; qtot 87.587800
 2626         c3     88    bbb     C6   2626 -0.11337700  12.010000   ; qtot 87.474423
 2627         hc     88    bbb    H11   2627 0.09515400   1.008000   ; qtot 87.569577
 2628         hc     88    bbb    H12   2628 0.09515400   1.008000   ; qtot 87.664731
 2629         c3     88    bbb     C7   2629 0.21842400  12.010000   ; qtot 87.883155
 2630         h1     88    bbb    H13   2630 0.04500300   1.008000   ; qtot 87.928158
 2631         h1     88    bbb    H14   2631 0.04500300   1.008000   ; qtot 87.973161
 2632         c3     88    bbb     C8   2632 -0.06455200  12.010000   ; qtot 87.908609
 2633         h1     88    bbb    H15   2633 0.13554100   1.008000   ; qtot 88.044150
 2634         h1     88    bbb    H16   2634 0.13554100   1.008000   ; qtot 88.179691
 2635         c3     88    bbb     C9   2635 -0.06455200  12.010000   ; qtot 88.115139
 2636         h1     88    bbb    H17   2636 0.13554100   1.008000   ; qtot 88.250680
 2637         h1     88    bbb    H18   2637 0.13554100   1.008000   ; qtot 88.386221
 2638         os     88    bbb     O1   2638 -0.62587700  16.000000   ; qtot 87.760344
 2639         hn     88    bbb    H19   2639 0.23982500   1.008000   ; qtot 88.000169
; residue   89 bbb rtp bbb q 1.0
 2640         n4     89    bbb     N1   2640 0.03726400  14.010000   ; qtot 88.037433
 2641         c3     89    bbb     C1   2641 -0.07020100  12.010000   ; qtot 87.967232
 2642         hx     89    bbb     H1   2642 0.12219000   1.008000   ; qtot 88.089422
 2643         hx     89    bbb     H2   2643 0.12219000   1.008000   ; qtot 88.211612
 2644         c3     89    bbb     C2   2644 -0.07020100  12.010000   ; qtot 88.141411
 2645         hx     89    bbb     H3   2645 0.12219000   1.008000   ; qtot 88.263601
 2646         hx     89    bbb     H4   2646 0.12219000   1.008000   ; qtot 88.385791
 2647         c3     89    bbb     C3   2647 -0.39007700  12.010000   ; qtot 87.995714
 2648         hx     89    bbb     H5   2648 0.14940300   1.008000   ; qtot 88.145117
 2649         hx     89    bbb     H6   2649 0.14940300   1.008000   ; qtot 88.294520
 2650         c3     89    bbb     C4   2650 0.18057300  12.010000   ; qtot 88.475093
 2651         hc     89    bbb     H7   2651 0.01788900   1.008000   ; qtot 88.492982
 2652         hc     89    bbb     H8   2652 0.01788900   1.008000   ; qtot 88.510871
 2653         c3     89    bbb     C5   2653 -0.11337700  12.010000   ; qtot 88.397494
 2654         hc     89    bbb     H9   2654 0.09515400   1.008000   ; qtot 88.492648
 2655         hc     89    bbb    H10   2655 0.09515400   1.008000   ; qtot 88.587802
 2656         c3     89    bbb     C6   2656 -0.11337700  12.010000   ; qtot 88.474425
 2657         hc     89    bbb    H11   2657 0.09515400   1.008000   ; qtot 88.569579
 2658         hc     89    bbb    H12   2658 0.09515400   1.008000   ; qtot 88.664733
 2659         c3     89    bbb     C7   2659 0.21842400  12.010000   ; qtot 88.883157
 2660         h1     89    bbb    H13   2660 0.04500300   1.008000   ; qtot 88.928160
 2661         h1     89    bbb    H14   2661 0.04500300   1.008000   ; qtot 88.973163
 2662         c3     89    bbb     C8   2662 -0.06455200  12.010000   ; qtot 88.908611
 2663         h1     89    bbb    H15   2663 0.13554100   1.008000   ; qtot 89.044152
 2664         h1     89    bbb    H16   2664 0.13554100   1.008000   ; qtot 89.179693
 2665         c3     89    bbb     C9   2665 -0.06455200  12.010000   ; qtot 89.115141
 2666         h1     89    bbb    H17   2666 0.13554100   1.008000   ; qtot 89.250682
 2667         h1     89    bbb    H18   2667 0.13554100   1.008000   ; qtot 89.386223
 2668         os     89    bbb     O1   2668 -0.62587700  16.000000   ; qtot 88.760346
 2669         hn     89    bbb    H19   2669 0.23982500   1.008000   ; qtot 89.000171
; residue   90 bbb rtp bbb q 1.0
 2670         n4     90    bbb     N1   2670 0.03726400  14.010000   ; qtot 89.037435
 2671         c3     90    bbb     C1   2671 -0.07020100  12.010000   ; qtot 88.967234
 2672         hx     90    bbb     H1   2672 0.12219000   1.008000   ; qtot 89.089424
 2673         hx     90    bbb     H2   2673 0.12219000   1.008000   ; qtot 89.211614
 2674         c3     90    bbb     C2   2674 -0.07020100  12.010000   ; qtot 89.141413
 2675         hx     90    bbb     H3   2675 0.12219000   1.008000   ; qtot 89.263603
 2676         hx     90    bbb     H4   2676 0.12219000   1.008000   ; qtot 89.385793
 2677         c3     90    bbb     C3   2677 -0.39007700  12.010000   ; qtot 88.995716
 2678         hx     90    bbb     H5   2678 0.14940300   1.008000   ; qtot 89.145119
 2679         hx     90    bbb     H6   2679 0.14940300   1.008000   ; qtot 89.294522
 2680         c3     90    bbb     C4   2680 0.18057300  12.010000   ; qtot 89.475095
 2681         hc     90    bbb     H7   2681 0.01788900   1.008000   ; qtot 89.492984
 2682         hc     90    bbb     H8   2682 0.01788900   1.008000   ; qtot 89.510873
 2683         c3     90    bbb     C5   2683 -0.11337700  12.010000   ; qtot 89.397496
 2684         hc     90    bbb     H9   2684 0.09515400   1.008000   ; qtot 89.492650
 2685         hc     90    bbb    H10   2685 0.09515400   1.008000   ; qtot 89.587804
 2686         c3     90    bbb     C6   2686 -0.11337700  12.010000   ; qtot 89.474427
 2687         hc     90    bbb    H11   2687 0.09515400   1.008000   ; qtot 89.569581
 2688         hc     90    bbb    H12   2688 0.09515400   1.008000   ; qtot 89.664735
 2689         c3     90    bbb     C7   2689 0.21842400  12.010000   ; qtot 89.883159
 2690         h1     90    bbb    H13   2690 0.04500300   1.008000   ; qtot 89.928162
 2691         h1     90    bbb    H14   2691 0.04500300   1.008000   ; qtot 89.973165
 2692         c3     90    bbb     C8   2692 -0.06455200  12.010000   ; qtot 89.908613
 2693         h1     90    bbb    H15   2693 0.13554100   1.008000   ; qtot 90.044154
 2694         h1     90    bbb    H16   2694 0.13554100   1.008000   ; qtot 90.179695
 2695         c3     90    bbb     C9   2695 -0.06455200  12.010000   ; qtot 90.115143
 2696         h1     90    bbb    H17   2696 0.13554100   1.008000   ; qtot 90.250684
 2697         h1     90    bbb    H18   2697 0.13554100   1.008000   ; qtot 90.386225
 2698         os     90    bbb     O1   2698 -0.62587700  16.000000   ; qtot 89.760348
 2699         hn     90    bbb    H19   2699 0.23982500   1.008000   ; qtot 90.000173
; residue   91 bbb rtp bbb q 1.0
 2700         n4     91    bbb     N1   2700 0.03726400  14.010000   ; qtot 90.037437
 2701         c3     91    bbb     C1   2701 -0.07020100  12.010000   ; qtot 89.967236
 2702         hx     91    bbb     H1   2702 0.12219000   1.008000   ; qtot 90.089426
 2703         hx     91    bbb     H2   2703 0.12219000   1.008000   ; qtot 90.211616
 2704         c3     91    bbb     C2   2704 -0.07020100  12.010000   ; qtot 90.141415
 2705         hx     91    bbb     H3   2705 0.12219000   1.008000   ; qtot 90.263605
 2706         hx     91    bbb     H4   2706 0.12219000   1.008000   ; qtot 90.385795
 2707         c3     91    bbb     C3   2707 -0.39007700  12.010000   ; qtot 89.995718
 2708         hx     91    bbb     H5   2708 0.14940300   1.008000   ; qtot 90.145121
 2709         hx     91    bbb     H6   2709 0.14940300   1.008000   ; qtot 90.294524
 2710         c3     91    bbb     C4   2710 0.18057300  12.010000   ; qtot 90.475097
 2711         hc     91    bbb     H7   2711 0.01788900   1.008000   ; qtot 90.492986
 2712         hc     91    bbb     H8   2712 0.01788900   1.008000   ; qtot 90.510875
 2713         c3     91    bbb     C5   2713 -0.11337700  12.010000   ; qtot 90.397498
 2714         hc     91    bbb     H9   2714 0.09515400   1.008000   ; qtot 90.492652
 2715         hc     91    bbb    H10   2715 0.09515400   1.008000   ; qtot 90.587806
 2716         c3     91    bbb     C6   2716 -0.11337700  12.010000   ; qtot 90.474429
 2717         hc     91    bbb    H11   2717 0.09515400   1.008000   ; qtot 90.569583
 2718         hc     91    bbb    H12   2718 0.09515400   1.008000   ; qtot 90.664737
 2719         c3     91    bbb     C7   2719 0.21842400  12.010000   ; qtot 90.883161
 2720         h1     91    bbb    H13   2720 0.04500300   1.008000   ; qtot 90.928164
 2721         h1     91    bbb    H14   2721 0.04500300   1.008000   ; qtot 90.973167
 2722         c3     91    bbb     C8   2722 -0.06455200  12.010000   ; qtot 90.908615
 2723         h1     91    bbb    H15   2723 0.13554100   1.008000   ; qtot 91.044156
 2724         h1     91    bbb    H16   2724 0.13554100   1.008000   ; qtot 91.179697
 2725         c3     91    bbb     C9   2725 -0.06455200  12.010000   ; qtot 91.115145
 2726         h1     91    bbb    H17   2726 0.13554100   1.008000   ; qtot 91.250686
 2727         h1     91    bbb    H18   2727 0.13554100   1.008000   ; qtot 91.386227
 2728         os     91    bbb     O1   2728 -0.62587700  16.000000   ; qtot 90.760350
 2729         hn     91    bbb    H19   2729 0.23982500   1.008000   ; qtot 91.000175
; residue   92 bbb rtp bbb q 1.0
 2730         n4     92    bbb     N1   2730 0.03726400  14.010000   ; qtot 91.037439
 2731         c3     92    bbb     C1   2731 -0.07020100  12.010000   ; qtot 90.967238
 2732         hx     92    bbb     H1   2732 0.12219000   1.008000   ; qtot 91.089428
 2733         hx     92    bbb     H2   2733 0.12219000   1.008000   ; qtot 91.211618
 2734         c3     92    bbb     C2   2734 -0.07020100  12.010000   ; qtot 91.141417
 2735         hx     92    bbb     H3   2735 0.12219000   1.008000   ; qtot 91.263607
 2736         hx     92    bbb     H4   2736 0.12219000   1.008000   ; qtot 91.385797
 2737         c3     92    bbb     C3   2737 -0.39007700  12.010000   ; qtot 90.995720
 2738         hx     92    bbb     H5   2738 0.14940300   1.008000   ; qtot 91.145123
 2739         hx     92    bbb     H6   2739 0.14940300   1.008000   ; qtot 91.294526
 2740         c3     92    bbb     C4   2740 0.18057300  12.010000   ; qtot 91.475099
 2741         hc     92    bbb     H7   2741 0.01788900   1.008000   ; qtot 91.492988
 2742         hc     92    bbb     H8   2742 0.01788900   1.008000   ; qtot 91.510877
 2743         c3     92    bbb     C5   2743 -0.11337700  12.010000   ; qtot 91.397500
 2744         hc     92    bbb     H9   2744 0.09515400   1.008000   ; qtot 91.492654
 2745         hc     92    bbb    H10   2745 0.09515400   1.008000   ; qtot 91.587808
 2746         c3     92    bbb     C6   2746 -0.11337700  12.010000   ; qtot 91.474431
 2747         hc     92    bbb    H11   2747 0.09515400   1.008000   ; qtot 91.569585
 2748         hc     92    bbb    H12   2748 0.09515400   1.008000   ; qtot 91.664739
 2749         c3     92    bbb     C7   2749 0.21842400  12.010000   ; qtot 91.883163
 2750         h1     92    bbb    H13   2750 0.04500300   1.008000   ; qtot 91.928166
 2751         h1     92    bbb    H14   2751 0.04500300   1.008000   ; qtot 91.973169
 2752         c3     92    bbb     C8   2752 -0.06455200  12.010000   ; qtot 91.908617
 2753         h1     92    bbb    H15   2753 0.13554100   1.008000   ; qtot 92.044158
 2754         h1     92    bbb    H16   2754 0.13554100   1.008000   ; qtot 92.179699
 2755         c3     92    bbb     C9   2755 -0.06455200  12.010000   ; qtot 92.115147
 2756         h1     92    bbb    H17   2756 0.13554100   1.008000   ; qtot 92.250688
 2757         h1     92    bbb    H18   2757 0.13554100   1.008000   ; qtot 92.386229
 2758         os     92    bbb     O1   2758 -0.62587700  16.000000   ; qtot 91.760352
 2759         hn     92    bbb    H19   2759 0.23982500   1.008000   ; qtot 92.000177
; residue   93 bbb rtp bbb q 1.0
 2760         n4     93    bbb     N1   2760 0.03726400  14.010000   ; qtot 92.037441
 2761         c3     93    bbb     C1   2761 -0.07020100  12.010000   ; qtot 91.967240
 2762         hx     93    bbb     H1   2762 0.12219000   1.008000   ; qtot 92.089430
 2763         hx     93    bbb     H2   2763 0.12219000   1.008000   ; qtot 92.211620
 2764         c3     93    bbb     C2   2764 -0.07020100  12.010000   ; qtot 92.141419
 2765         hx     93    bbb     H3   2765 0.12219000   1.008000   ; qtot 92.263609
 2766         hx     93    bbb     H4   2766 0.12219000   1.008000   ; qtot 92.385799
 2767         c3     93    bbb     C3   2767 -0.39007700  12.010000   ; qtot 91.995722
 2768         hx     93    bbb     H5   2768 0.14940300   1.008000   ; qtot 92.145125
 2769         hx     93    bbb     H6   2769 0.14940300   1.008000   ; qtot 92.294528
 2770         c3     93    bbb     C4   2770 0.18057300  12.010000   ; qtot 92.475101
 2771         hc     93    bbb     H7   2771 0.01788900   1.008000   ; qtot 92.492990
 2772         hc     93    bbb     H8   2772 0.01788900   1.008000   ; qtot 92.510879
 2773         c3     93    bbb     C5   2773 -0.11337700  12.010000   ; qtot 92.397502
 2774         hc     93    bbb     H9   2774 0.09515400   1.008000   ; qtot 92.492656
 2775         hc     93    bbb    H10   2775 0.09515400   1.008000   ; qtot 92.587810
 2776         c3     93    bbb     C6   2776 -0.11337700  12.010000   ; qtot 92.474433
 2777         hc     93    bbb    H11   2777 0.09515400   1.008000   ; qtot 92.569587
 2778         hc     93    bbb    H12   2778 0.09515400   1.008000   ; qtot 92.664741
 2779         c3     93    bbb     C7   2779 0.21842400  12.010000   ; qtot 92.883165
 2780         h1     93    bbb    H13   2780 0.04500300   1.008000   ; qtot 92.928168
 2781         h1     93    bbb    H14   2781 0.04500300   1.008000   ; qtot 92.973171
 2782         c3     93    bbb     C8   2782 -0.06455200  12.010000   ; qtot 92.908619
 2783         h1     93    bbb    H15   2783 0.13554100   1.008000   ; qtot 93.044160
 2784         h1     93    bbb    H16   2784 0.13554100   1.008000   ; qtot 93.179701
 2785         c3     93    bbb     C9   2785 -0.06455200  12.010000   ; qtot 93.115149
 2786         h1     93    bbb    H17   2786 0.13554100   1.008000   ; qtot 93.250690
 2787         h1     93    bbb    H18   2787 0.13554100   1.008000   ; qtot 93.386231
 2788         os     93    bbb     O1   2788 -0.62587700  16.000000   ; qtot 92.760354
 2789         hn     93    bbb    H19   2789 0.23982500   1.008000   ; qtot 93.000179
; residue   94 bbb rtp bbb q 1.0
 2790         n4     94    bbb     N1   2790 0.03726400  14.010000   ; qtot 93.037443
 2791         c3     94    bbb     C1   2791 -0.07020100  12.010000   ; qtot 92.967242
 2792         hx     94    bbb     H1   2792 0.12219000   1.008000   ; qtot 93.089432
 2793         hx     94    bbb     H2   2793 0.12219000   1.008000   ; qtot 93.211622
 2794         c3     94    bbb     C2   2794 -0.07020100  12.010000   ; qtot 93.141421
 2795         hx     94    bbb     H3   2795 0.12219000   1.008000   ; qtot 93.263611
 2796         hx     94    bbb     H4   2796 0.12219000   1.008000   ; qtot 93.385801
 2797         c3     94    bbb     C3   2797 -0.39007700  12.010000   ; qtot 92.995724
 2798         hx     94    bbb     H5   2798 0.14940300   1.008000   ; qtot 93.145127
 2799         hx     94    bbb     H6   2799 0.14940300   1.008000   ; qtot 93.294530
 2800         c3     94    bbb     C4   2800 0.18057300  12.010000   ; qtot 93.475103
 2801         hc     94    bbb     H7   2801 0.01788900   1.008000   ; qtot 93.492992
 2802         hc     94    bbb     H8   2802 0.01788900   1.008000   ; qtot 93.510881
 2803         c3     94    bbb     C5   2803 -0.11337700  12.010000   ; qtot 93.397504
 2804         hc     94    bbb     H9   2804 0.09515400   1.008000   ; qtot 93.492658
 2805         hc     94    bbb    H10   2805 0.09515400   1.008000   ; qtot 93.587812
 2806         c3     94    bbb     C6   2806 -0.11337700  12.010000   ; qtot 93.474435
 2807         hc     94    bbb    H11   2807 0.09515400   1.008000   ; qtot 93.569589
 2808         hc     94    bbb    H12   2808 0.09515400   1.008000   ; qtot 93.664743
 2809         c3     94    bbb     C7   2809 0.21842400  12.010000   ; qtot 93.883167
 2810         h1     94    bbb    H13   2810 0.04500300   1.008000   ; qtot 93.928170
 2811         h1     94    bbb    H14   2811 0.04500300   1.008000   ; qtot 93.973173
 2812         c3     94    bbb     C8   2812 -0.06455200  12.010000   ; qtot 93.908621
 2813         h1     94    bbb    H15   2813 0.13554100   1.008000   ; qtot 94.044162
 2814         h1     94    bbb    H16   2814 0.13554100   1.008000   ; qtot 94.179703
 2815         c3     94    bbb     C9   2815 -0.06455200  12.010000   ; qtot 94.115151
 2816         h1     94    bbb    H17   2816 0.13554100   1.008000   ; qtot 94.250692
 2817         h1     94    bbb    H18   2817 0.13554100   1.008000   ; qtot 94.386233
 2818         os     94    bbb     O1   2818 -0.62587700  16.000000   ; qtot 93.760356
 2819         hn     94    bbb    H19   2819 0.23982500   1.008000   ; qtot 94.000181
; residue   95 ccc rtp ccc q 1.0
 2820         c3     95    ccc     C1   2820 0.14608100  12.010000   ; qtot 94.146262
 2821         h1     95    ccc     H1   2821 0.06738100   1.008000   ; qtot 94.213643
 2822         h1     95    ccc     H2   2822 0.06738100   1.008000   ; qtot 94.281024
 2823         c3     95    ccc     C2   2823 -0.14571900  12.010000   ; qtot 94.135305
 2824         hc     95    ccc     H3   2824 0.08688100   1.008000   ; qtot 94.222186
 2825         hc     95    ccc     H4   2825 0.08688100   1.008000   ; qtot 94.309067
 2826         c3     95    ccc     C3   2826 0.12348100  12.010000   ; qtot 94.432548
 2827         hx     95    ccc     H5   2827 0.10638100   1.008000   ; qtot 94.538929
 2828         hx     95    ccc     H6   2828 0.10638100   1.008000   ; qtot 94.645310
 2829         n4     95    ccc     N1   2829 -0.69071900  14.010000   ; qtot 93.954591
 2830         c3     95    ccc     C4   2830 0.12498100  12.010000   ; qtot 94.079572
 2831         hx     95    ccc     H7   2831 0.12238100   1.008000   ; qtot 94.201953
 2832         hx     95    ccc     H8   2832 0.12238100   1.008000   ; qtot 94.324334
 2833         c3     95    ccc     C5   2833 -0.20771900  12.010000   ; qtot 94.116615
 2834         hc     95    ccc     H9   2834 0.11463100   1.008000   ; qtot 94.231246
 2835         hc     95    ccc    H10   2835 0.11463100   1.008000   ; qtot 94.345877
 2836          c     95    ccc     C6   2836 0.64078100  12.010000   ; qtot 94.986658
 2837          o     95    ccc     O1   2837 -0.49231900  16.000000   ; qtot 94.494339
 2838         oh     95    ccc     O2   2838 -0.51841900  16.000000   ; qtot 93.975920
 2839         ho     95    ccc    H11   2839 0.45318100   1.008000   ; qtot 94.429101
 2840         c3     95    ccc     C7   2840 0.12498100  12.010000   ; qtot 94.554082
 2841         hx     95    ccc    H12   2841 0.12238100   1.008000   ; qtot 94.676463
 2842         hx     95    ccc    H13   2842 0.12238100   1.008000   ; qtot 94.798844
 2843         c3     95    ccc     C8   2843 -0.20771900  12.010000   ; qtot 94.591125
 2844         hc     95    ccc    H14   2844 0.11463100   1.008000   ; qtot 94.705756
 2845         hc     95    ccc    H15   2845 0.11463100   1.008000   ; qtot 94.820387
 2846          c     95    ccc     C9   2846 0.64078100  12.010000   ; qtot 95.461168
 2847          o     95    ccc     O3   2847 -0.49231900  16.000000   ; qtot 94.968849
 2848         oh     95    ccc     O4   2848 -0.51841900  16.000000   ; qtot 94.450430
 2849         ho     95    ccc    H16   2849 0.45318100   1.008000   ; qtot 94.903611
 2850         os     95    ccc     O5   2850 -0.39491900  16.000000   ; qtot 94.508692
 2851         hn     95    ccc    H17   2851 0.49148100   1.008000   ; qtot 95.000173
; residue   96 ccc rtp ccc q 1.0
 2852         c3     96    ccc     C1   2852 0.14608100  12.010000   ; qtot 95.146254
 2853         h1     96    ccc     H1   2853 0.06738100   1.008000   ; qtot 95.213635
 2854         h1     96    ccc     H2   2854 0.06738100   1.008000   ; qtot 95.281016
 2855         c3     96    ccc     C2   2855 -0.14571900  12.010000   ; qtot 95.135297
 2856         hc     96    ccc     H3   2856 0.08688100   1.008000   ; qtot 95.222178
 2857         hc     96    ccc     H4   2857 0.08688100   1.008000   ; qtot 95.309059
 2858         c3     96    ccc     C3   2858 0.12348100  12.010000   ; qtot 95.432540
 2859         hx     96    ccc     H5   2859 0.10638100   1.008000   ; qtot 95.538921
 2860         hx     96    ccc     H6   2860 0.10638100   1.008000   ; qtot 95.645302
 2861         n4     96    ccc     N1   2861 -0.69071900  14.010000   ; qtot 94.954583
 2862         c3     96    ccc     C4   2862 0.12498100  12.010000   ; qtot 95.079564
 2863         hx     96    ccc     H7   2863 0.12238100   1.008000   ; qtot 95.201945
 2864         hx     96    ccc     H8   2864 0.12238100   1.008000   ; qtot 95.324326
 2865         c3     96    ccc     C5   2865 -0.20771900  12.010000   ; qtot 95.116607
 2866         hc     96    ccc     H9   2866 0.11463100   1.008000   ; qtot 95.231238
 2867         hc     96    ccc    H10   2867 0.11463100   1.008000   ; qtot 95.345869
 2868          c     96    ccc     C6   2868 0.64078100  12.010000   ; qtot 95.986650
 2869          o     96    ccc     O1   2869 -0.49231900  16.000000   ; qtot 95.494331
 2870         oh     96    ccc     O2   2870 -0.51841900  16.000000   ; qtot 94.975912
 2871         ho     96    ccc    H11   2871 0.45318100   1.008000   ; qtot 95.429093
 2872         c3     96    ccc     C7   2872 0.12498100  12.010000   ; qtot 95.554074
 2873         hx     96    ccc    H12   2873 0.12238100   1.008000   ; qtot 95.676455
 2874         hx     96    ccc    H13   2874 0.12238100   1.008000   ; qtot 95.798836
 2875         c3     96    ccc     C8   2875 -0.20771900  12.010000   ; qtot 95.591117
 2876         hc     96    ccc    H14   2876 0.11463100   1.008000   ; qtot 95.705748
 2877         hc     96    ccc    H15   2877 0.11463100   1.008000   ; qtot 95.820379
 2878          c     96    ccc     C9   2878 0.64078100  12.010000   ; qtot 96.461160
 2879          o     96    ccc     O3   2879 -0.49231900  16.000000   ; qtot 95.968841
 2880         oh     96    ccc     O4   2880 -0.51841900  16.000000   ; qtot 95.450422
 2881         ho     96    ccc    H16   2881 0.45318100   1.008000   ; qtot 95.903603
 2882         os     96    ccc     O5   2882 -0.39491900  16.000000   ; qtot 95.508684
 2883         hn     96    ccc    H17   2883 0.49148100   1.008000   ; qtot 96.000165
; residue   97 ccc rtp ccc q 1.0
 2884         c3     97    ccc     C1   2884 0.14608100  12.010000   ; qtot 96.146246
 2885         h1     97    ccc     H1   2885 0.06738100   1.008000   ; qtot 96.213627
 2886         h1     97    ccc     H2   2886 0.06738100   1.008000   ; qtot 96.281008
 2887         c3     97    ccc     C2   2887 -0.14571900  12.010000   ; qtot 96.135289
 2888         hc     97    ccc     H3   2888 0.08688100   1.008000   ; qtot 96.222170
 2889         hc     97    ccc     H4   2889 0.08688100   1.008000   ; qtot 96.309051
 2890         c3     97    ccc     C3   2890 0.12348100  12.010000   ; qtot 96.432532
 2891         hx     97    ccc     H5   2891 0.10638100   1.008000   ; qtot 96.538913
 2892         hx     97    ccc     H6   2892 0.10638100   1.008000   ; qtot 96.645294
 2893         n4     97    ccc     N1   2893 -0.69071900  14.010000   ; qtot 95.954575
 2894         c3     97    ccc     C4   2894 0.12498100  12.010000   ; qtot 96.079556
 2895         hx     97    ccc     H7   2895 0.12238100   1.008000   ; qtot 96.201937
 2896         hx     97    ccc     H8   2896 0.12238100   1.008000   ; qtot 96.324318
 2897         c3     97    ccc     C5   2897 -0.20771900  12.010000   ; qtot 96.116599
 2898         hc     97    ccc     H9   2898 0.11463100   1.008000   ; qtot 96.231230
 2899         hc     97    ccc    H10   2899 0.11463100   1.008000   ; qtot 96.345861
 2900          c     97    ccc     C6   2900 0.64078100  12.010000   ; qtot 96.986642
 2901          o     97    ccc     O1   2901 -0.49231900  16.000000   ; qtot 96.494323
 2902         oh     97    ccc     O2   2902 -0.51841900  16.000000   ; qtot 95.975904
 2903         ho     97    ccc    H11   2903 0.45318100   1.008000   ; qtot 96.429085
 2904         c3     97    ccc     C7   2904 0.12498100  12.010000   ; qtot 96.554066
 2905         hx     97    ccc    H12   2905 0.12238100   1.008000   ; qtot 96.676447
 2906         hx     97    ccc    H13   2906 0.12238100   1.008000   ; qtot 96.798828
 2907         c3     97    ccc     C8   2907 -0.20771900  12.010000   ; qtot 96.591109
 2908         hc     97    ccc    H14   2908 0.11463100   1.008000   ; qtot 96.705740
 2909         hc     97    ccc    H15   2909 0.11463100   1.008000   ; qtot 96.820371
 2910          c     97    ccc     C9   2910 0.64078100  12.010000   ; qtot 97.461152
 2911          o     97    ccc     O3   2911 -0.49231900  16.000000   ; qtot 96.968833
 2912         oh     97    ccc     O4   2912 -0.51841900  16.000000   ; qtot 96.450414
 2913         ho     97    ccc    H16   2913 0.45318100   1.008000   ; qtot 96.903595
 2914         os     97    ccc     O5   2914 -0.39491900  16.000000   ; qtot 96.508676
 2915         hn     97    ccc    H17   2915 0.49148100   1.008000   ; qtot 97.000157
; residue   98 ccc rtp ccc q 1.0
 2916         c3     98    ccc     C1   2916 0.14608100  12.010000   ; qtot 97.146238
 2917         h1     98    ccc     H1   2917 0.06738100   1.008000   ; qtot 97.213619
 2918         h1     98    ccc     H2   2918 0.06738100   1.008000   ; qtot 97.281000
 2919         c3     98    ccc     C2   2919 -0.14571900  12.010000   ; qtot 97.135281
 2920         hc     98    ccc     H3   2920 0.08688100   1.008000   ; qtot 97.222162
 2921         hc     98    ccc     H4   2921 0.08688100   1.008000   ; qtot 97.309043
 2922         c3     98    ccc     C3   2922 0.12348100  12.010000   ; qtot 97.432524
 2923         hx     98    ccc     H5   2923 0.10638100   1.008000   ; qtot 97.538905
 2924         hx     98    ccc     H6   2924 0.10638100   1.008000   ; qtot 97.645286
 2925         n4     98    ccc     N1   2925 -0.69071900  14.010000   ; qtot 96.954567
 2926         c3     98    ccc     C4   2926 0.12498100  12.010000   ; qtot 97.079548
 2927         hx     98    ccc     H7   2927 0.12238100   1.008000   ; qtot 97.201929
 2928         hx     98    ccc     H8   2928 0.12238100   1.008000   ; qtot 97.324310
 2929         c3     98    ccc     C5   2929 -0.20771900  12.010000   ; qtot 97.116591
 2930         hc     98    ccc     H9   2930 0.11463100   1.008000   ; qtot 97.231222
 2931         hc     98    ccc    H10   2931 0.11463100   1.008000   ; qtot 97.345853
 2932          c     98    ccc     C6   2932 0.64078100  12.010000   ; qtot 97.986634
 2933          o     98    ccc     O1   2933 -0.49231900  16.000000   ; qtot 97.494315
 2934         oh     98    ccc     O2   2934 -0.51841900  16.000000   ; qtot 96.975896
 2935         ho     98    ccc    H11   2935 0.45318100   1.008000   ; qtot 97.429077
 2936         c3     98    ccc     C7   2936 0.12498100  12.010000   ; qtot 97.554058
 2937         hx     98    ccc    H12   2937 0.12238100   1.008000   ; qtot 97.676439
 2938         hx     98    ccc    H13   2938 0.12238100   1.008000   ; qtot 97.798820
 2939         c3     98    ccc     C8   2939 -0.20771900  12.010000   ; qtot 97.591101
 2940         hc     98    ccc    H14   2940 0.11463100   1.008000   ; qtot 97.705732
 2941         hc     98    ccc    H15   2941 0.11463100   1.008000   ; qtot 97.820363
 2942          c     98    ccc     C9   2942 0.64078100  12.010000   ; qtot 98.461144
 2943          o     98    ccc     O3   2943 -0.49231900  16.000000   ; qtot 97.968825
 2944         oh     98    ccc     O4   2944 -0.51841900  16.000000   ; qtot 97.450406
 2945         ho     98    ccc    H16   2945 0.45318100   1.008000   ; qtot 97.903587
 2946         os     98    ccc     O5   2946 -0.39491900  16.000000   ; qtot 97.508668
 2947         hn     98    ccc    H17   2947 0.49148100   1.008000   ; qtot 98.000149
; residue   99 ccc rtp ccc q 1.0
 2948         c3     99    ccc     C1   2948 0.14608100  12.010000   ; qtot 98.146230
 2949         h1     99    ccc     H1   2949 0.06738100   1.008000   ; qtot 98.213611
 2950         h1     99    ccc     H2   2950 0.06738100   1.008000   ; qtot 98.280992
 2951         c3     99    ccc     C2   2951 -0.14571900  12.010000   ; qtot 98.135273
 2952         hc     99    ccc     H3   2952 0.08688100   1.008000   ; qtot 98.222154
 2953         hc     99    ccc     H4   2953 0.08688100   1.008000   ; qtot 98.309035
 2954         c3     99    ccc     C3   2954 0.12348100  12.010000   ; qtot 98.432516
 2955         hx     99    ccc     H5   2955 0.10638100   1.008000   ; qtot 98.538897
 2956         hx     99    ccc     H6   2956 0.10638100   1.008000   ; qtot 98.645278
 2957         n4     99    ccc     N1   2957 -0.69071900  14.010000   ; qtot 97.954559
 2958         c3     99    ccc     C4   2958 0.12498100  12.010000   ; qtot 98.079540
 2959         hx     99    ccc     H7   2959 0.12238100   1.008000   ; qtot 98.201921
 2960         hx     99    ccc     H8   2960 0.12238100   1.008000   ; qtot 98.324302
 2961         c3     99    ccc     C5   2961 -0.20771900  12.010000   ; qtot 98.116583
 2962         hc     99    ccc     H9   2962 0.11463100   1.008000   ; qtot 98.231214
 2963         hc     99    ccc    H10   2963 0.11463100   1.008000   ; qtot 98.345845
 2964          c     99    ccc     C6   2964 0.64078100  12.010000   ; qtot 98.986626
 2965          o     99    ccc     O1   2965 -0.49231900  16.000000   ; qtot 98.494307
 2966         oh     99    ccc     O2   2966 -0.51841900  16.000000   ; qtot 97.975888
 2967         ho     99    ccc    H11   2967 0.45318100   1.008000   ; qtot 98.429069
 2968         c3     99    ccc     C7   2968 0.12498100  12.010000   ; qtot 98.554050
 2969         hx     99    ccc    H12   2969 0.12238100   1.008000   ; qtot 98.676431
 2970         hx     99    ccc    H13   2970 0.12238100   1.008000   ; qtot 98.798812
 2971         c3     99    ccc     C8   2971 -0.20771900  12.010000   ; qtot 98.591093
 2972         hc     99    ccc    H14   2972 0.11463100   1.008000   ; qtot 98.705724
 2973         hc     99    ccc    H15   2973 0.11463100   1.008000   ; qtot 98.820355
 2974          c     99    ccc     C9   2974 0.64078100  12.010000   ; qtot 99.461136
 2975          o     99    ccc     O3   2975 -0.49231900  16.000000   ; qtot 98.968817
 2976         oh     99    ccc     O4   2976 -0.51841900  16.000000   ; qtot 98.450398
 2977         ho     99    ccc    H16   2977 0.45318100   1.008000   ; qtot 98.903579
 2978         os     99    ccc     O5   2978 -0.39491900  16.000000   ; qtot 98.508660
 2979         hn     99    ccc    H17   2979 0.49148100   1.008000   ; qtot 99.000141
; residue  100 ccc rtp ccc q 1.0
 2980         c3    100    ccc     C1   2980 0.14608100  12.010000   ; qtot 99.146222
 2981         h1    100    ccc     H1   2981 0.06738100   1.008000   ; qtot 99.213603
 2982         h1    100    ccc     H2   2982 0.06738100   1.008000   ; qtot 99.280984
 2983         c3    100    ccc     C2   2983 -0.14571900  12.010000   ; qtot 99.135265
 2984         hc    100    ccc     H3   2984 0.08688100   1.008000   ; qtot 99.222146
 2985         hc    100    ccc     H4   2985 0.08688100   1.008000   ; qtot 99.309027
 2986         c3    100    ccc     C3   2986 0.12348100  12.010000   ; qtot 99.432508
 2987         hx    100    ccc     H5   2987 0.10638100   1.008000   ; qtot 99.538889
 2988         hx    100    ccc     H6   2988 0.10638100   1.008000   ; qtot 99.645270
 2989         n4    100    ccc     N1   2989 -0.69071900  14.010000   ; qtot 98.954551
 2990         c3    100    ccc     C4   2990 0.12498100  12.010000   ; qtot 99.079532
 2991         hx    100    ccc     H7   2991 0.12238100   1.008000   ; qtot 99.201913
 2992         hx    100    ccc     H8   2992 0.12238100   1.008000   ; qtot 99.324294
 2993         c3    100    ccc     C5   2993 -0.20771900  12.010000   ; qtot 99.116575
 2994         hc    100    ccc     H9   2994 0.11463100   1.008000   ; qtot 99.231206
 2995         hc    100    ccc    H10   2995 0.11463100   1.008000   ; qtot 99.345837
 2996          c    100    ccc     C6   2996 0.64078100  12.010000   ; qtot 99.986618
 2997          o    100    ccc     O1   2997 -0.49231900  16.000000   ; qtot 99.494299
 2998         oh    100    ccc     O2   2998 -0.51841900  16.000000   ; qtot 98.975880
 2999         ho    100    ccc    H11   2999 0.45318100   1.008000   ; qtot 99.429061
 3000         c3    100    ccc     C7   3000 0.12498100  12.010000   ; qtot 99.554042
 3001         hx    100    ccc    H12   3001 0.12238100   1.008000   ; qtot 99.676423
 3002         hx    100    ccc    H13   3002 0.12238100   1.008000   ; qtot 99.798804
 3003         c3    100    ccc     C8   3003 -0.20771900  12.010000   ; qtot 99.591085
 3004         hc    100    ccc    H14   3004 0.11463100   1.008000   ; qtot 99.705716
 3005         hc    100    ccc    H15   3005 0.11463100   1.008000   ; qtot 99.820347
 3006          c    100    ccc     C9   3006 0.64078100  12.010000   ; qtot 100.461128
 3007          o    100    ccc     O3   3007 -0.49231900  16.000000   ; qtot 99.968809
 3008         oh    100    ccc     O4   3008 -0.51841900  16.000000   ; qtot 99.450390
 3009         ho    100    ccc    H16   3009 0.45318100   1.008000   ; qtot 99.903571
 3010         os    100    ccc     O5   3010 -0.39491900  16.000000   ; qtot 99.508652
 3011         hn    100    ccc    H17   3011 0.49148100   1.008000   ; qtot 100.000133
; residue  101 ccc rtp ccc q 1.0
 3012         c3    101    ccc     C1   3012 0.14608100  12.010000   ; qtot 100.146214
 3013         h1    101    ccc     H1   3013 0.06738100   1.008000   ; qtot 100.213595
 3014         h1    101    ccc     H2   3014 0.06738100   1.008000   ; qtot 100.280976
 3015         c3    101    ccc     C2   3015 -0.14571900  12.010000   ; qtot 100.135257
 3016         hc    101    ccc     H3   3016 0.08688100   1.008000   ; qtot 100.222138
 3017         hc    101    ccc     H4   3017 0.08688100   1.008000   ; qtot 100.309019
 3018         c3    101    ccc     C3   3018 0.12348100  12.010000   ; qtot 100.432500
 3019         hx    101    ccc     H5   3019 0.10638100   1.008000   ; qtot 100.538881
 3020         hx    101    ccc     H6   3020 0.10638100   1.008000   ; qtot 100.645262
 3021         n4    101    ccc     N1   3021 -0.69071900  14.010000   ; qtot 99.954543
 3022         c3    101    ccc     C4   3022 0.12498100  12.010000   ; qtot 100.079524
 3023         hx    101    ccc     H7   3023 0.12238100   1.008000   ; qtot 100.201905
 3024         hx    101    ccc     H8   3024 0.12238100   1.008000   ; qtot 100.324286
 3025         c3    101    ccc     C5   3025 -0.20771900  12.010000   ; qtot 100.116567
 3026         hc    101    ccc     H9   3026 0.11463100   1.008000   ; qtot 100.231198
 3027         hc    101    ccc    H10   3027 0.11463100   1.008000   ; qtot 100.345829
 3028          c    101    ccc     C6   3028 0.64078100  12.010000   ; qtot 100.986610
 3029          o    101    ccc     O1   3029 -0.49231900  16.000000   ; qtot 100.494291
 3030         oh    101    ccc     O2   3030 -0.51841900  16.000000   ; qtot 99.975872
 3031         ho    101    ccc    H11   3031 0.45318100   1.008000   ; qtot 100.429053
 3032         c3    101    ccc     C7   3032 0.12498100  12.010000   ; qtot 100.554034
 3033         hx    101    ccc    H12   3033 0.12238100   1.008000   ; qtot 100.676415
 3034         hx    101    ccc    H13   3034 0.12238100   1.008000   ; qtot 100.798796
 3035         c3    101    ccc     C8   3035 -0.20771900  12.010000   ; qtot 100.591077
 3036         hc    101    ccc    H14   3036 0.11463100   1.008000   ; qtot 100.705708
 3037         hc    101    ccc    H15   3037 0.11463100   1.008000   ; qtot 100.820339
 3038          c    101    ccc     C9   3038 0.64078100  12.010000   ; qtot 101.461120
 3039          o    101    ccc     O3   3039 -0.49231900  16.000000   ; qtot 100.968801
 3040         oh    101    ccc     O4   3040 -0.51841900  16.000000   ; qtot 100.450382
 3041         ho    101    ccc    H16   3041 0.45318100   1.008000   ; qtot 100.903563
 3042         os    101    ccc     O5   3042 -0.39491900  16.000000   ; qtot 100.508644
 3043         hn    101    ccc    H17   3043 0.49148100   1.008000   ; qtot 101.000125
; residue  102 ccc rtp ccc q 1.0
 3044         c3    102    ccc     C1   3044 0.14608100  12.010000   ; qtot 101.146206
 3045         h1    102    ccc     H1   3045 0.06738100   1.008000   ; qtot 101.213587
 3046         h1    102    ccc     H2   3046 0.06738100   1.008000   ; qtot 101.280968
 3047         c3    102    ccc     C2   3047 -0.14571900  12.010000   ; qtot 101.135249
 3048         hc    102    ccc     H3   3048 0.08688100   1.008000   ; qtot 101.222130
 3049         hc    102    ccc     H4   3049 0.08688100   1.008000   ; qtot 101.309011
 3050         c3    102    ccc     C3   3050 0.12348100  12.010000   ; qtot 101.432492
 3051         hx    102    ccc     H5   3051 0.10638100   1.008000   ; qtot 101.538873
 3052         hx    102    ccc     H6   3052 0.10638100   1.008000   ; qtot 101.645254
 3053         n4    102    ccc     N1   3053 -0.69071900  14.010000   ; qtot 100.954535
 3054         c3    102    ccc     C4   3054 0.12498100  12.010000   ; qtot 101.079516
 3055         hx    102    ccc     H7   3055 0.12238100   1.008000   ; qtot 101.201897
 3056         hx    102    ccc     H8   3056 0.12238100   1.008000   ; qtot 101.324278
 3057         c3    102    ccc     C5   3057 -0.20771900  12.010000   ; qtot 101.116559
 3058         hc    102    ccc     H9   3058 0.11463100   1.008000   ; qtot 101.231190
 3059         hc    102    ccc    H10   3059 0.11463100   1.008000   ; qtot 101.345821
 3060          c    102    ccc     C6   3060 0.64078100  12.010000   ; qtot 101.986602
 3061          o    102    ccc     O1   3061 -0.49231900  16.000000   ; qtot 101.494283
 3062         oh    102    ccc     O2   3062 -0.51841900  16.000000   ; qtot 100.975864
 3063         ho    102    ccc    H11   3063 0.45318100   1.008000   ; qtot 101.429045
 3064         c3    102    ccc     C7   3064 0.12498100  12.010000   ; qtot 101.554026
 3065         hx    102    ccc    H12   3065 0.12238100   1.008000   ; qtot 101.676407
 3066         hx    102    ccc    H13   3066 0.12238100   1.008000   ; qtot 101.798788
 3067         c3    102    ccc     C8   3067 -0.20771900  12.010000   ; qtot 101.591069
 3068         hc    102    ccc    H14   3068 0.11463100   1.008000   ; qtot 101.705700
 3069         hc    102    ccc    H15   3069 0.11463100   1.008000   ; qtot 101.820331
 3070          c    102    ccc     C9   3070 0.64078100  12.010000   ; qtot 102.461112
 3071          o    102    ccc     O3   3071 -0.49231900  16.000000   ; qtot 101.968793
 3072         oh    102    ccc     O4   3072 -0.51841900  16.000000   ; qtot 101.450374
 3073         ho    102    ccc    H16   3073 0.45318100   1.008000   ; qtot 101.903555
 3074         os    102    ccc     O5   3074 -0.39491900  16.000000   ; qtot 101.508636
 3075         hn    102    ccc    H17   3075 0.49148100   1.008000   ; qtot 102.000117
; residue  103 ccc rtp ccc q 1.0
 3076         c3    103    ccc     C1   3076 0.14608100  12.010000   ; qtot 102.146198
 3077         h1    103    ccc     H1   3077 0.06738100   1.008000   ; qtot 102.213579
 3078         h1    103    ccc     H2   3078 0.06738100   1.008000   ; qtot 102.280960
 3079         c3    103    ccc     C2   3079 -0.14571900  12.010000   ; qtot 102.135241
 3080         hc    103    ccc     H3   3080 0.08688100   1.008000   ; qtot 102.222122
 3081         hc    103    ccc     H4   3081 0.08688100   1.008000   ; qtot 102.309003
 3082         c3    103    ccc     C3   3082 0.12348100  12.010000   ; qtot 102.432484
 3083         hx    103    ccc     H5   3083 0.10638100   1.008000   ; qtot 102.538865
 3084         hx    103    ccc     H6   3084 0.10638100   1.008000   ; qtot 102.645246
 3085         n4    103    ccc     N1   3085 -0.69071900  14.010000   ; qtot 101.954527
 3086         c3    103    ccc     C4   3086 0.12498100  12.010000   ; qtot 102.079508
 3087         hx    103    ccc     H7   3087 0.12238100   1.008000   ; qtot 102.201889
 3088         hx    103    ccc     H8   3088 0.12238100   1.008000   ; qtot 102.324270
 3089         c3    103    ccc     C5   3089 -0.20771900  12.010000   ; qtot 102.116551
 3090         hc    103    ccc     H9   3090 0.11463100   1.008000   ; qtot 102.231182
 3091         hc    103    ccc    H10   3091 0.11463100   1.008000   ; qtot 102.345813
 3092          c    103    ccc     C6   3092 0.64078100  12.010000   ; qtot 102.986594
 3093          o    103    ccc     O1   3093 -0.49231900  16.000000   ; qtot 102.494275
 3094         oh    103    ccc     O2   3094 -0.51841900  16.000000   ; qtot 101.975856
 3095         ho    103    ccc    H11   3095 0.45318100   1.008000   ; qtot 102.429037
 3096         c3    103    ccc     C7   3096 0.12498100  12.010000   ; qtot 102.554018
 3097         hx    103    ccc    H12   3097 0.12238100   1.008000   ; qtot 102.676399
 3098         hx    103    ccc    H13   3098 0.12238100   1.008000   ; qtot 102.798780
 3099         c3    103    ccc     C8   3099 -0.20771900  12.010000   ; qtot 102.591061
 3100         hc    103    ccc    H14   3100 0.11463100   1.008000   ; qtot 102.705692
 3101         hc    103    ccc    H15   3101 0.11463100   1.008000   ; qtot 102.820323
 3102          c    103    ccc     C9   3102 0.64078100  12.010000   ; qtot 103.461104
 3103          o    103    ccc     O3   3103 -0.49231900  16.000000   ; qtot 102.968785
 3104         oh    103    ccc     O4   3104 -0.51841900  16.000000   ; qtot 102.450366
 3105         ho    103    ccc    H16   3105 0.45318100   1.008000   ; qtot 102.903547
 3106         os    103    ccc     O5   3106 -0.39491900  16.000000   ; qtot 102.508628
 3107         hn    103    ccc    H17   3107 0.49148100   1.008000   ; qtot 103.000109
; residue  104 ccc rtp ccc q 1.0
 3108         c3    104    ccc     C1   3108 0.14608100  12.010000   ; qtot 103.146190
 3109         h1    104    ccc     H1   3109 0.06738100   1.008000   ; qtot 103.213571
 3110         h1    104    ccc     H2   3110 0.06738100   1.008000   ; qtot 103.280952
 3111         c3    104    ccc     C2   3111 -0.14571900  12.010000   ; qtot 103.135233
 3112         hc    104    ccc     H3   3112 0.08688100   1.008000   ; qtot 103.222114
 3113         hc    104    ccc     H4   3113 0.08688100   1.008000   ; qtot 103.308995
 3114         c3    104    ccc     C3   3114 0.12348100  12.010000   ; qtot 103.432476
 3115         hx    104    ccc     H5   3115 0.10638100   1.008000   ; qtot 103.538857
 3116         hx    104    ccc     H6   3116 0.10638100   1.008000   ; qtot 103.645238
 3117         n4    104    ccc     N1   3117 -0.69071900  14.010000   ; qtot 102.954519
 3118         c3    104    ccc     C4   3118 0.12498100  12.010000   ; qtot 103.079500
 3119         hx    104    ccc     H7   3119 0.12238100   1.008000   ; qtot 103.201881
 3120         hx    104    ccc     H8   3120 0.12238100   1.008000   ; qtot 103.324262
 3121         c3    104    ccc     C5   3121 -0.20771900  12.010000   ; qtot 103.116543
 3122         hc    104    ccc     H9   3122 0.11463100   1.008000   ; qtot 103.231174
 3123         hc    104    ccc    H10   3123 0.11463100   1.008000   ; qtot 103.345805
 3124          c    104    ccc     C6   3124 0.64078100  12.010000   ; qtot 103.986586
 3125          o    104    ccc     O1   3125 -0.49231900  16.000000   ; qtot 103.494267
 3126         oh    104    ccc     O2   3126 -0.51841900  16.000000   ; qtot 102.975848
 3127         ho    104    ccc    H11   3127 0.45318100   1.008000   ; qtot 103.429029
 3128         c3    104    ccc     C7   3128 0.12498100  12.010000   ; qtot 103.554010
 3129         hx    104    ccc    H12   3129 0.12238100   1.008000   ; qtot 103.676391
 3130         hx    104    ccc    H13   3130 0.12238100   1.008000   ; qtot 103.798772
 3131         c3    104    ccc     C8   3131 -0.20771900  12.010000   ; qtot 103.591053
 3132         hc    104    ccc    H14   3132 0.11463100   1.008000   ; qtot 103.705684
 3133         hc    104    ccc    H15   3133 0.11463100   1.008000   ; qtot 103.820315
 3134          c    104    ccc     C9   3134 0.64078100  12.010000   ; qtot 104.461096
 3135          o    104    ccc     O3   3135 -0.49231900  16.000000   ; qtot 103.968777
 3136         oh    104    ccc     O4   3136 -0.51841900  16.000000   ; qtot 103.450358
 3137         ho    104    ccc    H16   3137 0.45318100   1.008000   ; qtot 103.903539
 3138         os    104    ccc     O5   3138 -0.39491900  16.000000   ; qtot 103.508620
 3139         hn    104    ccc    H17   3139 0.49148100   1.008000   ; qtot 104.000101
; residue  105 ccc rtp ccc q 1.0
 3140         c3    105    ccc     C1   3140 0.14608100  12.010000   ; qtot 104.146182
 3141         h1    105    ccc     H1   3141 0.06738100   1.008000   ; qtot 104.213563
 3142         h1    105    ccc     H2   3142 0.06738100   1.008000   ; qtot 104.280944
 3143         c3    105    ccc     C2   3143 -0.14571900  12.010000   ; qtot 104.135225
 3144         hc    105    ccc     H3   3144 0.08688100   1.008000   ; qtot 104.222106
 3145         hc    105    ccc     H4   3145 0.08688100   1.008000   ; qtot 104.308987
 3146         c3    105    ccc     C3   3146 0.12348100  12.010000   ; qtot 104.432468
 3147         hx    105    ccc     H5   3147 0.10638100   1.008000   ; qtot 104.538849
 3148         hx    105    ccc     H6   3148 0.10638100   1.008000   ; qtot 104.645230
 3149         n4    105    ccc     N1   3149 -0.69071900  14.010000   ; qtot 103.954511
 3150         c3    105    ccc     C4   3150 0.12498100  12.010000   ; qtot 104.079492
 3151         hx    105    ccc     H7   3151 0.12238100   1.008000   ; qtot 104.201873
 3152         hx    105    ccc     H8   3152 0.12238100   1.008000   ; qtot 104.324254
 3153         c3    105    ccc     C5   3153 -0.20771900  12.010000   ; qtot 104.116535
 3154         hc    105    ccc     H9   3154 0.11463100   1.008000   ; qtot 104.231166
 3155         hc    105    ccc    H10   3155 0.11463100   1.008000   ; qtot 104.345797
 3156          c    105    ccc     C6   3156 0.64078100  12.010000   ; qtot 104.986578
 3157          o    105    ccc     O1   3157 -0.49231900  16.000000   ; qtot 104.494259
 3158         oh    105    ccc     O2   3158 -0.51841900  16.000000   ; qtot 103.975840
 3159         ho    105    ccc    H11   3159 0.45318100   1.008000   ; qtot 104.429021
 3160         c3    105    ccc     C7   3160 0.12498100  12.010000   ; qtot 104.554002
 3161         hx    105    ccc    H12   3161 0.12238100   1.008000   ; qtot 104.676383
 3162         hx    105    ccc    H13   3162 0.12238100   1.008000   ; qtot 104.798764
 3163         c3    105    ccc     C8   3163 -0.20771900  12.010000   ; qtot 104.591045
 3164         hc    105    ccc    H14   3164 0.11463100   1.008000   ; qtot 104.705676
 3165         hc    105    ccc    H15   3165 0.11463100   1.008000   ; qtot 104.820307
 3166          c    105    ccc     C9   3166 0.64078100  12.010000   ; qtot 105.461088
 3167          o    105    ccc     O3   3167 -0.49231900  16.000000   ; qtot 104.968769
 3168         oh    105    ccc     O4   3168 -0.51841900  16.000000   ; qtot 104.450350
 3169         ho    105    ccc    H16   3169 0.45318100   1.008000   ; qtot 104.903531
 3170         os    105    ccc     O5   3170 -0.39491900  16.000000   ; qtot 104.508612
 3171         hn    105    ccc    H17   3171 0.49148100   1.008000   ; qtot 105.000093
; residue  106 ccc rtp ccc q 1.0
 3172         c3    106    ccc     C1   3172 0.14608100  12.010000   ; qtot 105.146174
 3173         h1    106    ccc     H1   3173 0.06738100   1.008000   ; qtot 105.213555
 3174         h1    106    ccc     H2   3174 0.06738100   1.008000   ; qtot 105.280936
 3175         c3    106    ccc     C2   3175 -0.14571900  12.010000   ; qtot 105.135217
 3176         hc    106    ccc     H3   3176 0.08688100   1.008000   ; qtot 105.222098
 3177         hc    106    ccc     H4   3177 0.08688100   1.008000   ; qtot 105.308979
 3178         c3    106    ccc     C3   3178 0.12348100  12.010000   ; qtot 105.432460
 3179         hx    106    ccc     H5   3179 0.10638100   1.008000   ; qtot 105.538841
 3180         hx    106    ccc     H6   3180 0.10638100   1.008000   ; qtot 105.645222
 3181         n4    106    ccc     N1   3181 -0.69071900  14.010000   ; qtot 104.954503
 3182         c3    106    ccc     C4   3182 0.12498100  12.010000   ; qtot 105.079484
 3183         hx    106    ccc     H7   3183 0.12238100   1.008000   ; qtot 105.201865
 3184         hx    106    ccc     H8   3184 0.12238100   1.008000   ; qtot 105.324246
 3185         c3    106    ccc     C5   3185 -0.20771900  12.010000   ; qtot 105.116527
 3186         hc    106    ccc     H9   3186 0.11463100   1.008000   ; qtot 105.231158
 3187         hc    106    ccc    H10   3187 0.11463100   1.008000   ; qtot 105.345789
 3188          c    106    ccc     C6   3188 0.64078100  12.010000   ; qtot 105.986570
 3189          o    106    ccc     O1   3189 -0.49231900  16.000000   ; qtot 105.494251
 3190         oh    106    ccc     O2   3190 -0.51841900  16.000000   ; qtot 104.975832
 3191         ho    106    ccc    H11   3191 0.45318100   1.008000   ; qtot 105.429013
 3192         c3    106    ccc     C7   3192 0.12498100  12.010000   ; qtot 105.553994
 3193         hx    106    ccc    H12   3193 0.12238100   1.008000   ; qtot 105.676375
 3194         hx    106    ccc    H13   3194 0.12238100   1.008000   ; qtot 105.798756
 3195         c3    106    ccc     C8   3195 -0.20771900  12.010000   ; qtot 105.591037
 3196         hc    106    ccc    H14   3196 0.11463100   1.008000   ; qtot 105.705668
 3197         hc    106    ccc    H15   3197 0.11463100   1.008000   ; qtot 105.820299
 3198          c    106    ccc     C9   3198 0.64078100  12.010000   ; qtot 106.461080
 3199          o    106    ccc     O3   3199 -0.49231900  16.000000   ; qtot 105.968761
 3200         oh    106    ccc     O4   3200 -0.51841900  16.000000   ; qtot 105.450342
 3201         ho    106    ccc    H16   3201 0.45318100   1.008000   ; qtot 105.903523
 3202         os    106    ccc     O5   3202 -0.39491900  16.000000   ; qtot 105.508604
 3203         hn    106    ccc    H17   3203 0.49148100   1.008000   ; qtot 106.000085
; residue  107 ccc rtp ccc q 1.0
 3204         c3    107    ccc     C1   3204 0.14608100  12.010000   ; qtot 106.146166
 3205         h1    107    ccc     H1   3205 0.06738100   1.008000   ; qtot 106.213547
 3206         h1    107    ccc     H2   3206 0.06738100   1.008000   ; qtot 106.280928
 3207         c3    107    ccc     C2   3207 -0.14571900  12.010000   ; qtot 106.135209
 3208         hc    107    ccc     H3   3208 0.08688100   1.008000   ; qtot 106.222090
 3209         hc    107    ccc     H4   3209 0.08688100   1.008000   ; qtot 106.308971
 3210         c3    107    ccc     C3   3210 0.12348100  12.010000   ; qtot 106.432452
 3211         hx    107    ccc     H5   3211 0.10638100   1.008000   ; qtot 106.538833
 3212         hx    107    ccc     H6   3212 0.10638100   1.008000   ; qtot 106.645214
 3213         n4    107    ccc     N1   3213 -0.69071900  14.010000   ; qtot 105.954495
 3214         c3    107    ccc     C4   3214 0.12498100  12.010000   ; qtot 106.079476
 3215         hx    107    ccc     H7   3215 0.12238100   1.008000   ; qtot 106.201857
 3216         hx    107    ccc     H8   3216 0.12238100   1.008000   ; qtot 106.324238
 3217         c3    107    ccc     C5   3217 -0.20771900  12.010000   ; qtot 106.116519
 3218         hc    107    ccc     H9   3218 0.11463100   1.008000   ; qtot 106.231150
 3219         hc    107    ccc    H10   3219 0.11463100   1.008000   ; qtot 106.345781
 3220          c    107    ccc     C6   3220 0.64078100  12.010000   ; qtot 106.986562
 3221          o    107    ccc     O1   3221 -0.49231900  16.000000   ; qtot 106.494243
 3222         oh    107    ccc     O2   3222 -0.51841900  16.000000   ; qtot 105.975824
 3223         ho    107    ccc    H11   3223 0.45318100   1.008000   ; qtot 106.429005
 3224         c3    107    ccc     C7   3224 0.12498100  12.010000   ; qtot 106.553986
 3225         hx    107    ccc    H12   3225 0.12238100   1.008000   ; qtot 106.676367
 3226         hx    107    ccc    H13   3226 0.12238100   1.008000   ; qtot 106.798748
 3227         c3    107    ccc     C8   3227 -0.20771900  12.010000   ; qtot 106.591029
 3228         hc    107    ccc    H14   3228 0.11463100   1.008000   ; qtot 106.705660
 3229         hc    107    ccc    H15   3229 0.11463100   1.008000   ; qtot 106.820291
 3230          c    107    ccc     C9   3230 0.64078100  12.010000   ; qtot 107.461072
 3231          o    107    ccc     O3   3231 -0.49231900  16.000000   ; qtot 106.968753
 3232         oh    107    ccc     O4   3232 -0.51841900  16.000000   ; qtot 106.450334
 3233         ho    107    ccc    H16   3233 0.45318100   1.008000   ; qtot 106.903515
 3234         os    107    ccc     O5   3234 -0.39491900  16.000000   ; qtot 106.508596
 3235         hn    107    ccc    H17   3235 0.49148100   1.008000   ; qtot 107.000077
; residue  108 ccc rtp ccc q 1.0
 3236         c3    108    ccc     C1   3236 0.14608100  12.010000   ; qtot 107.146158
 3237         h1    108    ccc     H1   3237 0.06738100   1.008000   ; qtot 107.213539
 3238         h1    108    ccc     H2   3238 0.06738100   1.008000   ; qtot 107.280920
 3239         c3    108    ccc     C2   3239 -0.14571900  12.010000   ; qtot 107.135201
 3240         hc    108    ccc     H3   3240 0.08688100   1.008000   ; qtot 107.222082
 3241         hc    108    ccc     H4   3241 0.08688100   1.008000   ; qtot 107.308963
 3242         c3    108    ccc     C3   3242 0.12348100  12.010000   ; qtot 107.432444
 3243         hx    108    ccc     H5   3243 0.10638100   1.008000   ; qtot 107.538825
 3244         hx    108    ccc     H6   3244 0.10638100   1.008000   ; qtot 107.645206
 3245         n4    108    ccc     N1   3245 -0.69071900  14.010000   ; qtot 106.954487
 3246         c3    108    ccc     C4   3246 0.12498100  12.010000   ; qtot 107.079468
 3247         hx    108    ccc     H7   3247 0.12238100   1.008000   ; qtot 107.201849
 3248         hx    108    ccc     H8   3248 0.12238100   1.008000   ; qtot 107.324230
 3249         c3    108    ccc     C5   3249 -0.20771900  12.010000   ; qtot 107.116511
 3250         hc    108    ccc     H9   3250 0.11463100   1.008000   ; qtot 107.231142
 3251         hc    108    ccc    H10   3251 0.11463100   1.008000   ; qtot 107.345773
 3252          c    108    ccc     C6   3252 0.64078100  12.010000   ; qtot 107.986554
 3253          o    108    ccc     O1   3253 -0.49231900  16.000000   ; qtot 107.494235
 3254         oh    108    ccc     O2   3254 -0.51841900  16.000000   ; qtot 106.975816
 3255         ho    108    ccc    H11   3255 0.45318100   1.008000   ; qtot 107.428997
 3256         c3    108    ccc     C7   3256 0.12498100  12.010000   ; qtot 107.553978
 3257         hx    108    ccc    H12   3257 0.12238100   1.008000   ; qtot 107.676359
 3258         hx    108    ccc    H13   3258 0.12238100   1.008000   ; qtot 107.798740
 3259         c3    108    ccc     C8   3259 -0.20771900  12.010000   ; qtot 107.591021
 3260         hc    108    ccc    H14   3260 0.11463100   1.008000   ; qtot 107.705652
 3261         hc    108    ccc    H15   3261 0.11463100   1.008000   ; qtot 107.820283
 3262          c    108    ccc     C9   3262 0.64078100  12.010000   ; qtot 108.461064
 3263          o    108    ccc     O3   3263 -0.49231900  16.000000   ; qtot 107.968745
 3264         oh    108    ccc     O4   3264 -0.51841900  16.000000   ; qtot 107.450326
 3265         ho    108    ccc    H16   3265 0.45318100   1.008000   ; qtot 107.903507
 3266         os    108    ccc     O5   3266 -0.39491900  16.000000   ; qtot 107.508588
 3267         hn    108    ccc    H17   3267 0.49148100   1.008000   ; qtot 108.000069
; residue  109 ccc rtp ccc q 1.0
 3268         c3    109    ccc     C1   3268 0.14608100  12.010000   ; qtot 108.146150
 3269         h1    109    ccc     H1   3269 0.06738100   1.008000   ; qtot 108.213531
 3270         h1    109    ccc     H2   3270 0.06738100   1.008000   ; qtot 108.280912
 3271         c3    109    ccc     C2   3271 -0.14571900  12.010000   ; qtot 108.135193
 3272         hc    109    ccc     H3   3272 0.08688100   1.008000   ; qtot 108.222074
 3273         hc    109    ccc     H4   3273 0.08688100   1.008000   ; qtot 108.308955
 3274         c3    109    ccc     C3   3274 0.12348100  12.010000   ; qtot 108.432436
 3275         hx    109    ccc     H5   3275 0.10638100   1.008000   ; qtot 108.538817
 3276         hx    109    ccc     H6   3276 0.10638100   1.008000   ; qtot 108.645198
 3277         n4    109    ccc     N1   3277 -0.69071900  14.010000   ; qtot 107.954479
 3278         c3    109    ccc     C4   3278 0.12498100  12.010000   ; qtot 108.079460
 3279         hx    109    ccc     H7   3279 0.12238100   1.008000   ; qtot 108.201841
 3280         hx    109    ccc     H8   3280 0.12238100   1.008000   ; qtot 108.324222
 3281         c3    109    ccc     C5   3281 -0.20771900  12.010000   ; qtot 108.116503
 3282         hc    109    ccc     H9   3282 0.11463100   1.008000   ; qtot 108.231134
 3283         hc    109    ccc    H10   3283 0.11463100   1.008000   ; qtot 108.345765
 3284          c    109    ccc     C6   3284 0.64078100  12.010000   ; qtot 108.986546
 3285          o    109    ccc     O1   3285 -0.49231900  16.000000   ; qtot 108.494227
 3286         oh    109    ccc     O2   3286 -0.51841900  16.000000   ; qtot 107.975808
 3287         ho    109    ccc    H11   3287 0.45318100   1.008000   ; qtot 108.428989
 3288         c3    109    ccc     C7   3288 0.12498100  12.010000   ; qtot 108.553970
 3289         hx    109    ccc    H12   3289 0.12238100   1.008000   ; qtot 108.676351
 3290         hx    109    ccc    H13   3290 0.12238100   1.008000   ; qtot 108.798732
 3291         c3    109    ccc     C8   3291 -0.20771900  12.010000   ; qtot 108.591013
 3292         hc    109    ccc    H14   3292 0.11463100   1.008000   ; qtot 108.705644
 3293         hc    109    ccc    H15   3293 0.11463100   1.008000   ; qtot 108.820275
 3294          c    109    ccc     C9   3294 0.64078100  12.010000   ; qtot 109.461056
 3295          o    109    ccc     O3   3295 -0.49231900  16.000000   ; qtot 108.968737
 3296         oh    109    ccc     O4   3296 -0.51841900  16.000000   ; qtot 108.450318
 3297         ho    109    ccc    H16   3297 0.45318100   1.008000   ; qtot 108.903499
 3298         os    109    ccc     O5   3298 -0.39491900  16.000000   ; qtot 108.508580
 3299         hn    109    ccc    H17   3299 0.49148100   1.008000   ; qtot 109.000061
; residue  110 ccc rtp ccc q 1.0
 3300         c3    110    ccc     C1   3300 0.14608100  12.010000   ; qtot 109.146142
 3301         h1    110    ccc     H1   3301 0.06738100   1.008000   ; qtot 109.213523
 3302         h1    110    ccc     H2   3302 0.06738100   1.008000   ; qtot 109.280904
 3303         c3    110    ccc     C2   3303 -0.14571900  12.010000   ; qtot 109.135185
 3304         hc    110    ccc     H3   3304 0.08688100   1.008000   ; qtot 109.222066
 3305         hc    110    ccc     H4   3305 0.08688100   1.008000   ; qtot 109.308947
 3306         c3    110    ccc     C3   3306 0.12348100  12.010000   ; qtot 109.432428
 3307         hx    110    ccc     H5   3307 0.10638100   1.008000   ; qtot 109.538809
 3308         hx    110    ccc     H6   3308 0.10638100   1.008000   ; qtot 109.645190
 3309         n4    110    ccc     N1   3309 -0.69071900  14.010000   ; qtot 108.954471
 3310         c3    110    ccc     C4   3310 0.12498100  12.010000   ; qtot 109.079452
 3311         hx    110    ccc     H7   3311 0.12238100   1.008000   ; qtot 109.201833
 3312         hx    110    ccc     H8   3312 0.12238100   1.008000   ; qtot 109.324214
 3313         c3    110    ccc     C5   3313 -0.20771900  12.010000   ; qtot 109.116495
 3314         hc    110    ccc     H9   3314 0.11463100   1.008000   ; qtot 109.231126
 3315         hc    110    ccc    H10   3315 0.11463100   1.008000   ; qtot 109.345757
 3316          c    110    ccc     C6   3316 0.64078100  12.010000   ; qtot 109.986538
 3317          o    110    ccc     O1   3317 -0.49231900  16.000000   ; qtot 109.494219
 3318         oh    110    ccc     O2   3318 -0.51841900  16.000000   ; qtot 108.975800
 3319         ho    110    ccc    H11   3319 0.45318100   1.008000   ; qtot 109.428981
 3320         c3    110    ccc     C7   3320 0.12498100  12.010000   ; qtot 109.553962
 3321         hx    110    ccc    H12   3321 0.12238100   1.008000   ; qtot 109.676343
 3322         hx    110    ccc    H13   3322 0.12238100   1.008000   ; qtot 109.798724
 3323         c3    110    ccc     C8   3323 -0.20771900  12.010000   ; qtot 109.591005
 3324         hc    110    ccc    H14   3324 0.11463100   1.008000   ; qtot 109.705636
 3325         hc    110    ccc    H15   3325 0.11463100   1.008000   ; qtot 109.820267
 3326          c    110    ccc     C9   3326 0.64078100  12.010000   ; qtot 110.461048
 3327          o    110    ccc     O3   3327 -0.49231900  16.000000   ; qtot 109.968729
 3328         oh    110    ccc     O4   3328 -0.51841900  16.000000   ; qtot 109.450310
 3329         ho    110    ccc    H16   3329 0.45318100   1.008000   ; qtot 109.903491
 3330         os    110    ccc     O5   3330 -0.39491900  16.000000   ; qtot 109.508572
 3331         hn    110    ccc    H17   3331 0.49148100   1.008000   ; qtot 110.000053
; residue  111 ccc rtp ccc q 1.0
 3332         c3    111    ccc     C1   3332 0.14608100  12.010000   ; qtot 110.146134
 3333         h1    111    ccc     H1   3333 0.06738100   1.008000   ; qtot 110.213515
 3334         h1    111    ccc     H2   3334 0.06738100   1.008000   ; qtot 110.280896
 3335         c3    111    ccc     C2   3335 -0.14571900  12.010000   ; qtot 110.135177
 3336         hc    111    ccc     H3   3336 0.08688100   1.008000   ; qtot 110.222058
 3337         hc    111    ccc     H4   3337 0.08688100   1.008000   ; qtot 110.308939
 3338         c3    111    ccc     C3   3338 0.12348100  12.010000   ; qtot 110.432420
 3339         hx    111    ccc     H5   3339 0.10638100   1.008000   ; qtot 110.538801
 3340         hx    111    ccc     H6   3340 0.10638100   1.008000   ; qtot 110.645182
 3341         n4    111    ccc     N1   3341 -0.69071900  14.010000   ; qtot 109.954463
 3342         c3    111    ccc     C4   3342 0.12498100  12.010000   ; qtot 110.079444
 3343         hx    111    ccc     H7   3343 0.12238100   1.008000   ; qtot 110.201825
 3344         hx    111    ccc     H8   3344 0.12238100   1.008000   ; qtot 110.324206
 3345         c3    111    ccc     C5   3345 -0.20771900  12.010000   ; qtot 110.116487
 3346         hc    111    ccc     H9   3346 0.11463100   1.008000   ; qtot 110.231118
 3347         hc    111    ccc    H10   3347 0.11463100   1.008000   ; qtot 110.345749
 3348          c    111    ccc     C6   3348 0.64078100  12.010000   ; qtot 110.986530
 3349          o    111    ccc     O1   3349 -0.49231900  16.000000   ; qtot 110.494211
 3350         oh    111    ccc     O2   3350 -0.51841900  16.000000   ; qtot 109.975792
 3351         ho    111    ccc    H11   3351 0.45318100   1.008000   ; qtot 110.428973
 3352         c3    111    ccc     C7   3352 0.12498100  12.010000   ; qtot 110.553954
 3353         hx    111    ccc    H12   3353 0.12238100   1.008000   ; qtot 110.676335
 3354         hx    111    ccc    H13   3354 0.12238100   1.008000   ; qtot 110.798716
 3355         c3    111    ccc     C8   3355 -0.20771900  12.010000   ; qtot 110.590997
 3356         hc    111    ccc    H14   3356 0.11463100   1.008000   ; qtot 110.705628
 3357         hc    111    ccc    H15   3357 0.11463100   1.008000   ; qtot 110.820259
 3358          c    111    ccc     C9   3358 0.64078100  12.010000   ; qtot 111.461040
 3359          o    111    ccc     O3   3359 -0.49231900  16.000000   ; qtot 110.968721
 3360         oh    111    ccc     O4   3360 -0.51841900  16.000000   ; qtot 110.450302
 3361         ho    111    ccc    H16   3361 0.45318100   1.008000   ; qtot 110.903483
 3362         os    111    ccc     O5   3362 -0.39491900  16.000000   ; qtot 110.508564
 3363         hn    111    ccc    H17   3363 0.49148100   1.008000   ; qtot 111.000045
; residue  112 ccc rtp ccc q 1.0
 3364         c3    112    ccc     C1   3364 0.14608100  12.010000   ; qtot 111.146126
 3365         h1    112    ccc     H1   3365 0.06738100   1.008000   ; qtot 111.213507
 3366         h1    112    ccc     H2   3366 0.06738100   1.008000   ; qtot 111.280888
 3367         c3    112    ccc     C2   3367 -0.14571900  12.010000   ; qtot 111.135169
 3368         hc    112    ccc     H3   3368 0.08688100   1.008000   ; qtot 111.222050
 3369         hc    112    ccc     H4   3369 0.08688100   1.008000   ; qtot 111.308931
 3370         c3    112    ccc     C3   3370 0.12348100  12.010000   ; qtot 111.432412
 3371         hx    112    ccc     H5   3371 0.10638100   1.008000   ; qtot 111.538793
 3372         hx    112    ccc     H6   3372 0.10638100   1.008000   ; qtot 111.645174
 3373         n4    112    ccc     N1   3373 -0.69071900  14.010000   ; qtot 110.954455
 3374         c3    112    ccc     C4   3374 0.12498100  12.010000   ; qtot 111.079436
 3375         hx    112    ccc     H7   3375 0.12238100   1.008000   ; qtot 111.201817
 3376         hx    112    ccc     H8   3376 0.12238100   1.008000   ; qtot 111.324198
 3377         c3    112    ccc     C5   3377 -0.20771900  12.010000   ; qtot 111.116479
 3378         hc    112    ccc     H9   3378 0.11463100   1.008000   ; qtot 111.231110
 3379         hc    112    ccc    H10   3379 0.11463100   1.008000   ; qtot 111.345741
 3380          c    112    ccc     C6   3380 0.64078100  12.010000   ; qtot 111.986522
 3381          o    112    ccc     O1   3381 -0.49231900  16.000000   ; qtot 111.494203
 3382         oh    112    ccc     O2   3382 -0.51841900  16.000000   ; qtot 110.975784
 3383         ho    112    ccc    H11   3383 0.45318100   1.008000   ; qtot 111.428965
 3384         c3    112    ccc     C7   3384 0.12498100  12.010000   ; qtot 111.553946
 3385         hx    112    ccc    H12   3385 0.12238100   1.008000   ; qtot 111.676327
 3386         hx    112    ccc    H13   3386 0.12238100   1.008000   ; qtot 111.798708
 3387         c3    112    ccc     C8   3387 -0.20771900  12.010000   ; qtot 111.590989
 3388         hc    112    ccc    H14   3388 0.11463100   1.008000   ; qtot 111.705620
 3389         hc    112    ccc    H15   3389 0.11463100   1.008000   ; qtot 111.820251
 3390          c    112    ccc     C9   3390 0.64078100  12.010000   ; qtot 112.461032
 3391          o    112    ccc     O3   3391 -0.49231900  16.000000   ; qtot 111.968713
 3392         oh    112    ccc     O4   3392 -0.51841900  16.000000   ; qtot 111.450294
 3393         ho    112    ccc    H16   3393 0.45318100   1.008000   ; qtot 111.903475
 3394         os    112    ccc     O5   3394 -0.39491900  16.000000   ; qtot 111.508556
 3395         hn    112    ccc    H17   3395 0.49148100   1.008000   ; qtot 112.000037
; residue  113 ccc rtp ccc q 1.0
 3396         c3    113    ccc     C1   3396 0.14608100  12.010000   ; qtot 112.146118
 3397         h1    113    ccc     H1   3397 0.06738100   1.008000   ; qtot 112.213499
 3398         h1    113    ccc     H2   3398 0.06738100   1.008000   ; qtot 112.280880
 3399         c3    113    ccc     C2   3399 -0.14571900  12.010000   ; qtot 112.135161
 3400         hc    113    ccc     H3   3400 0.08688100   1.008000   ; qtot 112.222042
 3401         hc    113    ccc     H4   3401 0.08688100   1.008000   ; qtot 112.308923
 3402         c3    113    ccc     C3   3402 0.12348100  12.010000   ; qtot 112.432404
 3403         hx    113    ccc     H5   3403 0.10638100   1.008000   ; qtot 112.538785
 3404         hx    113    ccc     H6   3404 0.10638100   1.008000   ; qtot 112.645166
 3405         n4    113    ccc     N1   3405 -0.69071900  14.010000   ; qtot 111.954447
 3406         c3    113    ccc     C4   3406 0.12498100  12.010000   ; qtot 112.079428
 3407         hx    113    ccc     H7   3407 0.12238100   1.008000   ; qtot 112.201809
 3408         hx    113    ccc     H8   3408 0.12238100   1.008000   ; qtot 112.324190
 3409         c3    113    ccc     C5   3409 -0.20771900  12.010000   ; qtot 112.116471
 3410         hc    113    ccc     H9   3410 0.11463100   1.008000   ; qtot 112.231102
 3411         hc    113    ccc    H10   3411 0.11463100   1.008000   ; qtot 112.345733
 3412          c    113    ccc     C6   3412 0.64078100  12.010000   ; qtot 112.986514
 3413          o    113    ccc     O1   3413 -0.49231900  16.000000   ; qtot 112.494195
 3414         oh    113    ccc     O2   3414 -0.51841900  16.000000   ; qtot 111.975776
 3415         ho    113    ccc    H11   3415 0.45318100   1.008000   ; qtot 112.428957
 3416         c3    113    ccc     C7   3416 0.12498100  12.010000   ; qtot 112.553938
 3417         hx    113    ccc    H12   3417 0.12238100   1.008000   ; qtot 112.676319
 3418         hx    113    ccc    H13   3418 0.12238100   1.008000   ; qtot 112.798700
 3419         c3    113    ccc     C8   3419 -0.20771900  12.010000   ; qtot 112.590981
 3420         hc    113    ccc    H14   3420 0.11463100   1.008000   ; qtot 112.705612
 3421         hc    113    ccc    H15   3421 0.11463100   1.008000   ; qtot 112.820243
 3422          c    113    ccc     C9   3422 0.64078100  12.010000   ; qtot 113.461024
 3423          o    113    ccc     O3   3423 -0.49231900  16.000000   ; qtot 112.968705
 3424         oh    113    ccc     O4   3424 -0.51841900  16.000000   ; qtot 112.450286
 3425         ho    113    ccc    H16   3425 0.45318100   1.008000   ; qtot 112.903467
 3426         os    113    ccc     O5   3426 -0.39491900  16.000000   ; qtot 112.508548
 3427         hn    113    ccc    H17   3427 0.49148100   1.008000   ; qtot 113.000029
; residue  114 ccc rtp ccc q 1.0
 3428         c3    114    ccc     C1   3428 0.14608100  12.010000   ; qtot 113.146110
 3429         h1    114    ccc     H1   3429 0.06738100   1.008000   ; qtot 113.213491
 3430         h1    114    ccc     H2   3430 0.06738100   1.008000   ; qtot 113.280872
 3431         c3    114    ccc     C2   3431 -0.14571900  12.010000   ; qtot 113.135153
 3432         hc    114    ccc     H3   3432 0.08688100   1.008000   ; qtot 113.222034
 3433         hc    114    ccc     H4   3433 0.08688100   1.008000   ; qtot 113.308915
 3434         c3    114    ccc     C3   3434 0.12348100  12.010000   ; qtot 113.432396
 3435         hx    114    ccc     H5   3435 0.10638100   1.008000   ; qtot 113.538777
 3436         hx    114    ccc     H6   3436 0.10638100   1.008000   ; qtot 113.645158
 3437         n4    114    ccc     N1   3437 -0.69071900  14.010000   ; qtot 112.954439
 3438         c3    114    ccc     C4   3438 0.12498100  12.010000   ; qtot 113.079420
 3439         hx    114    ccc     H7   3439 0.12238100   1.008000   ; qtot 113.201801
 3440         hx    114    ccc     H8   3440 0.12238100   1.008000   ; qtot 113.324182
 3441         c3    114    ccc     C5   3441 -0.20771900  12.010000   ; qtot 113.116463
 3442         hc    114    ccc     H9   3442 0.11463100   1.008000   ; qtot 113.231094
 3443         hc    114    ccc    H10   3443 0.11463100   1.008000   ; qtot 113.345725
 3444          c    114    ccc     C6   3444 0.64078100  12.010000   ; qtot 113.986506
 3445          o    114    ccc     O1   3445 -0.49231900  16.000000   ; qtot 113.494187
 3446         oh    114    ccc     O2   3446 -0.51841900  16.000000   ; qtot 112.975768
 3447         ho    114    ccc    H11   3447 0.45318100   1.008000   ; qtot 113.428949
 3448         c3    114    ccc     C7   3448 0.12498100  12.010000   ; qtot 113.553930
 3449         hx    114    ccc    H12   3449 0.12238100   1.008000   ; qtot 113.676311
 3450         hx    114    ccc    H13   3450 0.12238100   1.008000   ; qtot 113.798692
 3451         c3    114    ccc     C8   3451 -0.20771900  12.010000   ; qtot 113.590973
 3452         hc    114    ccc    H14   3452 0.11463100   1.008000   ; qtot 113.705604
 3453         hc    114    ccc    H15   3453 0.11463100   1.008000   ; qtot 113.820235
 3454          c    114    ccc     C9   3454 0.64078100  12.010000   ; qtot 114.461016
 3455          o    114    ccc     O3   3455 -0.49231900  16.000000   ; qtot 113.968697
 3456         oh    114    ccc     O4   3456 -0.51841900  16.000000   ; qtot 113.450278
 3457         ho    114    ccc    H16   3457 0.45318100   1.008000   ; qtot 113.903459
 3458         os    114    ccc     O5   3458 -0.39491900  16.000000   ; qtot 113.508540
 3459         hn    114    ccc    H17   3459 0.49148100   1.008000   ; qtot 114.000021
; residue  115 ccc rtp ccc q 1.0
 3460         c3    115    ccc     C1   3460 0.14608100  12.010000   ; qtot 114.146102
 3461         h1    115    ccc     H1   3461 0.06738100   1.008000   ; qtot 114.213483
 3462         h1    115    ccc     H2   3462 0.06738100   1.008000   ; qtot 114.280864
 3463         c3    115    ccc     C2   3463 -0.14571900  12.010000   ; qtot 114.135145
 3464         hc    115    ccc     H3   3464 0.08688100   1.008000   ; qtot 114.222026
 3465         hc    115    ccc     H4   3465 0.08688100   1.008000   ; qtot 114.308907
 3466         c3    115    ccc     C3   3466 0.12348100  12.010000   ; qtot 114.432388
 3467         hx    115    ccc     H5   3467 0.10638100   1.008000   ; qtot 114.538769
 3468         hx    115    ccc     H6   3468 0.10638100   1.008000   ; qtot 114.645150
 3469         n4    115    ccc     N1   3469 -0.69071900  14.010000   ; qtot 113.954431
 3470         c3    115    ccc     C4   3470 0.12498100  12.010000   ; qtot 114.079412
 3471         hx    115    ccc     H7   3471 0.12238100   1.008000   ; qtot 114.201793
 3472         hx    115    ccc     H8   3472 0.12238100   1.008000   ; qtot 114.324174
 3473         c3    115    ccc     C5   3473 -0.20771900  12.010000   ; qtot 114.116455
 3474         hc    115    ccc     H9   3474 0.11463100   1.008000   ; qtot 114.231086
 3475         hc    115    ccc    H10   3475 0.11463100   1.008000   ; qtot 114.345717
 3476          c    115    ccc     C6   3476 0.64078100  12.010000   ; qtot 114.986498
 3477          o    115    ccc     O1   3477 -0.49231900  16.000000   ; qtot 114.494179
 3478         oh    115    ccc     O2   3478 -0.51841900  16.000000   ; qtot 113.975760
 3479         ho    115    ccc    H11   3479 0.45318100   1.008000   ; qtot 114.428941
 3480         c3    115    ccc     C7   3480 0.12498100  12.010000   ; qtot 114.553922
 3481         hx    115    ccc    H12   3481 0.12238100   1.008000   ; qtot 114.676303
 3482         hx    115    ccc    H13   3482 0.12238100   1.008000   ; qtot 114.798684
 3483         c3    115    ccc     C8   3483 -0.20771900  12.010000   ; qtot 114.590965
 3484         hc    115    ccc    H14   3484 0.11463100   1.008000   ; qtot 114.705596
 3485         hc    115    ccc    H15   3485 0.11463100   1.008000   ; qtot 114.820227
 3486          c    115    ccc     C9   3486 0.64078100  12.010000   ; qtot 115.461008
 3487          o    115    ccc     O3   3487 -0.49231900  16.000000   ; qtot 114.968689
 3488         oh    115    ccc     O4   3488 -0.51841900  16.000000   ; qtot 114.450270
 3489         ho    115    ccc    H16   3489 0.45318100   1.008000   ; qtot 114.903451
 3490         os    115    ccc     O5   3490 -0.39491900  16.000000   ; qtot 114.508532
 3491         hn    115    ccc    H17   3491 0.49148100   1.008000   ; qtot 115.000013
; residue  116 ccc rtp ccc q 1.0
 3492         c3    116    ccc     C1   3492 0.14608100  12.010000   ; qtot 115.146094
 3493         h1    116    ccc     H1   3493 0.06738100   1.008000   ; qtot 115.213475
 3494         h1    116    ccc     H2   3494 0.06738100   1.008000   ; qtot 115.280856
 3495         c3    116    ccc     C2   3495 -0.14571900  12.010000   ; qtot 115.135137
 3496         hc    116    ccc     H3   3496 0.08688100   1.008000   ; qtot 115.222018
 3497         hc    116    ccc     H4   3497 0.08688100   1.008000   ; qtot 115.308899
 3498         c3    116    ccc     C3   3498 0.12348100  12.010000   ; qtot 115.432380
 3499         hx    116    ccc     H5   3499 0.10638100   1.008000   ; qtot 115.538761
 3500         hx    116    ccc     H6   3500 0.10638100   1.008000   ; qtot 115.645142
 3501         n4    116    ccc     N1   3501 -0.69071900  14.010000   ; qtot 114.954423
 3502         c3    116    ccc     C4   3502 0.12498100  12.010000   ; qtot 115.079404
 3503         hx    116    ccc     H7   3503 0.12238100   1.008000   ; qtot 115.201785
 3504         hx    116    ccc     H8   3504 0.12238100   1.008000   ; qtot 115.324166
 3505         c3    116    ccc     C5   3505 -0.20771900  12.010000   ; qtot 115.116447
 3506         hc    116    ccc     H9   3506 0.11463100   1.008000   ; qtot 115.231078
 3507         hc    116    ccc    H10   3507 0.11463100   1.008000   ; qtot 115.345709
 3508          c    116    ccc     C6   3508 0.64078100  12.010000   ; qtot 115.986490
 3509          o    116    ccc     O1   3509 -0.49231900  16.000000   ; qtot 115.494171
 3510         oh    116    ccc     O2   3510 -0.51841900  16.000000   ; qtot 114.975752
 3511         ho    116    ccc    H11   3511 0.45318100   1.008000   ; qtot 115.428933
 3512         c3    116    ccc     C7   3512 0.12498100  12.010000   ; qtot 115.553914
 3513         hx    116    ccc    H12   3513 0.12238100   1.008000   ; qtot 115.676295
 3514         hx    116    ccc    H13   3514 0.12238100   1.008000   ; qtot 115.798676
 3515         c3    116    ccc     C8   3515 -0.20771900  12.010000   ; qtot 115.590957
 3516         hc    116    ccc    H14   3516 0.11463100   1.008000   ; qtot 115.705588
 3517         hc    116    ccc    H15   3517 0.11463100   1.008000   ; qtot 115.820219
 3518          c    116    ccc     C9   3518 0.64078100  12.010000   ; qtot 116.461000
 3519          o    116    ccc     O3   3519 -0.49231900  16.000000   ; qtot 115.968681
 3520         oh    116    ccc     O4   3520 -0.51841900  16.000000   ; qtot 115.450262
 3521         ho    116    ccc    H16   3521 0.45318100   1.008000   ; qtot 115.903443
 3522         os    116    ccc     O5   3522 -0.39491900  16.000000   ; qtot 115.508524
 3523         hn    116    ccc    H17   3523 0.49148100   1.008000   ; qtot 116.000005
; residue  117 ccc rtp ccc q 1.0
 3524         c3    117    ccc     C1   3524 0.14608100  12.010000   ; qtot 116.146086
 3525         h1    117    ccc     H1   3525 0.06738100   1.008000   ; qtot 116.213467
 3526         h1    117    ccc     H2   3526 0.06738100   1.008000   ; qtot 116.280848
 3527         c3    117    ccc     C2   3527 -0.14571900  12.010000   ; qtot 116.135129
 3528         hc    117    ccc     H3   3528 0.08688100   1.008000   ; qtot 116.222010
 3529         hc    117    ccc     H4   3529 0.08688100   1.008000   ; qtot 116.308891
 3530         c3    117    ccc     C3   3530 0.12348100  12.010000   ; qtot 116.432372
 3531         hx    117    ccc     H5   3531 0.10638100   1.008000   ; qtot 116.538753
 3532         hx    117    ccc     H6   3532 0.10638100   1.008000   ; qtot 116.645134
 3533         n4    117    ccc     N1   3533 -0.69071900  14.010000   ; qtot 115.954415
 3534         c3    117    ccc     C4   3534 0.12498100  12.010000   ; qtot 116.079396
 3535         hx    117    ccc     H7   3535 0.12238100   1.008000   ; qtot 116.201777
 3536         hx    117    ccc     H8   3536 0.12238100   1.008000   ; qtot 116.324158
 3537         c3    117    ccc     C5   3537 -0.20771900  12.010000   ; qtot 116.116439
 3538         hc    117    ccc     H9   3538 0.11463100   1.008000   ; qtot 116.231070
 3539         hc    117    ccc    H10   3539 0.11463100   1.008000   ; qtot 116.345701
 3540          c    117    ccc     C6   3540 0.64078100  12.010000   ; qtot 116.986482
 3541          o    117    ccc     O1   3541 -0.49231900  16.000000   ; qtot 116.494163
 3542         oh    117    ccc     O2   3542 -0.51841900  16.000000   ; qtot 115.975744
 3543         ho    117    ccc    H11   3543 0.45318100   1.008000   ; qtot 116.428925
 3544         c3    117    ccc     C7   3544 0.12498100  12.010000   ; qtot 116.553906
 3545         hx    117    ccc    H12   3545 0.12238100   1.008000   ; qtot 116.676287
 3546         hx    117    ccc    H13   3546 0.12238100   1.008000   ; qtot 116.798668
 3547         c3    117    ccc     C8   3547 -0.20771900  12.010000   ; qtot 116.590949
 3548         hc    117    ccc    H14   3548 0.11463100   1.008000   ; qtot 116.705580
 3549         hc    117    ccc    H15   3549 0.11463100   1.008000   ; qtot 116.820211
 3550          c    117    ccc     C9   3550 0.64078100  12.010000   ; qtot 117.460992
 3551          o    117    ccc     O3   3551 -0.49231900  16.000000   ; qtot 116.968673
 3552         oh    117    ccc     O4   3552 -0.51841900  16.000000   ; qtot 116.450254
 3553         ho    117    ccc    H16   3553 0.45318100   1.008000   ; qtot 116.903435
 3554         os    117    ccc     O5   3554 -0.39491900  16.000000   ; qtot 116.508516
 3555         hn    117    ccc    H17   3555 0.49148100   1.008000   ; qtot 116.999997
; residue  118 ccc rtp ccc q 1.0
 3556         c3    118    ccc     C1   3556 0.14608100  12.010000   ; qtot 117.146078
 3557         h1    118    ccc     H1   3557 0.06738100   1.008000   ; qtot 117.213459
 3558         h1    118    ccc     H2   3558 0.06738100   1.008000   ; qtot 117.280840
 3559         c3    118    ccc     C2   3559 -0.14571900  12.010000   ; qtot 117.135121
 3560         hc    118    ccc     H3   3560 0.08688100   1.008000   ; qtot 117.222002
 3561         hc    118    ccc     H4   3561 0.08688100   1.008000   ; qtot 117.308883
 3562         c3    118    ccc     C3   3562 0.12348100  12.010000   ; qtot 117.432364
 3563         hx    118    ccc     H5   3563 0.10638100   1.008000   ; qtot 117.538745
 3564         hx    118    ccc     H6   3564 0.10638100   1.008000   ; qtot 117.645126
 3565         n4    118    ccc     N1   3565 -0.69071900  14.010000   ; qtot 116.954407
 3566         c3    118    ccc     C4   3566 0.12498100  12.010000   ; qtot 117.079388
 3567         hx    118    ccc     H7   3567 0.12238100   1.008000   ; qtot 117.201769
 3568         hx    118    ccc     H8   3568 0.12238100   1.008000   ; qtot 117.324150
 3569         c3    118    ccc     C5   3569 -0.20771900  12.010000   ; qtot 117.116431
 3570         hc    118    ccc     H9   3570 0.11463100   1.008000   ; qtot 117.231062
 3571         hc    118    ccc    H10   3571 0.11463100   1.008000   ; qtot 117.345693
 3572          c    118    ccc     C6   3572 0.64078100  12.010000   ; qtot 117.986474
 3573          o    118    ccc     O1   3573 -0.49231900  16.000000   ; qtot 117.494155
 3574         oh    118    ccc     O2   3574 -0.51841900  16.000000   ; qtot 116.975736
 3575         ho    118    ccc    H11   3575 0.45318100   1.008000   ; qtot 117.428917
 3576         c3    118    ccc     C7   3576 0.12498100  12.010000   ; qtot 117.553898
 3577         hx    118    ccc    H12   3577 0.12238100   1.008000   ; qtot 117.676279
 3578         hx    118    ccc    H13   3578 0.12238100   1.008000   ; qtot 117.798660
 3579         c3    118    ccc     C8   3579 -0.20771900  12.010000   ; qtot 117.590941
 3580         hc    118    ccc    H14   3580 0.11463100   1.008000   ; qtot 117.705572
 3581         hc    118    ccc    H15   3581 0.11463100   1.008000   ; qtot 117.820203
 3582          c    118    ccc     C9   3582 0.64078100  12.010000   ; qtot 118.460984
 3583          o    118    ccc     O3   3583 -0.49231900  16.000000   ; qtot 117.968665
 3584         oh    118    ccc     O4   3584 -0.51841900  16.000000   ; qtot 117.450246
 3585         ho    118    ccc    H16   3585 0.45318100   1.008000   ; qtot 117.903427
 3586         os    118    ccc     O5   3586 -0.39491900  16.000000   ; qtot 117.508508
 3587         hn    118    ccc    H17   3587 0.49148100   1.008000   ; qtot 117.999989
; residue  119 ccc rtp ccc q 1.0
 3588         c3    119    ccc     C1   3588 0.14608100  12.010000   ; qtot 118.146070
 3589         h1    119    ccc     H1   3589 0.06738100   1.008000   ; qtot 118.213451
 3590         h1    119    ccc     H2   3590 0.06738100   1.008000   ; qtot 118.280832
 3591         c3    119    ccc     C2   3591 -0.14571900  12.010000   ; qtot 118.135113
 3592         hc    119    ccc     H3   3592 0.08688100   1.008000   ; qtot 118.221994
 3593         hc    119    ccc     H4   3593 0.08688100   1.008000   ; qtot 118.308875
 3594         c3    119    ccc     C3   3594 0.12348100  12.010000   ; qtot 118.432356
 3595         hx    119    ccc     H5   3595 0.10638100   1.008000   ; qtot 118.538737
 3596         hx    119    ccc     H6   3596 0.10638100   1.008000   ; qtot 118.645118
 3597         n4    119    ccc     N1   3597 -0.69071900  14.010000   ; qtot 117.954399
 3598         c3    119    ccc     C4   3598 0.12498100  12.010000   ; qtot 118.079380
 3599         hx    119    ccc     H7   3599 0.12238100   1.008000   ; qtot 118.201761
 3600         hx    119    ccc     H8   3600 0.12238100   1.008000   ; qtot 118.324142
 3601         c3    119    ccc     C5   3601 -0.20771900  12.010000   ; qtot 118.116423
 3602         hc    119    ccc     H9   3602 0.11463100   1.008000   ; qtot 118.231054
 3603         hc    119    ccc    H10   3603 0.11463100   1.008000   ; qtot 118.345685
 3604          c    119    ccc     C6   3604 0.64078100  12.010000   ; qtot 118.986466
 3605          o    119    ccc     O1   3605 -0.49231900  16.000000   ; qtot 118.494147
 3606         oh    119    ccc     O2   3606 -0.51841900  16.000000   ; qtot 117.975728
 3607         ho    119    ccc    H11   3607 0.45318100   1.008000   ; qtot 118.428909
 3608         c3    119    ccc     C7   3608 0.12498100  12.010000   ; qtot 118.553890
 3609         hx    119    ccc    H12   3609 0.12238100   1.008000   ; qtot 118.676271
 3610         hx    119    ccc    H13   3610 0.12238100   1.008000   ; qtot 118.798652
 3611         c3    119    ccc     C8   3611 -0.20771900  12.010000   ; qtot 118.590933
 3612         hc    119    ccc    H14   3612 0.11463100   1.008000   ; qtot 118.705564
 3613         hc    119    ccc    H15   3613 0.11463100   1.008000   ; qtot 118.820195
 3614          c    119    ccc     C9   3614 0.64078100  12.010000   ; qtot 119.460976
 3615          o    119    ccc     O3   3615 -0.49231900  16.000000   ; qtot 118.968657
 3616         oh    119    ccc     O4   3616 -0.51841900  16.000000   ; qtot 118.450238
 3617         ho    119    ccc    H16   3617 0.45318100   1.008000   ; qtot 118.903419
 3618         os    119    ccc     O5   3618 -0.39491900  16.000000   ; qtot 118.508500
 3619         hn    119    ccc    H17   3619 0.49148100   1.008000   ; qtot 118.999981
; residue  120 ccc rtp ccc q 1.0
 3620         c3    120    ccc     C1   3620 0.14608100  12.010000   ; qtot 119.146062
 3621         h1    120    ccc     H1   3621 0.06738100   1.008000   ; qtot 119.213443
 3622         h1    120    ccc     H2   3622 0.06738100   1.008000   ; qtot 119.280824
 3623         c3    120    ccc     C2   3623 -0.14571900  12.010000   ; qtot 119.135105
 3624         hc    120    ccc     H3   3624 0.08688100   1.008000   ; qtot 119.221986
 3625         hc    120    ccc     H4   3625 0.08688100   1.008000   ; qtot 119.308867
 3626         c3    120    ccc     C3   3626 0.12348100  12.010000   ; qtot 119.432348
 3627         hx    120    ccc     H5   3627 0.10638100   1.008000   ; qtot 119.538729
 3628         hx    120    ccc     H6   3628 0.10638100   1.008000   ; qtot 119.645110
 3629         n4    120    ccc     N1   3629 -0.69071900  14.010000   ; qtot 118.954391
 3630         c3    120    ccc     C4   3630 0.12498100  12.010000   ; qtot 119.079372
 3631         hx    120    ccc     H7   3631 0.12238100   1.008000   ; qtot 119.201753
 3632         hx    120    ccc     H8   3632 0.12238100   1.008000   ; qtot 119.324134
 3633         c3    120    ccc     C5   3633 -0.20771900  12.010000   ; qtot 119.116415
 3634         hc    120    ccc     H9   3634 0.11463100   1.008000   ; qtot 119.231046
 3635         hc    120    ccc    H10   3635 0.11463100   1.008000   ; qtot 119.345677
 3636          c    120    ccc     C6   3636 0.64078100  12.010000   ; qtot 119.986458
 3637          o    120    ccc     O1   3637 -0.49231900  16.000000   ; qtot 119.494139
 3638         oh    120    ccc     O2   3638 -0.51841900  16.000000   ; qtot 118.975720
 3639         ho    120    ccc    H11   3639 0.45318100   1.008000   ; qtot 119.428901
 3640         c3    120    ccc     C7   3640 0.12498100  12.010000   ; qtot 119.553882
 3641         hx    120    ccc    H12   3641 0.12238100   1.008000   ; qtot 119.676263
 3642         hx    120    ccc    H13   3642 0.12238100   1.008000   ; qtot 119.798644
 3643         c3    120    ccc     C8   3643 -0.20771900  12.010000   ; qtot 119.590925
 3644         hc    120    ccc    H14   3644 0.11463100   1.008000   ; qtot 119.705556
 3645         hc    120    ccc    H15   3645 0.11463100   1.008000   ; qtot 119.820187
 3646          c    120    ccc     C9   3646 0.64078100  12.010000   ; qtot 120.460968
 3647          o    120    ccc     O3   3647 -0.49231900  16.000000   ; qtot 119.968649
 3648         oh    120    ccc     O4   3648 -0.51841900  16.000000   ; qtot 119.450230
 3649         ho    120    ccc    H16   3649 0.45318100   1.008000   ; qtot 119.903411
 3650         os    120    ccc     O5   3650 -0.39491900  16.000000   ; qtot 119.508492
 3651         hn    120    ccc    H17   3651 0.49148100   1.008000   ; qtot 119.999973
; residue  121 ccc rtp ccc q 1.0
 3652         c3    121    ccc     C1   3652 0.14608100  12.010000   ; qtot 120.146054
 3653         h1    121    ccc     H1   3653 0.06738100   1.008000   ; qtot 120.213435
 3654         h1    121    ccc     H2   3654 0.06738100   1.008000   ; qtot 120.280816
 3655         c3    121    ccc     C2   3655 -0.14571900  12.010000   ; qtot 120.135097
 3656         hc    121    ccc     H3   3656 0.08688100   1.008000   ; qtot 120.221978
 3657         hc    121    ccc     H4   3657 0.08688100   1.008000   ; qtot 120.308859
 3658         c3    121    ccc     C3   3658 0.12348100  12.010000   ; qtot 120.432340
 3659         hx    121    ccc     H5   3659 0.10638100   1.008000   ; qtot 120.538721
 3660         hx    121    ccc     H6   3660 0.10638100   1.008000   ; qtot 120.645102
 3661         n4    121    ccc     N1   3661 -0.69071900  14.010000   ; qtot 119.954383
 3662         c3    121    ccc     C4   3662 0.12498100  12.010000   ; qtot 120.079364
 3663         hx    121    ccc     H7   3663 0.12238100   1.008000   ; qtot 120.201745
 3664         hx    121    ccc     H8   3664 0.12238100   1.008000   ; qtot 120.324126
 3665         c3    121    ccc     C5   3665 -0.20771900  12.010000   ; qtot 120.116407
 3666         hc    121    ccc     H9   3666 0.11463100   1.008000   ; qtot 120.231038
 3667         hc    121    ccc    H10   3667 0.11463100   1.008000   ; qtot 120.345669
 3668          c    121    ccc     C6   3668 0.64078100  12.010000   ; qtot 120.986450
 3669          o    121    ccc     O1   3669 -0.49231900  16.000000   ; qtot 120.494131
 3670         oh    121    ccc     O2   3670 -0.51841900  16.000000   ; qtot 119.975712
 3671         ho    121    ccc    H11   3671 0.45318100   1.008000   ; qtot 120.428893
 3672         c3    121    ccc     C7   3672 0.12498100  12.010000   ; qtot 120.553874
 3673         hx    121    ccc    H12   3673 0.12238100   1.008000   ; qtot 120.676255
 3674         hx    121    ccc    H13   3674 0.12238100   1.008000   ; qtot 120.798636
 3675         c3    121    ccc     C8   3675 -0.20771900  12.010000   ; qtot 120.590917
 3676         hc    121    ccc    H14   3676 0.11463100   1.008000   ; qtot 120.705548
 3677         hc    121    ccc    H15   3677 0.11463100   1.008000   ; qtot 120.820179
 3678          c    121    ccc     C9   3678 0.64078100  12.010000   ; qtot 121.460960
 3679          o    121    ccc     O3   3679 -0.49231900  16.000000   ; qtot 120.968641
 3680         oh    121    ccc     O4   3680 -0.51841900  16.000000   ; qtot 120.450222
 3681         ho    121    ccc    H16   3681 0.45318100   1.008000   ; qtot 120.903403
 3682         os    121    ccc     O5   3682 -0.39491900  16.000000   ; qtot 120.508484
 3683         hn    121    ccc    H17   3683 0.49148100   1.008000   ; qtot 120.999965
; residue  122 ccc rtp ccc q 1.0
 3684         c3    122    ccc     C1   3684 0.14608100  12.010000   ; qtot 121.146046
 3685         h1    122    ccc     H1   3685 0.06738100   1.008000   ; qtot 121.213427
 3686         h1    122    ccc     H2   3686 0.06738100   1.008000   ; qtot 121.280808
 3687         c3    122    ccc     C2   3687 -0.14571900  12.010000   ; qtot 121.135089
 3688         hc    122    ccc     H3   3688 0.08688100   1.008000   ; qtot 121.221970
 3689         hc    122    ccc     H4   3689 0.08688100   1.008000   ; qtot 121.308851
 3690         c3    122    ccc     C3   3690 0.12348100  12.010000   ; qtot 121.432332
 3691         hx    122    ccc     H5   3691 0.10638100   1.008000   ; qtot 121.538713
 3692         hx    122    ccc     H6   3692 0.10638100   1.008000   ; qtot 121.645094
 3693         n4    122    ccc     N1   3693 -0.69071900  14.010000   ; qtot 120.954375
 3694         c3    122    ccc     C4   3694 0.12498100  12.010000   ; qtot 121.079356
 3695         hx    122    ccc     H7   3695 0.12238100   1.008000   ; qtot 121.201737
 3696         hx    122    ccc     H8   3696 0.12238100   1.008000   ; qtot 121.324118
 3697         c3    122    ccc     C5   3697 -0.20771900  12.010000   ; qtot 121.116399
 3698         hc    122    ccc     H9   3698 0.11463100   1.008000   ; qtot 121.231030
 3699         hc    122    ccc    H10   3699 0.11463100   1.008000   ; qtot 121.345661
 3700          c    122    ccc     C6   3700 0.64078100  12.010000   ; qtot 121.986442
 3701          o    122    ccc     O1   3701 -0.49231900  16.000000   ; qtot 121.494123
 3702         oh    122    ccc     O2   3702 -0.51841900  16.000000   ; qtot 120.975704
 3703         ho    122    ccc    H11   3703 0.45318100   1.008000   ; qtot 121.428885
 3704         c3    122    ccc     C7   3704 0.12498100  12.010000   ; qtot 121.553866
 3705         hx    122    ccc    H12   3705 0.12238100   1.008000   ; qtot 121.676247
 3706         hx    122    ccc    H13   3706 0.12238100   1.008000   ; qtot 121.798628
 3707         c3    122    ccc     C8   3707 -0.20771900  12.010000   ; qtot 121.590909
 3708         hc    122    ccc    H14   3708 0.11463100   1.008000   ; qtot 121.705540
 3709         hc    122    ccc    H15   3709 0.11463100   1.008000   ; qtot 121.820171
 3710          c    122    ccc     C9   3710 0.64078100  12.010000   ; qtot 122.460952
 3711          o    122    ccc     O3   3711 -0.49231900  16.000000   ; qtot 121.968633
 3712         oh    122    ccc     O4   3712 -0.51841900  16.000000   ; qtot 121.450214
 3713         ho    122    ccc    H16   3713 0.45318100   1.008000   ; qtot 121.903395
 3714         os    122    ccc     O5   3714 -0.39491900  16.000000   ; qtot 121.508476
 3715         hn    122    ccc    H17   3715 0.49148100   1.008000   ; qtot 121.999957
; residue  123 ccc rtp ccc q 1.0
 3716         c3    123    ccc     C1   3716 0.14608100  12.010000   ; qtot 122.146038
 3717         h1    123    ccc     H1   3717 0.06738100   1.008000   ; qtot 122.213419
 3718         h1    123    ccc     H2   3718 0.06738100   1.008000   ; qtot 122.280800
 3719         c3    123    ccc     C2   3719 -0.14571900  12.010000   ; qtot 122.135081
 3720         hc    123    ccc     H3   3720 0.08688100   1.008000   ; qtot 122.221962
 3721         hc    123    ccc     H4   3721 0.08688100   1.008000   ; qtot 122.308843
 3722         c3    123    ccc     C3   3722 0.12348100  12.010000   ; qtot 122.432324
 3723         hx    123    ccc     H5   3723 0.10638100   1.008000   ; qtot 122.538705
 3724         hx    123    ccc     H6   3724 0.10638100   1.008000   ; qtot 122.645086
 3725         n4    123    ccc     N1   3725 -0.69071900  14.010000   ; qtot 121.954367
 3726         c3    123    ccc     C4   3726 0.12498100  12.010000   ; qtot 122.079348
 3727         hx    123    ccc     H7   3727 0.12238100   1.008000   ; qtot 122.201729
 3728         hx    123    ccc     H8   3728 0.12238100   1.008000   ; qtot 122.324110
 3729         c3    123    ccc     C5   3729 -0.20771900  12.010000   ; qtot 122.116391
 3730         hc    123    ccc     H9   3730 0.11463100   1.008000   ; qtot 122.231022
 3731         hc    123    ccc    H10   3731 0.11463100   1.008000   ; qtot 122.345653
 3732          c    123    ccc     C6   3732 0.64078100  12.010000   ; qtot 122.986434
 3733          o    123    ccc     O1   3733 -0.49231900  16.000000   ; qtot 122.494115
 3734         oh    123    ccc     O2   3734 -0.51841900  16.000000   ; qtot 121.975696
 3735         ho    123    ccc    H11   3735 0.45318100   1.008000   ; qtot 122.428877
 3736         c3    123    ccc     C7   3736 0.12498100  12.010000   ; qtot 122.553858
 3737         hx    123    ccc    H12   3737 0.12238100   1.008000   ; qtot 122.676239
 3738         hx    123    ccc    H13   3738 0.12238100   1.008000   ; qtot 122.798620
 3739         c3    123    ccc     C8   3739 -0.20771900  12.010000   ; qtot 122.590901
 3740         hc    123    ccc    H14   3740 0.11463100   1.008000   ; qtot 122.705532
 3741         hc    123    ccc    H15   3741 0.11463100   1.008000   ; qtot 122.820163
 3742          c    123    ccc     C9   3742 0.64078100  12.010000   ; qtot 123.460944
 3743          o    123    ccc     O3   3743 -0.49231900  16.000000   ; qtot 122.968625
 3744         oh    123    ccc     O4   3744 -0.51841900  16.000000   ; qtot 122.450206
 3745         ho    123    ccc    H16   3745 0.45318100   1.008000   ; qtot 122.903387
 3746         os    123    ccc     O5   3746 -0.39491900  16.000000   ; qtot 122.508468
 3747         hn    123    ccc    H17   3747 0.49148100   1.008000   ; qtot 122.999949
; residue  124 ccc rtp ccc q 1.0
 3748         c3    124    ccc     C1   3748 0.14608100  12.010000   ; qtot 123.146030
 3749         h1    124    ccc     H1   3749 0.06738100   1.008000   ; qtot 123.213411
 3750         h1    124    ccc     H2   3750 0.06738100   1.008000   ; qtot 123.280792
 3751         c3    124    ccc     C2   3751 -0.14571900  12.010000   ; qtot 123.135073
 3752         hc    124    ccc     H3   3752 0.08688100   1.008000   ; qtot 123.221954
 3753         hc    124    ccc     H4   3753 0.08688100   1.008000   ; qtot 123.308835
 3754         c3    124    ccc     C3   3754 0.12348100  12.010000   ; qtot 123.432316
 3755         hx    124    ccc     H5   3755 0.10638100   1.008000   ; qtot 123.538697
 3756         hx    124    ccc     H6   3756 0.10638100   1.008000   ; qtot 123.645078
 3757         n4    124    ccc     N1   3757 -0.69071900  14.010000   ; qtot 122.954359
 3758         c3    124    ccc     C4   3758 0.12498100  12.010000   ; qtot 123.079340
 3759         hx    124    ccc     H7   3759 0.12238100   1.008000   ; qtot 123.201721
 3760         hx    124    ccc     H8   3760 0.12238100   1.008000   ; qtot 123.324102
 3761         c3    124    ccc     C5   3761 -0.20771900  12.010000   ; qtot 123.116383
 3762         hc    124    ccc     H9   3762 0.11463100   1.008000   ; qtot 123.231014
 3763         hc    124    ccc    H10   3763 0.11463100   1.008000   ; qtot 123.345645
 3764          c    124    ccc     C6   3764 0.64078100  12.010000   ; qtot 123.986426
 3765          o    124    ccc     O1   3765 -0.49231900  16.000000   ; qtot 123.494107
 3766         oh    124    ccc     O2   3766 -0.51841900  16.000000   ; qtot 122.975688
 3767         ho    124    ccc    H11   3767 0.45318100   1.008000   ; qtot 123.428869
 3768         c3    124    ccc     C7   3768 0.12498100  12.010000   ; qtot 123.553850
 3769         hx    124    ccc    H12   3769 0.12238100   1.008000   ; qtot 123.676231
 3770         hx    124    ccc    H13   3770 0.12238100   1.008000   ; qtot 123.798612
 3771         c3    124    ccc     C8   3771 -0.20771900  12.010000   ; qtot 123.590893
 3772         hc    124    ccc    H14   3772 0.11463100   1.008000   ; qtot 123.705524
 3773         hc    124    ccc    H15   3773 0.11463100   1.008000   ; qtot 123.820155
 3774          c    124    ccc     C9   3774 0.64078100  12.010000   ; qtot 124.460936
 3775          o    124    ccc     O3   3775 -0.49231900  16.000000   ; qtot 123.968617
 3776         oh    124    ccc     O4   3776 -0.51841900  16.000000   ; qtot 123.450198
 3777         ho    124    ccc    H16   3777 0.45318100   1.008000   ; qtot 123.903379
 3778         os    124    ccc     O5   3778 -0.39491900  16.000000   ; qtot 123.508460
 3779         hn    124    ccc    H17   3779 0.49148100   1.008000   ; qtot 123.999941
; residue  125 ccc rtp ccc q 1.0
 3780         c3    125    ccc     C1   3780 0.14608100  12.010000   ; qtot 124.146022
 3781         h1    125    ccc     H1   3781 0.06738100   1.008000   ; qtot 124.213403
 3782         h1    125    ccc     H2   3782 0.06738100   1.008000   ; qtot 124.280784
 3783         c3    125    ccc     C2   3783 -0.14571900  12.010000   ; qtot 124.135065
 3784         hc    125    ccc     H3   3784 0.08688100   1.008000   ; qtot 124.221946
 3785         hc    125    ccc     H4   3785 0.08688100   1.008000   ; qtot 124.308827
 3786         c3    125    ccc     C3   3786 0.12348100  12.010000   ; qtot 124.432308
 3787         hx    125    ccc     H5   3787 0.10638100   1.008000   ; qtot 124.538689
 3788         hx    125    ccc     H6   3788 0.10638100   1.008000   ; qtot 124.645070
 3789         n4    125    ccc     N1   3789 -0.69071900  14.010000   ; qtot 123.954351
 3790         c3    125    ccc     C4   3790 0.12498100  12.010000   ; qtot 124.079332
 3791         hx    125    ccc     H7   3791 0.12238100   1.008000   ; qtot 124.201713
 3792         hx    125    ccc     H8   3792 0.12238100   1.008000   ; qtot 124.324094
 3793         c3    125    ccc     C5   3793 -0.20771900  12.010000   ; qtot 124.116375
 3794         hc    125    ccc     H9   3794 0.11463100   1.008000   ; qtot 124.231006
 3795         hc    125    ccc    H10   3795 0.11463100   1.008000   ; qtot 124.345637
 3796          c    125    ccc     C6   3796 0.64078100  12.010000   ; qtot 124.986418
 3797          o    125    ccc     O1   3797 -0.49231900  16.000000   ; qtot 124.494099
 3798         oh    125    ccc     O2   3798 -0.51841900  16.000000   ; qtot 123.975680
 3799         ho    125    ccc    H11   3799 0.45318100   1.008000   ; qtot 124.428861
 3800         c3    125    ccc     C7   3800 0.12498100  12.010000   ; qtot 124.553842
 3801         hx    125    ccc    H12   3801 0.12238100   1.008000   ; qtot 124.676223
 3802         hx    125    ccc    H13   3802 0.12238100   1.008000   ; qtot 124.798604
 3803         c3    125    ccc     C8   3803 -0.20771900  12.010000   ; qtot 124.590885
 3804         hc    125    ccc    H14   3804 0.11463100   1.008000   ; qtot 124.705516
 3805         hc    125    ccc    H15   3805 0.11463100   1.008000   ; qtot 124.820147
 3806          c    125    ccc     C9   3806 0.64078100  12.010000   ; qtot 125.460928
 3807          o    125    ccc     O3   3807 -0.49231900  16.000000   ; qtot 124.968609
 3808         oh    125    ccc     O4   3808 -0.51841900  16.000000   ; qtot 124.450190
 3809         ho    125    ccc    H16   3809 0.45318100   1.008000   ; qtot 124.903371
 3810         os    125    ccc     O5   3810 -0.39491900  16.000000   ; qtot 124.508452
 3811         hn    125    ccc    H17   3811 0.49148100   1.008000   ; qtot 124.999933
; residue  126 ccc rtp ccc q 1.0
 3812         c3    126    ccc     C1   3812 0.14608100  12.010000   ; qtot 125.146014
 3813         h1    126    ccc     H1   3813 0.06738100   1.008000   ; qtot 125.213395
 3814         h1    126    ccc     H2   3814 0.06738100   1.008000   ; qtot 125.280776
 3815         c3    126    ccc     C2   3815 -0.14571900  12.010000   ; qtot 125.135057
 3816         hc    126    ccc     H3   3816 0.08688100   1.008000   ; qtot 125.221938
 3817         hc    126    ccc     H4   3817 0.08688100   1.008000   ; qtot 125.308819
 3818         c3    126    ccc     C3   3818 0.12348100  12.010000   ; qtot 125.432300
 3819         hx    126    ccc     H5   3819 0.10638100   1.008000   ; qtot 125.538681
 3820         hx    126    ccc     H6   3820 0.10638100   1.008000   ; qtot 125.645062
 3821         n4    126    ccc     N1   3821 -0.69071900  14.010000   ; qtot 124.954343
 3822         c3    126    ccc     C4   3822 0.12498100  12.010000   ; qtot 125.079324
 3823         hx    126    ccc     H7   3823 0.12238100   1.008000   ; qtot 125.201705
 3824         hx    126    ccc     H8   3824 0.12238100   1.008000   ; qtot 125.324086
 3825         c3    126    ccc     C5   3825 -0.20771900  12.010000   ; qtot 125.116367
 3826         hc    126    ccc     H9   3826 0.11463100   1.008000   ; qtot 125.230998
 3827         hc    126    ccc    H10   3827 0.11463100   1.008000   ; qtot 125.345629
 3828          c    126    ccc     C6   3828 0.64078100  12.010000   ; qtot 125.986410
 3829          o    126    ccc     O1   3829 -0.49231900  16.000000   ; qtot 125.494091
 3830         oh    126    ccc     O2   3830 -0.51841900  16.000000   ; qtot 124.975672
 3831         ho    126    ccc    H11   3831 0.45318100   1.008000   ; qtot 125.428853
 3832         c3    126    ccc     C7   3832 0.12498100  12.010000   ; qtot 125.553834
 3833         hx    126    ccc    H12   3833 0.12238100   1.008000   ; qtot 125.676215
 3834         hx    126    ccc    H13   3834 0.12238100   1.008000   ; qtot 125.798596
 3835         c3    126    ccc     C8   3835 -0.20771900  12.010000   ; qtot 125.590877
 3836         hc    126    ccc    H14   3836 0.11463100   1.008000   ; qtot 125.705508
 3837         hc    126    ccc    H15   3837 0.11463100   1.008000   ; qtot 125.820139
 3838          c    126    ccc     C9   3838 0.64078100  12.010000   ; qtot 126.460920
 3839          o    126    ccc     O3   3839 -0.49231900  16.000000   ; qtot 125.968601
 3840         oh    126    ccc     O4   3840 -0.51841900  16.000000   ; qtot 125.450182
 3841         ho    126    ccc    H16   3841 0.45318100   1.008000   ; qtot 125.903363
 3842         os    126    ccc     O5   3842 -0.39491900  16.000000   ; qtot 125.508444
 3843         hn    126    ccc    H17   3843 0.49148100   1.008000   ; qtot 125.999925
; residue  127 ccc rtp ccc q 1.0
 3844         c3    127    ccc     C1   3844 0.14608100  12.010000   ; qtot 126.146006
 3845         h1    127    ccc     H1   3845 0.06738100   1.008000   ; qtot 126.213387
 3846         h1    127    ccc     H2   3846 0.06738100   1.008000   ; qtot 126.280768
 3847         c3    127    ccc     C2   3847 -0.14571900  12.010000   ; qtot 126.135049
 3848         hc    127    ccc     H3   3848 0.08688100   1.008000   ; qtot 126.221930
 3849         hc    127    ccc     H4   3849 0.08688100   1.008000   ; qtot 126.308811
 3850         c3    127    ccc     C3   3850 0.12348100  12.010000   ; qtot 126.432292
 3851         hx    127    ccc     H5   3851 0.10638100   1.008000   ; qtot 126.538673
 3852         hx    127    ccc     H6   3852 0.10638100   1.008000   ; qtot 126.645054
 3853         n4    127    ccc     N1   3853 -0.69071900  14.010000   ; qtot 125.954335
 3854         c3    127    ccc     C4   3854 0.12498100  12.010000   ; qtot 126.079316
 3855         hx    127    ccc     H7   3855 0.12238100   1.008000   ; qtot 126.201697
 3856         hx    127    ccc     H8   3856 0.12238100   1.008000   ; qtot 126.324078
 3857         c3    127    ccc     C5   3857 -0.20771900  12.010000   ; qtot 126.116359
 3858         hc    127    ccc     H9   3858 0.11463100   1.008000   ; qtot 126.230990
 3859         hc    127    ccc    H10   3859 0.11463100   1.008000   ; qtot 126.345621
 3860          c    127    ccc     C6   3860 0.64078100  12.010000   ; qtot 126.986402
 3861          o    127    ccc     O1   3861 -0.49231900  16.000000   ; qtot 126.494083
 3862         oh    127    ccc     O2   3862 -0.51841900  16.000000   ; qtot 125.975664
 3863         ho    127    ccc    H11   3863 0.45318100   1.008000   ; qtot 126.428845
 3864         c3    127    ccc     C7   3864 0.12498100  12.010000   ; qtot 126.553826
 3865         hx    127    ccc    H12   3865 0.12238100   1.008000   ; qtot 126.676207
 3866         hx    127    ccc    H13   3866 0.12238100   1.008000   ; qtot 126.798588
 3867         c3    127    ccc     C8   3867 -0.20771900  12.010000   ; qtot 126.590869
 3868         hc    127    ccc    H14   3868 0.11463100   1.008000   ; qtot 126.705500
 3869         hc    127    ccc    H15   3869 0.11463100   1.008000   ; qtot 126.820131
 3870          c    127    ccc     C9   3870 0.64078100  12.010000   ; qtot 127.460912
 3871          o    127    ccc     O3   3871 -0.49231900  16.000000   ; qtot 126.968593
 3872         oh    127    ccc     O4   3872 -0.51841900  16.000000   ; qtot 126.450174
 3873         ho    127    ccc    H16   3873 0.45318100   1.008000   ; qtot 126.903355
 3874         os    127    ccc     O5   3874 -0.39491900  16.000000   ; qtot 126.508436
 3875         hn    127    ccc    H17   3875 0.49148100   1.008000   ; qtot 126.999917
; residue  128 ccc rtp ccc q 1.0
 3876         c3    128    ccc     C1   3876 0.14608100  12.010000   ; qtot 127.145998
 3877         h1    128    ccc     H1   3877 0.06738100   1.008000   ; qtot 127.213379
 3878         h1    128    ccc     H2   3878 0.06738100   1.008000   ; qtot 127.280760
 3879         c3    128    ccc     C2   3879 -0.14571900  12.010000   ; qtot 127.135041
 3880         hc    128    ccc     H3   3880 0.08688100   1.008000   ; qtot 127.221922
 3881         hc    128    ccc     H4   3881 0.08688100   1.008000   ; qtot 127.308803
 3882         c3    128    ccc     C3   3882 0.12348100  12.010000   ; qtot 127.432284
 3883         hx    128    ccc     H5   3883 0.10638100   1.008000   ; qtot 127.538665
 3884         hx    128    ccc     H6   3884 0.10638100   1.008000   ; qtot 127.645046
 3885         n4    128    ccc     N1   3885 -0.69071900  14.010000   ; qtot 126.954327
 3886         c3    128    ccc     C4   3886 0.12498100  12.010000   ; qtot 127.079308
 3887         hx    128    ccc     H7   3887 0.12238100   1.008000   ; qtot 127.201689
 3888         hx    128    ccc     H8   3888 0.12238100   1.008000   ; qtot 127.324070
 3889         c3    128    ccc     C5   3889 -0.20771900  12.010000   ; qtot 127.116351
 3890         hc    128    ccc     H9   3890 0.11463100   1.008000   ; qtot 127.230982
 3891         hc    128    ccc    H10   3891 0.11463100   1.008000   ; qtot 127.345613
 3892          c    128    ccc     C6   3892 0.64078100  12.010000   ; qtot 127.986394
 3893          o    128    ccc     O1   3893 -0.49231900  16.000000   ; qtot 127.494075
 3894         oh    128    ccc     O2   3894 -0.51841900  16.000000   ; qtot 126.975656
 3895         ho    128    ccc    H11   3895 0.45318100   1.008000   ; qtot 127.428837
 3896         c3    128    ccc     C7   3896 0.12498100  12.010000   ; qtot 127.553818
 3897         hx    128    ccc    H12   3897 0.12238100   1.008000   ; qtot 127.676199
 3898         hx    128    ccc    H13   3898 0.12238100   1.008000   ; qtot 127.798580
 3899         c3    128    ccc     C8   3899 -0.20771900  12.010000   ; qtot 127.590861
 3900         hc    128    ccc    H14   3900 0.11463100   1.008000   ; qtot 127.705492
 3901         hc    128    ccc    H15   3901 0.11463100   1.008000   ; qtot 127.820123
 3902          c    128    ccc     C9   3902 0.64078100  12.010000   ; qtot 128.460904
 3903          o    128    ccc     O3   3903 -0.49231900  16.000000   ; qtot 127.968585
 3904         oh    128    ccc     O4   3904 -0.51841900  16.000000   ; qtot 127.450166
 3905         ho    128    ccc    H16   3905 0.45318100   1.008000   ; qtot 127.903347
 3906         os    128    ccc     O5   3906 -0.39491900  16.000000   ; qtot 127.508428
 3907         hn    128    ccc    H17   3907 0.49148100   1.008000   ; qtot 127.999909
; residue  129 ccc rtp ccc q 1.0
 3908         c3    129    ccc     C1   3908 0.14608100  12.010000   ; qtot 128.145990
 3909         h1    129    ccc     H1   3909 0.06738100   1.008000   ; qtot 128.213371
 3910         h1    129    ccc     H2   3910 0.06738100   1.008000   ; qtot 128.280752
 3911         c3    129    ccc     C2   3911 -0.14571900  12.010000   ; qtot 128.135033
 3912         hc    129    ccc     H3   3912 0.08688100   1.008000   ; qtot 128.221914
 3913         hc    129    ccc     H4   3913 0.08688100   1.008000   ; qtot 128.308795
 3914         c3    129    ccc     C3   3914 0.12348100  12.010000   ; qtot 128.432276
 3915         hx    129    ccc     H5   3915 0.10638100   1.008000   ; qtot 128.538657
 3916         hx    129    ccc     H6   3916 0.10638100   1.008000   ; qtot 128.645038
 3917         n4    129    ccc     N1   3917 -0.69071900  14.010000   ; qtot 127.954319
 3918         c3    129    ccc     C4   3918 0.12498100  12.010000   ; qtot 128.079300
 3919         hx    129    ccc     H7   3919 0.12238100   1.008000   ; qtot 128.201681
 3920         hx    129    ccc     H8   3920 0.12238100   1.008000   ; qtot 128.324062
 3921         c3    129    ccc     C5   3921 -0.20771900  12.010000   ; qtot 128.116343
 3922         hc    129    ccc     H9   3922 0.11463100   1.008000   ; qtot 128.230974
 3923         hc    129    ccc    H10   3923 0.11463100   1.008000   ; qtot 128.345605
 3924          c    129    ccc     C6   3924 0.64078100  12.010000   ; qtot 128.986386
 3925          o    129    ccc     O1   3925 -0.49231900  16.000000   ; qtot 128.494067
 3926         oh    129    ccc     O2   3926 -0.51841900  16.000000   ; qtot 127.975648
 3927         ho    129    ccc    H11   3927 0.45318100   1.008000   ; qtot 128.428829
 3928         c3    129    ccc     C7   3928 0.12498100  12.010000   ; qtot 128.553810
 3929         hx    129    ccc    H12   3929 0.12238100   1.008000   ; qtot 128.676191
 3930         hx    129    ccc    H13   3930 0.12238100   1.008000   ; qtot 128.798572
 3931         c3    129    ccc     C8   3931 -0.20771900  12.010000   ; qtot 128.590853
 3932         hc    129    ccc    H14   3932 0.11463100   1.008000   ; qtot 128.705484
 3933         hc    129    ccc    H15   3933 0.11463100   1.008000   ; qtot 128.820115
 3934          c    129    ccc     C9   3934 0.64078100  12.010000   ; qtot 129.460896
 3935          o    129    ccc     O3   3935 -0.49231900  16.000000   ; qtot 128.968577
 3936         oh    129    ccc     O4   3936 -0.51841900  16.000000   ; qtot 128.450158
 3937         ho    129    ccc    H16   3937 0.45318100   1.008000   ; qtot 128.903339
 3938         os    129    ccc     O5   3938 -0.39491900  16.000000   ; qtot 128.508420
 3939         hn    129    ccc    H17   3939 0.49148100   1.008000   ; qtot 128.999901
; residue  130 ccc rtp ccc q 1.0
 3940         c3    130    ccc     C1   3940 0.14608100  12.010000   ; qtot 129.145982
 3941         h1    130    ccc     H1   3941 0.06738100   1.008000   ; qtot 129.213363
 3942         h1    130    ccc     H2   3942 0.06738100   1.008000   ; qtot 129.280744
 3943         c3    130    ccc     C2   3943 -0.14571900  12.010000   ; qtot 129.135025
 3944         hc    130    ccc     H3   3944 0.08688100   1.008000   ; qtot 129.221906
 3945         hc    130    ccc     H4   3945 0.08688100   1.008000   ; qtot 129.308787
 3946         c3    130    ccc     C3   3946 0.12348100  12.010000   ; qtot 129.432268
 3947         hx    130    ccc     H5   3947 0.10638100   1.008000   ; qtot 129.538649
 3948         hx    130    ccc     H6   3948 0.10638100   1.008000   ; qtot 129.645030
 3949         n4    130    ccc     N1   3949 -0.69071900  14.010000   ; qtot 128.954311
 3950         c3    130    ccc     C4   3950 0.12498100  12.010000   ; qtot 129.079292
 3951         hx    130    ccc     H7   3951 0.12238100   1.008000   ; qtot 129.201673
 3952         hx    130    ccc     H8   3952 0.12238100   1.008000   ; qtot 129.324054
 3953         c3    130    ccc     C5   3953 -0.20771900  12.010000   ; qtot 129.116335
 3954         hc    130    ccc     H9   3954 0.11463100   1.008000   ; qtot 129.230966
 3955         hc    130    ccc    H10   3955 0.11463100   1.008000   ; qtot 129.345597
 3956          c    130    ccc     C6   3956 0.64078100  12.010000   ; qtot 129.986378
 3957          o    130    ccc     O1   3957 -0.49231900  16.000000   ; qtot 129.494059
 3958         oh    130    ccc     O2   3958 -0.51841900  16.000000   ; qtot 128.975640
 3959         ho    130    ccc    H11   3959 0.45318100   1.008000   ; qtot 129.428821
 3960         c3    130    ccc     C7   3960 0.12498100  12.010000   ; qtot 129.553802
 3961         hx    130    ccc    H12   3961 0.12238100   1.008000   ; qtot 129.676183
 3962         hx    130    ccc    H13   3962 0.12238100   1.008000   ; qtot 129.798564
 3963         c3    130    ccc     C8   3963 -0.20771900  12.010000   ; qtot 129.590845
 3964         hc    130    ccc    H14   3964 0.11463100   1.008000   ; qtot 129.705476
 3965         hc    130    ccc    H15   3965 0.11463100   1.008000   ; qtot 129.820107
 3966          c    130    ccc     C9   3966 0.64078100  12.010000   ; qtot 130.460888
 3967          o    130    ccc     O3   3967 -0.49231900  16.000000   ; qtot 129.968569
 3968         oh    130    ccc     O4   3968 -0.51841900  16.000000   ; qtot 129.450150
 3969         ho    130    ccc    H16   3969 0.45318100   1.008000   ; qtot 129.903331
 3970         os    130    ccc     O5   3970 -0.39491900  16.000000   ; qtot 129.508412
 3971         hn    130    ccc    H17   3971 0.49148100   1.008000   ; qtot 129.999893
; residue  131 ccc rtp ccc q 1.0
 3972         c3    131    ccc     C1   3972 0.14608100  12.010000   ; qtot 130.145974
 3973         h1    131    ccc     H1   3973 0.06738100   1.008000   ; qtot 130.213355
 3974         h1    131    ccc     H2   3974 0.06738100   1.008000   ; qtot 130.280736
 3975         c3    131    ccc     C2   3975 -0.14571900  12.010000   ; qtot 130.135017
 3976         hc    131    ccc     H3   3976 0.08688100   1.008000   ; qtot 130.221898
 3977         hc    131    ccc     H4   3977 0.08688100   1.008000   ; qtot 130.308779
 3978         c3    131    ccc     C3   3978 0.12348100  12.010000   ; qtot 130.432260
 3979         hx    131    ccc     H5   3979 0.10638100   1.008000   ; qtot 130.538641
 3980         hx    131    ccc     H6   3980 0.10638100   1.008000   ; qtot 130.645022
 3981         n4    131    ccc     N1   3981 -0.69071900  14.010000   ; qtot 129.954303
 3982         c3    131    ccc     C4   3982 0.12498100  12.010000   ; qtot 130.079284
 3983         hx    131    ccc     H7   3983 0.12238100   1.008000   ; qtot 130.201665
 3984         hx    131    ccc     H8   3984 0.12238100   1.008000   ; qtot 130.324046
 3985         c3    131    ccc     C5   3985 -0.20771900  12.010000   ; qtot 130.116327
 3986         hc    131    ccc     H9   3986 0.11463100   1.008000   ; qtot 130.230958
 3987         hc    131    ccc    H10   3987 0.11463100   1.008000   ; qtot 130.345589
 3988          c    131    ccc     C6   3988 0.64078100  12.010000   ; qtot 130.986370
 3989          o    131    ccc     O1   3989 -0.49231900  16.000000   ; qtot 130.494051
 3990         oh    131    ccc     O2   3990 -0.51841900  16.000000   ; qtot 129.975632
 3991         ho    131    ccc    H11   3991 0.45318100   1.008000   ; qtot 130.428813
 3992         c3    131    ccc     C7   3992 0.12498100  12.010000   ; qtot 130.553794
 3993         hx    131    ccc    H12   3993 0.12238100   1.008000   ; qtot 130.676175
 3994         hx    131    ccc    H13   3994 0.12238100   1.008000   ; qtot 130.798556
 3995         c3    131    ccc     C8   3995 -0.20771900  12.010000   ; qtot 130.590837
 3996         hc    131    ccc    H14   3996 0.11463100   1.008000   ; qtot 130.705468
 3997         hc    131    ccc    H15   3997 0.11463100   1.008000   ; qtot 130.820099
 3998          c    131    ccc     C9   3998 0.64078100  12.010000   ; qtot 131.460880
 3999          o    131    ccc     O3   3999 -0.49231900  16.000000   ; qtot 130.968561
 4000         oh    131    ccc     O4   4000 -0.51841900  16.000000   ; qtot 130.450142
 4001         ho    131    ccc    H16   4001 0.45318100   1.008000   ; qtot 130.903323
 4002         os    131    ccc     O5   4002 -0.39491900  16.000000   ; qtot 130.508404
 4003         hn    131    ccc    H17   4003 0.49148100   1.008000   ; qtot 130.999885
; residue  132 ccc rtp ccc q 1.0
 4004         c3    132    ccc     C1   4004 0.14608100  12.010000   ; qtot 131.145966
 4005         h1    132    ccc     H1   4005 0.06738100   1.008000   ; qtot 131.213347
 4006         h1    132    ccc     H2   4006 0.06738100   1.008000   ; qtot 131.280728
 4007         c3    132    ccc     C2   4007 -0.14571900  12.010000   ; qtot 131.135009
 4008         hc    132    ccc     H3   4008 0.08688100   1.008000   ; qtot 131.221890
 4009         hc    132    ccc     H4   4009 0.08688100   1.008000   ; qtot 131.308771
 4010         c3    132    ccc     C3   4010 0.12348100  12.010000   ; qtot 131.432252
 4011         hx    132    ccc     H5   4011 0.10638100   1.008000   ; qtot 131.538633
 4012         hx    132    ccc     H6   4012 0.10638100   1.008000   ; qtot 131.645014
 4013         n4    132    ccc     N1   4013 -0.69071900  14.010000   ; qtot 130.954295
 4014         c3    132    ccc     C4   4014 0.12498100  12.010000   ; qtot 131.079276
 4015         hx    132    ccc     H7   4015 0.12238100   1.008000   ; qtot 131.201657
 4016         hx    132    ccc     H8   4016 0.12238100   1.008000   ; qtot 131.324038
 4017         c3    132    ccc     C5   4017 -0.20771900  12.010000   ; qtot 131.116319
 4018         hc    132    ccc     H9   4018 0.11463100   1.008000   ; qtot 131.230950
 4019         hc    132    ccc    H10   4019 0.11463100   1.008000   ; qtot 131.345581
 4020          c    132    ccc     C6   4020 0.64078100  12.010000   ; qtot 131.986362
 4021          o    132    ccc     O1   4021 -0.49231900  16.000000   ; qtot 131.494043
 4022         oh    132    ccc     O2   4022 -0.51841900  16.000000   ; qtot 130.975624
 4023         ho    132    ccc    H11   4023 0.45318100   1.008000   ; qtot 131.428805
 4024         c3    132    ccc     C7   4024 0.12498100  12.010000   ; qtot 131.553786
 4025         hx    132    ccc    H12   4025 0.12238100   1.008000   ; qtot 131.676167
 4026         hx    132    ccc    H13   4026 0.12238100   1.008000   ; qtot 131.798548
 4027         c3    132    ccc     C8   4027 -0.20771900  12.010000   ; qtot 131.590829
 4028         hc    132    ccc    H14   4028 0.11463100   1.008000   ; qtot 131.705460
 4029         hc    132    ccc    H15   4029 0.11463100   1.008000   ; qtot 131.820091
 4030          c    132    ccc     C9   4030 0.64078100  12.010000   ; qtot 132.460872
 4031          o    132    ccc     O3   4031 -0.49231900  16.000000   ; qtot 131.968553
 4032         oh    132    ccc     O4   4032 -0.51841900  16.000000   ; qtot 131.450134
 4033         ho    132    ccc    H16   4033 0.45318100   1.008000   ; qtot 131.903315
 4034         os    132    ccc     O5   4034 -0.39491900  16.000000   ; qtot 131.508396
 4035         hn    132    ccc    H17   4035 0.49148100   1.008000   ; qtot 131.999877
; residue  133 ccc rtp ccc q 1.0
 4036         c3    133    ccc     C1   4036 0.14608100  12.010000   ; qtot 132.145958
 4037         h1    133    ccc     H1   4037 0.06738100   1.008000   ; qtot 132.213339
 4038         h1    133    ccc     H2   4038 0.06738100   1.008000   ; qtot 132.280720
 4039         c3    133    ccc     C2   4039 -0.14571900  12.010000   ; qtot 132.135001
 4040         hc    133    ccc     H3   4040 0.08688100   1.008000   ; qtot 132.221882
 4041         hc    133    ccc     H4   4041 0.08688100   1.008000   ; qtot 132.308763
 4042         c3    133    ccc     C3   4042 0.12348100  12.010000   ; qtot 132.432244
 4043         hx    133    ccc     H5   4043 0.10638100   1.008000   ; qtot 132.538625
 4044         hx    133    ccc     H6   4044 0.10638100   1.008000   ; qtot 132.645006
 4045         n4    133    ccc     N1   4045 -0.69071900  14.010000   ; qtot 131.954287
 4046         c3    133    ccc     C4   4046 0.12498100  12.010000   ; qtot 132.079268
 4047         hx    133    ccc     H7   4047 0.12238100   1.008000   ; qtot 132.201649
 4048         hx    133    ccc     H8   4048 0.12238100   1.008000   ; qtot 132.324030
 4049         c3    133    ccc     C5   4049 -0.20771900  12.010000   ; qtot 132.116311
 4050         hc    133    ccc     H9   4050 0.11463100   1.008000   ; qtot 132.230942
 4051         hc    133    ccc    H10   4051 0.11463100   1.008000   ; qtot 132.345573
 4052          c    133    ccc     C6   4052 0.64078100  12.010000   ; qtot 132.986354
 4053          o    133    ccc     O1   4053 -0.49231900  16.000000   ; qtot 132.494035
 4054         oh    133    ccc     O2   4054 -0.51841900  16.000000   ; qtot 131.975616
 4055         ho    133    ccc    H11   4055 0.45318100   1.008000   ; qtot 132.428797
 4056         c3    133    ccc     C7   4056 0.12498100  12.010000   ; qtot 132.553778
 4057         hx    133    ccc    H12   4057 0.12238100   1.008000   ; qtot 132.676159
 4058         hx    133    ccc    H13   4058 0.12238100   1.008000   ; qtot 132.798540
 4059         c3    133    ccc     C8   4059 -0.20771900  12.010000   ; qtot 132.590821
 4060         hc    133    ccc    H14   4060 0.11463100   1.008000   ; qtot 132.705452
 4061         hc    133    ccc    H15   4061 0.11463100   1.008000   ; qtot 132.820083
 4062          c    133    ccc     C9   4062 0.64078100  12.010000   ; qtot 133.460864
 4063          o    133    ccc     O3   4063 -0.49231900  16.000000   ; qtot 132.968545
 4064         oh    133    ccc     O4   4064 -0.51841900  16.000000   ; qtot 132.450126
 4065         ho    133    ccc    H16   4065 0.45318100   1.008000   ; qtot 132.903307
 4066         os    133    ccc     O5   4066 -0.39491900  16.000000   ; qtot 132.508388
 4067         hn    133    ccc    H17   4067 0.49148100   1.008000   ; qtot 132.999869
; residue  134 ccc rtp ccc q 1.0
 4068         c3    134    ccc     C1   4068 0.14608100  12.010000   ; qtot 133.145950
 4069         h1    134    ccc     H1   4069 0.06738100   1.008000   ; qtot 133.213331
 4070         h1    134    ccc     H2   4070 0.06738100   1.008000   ; qtot 133.280712
 4071         c3    134    ccc     C2   4071 -0.14571900  12.010000   ; qtot 133.134993
 4072         hc    134    ccc     H3   4072 0.08688100   1.008000   ; qtot 133.221874
 4073         hc    134    ccc     H4   4073 0.08688100   1.008000   ; qtot 133.308755
 4074         c3    134    ccc     C3   4074 0.12348100  12.010000   ; qtot 133.432236
 4075         hx    134    ccc     H5   4075 0.10638100   1.008000   ; qtot 133.538617
 4076         hx    134    ccc     H6   4076 0.10638100   1.008000   ; qtot 133.644998
 4077         n4    134    ccc     N1   4077 -0.69071900  14.010000   ; qtot 132.954279
 4078         c3    134    ccc     C4   4078 0.12498100  12.010000   ; qtot 133.079260
 4079         hx    134    ccc     H7   4079 0.12238100   1.008000   ; qtot 133.201641
 4080         hx    134    ccc     H8   4080 0.12238100   1.008000   ; qtot 133.324022
 4081         c3    134    ccc     C5   4081 -0.20771900  12.010000   ; qtot 133.116303
 4082         hc    134    ccc     H9   4082 0.11463100   1.008000   ; qtot 133.230934
 4083         hc    134    ccc    H10   4083 0.11463100   1.008000   ; qtot 133.345565
 4084          c    134    ccc     C6   4084 0.64078100  12.010000   ; qtot 133.986346
 4085          o    134    ccc     O1   4085 -0.49231900  16.000000   ; qtot 133.494027
 4086         oh    134    ccc     O2   4086 -0.51841900  16.000000   ; qtot 132.975608
 4087         ho    134    ccc    H11   4087 0.45318100   1.008000   ; qtot 133.428789
 4088         c3    134    ccc     C7   4088 0.12498100  12.010000   ; qtot 133.553770
 4089         hx    134    ccc    H12   4089 0.12238100   1.008000   ; qtot 133.676151
 4090         hx    134    ccc    H13   4090 0.12238100   1.008000   ; qtot 133.798532
 4091         c3    134    ccc     C8   4091 -0.20771900  12.010000   ; qtot 133.590813
 4092         hc    134    ccc    H14   4092 0.11463100   1.008000   ; qtot 133.705444
 4093         hc    134    ccc    H15   4093 0.11463100   1.008000   ; qtot 133.820075
 4094          c    134    ccc     C9   4094 0.64078100  12.010000   ; qtot 134.460856
 4095          o    134    ccc     O3   4095 -0.49231900  16.000000   ; qtot 133.968537
 4096         oh    134    ccc     O4   4096 -0.51841900  16.000000   ; qtot 133.450118
 4097         ho    134    ccc    H16   4097 0.45318100   1.008000   ; qtot 133.903299
 4098         os    134    ccc     O5   4098 -0.39491900  16.000000   ; qtot 133.508380
 4099         hn    134    ccc    H17   4099 0.49148100   1.008000   ; qtot 133.999861
; residue  135 ccc rtp ccc q 1.0
 4100         c3    135    ccc     C1   4100 0.14608100  12.010000   ; qtot 134.145942
 4101         h1    135    ccc     H1   4101 0.06738100   1.008000   ; qtot 134.213323
 4102         h1    135    ccc     H2   4102 0.06738100   1.008000   ; qtot 134.280704
 4103         c3    135    ccc     C2   4103 -0.14571900  12.010000   ; qtot 134.134985
 4104         hc    135    ccc     H3   4104 0.08688100   1.008000   ; qtot 134.221866
 4105         hc    135    ccc     H4   4105 0.08688100   1.008000   ; qtot 134.308747
 4106         c3    135    ccc     C3   4106 0.12348100  12.010000   ; qtot 134.432228
 4107         hx    135    ccc     H5   4107 0.10638100   1.008000   ; qtot 134.538609
 4108         hx    135    ccc     H6   4108 0.10638100   1.008000   ; qtot 134.644990
 4109         n4    135    ccc     N1   4109 -0.69071900  14.010000   ; qtot 133.954271
 4110         c3    135    ccc     C4   4110 0.12498100  12.010000   ; qtot 134.079252
 4111         hx    135    ccc     H7   4111 0.12238100   1.008000   ; qtot 134.201633
 4112         hx    135    ccc     H8   4112 0.12238100   1.008000   ; qtot 134.324014
 4113         c3    135    ccc     C5   4113 -0.20771900  12.010000   ; qtot 134.116295
 4114         hc    135    ccc     H9   4114 0.11463100   1.008000   ; qtot 134.230926
 4115         hc    135    ccc    H10   4115 0.11463100   1.008000   ; qtot 134.345557
 4116          c    135    ccc     C6   4116 0.64078100  12.010000   ; qtot 134.986338
 4117          o    135    ccc     O1   4117 -0.49231900  16.000000   ; qtot 134.494019
 4118         oh    135    ccc     O2   4118 -0.51841900  16.000000   ; qtot 133.975600
 4119         ho    135    ccc    H11   4119 0.45318100   1.008000   ; qtot 134.428781
 4120         c3    135    ccc     C7   4120 0.12498100  12.010000   ; qtot 134.553762
 4121         hx    135    ccc    H12   4121 0.12238100   1.008000   ; qtot 134.676143
 4122         hx    135    ccc    H13   4122 0.12238100   1.008000   ; qtot 134.798524
 4123         c3    135    ccc     C8   4123 -0.20771900  12.010000   ; qtot 134.590805
 4124         hc    135    ccc    H14   4124 0.11463100   1.008000   ; qtot 134.705436
 4125         hc    135    ccc    H15   4125 0.11463100   1.008000   ; qtot 134.820067
 4126          c    135    ccc     C9   4126 0.64078100  12.010000   ; qtot 135.460848
 4127          o    135    ccc     O3   4127 -0.49231900  16.000000   ; qtot 134.968529
 4128         oh    135    ccc     O4   4128 -0.51841900  16.000000   ; qtot 134.450110
 4129         ho    135    ccc    H16   4129 0.45318100   1.008000   ; qtot 134.903291
 4130         os    135    ccc     O5   4130 -0.39491900  16.000000   ; qtot 134.508372
 4131         hn    135    ccc    H17   4131 0.49148100   1.008000   ; qtot 134.999853
; residue  136 ccc rtp ccc q 1.0
 4132         c3    136    ccc     C1   4132 0.14608100  12.010000   ; qtot 135.145934
 4133         h1    136    ccc     H1   4133 0.06738100   1.008000   ; qtot 135.213315
 4134         h1    136    ccc     H2   4134 0.06738100   1.008000   ; qtot 135.280696
 4135         c3    136    ccc     C2   4135 -0.14571900  12.010000   ; qtot 135.134977
 4136         hc    136    ccc     H3   4136 0.08688100   1.008000   ; qtot 135.221858
 4137         hc    136    ccc     H4   4137 0.08688100   1.008000   ; qtot 135.308739
 4138         c3    136    ccc     C3   4138 0.12348100  12.010000   ; qtot 135.432220
 4139         hx    136    ccc     H5   4139 0.10638100   1.008000   ; qtot 135.538601
 4140         hx    136    ccc     H6   4140 0.10638100   1.008000   ; qtot 135.644982
 4141         n4    136    ccc     N1   4141 -0.69071900  14.010000   ; qtot 134.954263
 4142         c3    136    ccc     C4   4142 0.12498100  12.010000   ; qtot 135.079244
 4143         hx    136    ccc     H7   4143 0.12238100   1.008000   ; qtot 135.201625
 4144         hx    136    ccc     H8   4144 0.12238100   1.008000   ; qtot 135.324006
 4145         c3    136    ccc     C5   4145 -0.20771900  12.010000   ; qtot 135.116287
 4146         hc    136    ccc     H9   4146 0.11463100   1.008000   ; qtot 135.230918
 4147         hc    136    ccc    H10   4147 0.11463100   1.008000   ; qtot 135.345549
 4148          c    136    ccc     C6   4148 0.64078100  12.010000   ; qtot 135.986330
 4149          o    136    ccc     O1   4149 -0.49231900  16.000000   ; qtot 135.494011
 4150         oh    136    ccc     O2   4150 -0.51841900  16.000000   ; qtot 134.975592
 4151         ho    136    ccc    H11   4151 0.45318100   1.008000   ; qtot 135.428773
 4152         c3    136    ccc     C7   4152 0.12498100  12.010000   ; qtot 135.553754
 4153         hx    136    ccc    H12   4153 0.12238100   1.008000   ; qtot 135.676135
 4154         hx    136    ccc    H13   4154 0.12238100   1.008000   ; qtot 135.798516
 4155         c3    136    ccc     C8   4155 -0.20771900  12.010000   ; qtot 135.590797
 4156         hc    136    ccc    H14   4156 0.11463100   1.008000   ; qtot 135.705428
 4157         hc    136    ccc    H15   4157 0.11463100   1.008000   ; qtot 135.820059
 4158          c    136    ccc     C9   4158 0.64078100  12.010000   ; qtot 136.460840
 4159          o    136    ccc     O3   4159 -0.49231900  16.000000   ; qtot 135.968521
 4160         oh    136    ccc     O4   4160 -0.51841900  16.000000   ; qtot 135.450102
 4161         ho    136    ccc    H16   4161 0.45318100   1.008000   ; qtot 135.903283
 4162         os    136    ccc     O5   4162 -0.39491900  16.000000   ; qtot 135.508364
 4163         hn    136    ccc    H17   4163 0.49148100   1.008000   ; qtot 135.999845
; residue  137 ccc rtp ccc q 1.0
 4164         c3    137    ccc     C1   4164 0.14608100  12.010000   ; qtot 136.145926
 4165         h1    137    ccc     H1   4165 0.06738100   1.008000   ; qtot 136.213307
 4166         h1    137    ccc     H2   4166 0.06738100   1.008000   ; qtot 136.280688
 4167         c3    137    ccc     C2   4167 -0.14571900  12.010000   ; qtot 136.134969
 4168         hc    137    ccc     H3   4168 0.08688100   1.008000   ; qtot 136.221850
 4169         hc    137    ccc     H4   4169 0.08688100   1.008000   ; qtot 136.308731
 4170         c3    137    ccc     C3   4170 0.12348100  12.010000   ; qtot 136.432212
 4171         hx    137    ccc     H5   4171 0.10638100   1.008000   ; qtot 136.538593
 4172         hx    137    ccc     H6   4172 0.10638100   1.008000   ; qtot 136.644974
 4173         n4    137    ccc     N1   4173 -0.69071900  14.010000   ; qtot 135.954255
 4174         c3    137    ccc     C4   4174 0.12498100  12.010000   ; qtot 136.079236
 4175         hx    137    ccc     H7   4175 0.12238100   1.008000   ; qtot 136.201617
 4176         hx    137    ccc     H8   4176 0.12238100   1.008000   ; qtot 136.323998
 4177         c3    137    ccc     C5   4177 -0.20771900  12.010000   ; qtot 136.116279
 4178         hc    137    ccc     H9   4178 0.11463100   1.008000   ; qtot 136.230910
 4179         hc    137    ccc    H10   4179 0.11463100   1.008000   ; qtot 136.345541
 4180          c    137    ccc     C6   4180 0.64078100  12.010000   ; qtot 136.986322
 4181          o    137    ccc     O1   4181 -0.49231900  16.000000   ; qtot 136.494003
 4182         oh    137    ccc     O2   4182 -0.51841900  16.000000   ; qtot 135.975584
 4183         ho    137    ccc    H11   4183 0.45318100   1.008000   ; qtot 136.428765
 4184         c3    137    ccc     C7   4184 0.12498100  12.010000   ; qtot 136.553746
 4185         hx    137    ccc    H12   4185 0.12238100   1.008000   ; qtot 136.676127
 4186         hx    137    ccc    H13   4186 0.12238100   1.008000   ; qtot 136.798508
 4187         c3    137    ccc     C8   4187 -0.20771900  12.010000   ; qtot 136.590789
 4188         hc    137    ccc    H14   4188 0.11463100   1.008000   ; qtot 136.705420
 4189         hc    137    ccc    H15   4189 0.11463100   1.008000   ; qtot 136.820051
 4190          c    137    ccc     C9   4190 0.64078100  12.010000   ; qtot 137.460832
 4191          o    137    ccc     O3   4191 -0.49231900  16.000000   ; qtot 136.968513
 4192         oh    137    ccc     O4   4192 -0.51841900  16.000000   ; qtot 136.450094
 4193         ho    137    ccc    H16   4193 0.45318100   1.008000   ; qtot 136.903275
 4194         os    137    ccc     O5   4194 -0.39491900  16.000000   ; qtot 136.508356
 4195         hn    137    ccc    H17   4195 0.49148100   1.008000   ; qtot 136.999837
; residue  138 ccc rtp ccc q 1.0
 4196         c3    138    ccc     C1   4196 0.14608100  12.010000   ; qtot 137.145918
 4197         h1    138    ccc     H1   4197 0.06738100   1.008000   ; qtot 137.213299
 4198         h1    138    ccc     H2   4198 0.06738100   1.008000   ; qtot 137.280680
 4199         c3    138    ccc     C2   4199 -0.14571900  12.010000   ; qtot 137.134961
 4200         hc    138    ccc     H3   4200 0.08688100   1.008000   ; qtot 137.221842
 4201         hc    138    ccc     H4   4201 0.08688100   1.008000   ; qtot 137.308723
 4202         c3    138    ccc     C3   4202 0.12348100  12.010000   ; qtot 137.432204
 4203         hx    138    ccc     H5   4203 0.10638100   1.008000   ; qtot 137.538585
 4204         hx    138    ccc     H6   4204 0.10638100   1.008000   ; qtot 137.644966
 4205         n4    138    ccc     N1   4205 -0.69071900  14.010000   ; qtot 136.954247
 4206         c3    138    ccc     C4   4206 0.12498100  12.010000   ; qtot 137.079228
 4207         hx    138    ccc     H7   4207 0.12238100   1.008000   ; qtot 137.201609
 4208         hx    138    ccc     H8   4208 0.12238100   1.008000   ; qtot 137.323990
 4209         c3    138    ccc     C5   4209 -0.20771900  12.010000   ; qtot 137.116271
 4210         hc    138    ccc     H9   4210 0.11463100   1.008000   ; qtot 137.230902
 4211         hc    138    ccc    H10   4211 0.11463100   1.008000   ; qtot 137.345533
 4212          c    138    ccc     C6   4212 0.64078100  12.010000   ; qtot 137.986314
 4213          o    138    ccc     O1   4213 -0.49231900  16.000000   ; qtot 137.493995
 4214         oh    138    ccc     O2   4214 -0.51841900  16.000000   ; qtot 136.975576
 4215         ho    138    ccc    H11   4215 0.45318100   1.008000   ; qtot 137.428757
 4216         c3    138    ccc     C7   4216 0.12498100  12.010000   ; qtot 137.553738
 4217         hx    138    ccc    H12   4217 0.12238100   1.008000   ; qtot 137.676119
 4218         hx    138    ccc    H13   4218 0.12238100   1.008000   ; qtot 137.798500
 4219         c3    138    ccc     C8   4219 -0.20771900  12.010000   ; qtot 137.590781
 4220         hc    138    ccc    H14   4220 0.11463100   1.008000   ; qtot 137.705412
 4221         hc    138    ccc    H15   4221 0.11463100   1.008000   ; qtot 137.820043
 4222          c    138    ccc     C9   4222 0.64078100  12.010000   ; qtot 138.460824
 4223          o    138    ccc     O3   4223 -0.49231900  16.000000   ; qtot 137.968505
 4224         oh    138    ccc     O4   4224 -0.51841900  16.000000   ; qtot 137.450086
 4225         ho    138    ccc    H16   4225 0.45318100   1.008000   ; qtot 137.903267
 4226         os    138    ccc     O5   4226 -0.39491900  16.000000   ; qtot 137.508348
 4227         hn    138    ccc    H17   4227 0.49148100   1.008000   ; qtot 137.999829
; residue  139 ccc rtp ccc q 1.0
 4228         c3    139    ccc     C1   4228 0.14608100  12.010000   ; qtot 138.145910
 4229         h1    139    ccc     H1   4229 0.06738100   1.008000   ; qtot 138.213291
 4230         h1    139    ccc     H2   4230 0.06738100   1.008000   ; qtot 138.280672
 4231         c3    139    ccc     C2   4231 -0.14571900  12.010000   ; qtot 138.134953
 4232         hc    139    ccc     H3   4232 0.08688100   1.008000   ; qtot 138.221834
 4233         hc    139    ccc     H4   4233 0.08688100   1.008000   ; qtot 138.308715
 4234         c3    139    ccc     C3   4234 0.12348100  12.010000   ; qtot 138.432196
 4235         hx    139    ccc     H5   4235 0.10638100   1.008000   ; qtot 138.538577
 4236         hx    139    ccc     H6   4236 0.10638100   1.008000   ; qtot 138.644958
 4237         n4    139    ccc     N1   4237 -0.69071900  14.010000   ; qtot 137.954239
 4238         c3    139    ccc     C4   4238 0.12498100  12.010000   ; qtot 138.079220
 4239         hx    139    ccc     H7   4239 0.12238100   1.008000   ; qtot 138.201601
 4240         hx    139    ccc     H8   4240 0.12238100   1.008000   ; qtot 138.323982
 4241         c3    139    ccc     C5   4241 -0.20771900  12.010000   ; qtot 138.116263
 4242         hc    139    ccc     H9   4242 0.11463100   1.008000   ; qtot 138.230894
 4243         hc    139    ccc    H10   4243 0.11463100   1.008000   ; qtot 138.345525
 4244          c    139    ccc     C6   4244 0.64078100  12.010000   ; qtot 138.986306
 4245          o    139    ccc     O1   4245 -0.49231900  16.000000   ; qtot 138.493987
 4246         oh    139    ccc     O2   4246 -0.51841900  16.000000   ; qtot 137.975568
 4247         ho    139    ccc    H11   4247 0.45318100   1.008000   ; qtot 138.428749
 4248         c3    139    ccc     C7   4248 0.12498100  12.010000   ; qtot 138.553730
 4249         hx    139    ccc    H12   4249 0.12238100   1.008000   ; qtot 138.676111
 4250         hx    139    ccc    H13   4250 0.12238100   1.008000   ; qtot 138.798492
 4251         c3    139    ccc     C8   4251 -0.20771900  12.010000   ; qtot 138.590773
 4252         hc    139    ccc    H14   4252 0.11463100   1.008000   ; qtot 138.705404
 4253         hc    139    ccc    H15   4253 0.11463100   1.008000   ; qtot 138.820035
 4254          c    139    ccc     C9   4254 0.64078100  12.010000   ; qtot 139.460816
 4255          o    139    ccc     O3   4255 -0.49231900  16.000000   ; qtot 138.968497
 4256         oh    139    ccc     O4   4256 -0.51841900  16.000000   ; qtot 138.450078
 4257         ho    139    ccc    H16   4257 0.45318100   1.008000   ; qtot 138.903259
 4258         os    139    ccc     O5   4258 -0.39491900  16.000000   ; qtot 138.508340
 4259         hn    139    ccc    H17   4259 0.49148100   1.008000   ; qtot 138.999821
; residue  140 ccc rtp ccc q 1.0
 4260         c3    140    ccc     C1   4260 0.14608100  12.010000   ; qtot 139.145902
 4261         h1    140    ccc     H1   4261 0.06738100   1.008000   ; qtot 139.213283
 4262         h1    140    ccc     H2   4262 0.06738100   1.008000   ; qtot 139.280664
 4263         c3    140    ccc     C2   4263 -0.14571900  12.010000   ; qtot 139.134945
 4264         hc    140    ccc     H3   4264 0.08688100   1.008000   ; qtot 139.221826
 4265         hc    140    ccc     H4   4265 0.08688100   1.008000   ; qtot 139.308707
 4266         c3    140    ccc     C3   4266 0.12348100  12.010000   ; qtot 139.432188
 4267         hx    140    ccc     H5   4267 0.10638100   1.008000   ; qtot 139.538569
 4268         hx    140    ccc     H6   4268 0.10638100   1.008000   ; qtot 139.644950
 4269         n4    140    ccc     N1   4269 -0.69071900  14.010000   ; qtot 138.954231
 4270         c3    140    ccc     C4   4270 0.12498100  12.010000   ; qtot 139.079212
 4271         hx    140    ccc     H7   4271 0.12238100   1.008000   ; qtot 139.201593
 4272         hx    140    ccc     H8   4272 0.12238100   1.008000   ; qtot 139.323974
 4273         c3    140    ccc     C5   4273 -0.20771900  12.010000   ; qtot 139.116255
 4274         hc    140    ccc     H9   4274 0.11463100   1.008000   ; qtot 139.230886
 4275         hc    140    ccc    H10   4275 0.11463100   1.008000   ; qtot 139.345517
 4276          c    140    ccc     C6   4276 0.64078100  12.010000   ; qtot 139.986298
 4277          o    140    ccc     O1   4277 -0.49231900  16.000000   ; qtot 139.493979
 4278         oh    140    ccc     O2   4278 -0.51841900  16.000000   ; qtot 138.975560
 4279         ho    140    ccc    H11   4279 0.45318100   1.008000   ; qtot 139.428741
 4280         c3    140    ccc     C7   4280 0.12498100  12.010000   ; qtot 139.553722
 4281         hx    140    ccc    H12   4281 0.12238100   1.008000   ; qtot 139.676103
 4282         hx    140    ccc    H13   4282 0.12238100   1.008000   ; qtot 139.798484
 4283         c3    140    ccc     C8   4283 -0.20771900  12.010000   ; qtot 139.590765
 4284         hc    140    ccc    H14   4284 0.11463100   1.008000   ; qtot 139.705396
 4285         hc    140    ccc    H15   4285 0.11463100   1.008000   ; qtot 139.820027
 4286          c    140    ccc     C9   4286 0.64078100  12.010000   ; qtot 140.460808
 4287          o    140    ccc     O3   4287 -0.49231900  16.000000   ; qtot 139.968489
 4288         oh    140    ccc     O4   4288 -0.51841900  16.000000   ; qtot 139.450070
 4289         ho    140    ccc    H16   4289 0.45318100   1.008000   ; qtot 139.903251
 4290         os    140    ccc     O5   4290 -0.39491900  16.000000   ; qtot 139.508332
 4291         hn    140    ccc    H17   4291 0.49148100   1.008000   ; qtot 139.999813
; residue  141 ccc rtp ccc q 1.0
 4292         c3    141    ccc     C1   4292 0.14608100  12.010000   ; qtot 140.145894
 4293         h1    141    ccc     H1   4293 0.06738100   1.008000   ; qtot 140.213275
 4294         h1    141    ccc     H2   4294 0.06738100   1.008000   ; qtot 140.280656
 4295         c3    141    ccc     C2   4295 -0.14571900  12.010000   ; qtot 140.134937
 4296         hc    141    ccc     H3   4296 0.08688100   1.008000   ; qtot 140.221818
 4297         hc    141    ccc     H4   4297 0.08688100   1.008000   ; qtot 140.308699
 4298         c3    141    ccc     C3   4298 0.12348100  12.010000   ; qtot 140.432180
 4299         hx    141    ccc     H5   4299 0.10638100   1.008000   ; qtot 140.538561
 4300         hx    141    ccc     H6   4300 0.10638100   1.008000   ; qtot 140.644942
 4301         n4    141    ccc     N1   4301 -0.69071900  14.010000   ; qtot 139.954223
 4302         c3    141    ccc     C4   4302 0.12498100  12.010000   ; qtot 140.079204
 4303         hx    141    ccc     H7   4303 0.12238100   1.008000   ; qtot 140.201585
 4304         hx    141    ccc     H8   4304 0.12238100   1.008000   ; qtot 140.323966
 4305         c3    141    ccc     C5   4305 -0.20771900  12.010000   ; qtot 140.116247
 4306         hc    141    ccc     H9   4306 0.11463100   1.008000   ; qtot 140.230878
 4307         hc    141    ccc    H10   4307 0.11463100   1.008000   ; qtot 140.345509
 4308          c    141    ccc     C6   4308 0.64078100  12.010000   ; qtot 140.986290
 4309          o    141    ccc     O1   4309 -0.49231900  16.000000   ; qtot 140.493971
 4310         oh    141    ccc     O2   4310 -0.51841900  16.000000   ; qtot 139.975552
 4311         ho    141    ccc    H11   4311 0.45318100   1.008000   ; qtot 140.428733
 4312         c3    141    ccc     C7   4312 0.12498100  12.010000   ; qtot 140.553714
 4313         hx    141    ccc    H12   4313 0.12238100   1.008000   ; qtot 140.676095
 4314         hx    141    ccc    H13   4314 0.12238100   1.008000   ; qtot 140.798476
 4315         c3    141    ccc     C8   4315 -0.20771900  12.010000   ; qtot 140.590757
 4316         hc    141    ccc    H14   4316 0.11463100   1.008000   ; qtot 140.705388
 4317         hc    141    ccc    H15   4317 0.11463100   1.008000   ; qtot 140.820019
 4318          c    141    ccc     C9   4318 0.64078100  12.010000   ; qtot 141.460800
 4319          o    141    ccc     O3   4319 -0.49231900  16.000000   ; qtot 140.968481
 4320         oh    141    ccc     O4   4320 -0.51841900  16.000000   ; qtot 140.450062
 4321         ho    141    ccc    H16   4321 0.45318100   1.008000   ; qtot 140.903243
 4322         os    141    ccc     O5   4322 -0.39491900  16.000000   ; qtot 140.508324
 4323         hn    141    ccc    H17   4323 0.49148100   1.008000   ; qtot 140.999805
; residue  142 ccc rtp ccc q 1.0
 4324         c3    142    ccc     C1   4324 0.14608100  12.010000   ; qtot 141.145886
 4325         h1    142    ccc     H1   4325 0.06738100   1.008000   ; qtot 141.213267
 4326         h1    142    ccc     H2   4326 0.06738100   1.008000   ; qtot 141.280648
 4327         c3    142    ccc     C2   4327 -0.14571900  12.010000   ; qtot 141.134929
 4328         hc    142    ccc     H3   4328 0.08688100   1.008000   ; qtot 141.221810
 4329         hc    142    ccc     H4   4329 0.08688100   1.008000   ; qtot 141.308691
 4330         c3    142    ccc     C3   4330 0.12348100  12.010000   ; qtot 141.432172
 4331         hx    142    ccc     H5   4331 0.10638100   1.008000   ; qtot 141.538553
 4332         hx    142    ccc     H6   4332 0.10638100   1.008000   ; qtot 141.644934
 4333         n4    142    ccc     N1   4333 -0.69071900  14.010000   ; qtot 140.954215
 4334         c3    142    ccc     C4   4334 0.12498100  12.010000   ; qtot 141.079196
 4335         hx    142    ccc     H7   4335 0.12238100   1.008000   ; qtot 141.201577
 4336         hx    142    ccc     H8   4336 0.12238100   1.008000   ; qtot 141.323958
 4337         c3    142    ccc     C5   4337 -0.20771900  12.010000   ; qtot 141.116239
 4338         hc    142    ccc     H9   4338 0.11463100   1.008000   ; qtot 141.230870
 4339         hc    142    ccc    H10   4339 0.11463100   1.008000   ; qtot 141.345501
 4340          c    142    ccc     C6   4340 0.64078100  12.010000   ; qtot 141.986282
 4341          o    142    ccc     O1   4341 -0.49231900  16.000000   ; qtot 141.493963
 4342         oh    142    ccc     O2   4342 -0.51841900  16.000000   ; qtot 140.975544
 4343         ho    142    ccc    H11   4343 0.45318100   1.008000   ; qtot 141.428725
 4344         c3    142    ccc     C7   4344 0.12498100  12.010000   ; qtot 141.553706
 4345         hx    142    ccc    H12   4345 0.12238100   1.008000   ; qtot 141.676087
 4346         hx    142    ccc    H13   4346 0.12238100   1.008000   ; qtot 141.798468
 4347         c3    142    ccc     C8   4347 -0.20771900  12.010000   ; qtot 141.590749
 4348         hc    142    ccc    H14   4348 0.11463100   1.008000   ; qtot 141.705380
 4349         hc    142    ccc    H15   4349 0.11463100   1.008000   ; qtot 141.820011
 4350          c    142    ccc     C9   4350 0.64078100  12.010000   ; qtot 142.460792
 4351          o    142    ccc     O3   4351 -0.49231900  16.000000   ; qtot 141.968473
 4352         oh    142    ccc     O4   4352 -0.51841900  16.000000   ; qtot 141.450054
 4353         ho    142    ccc    H16   4353 0.45318100   1.008000   ; qtot 141.903235
 4354         os    142    ccc     O5   4354 -0.39491900  16.000000   ; qtot 141.508316
 4355         hn    142    ccc    H17   4355 0.49148100   1.008000   ; qtot 141.999797
; residue  143 ccc rtp ccc q 1.0
 4356         c3    143    ccc     C1   4356 0.14608100  12.010000   ; qtot 142.145878
 4357         h1    143    ccc     H1   4357 0.06738100   1.008000   ; qtot 142.213259
 4358         h1    143    ccc     H2   4358 0.06738100   1.008000   ; qtot 142.280640
 4359         c3    143    ccc     C2   4359 -0.14571900  12.010000   ; qtot 142.134921
 4360         hc    143    ccc     H3   4360 0.08688100   1.008000   ; qtot 142.221802
 4361         hc    143    ccc     H4   4361 0.08688100   1.008000   ; qtot 142.308683
 4362         c3    143    ccc     C3   4362 0.12348100  12.010000   ; qtot 142.432164
 4363         hx    143    ccc     H5   4363 0.10638100   1.008000   ; qtot 142.538545
 4364         hx    143    ccc     H6   4364 0.10638100   1.008000   ; qtot 142.644926
 4365         n4    143    ccc     N1   4365 -0.69071900  14.010000   ; qtot 141.954207
 4366         c3    143    ccc     C4   4366 0.12498100  12.010000   ; qtot 142.079188
 4367         hx    143    ccc     H7   4367 0.12238100   1.008000   ; qtot 142.201569
 4368         hx    143    ccc     H8   4368 0.12238100   1.008000   ; qtot 142.323950
 4369         c3    143    ccc     C5   4369 -0.20771900  12.010000   ; qtot 142.116231
 4370         hc    143    ccc     H9   4370 0.11463100   1.008000   ; qtot 142.230862
 4371         hc    143    ccc    H10   4371 0.11463100   1.008000   ; qtot 142.345493
 4372          c    143    ccc     C6   4372 0.64078100  12.010000   ; qtot 142.986274
 4373          o    143    ccc     O1   4373 -0.49231900  16.000000   ; qtot 142.493955
 4374         oh    143    ccc     O2   4374 -0.51841900  16.000000   ; qtot 141.975536
 4375         ho    143    ccc    H11   4375 0.45318100   1.008000   ; qtot 142.428717
 4376         c3    143    ccc     C7   4376 0.12498100  12.010000   ; qtot 142.553698
 4377         hx    143    ccc    H12   4377 0.12238100   1.008000   ; qtot 142.676079
 4378         hx    143    ccc    H13   4378 0.12238100   1.008000   ; qtot 142.798460
 4379         c3    143    ccc     C8   4379 -0.20771900  12.010000   ; qtot 142.590741
 4380         hc    143    ccc    H14   4380 0.11463100   1.008000   ; qtot 142.705372
 4381         hc    143    ccc    H15   4381 0.11463100   1.008000   ; qtot 142.820003
 4382          c    143    ccc     C9   4382 0.64078100  12.010000   ; qtot 143.460784
 4383          o    143    ccc     O3   4383 -0.49231900  16.000000   ; qtot 142.968465
 4384         oh    143    ccc     O4   4384 -0.51841900  16.000000   ; qtot 142.450046
 4385         ho    143    ccc    H16   4385 0.45318100   1.008000   ; qtot 142.903227
 4386         os    143    ccc     O5   4386 -0.39491900  16.000000   ; qtot 142.508308
 4387         hn    143    ccc    H17   4387 0.49148100   1.008000   ; qtot 142.999789
; residue  144 ccc rtp ccc q 1.0
 4388         c3    144    ccc     C1   4388 0.14608100  12.010000   ; qtot 143.145870
 4389         h1    144    ccc     H1   4389 0.06738100   1.008000   ; qtot 143.213251
 4390         h1    144    ccc     H2   4390 0.06738100   1.008000   ; qtot 143.280632
 4391         c3    144    ccc     C2   4391 -0.14571900  12.010000   ; qtot 143.134913
 4392         hc    144    ccc     H3   4392 0.08688100   1.008000   ; qtot 143.221794
 4393         hc    144    ccc     H4   4393 0.08688100   1.008000   ; qtot 143.308675
 4394         c3    144    ccc     C3   4394 0.12348100  12.010000   ; qtot 143.432156
 4395         hx    144    ccc     H5   4395 0.10638100   1.008000   ; qtot 143.538537
 4396         hx    144    ccc     H6   4396 0.10638100   1.008000   ; qtot 143.644918
 4397         n4    144    ccc     N1   4397 -0.69071900  14.010000   ; qtot 142.954199
 4398         c3    144    ccc     C4   4398 0.12498100  12.010000   ; qtot 143.079180
 4399         hx    144    ccc     H7   4399 0.12238100   1.008000   ; qtot 143.201561
 4400         hx    144    ccc     H8   4400 0.12238100   1.008000   ; qtot 143.323942
 4401         c3    144    ccc     C5   4401 -0.20771900  12.010000   ; qtot 143.116223
 4402         hc    144    ccc     H9   4402 0.11463100   1.008000   ; qtot 143.230854
 4403         hc    144    ccc    H10   4403 0.11463100   1.008000   ; qtot 143.345485
 4404          c    144    ccc     C6   4404 0.64078100  12.010000   ; qtot 143.986266
 4405          o    144    ccc     O1   4405 -0.49231900  16.000000   ; qtot 143.493947
 4406         oh    144    ccc     O2   4406 -0.51841900  16.000000   ; qtot 142.975528
 4407         ho    144    ccc    H11   4407 0.45318100   1.008000   ; qtot 143.428709
 4408         c3    144    ccc     C7   4408 0.12498100  12.010000   ; qtot 143.553690
 4409         hx    144    ccc    H12   4409 0.12238100   1.008000   ; qtot 143.676071
 4410         hx    144    ccc    H13   4410 0.12238100   1.008000   ; qtot 143.798452
 4411         c3    144    ccc     C8   4411 -0.20771900  12.010000   ; qtot 143.590733
 4412         hc    144    ccc    H14   4412 0.11463100   1.008000   ; qtot 143.705364
 4413         hc    144    ccc    H15   4413 0.11463100   1.008000   ; qtot 143.819995
 4414          c    144    ccc     C9   4414 0.64078100  12.010000   ; qtot 144.460776
 4415          o    144    ccc     O3   4415 -0.49231900  16.000000   ; qtot 143.968457
 4416         oh    144    ccc     O4   4416 -0.51841900  16.000000   ; qtot 143.450038
 4417         ho    144    ccc    H16   4417 0.45318100   1.008000   ; qtot 143.903219
 4418         os    144    ccc     O5   4418 -0.39491900  16.000000   ; qtot 143.508300
 4419         hn    144    ccc    H17   4419 0.49148100   1.008000   ; qtot 143.999781
; residue  145 ccc rtp ccc q 1.0
 4420         c3    145    ccc     C1   4420 0.14608100  12.010000   ; qtot 144.145862
 4421         h1    145    ccc     H1   4421 0.06738100   1.008000   ; qtot 144.213243
 4422         h1    145    ccc     H2   4422 0.06738100   1.008000   ; qtot 144.280624
 4423         c3    145    ccc     C2   4423 -0.14571900  12.010000   ; qtot 144.134905
 4424         hc    145    ccc     H3   4424 0.08688100   1.008000   ; qtot 144.221786
 4425         hc    145    ccc     H4   4425 0.08688100   1.008000   ; qtot 144.308667
 4426         c3    145    ccc     C3   4426 0.12348100  12.010000   ; qtot 144.432148
 4427         hx    145    ccc     H5   4427 0.10638100   1.008000   ; qtot 144.538529
 4428         hx    145    ccc     H6   4428 0.10638100   1.008000   ; qtot 144.644910
 4429         n4    145    ccc     N1   4429 -0.69071900  14.010000   ; qtot 143.954191
 4430         c3    145    ccc     C4   4430 0.12498100  12.010000   ; qtot 144.079172
 4431         hx    145    ccc     H7   4431 0.12238100   1.008000   ; qtot 144.201553
 4432         hx    145    ccc     H8   4432 0.12238100   1.008000   ; qtot 144.323934
 4433         c3    145    ccc     C5   4433 -0.20771900  12.010000   ; qtot 144.116215
 4434         hc    145    ccc     H9   4434 0.11463100   1.008000   ; qtot 144.230846
 4435         hc    145    ccc    H10   4435 0.11463100   1.008000   ; qtot 144.345477
 4436          c    145    ccc     C6   4436 0.64078100  12.010000   ; qtot 144.986258
 4437          o    145    ccc     O1   4437 -0.49231900  16.000000   ; qtot 144.493939
 4438         oh    145    ccc     O2   4438 -0.51841900  16.000000   ; qtot 143.975520
 4439         ho    145    ccc    H11   4439 0.45318100   1.008000   ; qtot 144.428701
 4440         c3    145    ccc     C7   4440 0.12498100  12.010000   ; qtot 144.553682
 4441         hx    145    ccc    H12   4441 0.12238100   1.008000   ; qtot 144.676063
 4442         hx    145    ccc    H13   4442 0.12238100   1.008000   ; qtot 144.798444
 4443         c3    145    ccc     C8   4443 -0.20771900  12.010000   ; qtot 144.590725
 4444         hc    145    ccc    H14   4444 0.11463100   1.008000   ; qtot 144.705356
 4445         hc    145    ccc    H15   4445 0.11463100   1.008000   ; qtot 144.819987
 4446          c    145    ccc     C9   4446 0.64078100  12.010000   ; qtot 145.460768
 4447          o    145    ccc     O3   4447 -0.49231900  16.000000   ; qtot 144.968449
 4448         oh    145    ccc     O4   4448 -0.51841900  16.000000   ; qtot 144.450030
 4449         ho    145    ccc    H16   4449 0.45318100   1.008000   ; qtot 144.903211
 4450         os    145    ccc     O5   4450 -0.39491900  16.000000   ; qtot 144.508292
 4451         hn    145    ccc    H17   4451 0.49148100   1.008000   ; qtot 144.999773
; residue  146 ccc rtp ccc q 1.0
 4452         c3    146    ccc     C1   4452 0.14608100  12.010000   ; qtot 145.145854
 4453         h1    146    ccc     H1   4453 0.06738100   1.008000   ; qtot 145.213235
 4454         h1    146    ccc     H2   4454 0.06738100   1.008000   ; qtot 145.280616
 4455         c3    146    ccc     C2   4455 -0.14571900  12.010000   ; qtot 145.134897
 4456         hc    146    ccc     H3   4456 0.08688100   1.008000   ; qtot 145.221778
 4457         hc    146    ccc     H4   4457 0.08688100   1.008000   ; qtot 145.308659
 4458         c3    146    ccc     C3   4458 0.12348100  12.010000   ; qtot 145.432140
 4459         hx    146    ccc     H5   4459 0.10638100   1.008000   ; qtot 145.538521
 4460         hx    146    ccc     H6   4460 0.10638100   1.008000   ; qtot 145.644902
 4461         n4    146    ccc     N1   4461 -0.69071900  14.010000   ; qtot 144.954183
 4462         c3    146    ccc     C4   4462 0.12498100  12.010000   ; qtot 145.079164
 4463         hx    146    ccc     H7   4463 0.12238100   1.008000   ; qtot 145.201545
 4464         hx    146    ccc     H8   4464 0.12238100   1.008000   ; qtot 145.323926
 4465         c3    146    ccc     C5   4465 -0.20771900  12.010000   ; qtot 145.116207
 4466         hc    146    ccc     H9   4466 0.11463100   1.008000   ; qtot 145.230838
 4467         hc    146    ccc    H10   4467 0.11463100   1.008000   ; qtot 145.345469
 4468          c    146    ccc     C6   4468 0.64078100  12.010000   ; qtot 145.986250
 4469          o    146    ccc     O1   4469 -0.49231900  16.000000   ; qtot 145.493931
 4470         oh    146    ccc     O2   4470 -0.51841900  16.000000   ; qtot 144.975512
 4471         ho    146    ccc    H11   4471 0.45318100   1.008000   ; qtot 145.428693
 4472         c3    146    ccc     C7   4472 0.12498100  12.010000   ; qtot 145.553674
 4473         hx    146    ccc    H12   4473 0.12238100   1.008000   ; qtot 145.676055
 4474         hx    146    ccc    H13   4474 0.12238100   1.008000   ; qtot 145.798436
 4475         c3    146    ccc     C8   4475 -0.20771900  12.010000   ; qtot 145.590717
 4476         hc    146    ccc    H14   4476 0.11463100   1.008000   ; qtot 145.705348
 4477         hc    146    ccc    H15   4477 0.11463100   1.008000   ; qtot 145.819979
 4478          c    146    ccc     C9   4478 0.64078100  12.010000   ; qtot 146.460760
 4479          o    146    ccc     O3   4479 -0.49231900  16.000000   ; qtot 145.968441
 4480         oh    146    ccc     O4   4480 -0.51841900  16.000000   ; qtot 145.450022
 4481         ho    146    ccc    H16   4481 0.45318100   1.008000   ; qtot 145.903203
 4482         os    146    ccc     O5   4482 -0.39491900  16.000000   ; qtot 145.508284
 4483         hn    146    ccc    H17   4483 0.49148100   1.008000   ; qtot 145.999765
; residue  147 ccc rtp ccc q 1.0
 4484         c3    147    ccc     C1   4484 0.14608100  12.010000   ; qtot 146.145846
 4485         h1    147    ccc     H1   4485 0.06738100   1.008000   ; qtot 146.213227
 4486         h1    147    ccc     H2   4486 0.06738100   1.008000   ; qtot 146.280608
 4487         c3    147    ccc     C2   4487 -0.14571900  12.010000   ; qtot 146.134889
 4488         hc    147    ccc     H3   4488 0.08688100   1.008000   ; qtot 146.221770
 4489         hc    147    ccc     H4   4489 0.08688100   1.008000   ; qtot 146.308651
 4490         c3    147    ccc     C3   4490 0.12348100  12.010000   ; qtot 146.432132
 4491         hx    147    ccc     H5   4491 0.10638100   1.008000   ; qtot 146.538513
 4492         hx    147    ccc     H6   4492 0.10638100   1.008000   ; qtot 146.644894
 4493         n4    147    ccc     N1   4493 -0.69071900  14.010000   ; qtot 145.954175
 4494         c3    147    ccc     C4   4494 0.12498100  12.010000   ; qtot 146.079156
 4495         hx    147    ccc     H7   4495 0.12238100   1.008000   ; qtot 146.201537
 4496         hx    147    ccc     H8   4496 0.12238100   1.008000   ; qtot 146.323918
 4497         c3    147    ccc     C5   4497 -0.20771900  12.010000   ; qtot 146.116199
 4498         hc    147    ccc     H9   4498 0.11463100   1.008000   ; qtot 146.230830
 4499         hc    147    ccc    H10   4499 0.11463100   1.008000   ; qtot 146.345461
 4500          c    147    ccc     C6   4500 0.64078100  12.010000   ; qtot 146.986242
 4501          o    147    ccc     O1   4501 -0.49231900  16.000000   ; qtot 146.493923
 4502         oh    147    ccc     O2   4502 -0.51841900  16.000000   ; qtot 145.975504
 4503         ho    147    ccc    H11   4503 0.45318100   1.008000   ; qtot 146.428685
 4504         c3    147    ccc     C7   4504 0.12498100  12.010000   ; qtot 146.553666
 4505         hx    147    ccc    H12   4505 0.12238100   1.008000   ; qtot 146.676047
 4506         hx    147    ccc    H13   4506 0.12238100   1.008000   ; qtot 146.798428
 4507         c3    147    ccc     C8   4507 -0.20771900  12.010000   ; qtot 146.590709
 4508         hc    147    ccc    H14   4508 0.11463100   1.008000   ; qtot 146.705340
 4509         hc    147    ccc    H15   4509 0.11463100   1.008000   ; qtot 146.819971
 4510          c    147    ccc     C9   4510 0.64078100  12.010000   ; qtot 147.460752
 4511          o    147    ccc     O3   4511 -0.49231900  16.000000   ; qtot 146.968433
 4512         oh    147    ccc     O4   4512 -0.51841900  16.000000   ; qtot 146.450014
 4513         ho    147    ccc    H16   4513 0.45318100   1.008000   ; qtot 146.903195
 4514         os    147    ccc     O5   4514 -0.39491900  16.000000   ; qtot 146.508276
 4515         hn    147    ccc    H17   4515 0.49148100   1.008000   ; qtot 146.999757
; residue  148 ccc rtp ccc q 1.0
 4516         c3    148    ccc     C1   4516 0.14608100  12.010000   ; qtot 147.145838
 4517         h1    148    ccc     H1   4517 0.06738100   1.008000   ; qtot 147.213219
 4518         h1    148    ccc     H2   4518 0.06738100   1.008000   ; qtot 147.280600
 4519         c3    148    ccc     C2   4519 -0.14571900  12.010000   ; qtot 147.134881
 4520         hc    148    ccc     H3   4520 0.08688100   1.008000   ; qtot 147.221762
 4521         hc    148    ccc     H4   4521 0.08688100   1.008000   ; qtot 147.308643
 4522         c3    148    ccc     C3   4522 0.12348100  12.010000   ; qtot 147.432124
 4523         hx    148    ccc     H5   4523 0.10638100   1.008000   ; qtot 147.538505
 4524         hx    148    ccc     H6   4524 0.10638100   1.008000   ; qtot 147.644886
 4525         n4    148    ccc     N1   4525 -0.69071900  14.010000   ; qtot 146.954167
 4526         c3    148    ccc     C4   4526 0.12498100  12.010000   ; qtot 147.079148
 4527         hx    148    ccc     H7   4527 0.12238100   1.008000   ; qtot 147.201529
 4528         hx    148    ccc     H8   4528 0.12238100   1.008000   ; qtot 147.323910
 4529         c3    148    ccc     C5   4529 -0.20771900  12.010000   ; qtot 147.116191
 4530         hc    148    ccc     H9   4530 0.11463100   1.008000   ; qtot 147.230822
 4531         hc    148    ccc    H10   4531 0.11463100   1.008000   ; qtot 147.345453
 4532          c    148    ccc     C6   4532 0.64078100  12.010000   ; qtot 147.986234
 4533          o    148    ccc     O1   4533 -0.49231900  16.000000   ; qtot 147.493915
 4534         oh    148    ccc     O2   4534 -0.51841900  16.000000   ; qtot 146.975496
 4535         ho    148    ccc    H11   4535 0.45318100   1.008000   ; qtot 147.428677
 4536         c3    148    ccc     C7   4536 0.12498100  12.010000   ; qtot 147.553658
 4537         hx    148    ccc    H12   4537 0.12238100   1.008000   ; qtot 147.676039
 4538         hx    148    ccc    H13   4538 0.12238100   1.008000   ; qtot 147.798420
 4539         c3    148    ccc     C8   4539 -0.20771900  12.010000   ; qtot 147.590701
 4540         hc    148    ccc    H14   4540 0.11463100   1.008000   ; qtot 147.705332
 4541         hc    148    ccc    H15   4541 0.11463100   1.008000   ; qtot 147.819963
 4542          c    148    ccc     C9   4542 0.64078100  12.010000   ; qtot 148.460744
 4543          o    148    ccc     O3   4543 -0.49231900  16.000000   ; qtot 147.968425
 4544         oh    148    ccc     O4   4544 -0.51841900  16.000000   ; qtot 147.450006
 4545         ho    148    ccc    H16   4545 0.45318100   1.008000   ; qtot 147.903187
 4546         os    148    ccc     O5   4546 -0.39491900  16.000000   ; qtot 147.508268
 4547         hn    148    ccc    H17   4547 0.49148100   1.008000   ; qtot 147.999749
; residue  149 ccc rtp ccc q 1.0
 4548         c3    149    ccc     C1   4548 0.14608100  12.010000   ; qtot 148.145830
 4549         h1    149    ccc     H1   4549 0.06738100   1.008000   ; qtot 148.213211
 4550         h1    149    ccc     H2   4550 0.06738100   1.008000   ; qtot 148.280592
 4551         c3    149    ccc     C2   4551 -0.14571900  12.010000   ; qtot 148.134873
 4552         hc    149    ccc     H3   4552 0.08688100   1.008000   ; qtot 148.221754
 4553         hc    149    ccc     H4   4553 0.08688100   1.008000   ; qtot 148.308635
 4554         c3    149    ccc     C3   4554 0.12348100  12.010000   ; qtot 148.432116
 4555         hx    149    ccc     H5   4555 0.10638100   1.008000   ; qtot 148.538497
 4556         hx    149    ccc     H6   4556 0.10638100   1.008000   ; qtot 148.644878
 4557         n4    149    ccc     N1   4557 -0.69071900  14.010000   ; qtot 147.954159
 4558         c3    149    ccc     C4   4558 0.12498100  12.010000   ; qtot 148.079140
 4559         hx    149    ccc     H7   4559 0.12238100   1.008000   ; qtot 148.201521
 4560         hx    149    ccc     H8   4560 0.12238100   1.008000   ; qtot 148.323902
 4561         c3    149    ccc     C5   4561 -0.20771900  12.010000   ; qtot 148.116183
 4562         hc    149    ccc     H9   4562 0.11463100   1.008000   ; qtot 148.230814
 4563         hc    149    ccc    H10   4563 0.11463100   1.008000   ; qtot 148.345445
 4564          c    149    ccc     C6   4564 0.64078100  12.010000   ; qtot 148.986226
 4565          o    149    ccc     O1   4565 -0.49231900  16.000000   ; qtot 148.493907
 4566         oh    149    ccc     O2   4566 -0.51841900  16.000000   ; qtot 147.975488
 4567         ho    149    ccc    H11   4567 0.45318100   1.008000   ; qtot 148.428669
 4568         c3    149    ccc     C7   4568 0.12498100  12.010000   ; qtot 148.553650
 4569         hx    149    ccc    H12   4569 0.12238100   1.008000   ; qtot 148.676031
 4570         hx    149    ccc    H13   4570 0.12238100   1.008000   ; qtot 148.798412
 4571         c3    149    ccc     C8   4571 -0.20771900  12.010000   ; qtot 148.590693
 4572         hc    149    ccc    H14   4572 0.11463100   1.008000   ; qtot 148.705324
 4573         hc    149    ccc    H15   4573 0.11463100   1.008000   ; qtot 148.819955
 4574          c    149    ccc     C9   4574 0.64078100  12.010000   ; qtot 149.460736
 4575          o    149    ccc     O3   4575 -0.49231900  16.000000   ; qtot 148.968417
 4576         oh    149    ccc     O4   4576 -0.51841900  16.000000   ; qtot 148.449998
 4577         ho    149    ccc    H16   4577 0.45318100   1.008000   ; qtot 148.903179
 4578         os    149    ccc     O5   4578 -0.39491900  16.000000   ; qtot 148.508260
 4579         hn    149    ccc    H17   4579 0.49148100   1.008000   ; qtot 148.999741
; residue  150 ccc rtp ccc q 1.0
 4580         c3    150    ccc     C1   4580 0.14608100  12.010000   ; qtot 149.145822
 4581         h1    150    ccc     H1   4581 0.06738100   1.008000   ; qtot 149.213203
 4582         h1    150    ccc     H2   4582 0.06738100   1.008000   ; qtot 149.280584
 4583         c3    150    ccc     C2   4583 -0.14571900  12.010000   ; qtot 149.134865
 4584         hc    150    ccc     H3   4584 0.08688100   1.008000   ; qtot 149.221746
 4585         hc    150    ccc     H4   4585 0.08688100   1.008000   ; qtot 149.308627
 4586         c3    150    ccc     C3   4586 0.12348100  12.010000   ; qtot 149.432108
 4587         hx    150    ccc     H5   4587 0.10638100   1.008000   ; qtot 149.538489
 4588         hx    150    ccc     H6   4588 0.10638100   1.008000   ; qtot 149.644870
 4589         n4    150    ccc     N1   4589 -0.69071900  14.010000   ; qtot 148.954151
 4590         c3    150    ccc     C4   4590 0.12498100  12.010000   ; qtot 149.079132
 4591         hx    150    ccc     H7   4591 0.12238100   1.008000   ; qtot 149.201513
 4592         hx    150    ccc     H8   4592 0.12238100   1.008000   ; qtot 149.323894
 4593         c3    150    ccc     C5   4593 -0.20771900  12.010000   ; qtot 149.116175
 4594         hc    150    ccc     H9   4594 0.11463100   1.008000   ; qtot 149.230806
 4595         hc    150    ccc    H10   4595 0.11463100   1.008000   ; qtot 149.345437
 4596          c    150    ccc     C6   4596 0.64078100  12.010000   ; qtot 149.986218
 4597          o    150    ccc     O1   4597 -0.49231900  16.000000   ; qtot 149.493899
 4598         oh    150    ccc     O2   4598 -0.51841900  16.000000   ; qtot 148.975480
 4599         ho    150    ccc    H11   4599 0.45318100   1.008000   ; qtot 149.428661
 4600         c3    150    ccc     C7   4600 0.12498100  12.010000   ; qtot 149.553642
 4601         hx    150    ccc    H12   4601 0.12238100   1.008000   ; qtot 149.676023
 4602         hx    150    ccc    H13   4602 0.12238100   1.008000   ; qtot 149.798404
 4603         c3    150    ccc     C8   4603 -0.20771900  12.010000   ; qtot 149.590685
 4604         hc    150    ccc    H14   4604 0.11463100   1.008000   ; qtot 149.705316
 4605         hc    150    ccc    H15   4605 0.11463100   1.008000   ; qtot 149.819947
 4606          c    150    ccc     C9   4606 0.64078100  12.010000   ; qtot 150.460728
 4607          o    150    ccc     O3   4607 -0.49231900  16.000000   ; qtot 149.968409
 4608         oh    150    ccc     O4   4608 -0.51841900  16.000000   ; qtot 149.449990
 4609         ho    150    ccc    H16   4609 0.45318100   1.008000   ; qtot 149.903171
 4610         os    150    ccc     O5   4610 -0.39491900  16.000000   ; qtot 149.508252
 4611         hn    150    ccc    H17   4611 0.49148100   1.008000   ; qtot 149.999733
; residue  151 ccc rtp ccc q 1.0
 4612         c3    151    ccc     C1   4612 0.14608100  12.010000   ; qtot 150.145814
 4613         h1    151    ccc     H1   4613 0.06738100   1.008000   ; qtot 150.213195
 4614         h1    151    ccc     H2   4614 0.06738100   1.008000   ; qtot 150.280576
 4615         c3    151    ccc     C2   4615 -0.14571900  12.010000   ; qtot 150.134857
 4616         hc    151    ccc     H3   4616 0.08688100   1.008000   ; qtot 150.221738
 4617         hc    151    ccc     H4   4617 0.08688100   1.008000   ; qtot 150.308619
 4618         c3    151    ccc     C3   4618 0.12348100  12.010000   ; qtot 150.432100
 4619         hx    151    ccc     H5   4619 0.10638100   1.008000   ; qtot 150.538481
 4620         hx    151    ccc     H6   4620 0.10638100   1.008000   ; qtot 150.644862
 4621         n4    151    ccc     N1   4621 -0.69071900  14.010000   ; qtot 149.954143
 4622         c3    151    ccc     C4   4622 0.12498100  12.010000   ; qtot 150.079124
 4623         hx    151    ccc     H7   4623 0.12238100   1.008000   ; qtot 150.201505
 4624         hx    151    ccc     H8   4624 0.12238100   1.008000   ; qtot 150.323886
 4625         c3    151    ccc     C5   4625 -0.20771900  12.010000   ; qtot 150.116167
 4626         hc    151    ccc     H9   4626 0.11463100   1.008000   ; qtot 150.230798
 4627         hc    151    ccc    H10   4627 0.11463100   1.008000   ; qtot 150.345429
 4628          c    151    ccc     C6   4628 0.64078100  12.010000   ; qtot 150.986210
 4629          o    151    ccc     O1   4629 -0.49231900  16.000000   ; qtot 150.493891
 4630         oh    151    ccc     O2   4630 -0.51841900  16.000000   ; qtot 149.975472
 4631         ho    151    ccc    H11   4631 0.45318100   1.008000   ; qtot 150.428653
 4632         c3    151    ccc     C7   4632 0.12498100  12.010000   ; qtot 150.553634
 4633         hx    151    ccc    H12   4633 0.12238100   1.008000   ; qtot 150.676015
 4634         hx    151    ccc    H13   4634 0.12238100   1.008000   ; qtot 150.798396
 4635         c3    151    ccc     C8   4635 -0.20771900  12.010000   ; qtot 150.590677
 4636         hc    151    ccc    H14   4636 0.11463100   1.008000   ; qtot 150.705308
 4637         hc    151    ccc    H15   4637 0.11463100   1.008000   ; qtot 150.819939
 4638          c    151    ccc     C9   4638 0.64078100  12.010000   ; qtot 151.460720
 4639          o    151    ccc     O3   4639 -0.49231900  16.000000   ; qtot 150.968401
 4640         oh    151    ccc     O4   4640 -0.51841900  16.000000   ; qtot 150.449982
 4641         ho    151    ccc    H16   4641 0.45318100   1.008000   ; qtot 150.903163
 4642         os    151    ccc     O5   4642 -0.39491900  16.000000   ; qtot 150.508244
 4643         hn    151    ccc    H17   4643 0.49148100   1.008000   ; qtot 150.999725
; residue  152 ccc rtp ccc q 1.0
 4644         c3    152    ccc     C1   4644 0.14608100  12.010000   ; qtot 151.145806
 4645         h1    152    ccc     H1   4645 0.06738100   1.008000   ; qtot 151.213187
 4646         h1    152    ccc     H2   4646 0.06738100   1.008000   ; qtot 151.280568
 4647         c3    152    ccc     C2   4647 -0.14571900  12.010000   ; qtot 151.134849
 4648         hc    152    ccc     H3   4648 0.08688100   1.008000   ; qtot 151.221730
 4649         hc    152    ccc     H4   4649 0.08688100   1.008000   ; qtot 151.308611
 4650         c3    152    ccc     C3   4650 0.12348100  12.010000   ; qtot 151.432092
 4651         hx    152    ccc     H5   4651 0.10638100   1.008000   ; qtot 151.538473
 4652         hx    152    ccc     H6   4652 0.10638100   1.008000   ; qtot 151.644854
 4653         n4    152    ccc     N1   4653 -0.69071900  14.010000   ; qtot 150.954135
 4654         c3    152    ccc     C4   4654 0.12498100  12.010000   ; qtot 151.079116
 4655         hx    152    ccc     H7   4655 0.12238100   1.008000   ; qtot 151.201497
 4656         hx    152    ccc     H8   4656 0.12238100   1.008000   ; qtot 151.323878
 4657         c3    152    ccc     C5   4657 -0.20771900  12.010000   ; qtot 151.116159
 4658         hc    152    ccc     H9   4658 0.11463100   1.008000   ; qtot 151.230790
 4659         hc    152    ccc    H10   4659 0.11463100   1.008000   ; qtot 151.345421
 4660          c    152    ccc     C6   4660 0.64078100  12.010000   ; qtot 151.986202
 4661          o    152    ccc     O1   4661 -0.49231900  16.000000   ; qtot 151.493883
 4662         oh    152    ccc     O2   4662 -0.51841900  16.000000   ; qtot 150.975464
 4663         ho    152    ccc    H11   4663 0.45318100   1.008000   ; qtot 151.428645
 4664         c3    152    ccc     C7   4664 0.12498100  12.010000   ; qtot 151.553626
 4665         hx    152    ccc    H12   4665 0.12238100   1.008000   ; qtot 151.676007
 4666         hx    152    ccc    H13   4666 0.12238100   1.008000   ; qtot 151.798388
 4667         c3    152    ccc     C8   4667 -0.20771900  12.010000   ; qtot 151.590669
 4668         hc    152    ccc    H14   4668 0.11463100   1.008000   ; qtot 151.705300
 4669         hc    152    ccc    H15   4669 0.11463100   1.008000   ; qtot 151.819931
 4670          c    152    ccc     C9   4670 0.64078100  12.010000   ; qtot 152.460712
 4671          o    152    ccc     O3   4671 -0.49231900  16.000000   ; qtot 151.968393
 4672         oh    152    ccc     O4   4672 -0.51841900  16.000000   ; qtot 151.449974
 4673         ho    152    ccc    H16   4673 0.45318100   1.008000   ; qtot 151.903155
 4674         os    152    ccc     O5   4674 -0.39491900  16.000000   ; qtot 151.508236
 4675         hn    152    ccc    H17   4675 0.49148100   1.008000   ; qtot 151.999717
; residue  153 ccc rtp ccc q 1.0
 4676         c3    153    ccc     C1   4676 0.14608100  12.010000   ; qtot 152.145798
 4677         h1    153    ccc     H1   4677 0.06738100   1.008000   ; qtot 152.213179
 4678         h1    153    ccc     H2   4678 0.06738100   1.008000   ; qtot 152.280560
 4679         c3    153    ccc     C2   4679 -0.14571900  12.010000   ; qtot 152.134841
 4680         hc    153    ccc     H3   4680 0.08688100   1.008000   ; qtot 152.221722
 4681         hc    153    ccc     H4   4681 0.08688100   1.008000   ; qtot 152.308603
 4682         c3    153    ccc     C3   4682 0.12348100  12.010000   ; qtot 152.432084
 4683         hx    153    ccc     H5   4683 0.10638100   1.008000   ; qtot 152.538465
 4684         hx    153    ccc     H6   4684 0.10638100   1.008000   ; qtot 152.644846
 4685         n4    153    ccc     N1   4685 -0.69071900  14.010000   ; qtot 151.954127
 4686         c3    153    ccc     C4   4686 0.12498100  12.010000   ; qtot 152.079108
 4687         hx    153    ccc     H7   4687 0.12238100   1.008000   ; qtot 152.201489
 4688         hx    153    ccc     H8   4688 0.12238100   1.008000   ; qtot 152.323870
 4689         c3    153    ccc     C5   4689 -0.20771900  12.010000   ; qtot 152.116151
 4690         hc    153    ccc     H9   4690 0.11463100   1.008000   ; qtot 152.230782
 4691         hc    153    ccc    H10   4691 0.11463100   1.008000   ; qtot 152.345413
 4692          c    153    ccc     C6   4692 0.64078100  12.010000   ; qtot 152.986194
 4693          o    153    ccc     O1   4693 -0.49231900  16.000000   ; qtot 152.493875
 4694         oh    153    ccc     O2   4694 -0.51841900  16.000000   ; qtot 151.975456
 4695         ho    153    ccc    H11   4695 0.45318100   1.008000   ; qtot 152.428637
 4696         c3    153    ccc     C7   4696 0.12498100  12.010000   ; qtot 152.553618
 4697         hx    153    ccc    H12   4697 0.12238100   1.008000   ; qtot 152.675999
 4698         hx    153    ccc    H13   4698 0.12238100   1.008000   ; qtot 152.798380
 4699         c3    153    ccc     C8   4699 -0.20771900  12.010000   ; qtot 152.590661
 4700         hc    153    ccc    H14   4700 0.11463100   1.008000   ; qtot 152.705292
 4701         hc    153    ccc    H15   4701 0.11463100   1.008000   ; qtot 152.819923
 4702          c    153    ccc     C9   4702 0.64078100  12.010000   ; qtot 153.460704
 4703          o    153    ccc     O3   4703 -0.49231900  16.000000   ; qtot 152.968385
 4704         oh    153    ccc     O4   4704 -0.51841900  16.000000   ; qtot 152.449966
 4705         ho    153    ccc    H16   4705 0.45318100   1.008000   ; qtot 152.903147
 4706         os    153    ccc     O5   4706 -0.39491900  16.000000   ; qtot 152.508228
 4707         hn    153    ccc    H17   4707 0.49148100   1.008000   ; qtot 152.999709
; residue  154 ccc rtp ccc q 1.0
 4708         c3    154    ccc     C1   4708 0.14608100  12.010000   ; qtot 153.145790
 4709         h1    154    ccc     H1   4709 0.06738100   1.008000   ; qtot 153.213171
 4710         h1    154    ccc     H2   4710 0.06738100   1.008000   ; qtot 153.280552
 4711         c3    154    ccc     C2   4711 -0.14571900  12.010000   ; qtot 153.134833
 4712         hc    154    ccc     H3   4712 0.08688100   1.008000   ; qtot 153.221714
 4713         hc    154    ccc     H4   4713 0.08688100   1.008000   ; qtot 153.308595
 4714         c3    154    ccc     C3   4714 0.12348100  12.010000   ; qtot 153.432076
 4715         hx    154    ccc     H5   4715 0.10638100   1.008000   ; qtot 153.538457
 4716         hx    154    ccc     H6   4716 0.10638100   1.008000   ; qtot 153.644838
 4717         n4    154    ccc     N1   4717 -0.69071900  14.010000   ; qtot 152.954119
 4718         c3    154    ccc     C4   4718 0.12498100  12.010000   ; qtot 153.079100
 4719         hx    154    ccc     H7   4719 0.12238100   1.008000   ; qtot 153.201481
 4720         hx    154    ccc     H8   4720 0.12238100   1.008000   ; qtot 153.323862
 4721         c3    154    ccc     C5   4721 -0.20771900  12.010000   ; qtot 153.116143
 4722         hc    154    ccc     H9   4722 0.11463100   1.008000   ; qtot 153.230774
 4723         hc    154    ccc    H10   4723 0.11463100   1.008000   ; qtot 153.345405
 4724          c    154    ccc     C6   4724 0.64078100  12.010000   ; qtot 153.986186
 4725          o    154    ccc     O1   4725 -0.49231900  16.000000   ; qtot 153.493867
 4726         oh    154    ccc     O2   4726 -0.51841900  16.000000   ; qtot 152.975448
 4727         ho    154    ccc    H11   4727 0.45318100   1.008000   ; qtot 153.428629
 4728         c3    154    ccc     C7   4728 0.12498100  12.010000   ; qtot 153.553610
 4729         hx    154    ccc    H12   4729 0.12238100   1.008000   ; qtot 153.675991
 4730         hx    154    ccc    H13   4730 0.12238100   1.008000   ; qtot 153.798372
 4731         c3    154    ccc     C8   4731 -0.20771900  12.010000   ; qtot 153.590653
 4732         hc    154    ccc    H14   4732 0.11463100   1.008000   ; qtot 153.705284
 4733         hc    154    ccc    H15   4733 0.11463100   1.008000   ; qtot 153.819915
 4734          c    154    ccc     C9   4734 0.64078100  12.010000   ; qtot 154.460696
 4735          o    154    ccc     O3   4735 -0.49231900  16.000000   ; qtot 153.968377
 4736         oh    154    ccc     O4   4736 -0.51841900  16.000000   ; qtot 153.449958
 4737         ho    154    ccc    H16   4737 0.45318100   1.008000   ; qtot 153.903139
 4738         os    154    ccc     O5   4738 -0.39491900  16.000000   ; qtot 153.508220
 4739         hn    154    ccc    H17   4739 0.49148100   1.008000   ; qtot 153.999701
; residue  155 ccc rtp ccc q 1.0
 4740         c3    155    ccc     C1   4740 0.14608100  12.010000   ; qtot 154.145782
 4741         h1    155    ccc     H1   4741 0.06738100   1.008000   ; qtot 154.213163
 4742         h1    155    ccc     H2   4742 0.06738100   1.008000   ; qtot 154.280544
 4743         c3    155    ccc     C2   4743 -0.14571900  12.010000   ; qtot 154.134825
 4744         hc    155    ccc     H3   4744 0.08688100   1.008000   ; qtot 154.221706
 4745         hc    155    ccc     H4   4745 0.08688100   1.008000   ; qtot 154.308587
 4746         c3    155    ccc     C3   4746 0.12348100  12.010000   ; qtot 154.432068
 4747         hx    155    ccc     H5   4747 0.10638100   1.008000   ; qtot 154.538449
 4748         hx    155    ccc     H6   4748 0.10638100   1.008000   ; qtot 154.644830
 4749         n4    155    ccc     N1   4749 -0.69071900  14.010000   ; qtot 153.954111
 4750         c3    155    ccc     C4   4750 0.12498100  12.010000   ; qtot 154.079092
 4751         hx    155    ccc     H7   4751 0.12238100   1.008000   ; qtot 154.201473
 4752         hx    155    ccc     H8   4752 0.12238100   1.008000   ; qtot 154.323854
 4753         c3    155    ccc     C5   4753 -0.20771900  12.010000   ; qtot 154.116135
 4754         hc    155    ccc     H9   4754 0.11463100   1.008000   ; qtot 154.230766
 4755         hc    155    ccc    H10   4755 0.11463100   1.008000   ; qtot 154.345397
 4756          c    155    ccc     C6   4756 0.64078100  12.010000   ; qtot 154.986178
 4757          o    155    ccc     O1   4757 -0.49231900  16.000000   ; qtot 154.493859
 4758         oh    155    ccc     O2   4758 -0.51841900  16.000000   ; qtot 153.975440
 4759         ho    155    ccc    H11   4759 0.45318100   1.008000   ; qtot 154.428621
 4760         c3    155    ccc     C7   4760 0.12498100  12.010000   ; qtot 154.553602
 4761         hx    155    ccc    H12   4761 0.12238100   1.008000   ; qtot 154.675983
 4762         hx    155    ccc    H13   4762 0.12238100   1.008000   ; qtot 154.798364
 4763         c3    155    ccc     C8   4763 -0.20771900  12.010000   ; qtot 154.590645
 4764         hc    155    ccc    H14   4764 0.11463100   1.008000   ; qtot 154.705276
 4765         hc    155    ccc    H15   4765 0.11463100   1.008000   ; qtot 154.819907
 4766          c    155    ccc     C9   4766 0.64078100  12.010000   ; qtot 155.460688
 4767          o    155    ccc     O3   4767 -0.49231900  16.000000   ; qtot 154.968369
 4768         oh    155    ccc     O4   4768 -0.51841900  16.000000   ; qtot 154.449950
 4769         ho    155    ccc    H16   4769 0.45318100   1.008000   ; qtot 154.903131
 4770         os    155    ccc     O5   4770 -0.39491900  16.000000   ; qtot 154.508212
 4771         hn    155    ccc    H17   4771 0.49148100   1.008000   ; qtot 154.999693
; residue  156 ccc rtp ccc q 1.0
 4772         c3    156    ccc     C1   4772 0.14608100  12.010000   ; qtot 155.145774
 4773         h1    156    ccc     H1   4773 0.06738100   1.008000   ; qtot 155.213155
 4774         h1    156    ccc     H2   4774 0.06738100   1.008000   ; qtot 155.280536
 4775         c3    156    ccc     C2   4775 -0.14571900  12.010000   ; qtot 155.134817
 4776         hc    156    ccc     H3   4776 0.08688100   1.008000   ; qtot 155.221698
 4777         hc    156    ccc     H4   4777 0.08688100   1.008000   ; qtot 155.308579
 4778         c3    156    ccc     C3   4778 0.12348100  12.010000   ; qtot 155.432060
 4779         hx    156    ccc     H5   4779 0.10638100   1.008000   ; qtot 155.538441
 4780         hx    156    ccc     H6   4780 0.10638100   1.008000   ; qtot 155.644822
 4781         n4    156    ccc     N1   4781 -0.69071900  14.010000   ; qtot 154.954103
 4782         c3    156    ccc     C4   4782 0.12498100  12.010000   ; qtot 155.079084
 4783         hx    156    ccc     H7   4783 0.12238100   1.008000   ; qtot 155.201465
 4784         hx    156    ccc     H8   4784 0.12238100   1.008000   ; qtot 155.323846
 4785         c3    156    ccc     C5   4785 -0.20771900  12.010000   ; qtot 155.116127
 4786         hc    156    ccc     H9   4786 0.11463100   1.008000   ; qtot 155.230758
 4787         hc    156    ccc    H10   4787 0.11463100   1.008000   ; qtot 155.345389
 4788          c    156    ccc     C6   4788 0.64078100  12.010000   ; qtot 155.986170
 4789          o    156    ccc     O1   4789 -0.49231900  16.000000   ; qtot 155.493851
 4790         oh    156    ccc     O2   4790 -0.51841900  16.000000   ; qtot 154.975432
 4791         ho    156    ccc    H11   4791 0.45318100   1.008000   ; qtot 155.428613
 4792         c3    156    ccc     C7   4792 0.12498100  12.010000   ; qtot 155.553594
 4793         hx    156    ccc    H12   4793 0.12238100   1.008000   ; qtot 155.675975
 4794         hx    156    ccc    H13   4794 0.12238100   1.008000   ; qtot 155.798356
 4795         c3    156    ccc     C8   4795 -0.20771900  12.010000   ; qtot 155.590637
 4796         hc    156    ccc    H14   4796 0.11463100   1.008000   ; qtot 155.705268
 4797         hc    156    ccc    H15   4797 0.11463100   1.008000   ; qtot 155.819899
 4798          c    156    ccc     C9   4798 0.64078100  12.010000   ; qtot 156.460680
 4799          o    156    ccc     O3   4799 -0.49231900  16.000000   ; qtot 155.968361
 4800         oh    156    ccc     O4   4800 -0.51841900  16.000000   ; qtot 155.449942
 4801         ho    156    ccc    H16   4801 0.45318100   1.008000   ; qtot 155.903123
 4802         os    156    ccc     O5   4802 -0.39491900  16.000000   ; qtot 155.508204
 4803         hn    156    ccc    H17   4803 0.49148100   1.008000   ; qtot 155.999685
; residue  157 ccc rtp ccc q 1.0
 4804         c3    157    ccc     C1   4804 0.14608100  12.010000   ; qtot 156.145766
 4805         h1    157    ccc     H1   4805 0.06738100   1.008000   ; qtot 156.213147
 4806         h1    157    ccc     H2   4806 0.06738100   1.008000   ; qtot 156.280528
 4807         c3    157    ccc     C2   4807 -0.14571900  12.010000   ; qtot 156.134809
 4808         hc    157    ccc     H3   4808 0.08688100   1.008000   ; qtot 156.221690
 4809         hc    157    ccc     H4   4809 0.08688100   1.008000   ; qtot 156.308571
 4810         c3    157    ccc     C3   4810 0.12348100  12.010000   ; qtot 156.432052
 4811         hx    157    ccc     H5   4811 0.10638100   1.008000   ; qtot 156.538433
 4812         hx    157    ccc     H6   4812 0.10638100   1.008000   ; qtot 156.644814
 4813         n4    157    ccc     N1   4813 -0.69071900  14.010000   ; qtot 155.954095
 4814         c3    157    ccc     C4   4814 0.12498100  12.010000   ; qtot 156.079076
 4815         hx    157    ccc     H7   4815 0.12238100   1.008000   ; qtot 156.201457
 4816         hx    157    ccc     H8   4816 0.12238100   1.008000   ; qtot 156.323838
 4817         c3    157    ccc     C5   4817 -0.20771900  12.010000   ; qtot 156.116119
 4818         hc    157    ccc     H9   4818 0.11463100   1.008000   ; qtot 156.230750
 4819         hc    157    ccc    H10   4819 0.11463100   1.008000   ; qtot 156.345381
 4820          c    157    ccc     C6   4820 0.64078100  12.010000   ; qtot 156.986162
 4821          o    157    ccc     O1   4821 -0.49231900  16.000000   ; qtot 156.493843
 4822         oh    157    ccc     O2   4822 -0.51841900  16.000000   ; qtot 155.975424
 4823         ho    157    ccc    H11   4823 0.45318100   1.008000   ; qtot 156.428605
 4824         c3    157    ccc     C7   4824 0.12498100  12.010000   ; qtot 156.553586
 4825         hx    157    ccc    H12   4825 0.12238100   1.008000   ; qtot 156.675967
 4826         hx    157    ccc    H13   4826 0.12238100   1.008000   ; qtot 156.798348
 4827         c3    157    ccc     C8   4827 -0.20771900  12.010000   ; qtot 156.590629
 4828         hc    157    ccc    H14   4828 0.11463100   1.008000   ; qtot 156.705260
 4829         hc    157    ccc    H15   4829 0.11463100   1.008000   ; qtot 156.819891
 4830          c    157    ccc     C9   4830 0.64078100  12.010000   ; qtot 157.460672
 4831          o    157    ccc     O3   4831 -0.49231900  16.000000   ; qtot 156.968353
 4832         oh    157    ccc     O4   4832 -0.51841900  16.000000   ; qtot 156.449934
 4833         ho    157    ccc    H16   4833 0.45318100   1.008000   ; qtot 156.903115
 4834         os    157    ccc     O5   4834 -0.39491900  16.000000   ; qtot 156.508196
 4835         hn    157    ccc    H17   4835 0.49148100   1.008000   ; qtot 156.999677
; residue  158 ccc rtp ccc q 1.0
 4836         c3    158    ccc     C1   4836 0.14608100  12.010000   ; qtot 157.145758
 4837         h1    158    ccc     H1   4837 0.06738100   1.008000   ; qtot 157.213139
 4838         h1    158    ccc     H2   4838 0.06738100   1.008000   ; qtot 157.280520
 4839         c3    158    ccc     C2   4839 -0.14571900  12.010000   ; qtot 157.134801
 4840         hc    158    ccc     H3   4840 0.08688100   1.008000   ; qtot 157.221682
 4841         hc    158    ccc     H4   4841 0.08688100   1.008000   ; qtot 157.308563
 4842         c3    158    ccc     C3   4842 0.12348100  12.010000   ; qtot 157.432044
 4843         hx    158    ccc     H5   4843 0.10638100   1.008000   ; qtot 157.538425
 4844         hx    158    ccc     H6   4844 0.10638100   1.008000   ; qtot 157.644806
 4845         n4    158    ccc     N1   4845 -0.69071900  14.010000   ; qtot 156.954087
 4846         c3    158    ccc     C4   4846 0.12498100  12.010000   ; qtot 157.079068
 4847         hx    158    ccc     H7   4847 0.12238100   1.008000   ; qtot 157.201449
 4848         hx    158    ccc     H8   4848 0.12238100   1.008000   ; qtot 157.323830
 4849         c3    158    ccc     C5   4849 -0.20771900  12.010000   ; qtot 157.116111
 4850         hc    158    ccc     H9   4850 0.11463100   1.008000   ; qtot 157.230742
 4851         hc    158    ccc    H10   4851 0.11463100   1.008000   ; qtot 157.345373
 4852          c    158    ccc     C6   4852 0.64078100  12.010000   ; qtot 157.986154
 4853          o    158    ccc     O1   4853 -0.49231900  16.000000   ; qtot 157.493835
 4854         oh    158    ccc     O2   4854 -0.51841900  16.000000   ; qtot 156.975416
 4855         ho    158    ccc    H11   4855 0.45318100   1.008000   ; qtot 157.428597
 4856         c3    158    ccc     C7   4856 0.12498100  12.010000   ; qtot 157.553578
 4857         hx    158    ccc    H12   4857 0.12238100   1.008000   ; qtot 157.675959
 4858         hx    158    ccc    H13   4858 0.12238100   1.008000   ; qtot 157.798340
 4859         c3    158    ccc     C8   4859 -0.20771900  12.010000   ; qtot 157.590621
 4860         hc    158    ccc    H14   4860 0.11463100   1.008000   ; qtot 157.705252
 4861         hc    158    ccc    H15   4861 0.11463100   1.008000   ; qtot 157.819883
 4862          c    158    ccc     C9   4862 0.64078100  12.010000   ; qtot 158.460664
 4863          o    158    ccc     O3   4863 -0.49231900  16.000000   ; qtot 157.968345
 4864         oh    158    ccc     O4   4864 -0.51841900  16.000000   ; qtot 157.449926
 4865         ho    158    ccc    H16   4865 0.45318100   1.008000   ; qtot 157.903107
 4866         os    158    ccc     O5   4866 -0.39491900  16.000000   ; qtot 157.508188
 4867         hn    158    ccc    H17   4867 0.49148100   1.008000   ; qtot 157.999669
; residue  159 ccc rtp ccc q 1.0
 4868         c3    159    ccc     C1   4868 0.14608100  12.010000   ; qtot 158.145750
 4869         h1    159    ccc     H1   4869 0.06738100   1.008000   ; qtot 158.213131
 4870         h1    159    ccc     H2   4870 0.06738100   1.008000   ; qtot 158.280512
 4871         c3    159    ccc     C2   4871 -0.14571900  12.010000   ; qtot 158.134793
 4872         hc    159    ccc     H3   4872 0.08688100   1.008000   ; qtot 158.221674
 4873         hc    159    ccc     H4   4873 0.08688100   1.008000   ; qtot 158.308555
 4874         c3    159    ccc     C3   4874 0.12348100  12.010000   ; qtot 158.432036
 4875         hx    159    ccc     H5   4875 0.10638100   1.008000   ; qtot 158.538417
 4876         hx    159    ccc     H6   4876 0.10638100   1.008000   ; qtot 158.644798
 4877         n4    159    ccc     N1   4877 -0.69071900  14.010000   ; qtot 157.954079
 4878         c3    159    ccc     C4   4878 0.12498100  12.010000   ; qtot 158.079060
 4879         hx    159    ccc     H7   4879 0.12238100   1.008000   ; qtot 158.201441
 4880         hx    159    ccc     H8   4880 0.12238100   1.008000   ; qtot 158.323822
 4881         c3    159    ccc     C5   4881 -0.20771900  12.010000   ; qtot 158.116103
 4882         hc    159    ccc     H9   4882 0.11463100   1.008000   ; qtot 158.230734
 4883         hc    159    ccc    H10   4883 0.11463100   1.008000   ; qtot 158.345365
 4884          c    159    ccc     C6   4884 0.64078100  12.010000   ; qtot 158.986146
 4885          o    159    ccc     O1   4885 -0.49231900  16.000000   ; qtot 158.493827
 4886         oh    159    ccc     O2   4886 -0.51841900  16.000000   ; qtot 157.975408
 4887         ho    159    ccc    H11   4887 0.45318100   1.008000   ; qtot 158.428589
 4888         c3    159    ccc     C7   4888 0.12498100  12.010000   ; qtot 158.553570
 4889         hx    159    ccc    H12   4889 0.12238100   1.008000   ; qtot 158.675951
 4890         hx    159    ccc    H13   4890 0.12238100   1.008000   ; qtot 158.798332
 4891         c3    159    ccc     C8   4891 -0.20771900  12.010000   ; qtot 158.590613
 4892         hc    159    ccc    H14   4892 0.11463100   1.008000   ; qtot 158.705244
 4893         hc    159    ccc    H15   4893 0.11463100   1.008000   ; qtot 158.819875
 4894          c    159    ccc     C9   4894 0.64078100  12.010000   ; qtot 159.460656
 4895          o    159    ccc     O3   4895 -0.49231900  16.000000   ; qtot 158.968337
 4896         oh    159    ccc     O4   4896 -0.51841900  16.000000   ; qtot 158.449918
 4897         ho    159    ccc    H16   4897 0.45318100   1.008000   ; qtot 158.903099
 4898         os    159    ccc     O5   4898 -0.39491900  16.000000   ; qtot 158.508180
 4899         hn    159    ccc    H17   4899 0.49148100   1.008000   ; qtot 158.999661
; residue  160 ccc rtp ccc q 1.0
 4900         c3    160    ccc     C1   4900 0.14608100  12.010000   ; qtot 159.145742
 4901         h1    160    ccc     H1   4901 0.06738100   1.008000   ; qtot 159.213123
 4902         h1    160    ccc     H2   4902 0.06738100   1.008000   ; qtot 159.280504
 4903         c3    160    ccc     C2   4903 -0.14571900  12.010000   ; qtot 159.134785
 4904         hc    160    ccc     H3   4904 0.08688100   1.008000   ; qtot 159.221666
 4905         hc    160    ccc     H4   4905 0.08688100   1.008000   ; qtot 159.308547
 4906         c3    160    ccc     C3   4906 0.12348100  12.010000   ; qtot 159.432028
 4907         hx    160    ccc     H5   4907 0.10638100   1.008000   ; qtot 159.538409
 4908         hx    160    ccc     H6   4908 0.10638100   1.008000   ; qtot 159.644790
 4909         n4    160    ccc     N1   4909 -0.69071900  14.010000   ; qtot 158.954071
 4910         c3    160    ccc     C4   4910 0.12498100  12.010000   ; qtot 159.079052
 4911         hx    160    ccc     H7   4911 0.12238100   1.008000   ; qtot 159.201433
 4912         hx    160    ccc     H8   4912 0.12238100   1.008000   ; qtot 159.323814
 4913         c3    160    ccc     C5   4913 -0.20771900  12.010000   ; qtot 159.116095
 4914         hc    160    ccc     H9   4914 0.11463100   1.008000   ; qtot 159.230726
 4915         hc    160    ccc    H10   4915 0.11463100   1.008000   ; qtot 159.345357
 4916          c    160    ccc     C6   4916 0.64078100  12.010000   ; qtot 159.986138
 4917          o    160    ccc     O1   4917 -0.49231900  16.000000   ; qtot 159.493819
 4918         oh    160    ccc     O2   4918 -0.51841900  16.000000   ; qtot 158.975400
 4919         ho    160    ccc    H11   4919 0.45318100   1.008000   ; qtot 159.428581
 4920         c3    160    ccc     C7   4920 0.12498100  12.010000   ; qtot 159.553562
 4921         hx    160    ccc    H12   4921 0.12238100   1.008000   ; qtot 159.675943
 4922         hx    160    ccc    H13   4922 0.12238100   1.008000   ; qtot 159.798324
 4923         c3    160    ccc     C8   4923 -0.20771900  12.010000   ; qtot 159.590605
 4924         hc    160    ccc    H14   4924 0.11463100   1.008000   ; qtot 159.705236
 4925         hc    160    ccc    H15   4925 0.11463100   1.008000   ; qtot 159.819867
 4926          c    160    ccc     C9   4926 0.64078100  12.010000   ; qtot 160.460648
 4927          o    160    ccc     O3   4927 -0.49231900  16.000000   ; qtot 159.968329
 4928         oh    160    ccc     O4   4928 -0.51841900  16.000000   ; qtot 159.449910
 4929         ho    160    ccc    H16   4929 0.45318100   1.008000   ; qtot 159.903091
 4930         os    160    ccc     O5   4930 -0.39491900  16.000000   ; qtot 159.508172
 4931         hn    160    ccc    H17   4931 0.49148100   1.008000   ; qtot 159.999653
; residue  161 ccc rtp ccc q 1.0
 4932         c3    161    ccc     C1   4932 0.14608100  12.010000   ; qtot 160.145734
 4933         h1    161    ccc     H1   4933 0.06738100   1.008000   ; qtot 160.213115
 4934         h1    161    ccc     H2   4934 0.06738100   1.008000   ; qtot 160.280496
 4935         c3    161    ccc     C2   4935 -0.14571900  12.010000   ; qtot 160.134777
 4936         hc    161    ccc     H3   4936 0.08688100   1.008000   ; qtot 160.221658
 4937         hc    161    ccc     H4   4937 0.08688100   1.008000   ; qtot 160.308539
 4938         c3    161    ccc     C3   4938 0.12348100  12.010000   ; qtot 160.432020
 4939         hx    161    ccc     H5   4939 0.10638100   1.008000   ; qtot 160.538401
 4940         hx    161    ccc     H6   4940 0.10638100   1.008000   ; qtot 160.644782
 4941         n4    161    ccc     N1   4941 -0.69071900  14.010000   ; qtot 159.954063
 4942         c3    161    ccc     C4   4942 0.12498100  12.010000   ; qtot 160.079044
 4943         hx    161    ccc     H7   4943 0.12238100   1.008000   ; qtot 160.201425
 4944         hx    161    ccc     H8   4944 0.12238100   1.008000   ; qtot 160.323806
 4945         c3    161    ccc     C5   4945 -0.20771900  12.010000   ; qtot 160.116087
 4946         hc    161    ccc     H9   4946 0.11463100   1.008000   ; qtot 160.230718
 4947         hc    161    ccc    H10   4947 0.11463100   1.008000   ; qtot 160.345349
 4948          c    161    ccc     C6   4948 0.64078100  12.010000   ; qtot 160.986130
 4949          o    161    ccc     O1   4949 -0.49231900  16.000000   ; qtot 160.493811
 4950         oh    161    ccc     O2   4950 -0.51841900  16.000000   ; qtot 159.975392
 4951         ho    161    ccc    H11   4951 0.45318100   1.008000   ; qtot 160.428573
 4952         c3    161    ccc     C7   4952 0.12498100  12.010000   ; qtot 160.553554
 4953         hx    161    ccc    H12   4953 0.12238100   1.008000   ; qtot 160.675935
 4954         hx    161    ccc    H13   4954 0.12238100   1.008000   ; qtot 160.798316
 4955         c3    161    ccc     C8   4955 -0.20771900  12.010000   ; qtot 160.590597
 4956         hc    161    ccc    H14   4956 0.11463100   1.008000   ; qtot 160.705228
 4957         hc    161    ccc    H15   4957 0.11463100   1.008000   ; qtot 160.819859
 4958          c    161    ccc     C9   4958 0.64078100  12.010000   ; qtot 161.460640
 4959          o    161    ccc     O3   4959 -0.49231900  16.000000   ; qtot 160.968321
 4960         oh    161    ccc     O4   4960 -0.51841900  16.000000   ; qtot 160.449902
 4961         ho    161    ccc    H16   4961 0.45318100   1.008000   ; qtot 160.903083
 4962         os    161    ccc     O5   4962 -0.39491900  16.000000   ; qtot 160.508164
 4963         hn    161    ccc    H17   4963 0.49148100   1.008000   ; qtot 160.999645
; residue  162 ccc rtp ccc q 1.0
 4964         c3    162    ccc     C1   4964 0.14608100  12.010000   ; qtot 161.145726
 4965         h1    162    ccc     H1   4965 0.06738100   1.008000   ; qtot 161.213107
 4966         h1    162    ccc     H2   4966 0.06738100   1.008000   ; qtot 161.280488
 4967         c3    162    ccc     C2   4967 -0.14571900  12.010000   ; qtot 161.134769
 4968         hc    162    ccc     H3   4968 0.08688100   1.008000   ; qtot 161.221650
 4969         hc    162    ccc     H4   4969 0.08688100   1.008000   ; qtot 161.308531
 4970         c3    162    ccc     C3   4970 0.12348100  12.010000   ; qtot 161.432012
 4971         hx    162    ccc     H5   4971 0.10638100   1.008000   ; qtot 161.538393
 4972         hx    162    ccc     H6   4972 0.10638100   1.008000   ; qtot 161.644774
 4973         n4    162    ccc     N1   4973 -0.69071900  14.010000   ; qtot 160.954055
 4974         c3    162    ccc     C4   4974 0.12498100  12.010000   ; qtot 161.079036
 4975         hx    162    ccc     H7   4975 0.12238100   1.008000   ; qtot 161.201417
 4976         hx    162    ccc     H8   4976 0.12238100   1.008000   ; qtot 161.323798
 4977         c3    162    ccc     C5   4977 -0.20771900  12.010000   ; qtot 161.116079
 4978         hc    162    ccc     H9   4978 0.11463100   1.008000   ; qtot 161.230710
 4979         hc    162    ccc    H10   4979 0.11463100   1.008000   ; qtot 161.345341
 4980          c    162    ccc     C6   4980 0.64078100  12.010000   ; qtot 161.986122
 4981          o    162    ccc     O1   4981 -0.49231900  16.000000   ; qtot 161.493803
 4982         oh    162    ccc     O2   4982 -0.51841900  16.000000   ; qtot 160.975384
 4983         ho    162    ccc    H11   4983 0.45318100   1.008000   ; qtot 161.428565
 4984         c3    162    ccc     C7   4984 0.12498100  12.010000   ; qtot 161.553546
 4985         hx    162    ccc    H12   4985 0.12238100   1.008000   ; qtot 161.675927
 4986         hx    162    ccc    H13   4986 0.12238100   1.008000   ; qtot 161.798308
 4987         c3    162    ccc     C8   4987 -0.20771900  12.010000   ; qtot 161.590589
 4988         hc    162    ccc    H14   4988 0.11463100   1.008000   ; qtot 161.705220
 4989         hc    162    ccc    H15   4989 0.11463100   1.008000   ; qtot 161.819851
 4990          c    162    ccc     C9   4990 0.64078100  12.010000   ; qtot 162.460632
 4991          o    162    ccc     O3   4991 -0.49231900  16.000000   ; qtot 161.968313
 4992         oh    162    ccc     O4   4992 -0.51841900  16.000000   ; qtot 161.449894
 4993         ho    162    ccc    H16   4993 0.45318100   1.008000   ; qtot 161.903075
 4994         os    162    ccc     O5   4994 -0.39491900  16.000000   ; qtot 161.508156
 4995         hn    162    ccc    H17   4995 0.49148100   1.008000   ; qtot 161.999637
; residue  163 ccc rtp ccc q 1.0
 4996         c3    163    ccc     C1   4996 0.14608100  12.010000   ; qtot 162.145718
 4997         h1    163    ccc     H1   4997 0.06738100   1.008000   ; qtot 162.213099
 4998         h1    163    ccc     H2   4998 0.06738100   1.008000   ; qtot 162.280480
 4999         c3    163    ccc     C2   4999 -0.14571900  12.010000   ; qtot 162.134761
 5000         hc    163    ccc     H3   5000 0.08688100   1.008000   ; qtot 162.221642
 5001         hc    163    ccc     H4   5001 0.08688100   1.008000   ; qtot 162.308523
 5002         c3    163    ccc     C3   5002 0.12348100  12.010000   ; qtot 162.432004
 5003         hx    163    ccc     H5   5003 0.10638100   1.008000   ; qtot 162.538385
 5004         hx    163    ccc     H6   5004 0.10638100   1.008000   ; qtot 162.644766
 5005         n4    163    ccc     N1   5005 -0.69071900  14.010000   ; qtot 161.954047
 5006         c3    163    ccc     C4   5006 0.12498100  12.010000   ; qtot 162.079028
 5007         hx    163    ccc     H7   5007 0.12238100   1.008000   ; qtot 162.201409
 5008         hx    163    ccc     H8   5008 0.12238100   1.008000   ; qtot 162.323790
 5009         c3    163    ccc     C5   5009 -0.20771900  12.010000   ; qtot 162.116071
 5010         hc    163    ccc     H9   5010 0.11463100   1.008000   ; qtot 162.230702
 5011         hc    163    ccc    H10   5011 0.11463100   1.008000   ; qtot 162.345333
 5012          c    163    ccc     C6   5012 0.64078100  12.010000   ; qtot 162.986114
 5013          o    163    ccc     O1   5013 -0.49231900  16.000000   ; qtot 162.493795
 5014         oh    163    ccc     O2   5014 -0.51841900  16.000000   ; qtot 161.975376
 5015         ho    163    ccc    H11   5015 0.45318100   1.008000   ; qtot 162.428557
 5016         c3    163    ccc     C7   5016 0.12498100  12.010000   ; qtot 162.553538
 5017         hx    163    ccc    H12   5017 0.12238100   1.008000   ; qtot 162.675919
 5018         hx    163    ccc    H13   5018 0.12238100   1.008000   ; qtot 162.798300
 5019         c3    163    ccc     C8   5019 -0.20771900  12.010000   ; qtot 162.590581
 5020         hc    163    ccc    H14   5020 0.11463100   1.008000   ; qtot 162.705212
 5021         hc    163    ccc    H15   5021 0.11463100   1.008000   ; qtot 162.819843
 5022          c    163    ccc     C9   5022 0.64078100  12.010000   ; qtot 163.460624
 5023          o    163    ccc     O3   5023 -0.49231900  16.000000   ; qtot 162.968305
 5024         oh    163    ccc     O4   5024 -0.51841900  16.000000   ; qtot 162.449886
 5025         ho    163    ccc    H16   5025 0.45318100   1.008000   ; qtot 162.903067
 5026         os    163    ccc     O5   5026 -0.39491900  16.000000   ; qtot 162.508148
 5027         hn    163    ccc    H17   5027 0.49148100   1.008000   ; qtot 162.999629
; residue  164 ccc rtp ccc q 1.0
 5028         c3    164    ccc     C1   5028 0.14608100  12.010000   ; qtot 163.145710
 5029         h1    164    ccc     H1   5029 0.06738100   1.008000   ; qtot 163.213091
 5030         h1    164    ccc     H2   5030 0.06738100   1.008000   ; qtot 163.280472
 5031         c3    164    ccc     C2   5031 -0.14571900  12.010000   ; qtot 163.134753
 5032         hc    164    ccc     H3   5032 0.08688100   1.008000   ; qtot 163.221634
 5033         hc    164    ccc     H4   5033 0.08688100   1.008000   ; qtot 163.308515
 5034         c3    164    ccc     C3   5034 0.12348100  12.010000   ; qtot 163.431996
 5035         hx    164    ccc     H5   5035 0.10638100   1.008000   ; qtot 163.538377
 5036         hx    164    ccc     H6   5036 0.10638100   1.008000   ; qtot 163.644758
 5037         n4    164    ccc     N1   5037 -0.69071900  14.010000   ; qtot 162.954039
 5038         c3    164    ccc     C4   5038 0.12498100  12.010000   ; qtot 163.079020
 5039         hx    164    ccc     H7   5039 0.12238100   1.008000   ; qtot 163.201401
 5040         hx    164    ccc     H8   5040 0.12238100   1.008000   ; qtot 163.323782
 5041         c3    164    ccc     C5   5041 -0.20771900  12.010000   ; qtot 163.116063
 5042         hc    164    ccc     H9   5042 0.11463100   1.008000   ; qtot 163.230694
 5043         hc    164    ccc    H10   5043 0.11463100   1.008000   ; qtot 163.345325
 5044          c    164    ccc     C6   5044 0.64078100  12.010000   ; qtot 163.986106
 5045          o    164    ccc     O1   5045 -0.49231900  16.000000   ; qtot 163.493787
 5046         oh    164    ccc     O2   5046 -0.51841900  16.000000   ; qtot 162.975368
 5047         ho    164    ccc    H11   5047 0.45318100   1.008000   ; qtot 163.428549
 5048         c3    164    ccc     C7   5048 0.12498100  12.010000   ; qtot 163.553530
 5049         hx    164    ccc    H12   5049 0.12238100   1.008000   ; qtot 163.675911
 5050         hx    164    ccc    H13   5050 0.12238100   1.008000   ; qtot 163.798292
 5051         c3    164    ccc     C8   5051 -0.20771900  12.010000   ; qtot 163.590573
 5052         hc    164    ccc    H14   5052 0.11463100   1.008000   ; qtot 163.705204
 5053         hc    164    ccc    H15   5053 0.11463100   1.008000   ; qtot 163.819835
 5054          c    164    ccc     C9   5054 0.64078100  12.010000   ; qtot 164.460616
 5055          o    164    ccc     O3   5055 -0.49231900  16.000000   ; qtot 163.968297
 5056         oh    164    ccc     O4   5056 -0.51841900  16.000000   ; qtot 163.449878
 5057         ho    164    ccc    H16   5057 0.45318100   1.008000   ; qtot 163.903059
 5058         os    164    ccc     O5   5058 -0.39491900  16.000000   ; qtot 163.508140
 5059         hn    164    ccc    H17   5059 0.49148100   1.008000   ; qtot 163.999621
; residue  165 ccc rtp ccc q 1.0
 5060         c3    165    ccc     C1   5060 0.14608100  12.010000   ; qtot 164.145702
 5061         h1    165    ccc     H1   5061 0.06738100   1.008000   ; qtot 164.213083
 5062         h1    165    ccc     H2   5062 0.06738100   1.008000   ; qtot 164.280464
 5063         c3    165    ccc     C2   5063 -0.14571900  12.010000   ; qtot 164.134745
 5064         hc    165    ccc     H3   5064 0.08688100   1.008000   ; qtot 164.221626
 5065         hc    165    ccc     H4   5065 0.08688100   1.008000   ; qtot 164.308507
 5066         c3    165    ccc     C3   5066 0.12348100  12.010000   ; qtot 164.431988
 5067         hx    165    ccc     H5   5067 0.10638100   1.008000   ; qtot 164.538369
 5068         hx    165    ccc     H6   5068 0.10638100   1.008000   ; qtot 164.644750
 5069         n4    165    ccc     N1   5069 -0.69071900  14.010000   ; qtot 163.954031
 5070         c3    165    ccc     C4   5070 0.12498100  12.010000   ; qtot 164.079012
 5071         hx    165    ccc     H7   5071 0.12238100   1.008000   ; qtot 164.201393
 5072         hx    165    ccc     H8   5072 0.12238100   1.008000   ; qtot 164.323774
 5073         c3    165    ccc     C5   5073 -0.20771900  12.010000   ; qtot 164.116055
 5074         hc    165    ccc     H9   5074 0.11463100   1.008000   ; qtot 164.230686
 5075         hc    165    ccc    H10   5075 0.11463100   1.008000   ; qtot 164.345317
 5076          c    165    ccc     C6   5076 0.64078100  12.010000   ; qtot 164.986098
 5077          o    165    ccc     O1   5077 -0.49231900  16.000000   ; qtot 164.493779
 5078         oh    165    ccc     O2   5078 -0.51841900  16.000000   ; qtot 163.975360
 5079         ho    165    ccc    H11   5079 0.45318100   1.008000   ; qtot 164.428541
 5080         c3    165    ccc     C7   5080 0.12498100  12.010000   ; qtot 164.553522
 5081         hx    165    ccc    H12   5081 0.12238100   1.008000   ; qtot 164.675903
 5082         hx    165    ccc    H13   5082 0.12238100   1.008000   ; qtot 164.798284
 5083         c3    165    ccc     C8   5083 -0.20771900  12.010000   ; qtot 164.590565
 5084         hc    165    ccc    H14   5084 0.11463100   1.008000   ; qtot 164.705196
 5085         hc    165    ccc    H15   5085 0.11463100   1.008000   ; qtot 164.819827
 5086          c    165    ccc     C9   5086 0.64078100  12.010000   ; qtot 165.460608
 5087          o    165    ccc     O3   5087 -0.49231900  16.000000   ; qtot 164.968289
 5088         oh    165    ccc     O4   5088 -0.51841900  16.000000   ; qtot 164.449870
 5089         ho    165    ccc    H16   5089 0.45318100   1.008000   ; qtot 164.903051
 5090         os    165    ccc     O5   5090 -0.39491900  16.000000   ; qtot 164.508132
 5091         hn    165    ccc    H17   5091 0.49148100   1.008000   ; qtot 164.999613
; residue  166 ccc rtp ccc q 1.0
 5092         c3    166    ccc     C1   5092 0.14608100  12.010000   ; qtot 165.145694
 5093         h1    166    ccc     H1   5093 0.06738100   1.008000   ; qtot 165.213075
 5094         h1    166    ccc     H2   5094 0.06738100   1.008000   ; qtot 165.280456
 5095         c3    166    ccc     C2   5095 -0.14571900  12.010000   ; qtot 165.134737
 5096         hc    166    ccc     H3   5096 0.08688100   1.008000   ; qtot 165.221618
 5097         hc    166    ccc     H4   5097 0.08688100   1.008000   ; qtot 165.308499
 5098         c3    166    ccc     C3   5098 0.12348100  12.010000   ; qtot 165.431980
 5099         hx    166    ccc     H5   5099 0.10638100   1.008000   ; qtot 165.538361
 5100         hx    166    ccc     H6   5100 0.10638100   1.008000   ; qtot 165.644742
 5101         n4    166    ccc     N1   5101 -0.69071900  14.010000   ; qtot 164.954023
 5102         c3    166    ccc     C4   5102 0.12498100  12.010000   ; qtot 165.079004
 5103         hx    166    ccc     H7   5103 0.12238100   1.008000   ; qtot 165.201385
 5104         hx    166    ccc     H8   5104 0.12238100   1.008000   ; qtot 165.323766
 5105         c3    166    ccc     C5   5105 -0.20771900  12.010000   ; qtot 165.116047
 5106         hc    166    ccc     H9   5106 0.11463100   1.008000   ; qtot 165.230678
 5107         hc    166    ccc    H10   5107 0.11463100   1.008000   ; qtot 165.345309
 5108          c    166    ccc     C6   5108 0.64078100  12.010000   ; qtot 165.986090
 5109          o    166    ccc     O1   5109 -0.49231900  16.000000   ; qtot 165.493771
 5110         oh    166    ccc     O2   5110 -0.51841900  16.000000   ; qtot 164.975352
 5111         ho    166    ccc    H11   5111 0.45318100   1.008000   ; qtot 165.428533
 5112         c3    166    ccc     C7   5112 0.12498100  12.010000   ; qtot 165.553514
 5113         hx    166    ccc    H12   5113 0.12238100   1.008000   ; qtot 165.675895
 5114         hx    166    ccc    H13   5114 0.12238100   1.008000   ; qtot 165.798276
 5115         c3    166    ccc     C8   5115 -0.20771900  12.010000   ; qtot 165.590557
 5116         hc    166    ccc    H14   5116 0.11463100   1.008000   ; qtot 165.705188
 5117         hc    166    ccc    H15   5117 0.11463100   1.008000   ; qtot 165.819819
 5118          c    166    ccc     C9   5118 0.64078100  12.010000   ; qtot 166.460600
 5119          o    166    ccc     O3   5119 -0.49231900  16.000000   ; qtot 165.968281
 5120         oh    166    ccc     O4   5120 -0.51841900  16.000000   ; qtot 165.449862
 5121         ho    166    ccc    H16   5121 0.45318100   1.008000   ; qtot 165.903043
 5122         os    166    ccc     O5   5122 -0.39491900  16.000000   ; qtot 165.508124
 5123         hn    166    ccc    H17   5123 0.49148100   1.008000   ; qtot 165.999605
; residue  167 ccc rtp ccc q 1.0
 5124         c3    167    ccc     C1   5124 0.14608100  12.010000   ; qtot 166.145686
 5125         h1    167    ccc     H1   5125 0.06738100   1.008000   ; qtot 166.213067
 5126         h1    167    ccc     H2   5126 0.06738100   1.008000   ; qtot 166.280448
 5127         c3    167    ccc     C2   5127 -0.14571900  12.010000   ; qtot 166.134729
 5128         hc    167    ccc     H3   5128 0.08688100   1.008000   ; qtot 166.221610
 5129         hc    167    ccc     H4   5129 0.08688100   1.008000   ; qtot 166.308491
 5130         c3    167    ccc     C3   5130 0.12348100  12.010000   ; qtot 166.431972
 5131         hx    167    ccc     H5   5131 0.10638100   1.008000   ; qtot 166.538353
 5132         hx    167    ccc     H6   5132 0.10638100   1.008000   ; qtot 166.644734
 5133         n4    167    ccc     N1   5133 -0.69071900  14.010000   ; qtot 165.954015
 5134         c3    167    ccc     C4   5134 0.12498100  12.010000   ; qtot 166.078996
 5135         hx    167    ccc     H7   5135 0.12238100   1.008000   ; qtot 166.201377
 5136         hx    167    ccc     H8   5136 0.12238100   1.008000   ; qtot 166.323758
 5137         c3    167    ccc     C5   5137 -0.20771900  12.010000   ; qtot 166.116039
 5138         hc    167    ccc     H9   5138 0.11463100   1.008000   ; qtot 166.230670
 5139         hc    167    ccc    H10   5139 0.11463100   1.008000   ; qtot 166.345301
 5140          c    167    ccc     C6   5140 0.64078100  12.010000   ; qtot 166.986082
 5141          o    167    ccc     O1   5141 -0.49231900  16.000000   ; qtot 166.493763
 5142         oh    167    ccc     O2   5142 -0.51841900  16.000000   ; qtot 165.975344
 5143         ho    167    ccc    H11   5143 0.45318100   1.008000   ; qtot 166.428525
 5144         c3    167    ccc     C7   5144 0.12498100  12.010000   ; qtot 166.553506
 5145         hx    167    ccc    H12   5145 0.12238100   1.008000   ; qtot 166.675887
 5146         hx    167    ccc    H13   5146 0.12238100   1.008000   ; qtot 166.798268
 5147         c3    167    ccc     C8   5147 -0.20771900  12.010000   ; qtot 166.590549
 5148         hc    167    ccc    H14   5148 0.11463100   1.008000   ; qtot 166.705180
 5149         hc    167    ccc    H15   5149 0.11463100   1.008000   ; qtot 166.819811
 5150          c    167    ccc     C9   5150 0.64078100  12.010000   ; qtot 167.460592
 5151          o    167    ccc     O3   5151 -0.49231900  16.000000   ; qtot 166.968273
 5152         oh    167    ccc     O4   5152 -0.51841900  16.000000   ; qtot 166.449854
 5153         ho    167    ccc    H16   5153 0.45318100   1.008000   ; qtot 166.903035
 5154         os    167    ccc     O5   5154 -0.39491900  16.000000   ; qtot 166.508116
 5155         hn    167    ccc    H17   5155 0.49148100   1.008000   ; qtot 166.999597
; residue  168 ccc rtp ccc q 1.0
 5156         c3    168    ccc     C1   5156 0.14608100  12.010000   ; qtot 167.145678
 5157         h1    168    ccc     H1   5157 0.06738100   1.008000   ; qtot 167.213059
 5158         h1    168    ccc     H2   5158 0.06738100   1.008000   ; qtot 167.280440
 5159         c3    168    ccc     C2   5159 -0.14571900  12.010000   ; qtot 167.134721
 5160         hc    168    ccc     H3   5160 0.08688100   1.008000   ; qtot 167.221602
 5161         hc    168    ccc     H4   5161 0.08688100   1.008000   ; qtot 167.308483
 5162         c3    168    ccc     C3   5162 0.12348100  12.010000   ; qtot 167.431964
 5163         hx    168    ccc     H5   5163 0.10638100   1.008000   ; qtot 167.538345
 5164         hx    168    ccc     H6   5164 0.10638100   1.008000   ; qtot 167.644726
 5165         n4    168    ccc     N1   5165 -0.69071900  14.010000   ; qtot 166.954007
 5166         c3    168    ccc     C4   5166 0.12498100  12.010000   ; qtot 167.078988
 5167         hx    168    ccc     H7   5167 0.12238100   1.008000   ; qtot 167.201369
 5168         hx    168    ccc     H8   5168 0.12238100   1.008000   ; qtot 167.323750
 5169         c3    168    ccc     C5   5169 -0.20771900  12.010000   ; qtot 167.116031
 5170         hc    168    ccc     H9   5170 0.11463100   1.008000   ; qtot 167.230662
 5171         hc    168    ccc    H10   5171 0.11463100   1.008000   ; qtot 167.345293
 5172          c    168    ccc     C6   5172 0.64078100  12.010000   ; qtot 167.986074
 5173          o    168    ccc     O1   5173 -0.49231900  16.000000   ; qtot 167.493755
 5174         oh    168    ccc     O2   5174 -0.51841900  16.000000   ; qtot 166.975336
 5175         ho    168    ccc    H11   5175 0.45318100   1.008000   ; qtot 167.428517
 5176         c3    168    ccc     C7   5176 0.12498100  12.010000   ; qtot 167.553498
 5177         hx    168    ccc    H12   5177 0.12238100   1.008000   ; qtot 167.675879
 5178         hx    168    ccc    H13   5178 0.12238100   1.008000   ; qtot 167.798260
 5179         c3    168    ccc     C8   5179 -0.20771900  12.010000   ; qtot 167.590541
 5180         hc    168    ccc    H14   5180 0.11463100   1.008000   ; qtot 167.705172
 5181         hc    168    ccc    H15   5181 0.11463100   1.008000   ; qtot 167.819803
 5182          c    168    ccc     C9   5182 0.64078100  12.010000   ; qtot 168.460584
 5183          o    168    ccc     O3   5183 -0.49231900  16.000000   ; qtot 167.968265
 5184         oh    168    ccc     O4   5184 -0.51841900  16.000000   ; qtot 167.449846
 5185         ho    168    ccc    H16   5185 0.45318100   1.008000   ; qtot 167.903027
 5186         os    168    ccc     O5   5186 -0.39491900  16.000000   ; qtot 167.508108
 5187         hn    168    ccc    H17   5187 0.49148100   1.008000   ; qtot 167.999589
; residue  169 ccc rtp ccc q 1.0
 5188         c3    169    ccc     C1   5188 0.14608100  12.010000   ; qtot 168.145670
 5189         h1    169    ccc     H1   5189 0.06738100   1.008000   ; qtot 168.213051
 5190         h1    169    ccc     H2   5190 0.06738100   1.008000   ; qtot 168.280432
 5191         c3    169    ccc     C2   5191 -0.14571900  12.010000   ; qtot 168.134713
 5192         hc    169    ccc     H3   5192 0.08688100   1.008000   ; qtot 168.221594
 5193         hc    169    ccc     H4   5193 0.08688100   1.008000   ; qtot 168.308475
 5194         c3    169    ccc     C3   5194 0.12348100  12.010000   ; qtot 168.431956
 5195         hx    169    ccc     H5   5195 0.10638100   1.008000   ; qtot 168.538337
 5196         hx    169    ccc     H6   5196 0.10638100   1.008000   ; qtot 168.644718
 5197         n4    169    ccc     N1   5197 -0.69071900  14.010000   ; qtot 167.953999
 5198         c3    169    ccc     C4   5198 0.12498100  12.010000   ; qtot 168.078980
 5199         hx    169    ccc     H7   5199 0.12238100   1.008000   ; qtot 168.201361
 5200         hx    169    ccc     H8   5200 0.12238100   1.008000   ; qtot 168.323742
 5201         c3    169    ccc     C5   5201 -0.20771900  12.010000   ; qtot 168.116023
 5202         hc    169    ccc     H9   5202 0.11463100   1.008000   ; qtot 168.230654
 5203         hc    169    ccc    H10   5203 0.11463100   1.008000   ; qtot 168.345285
 5204          c    169    ccc     C6   5204 0.64078100  12.010000   ; qtot 168.986066
 5205          o    169    ccc     O1   5205 -0.49231900  16.000000   ; qtot 168.493747
 5206         oh    169    ccc     O2   5206 -0.51841900  16.000000   ; qtot 167.975328
 5207         ho    169    ccc    H11   5207 0.45318100   1.008000   ; qtot 168.428509
 5208         c3    169    ccc     C7   5208 0.12498100  12.010000   ; qtot 168.553490
 5209         hx    169    ccc    H12   5209 0.12238100   1.008000   ; qtot 168.675871
 5210         hx    169    ccc    H13   5210 0.12238100   1.008000   ; qtot 168.798252
 5211         c3    169    ccc     C8   5211 -0.20771900  12.010000   ; qtot 168.590533
 5212         hc    169    ccc    H14   5212 0.11463100   1.008000   ; qtot 168.705164
 5213         hc    169    ccc    H15   5213 0.11463100   1.008000   ; qtot 168.819795
 5214          c    169    ccc     C9   5214 0.64078100  12.010000   ; qtot 169.460576
 5215          o    169    ccc     O3   5215 -0.49231900  16.000000   ; qtot 168.968257
 5216         oh    169    ccc     O4   5216 -0.51841900  16.000000   ; qtot 168.449838
 5217         ho    169    ccc    H16   5217 0.45318100   1.008000   ; qtot 168.903019
 5218         os    169    ccc     O5   5218 -0.39491900  16.000000   ; qtot 168.508100
 5219         hn    169    ccc    H17   5219 0.49148100   1.008000   ; qtot 168.999581
; residue  170 ccc rtp ccc q 1.0
 5220         c3    170    ccc     C1   5220 0.14608100  12.010000   ; qtot 169.145662
 5221         h1    170    ccc     H1   5221 0.06738100   1.008000   ; qtot 169.213043
 5222         h1    170    ccc     H2   5222 0.06738100   1.008000   ; qtot 169.280424
 5223         c3    170    ccc     C2   5223 -0.14571900  12.010000   ; qtot 169.134705
 5224         hc    170    ccc     H3   5224 0.08688100   1.008000   ; qtot 169.221586
 5225         hc    170    ccc     H4   5225 0.08688100   1.008000   ; qtot 169.308467
 5226         c3    170    ccc     C3   5226 0.12348100  12.010000   ; qtot 169.431948
 5227         hx    170    ccc     H5   5227 0.10638100   1.008000   ; qtot 169.538329
 5228         hx    170    ccc     H6   5228 0.10638100   1.008000   ; qtot 169.644710
 5229         n4    170    ccc     N1   5229 -0.69071900  14.010000   ; qtot 168.953991
 5230         c3    170    ccc     C4   5230 0.12498100  12.010000   ; qtot 169.078972
 5231         hx    170    ccc     H7   5231 0.12238100   1.008000   ; qtot 169.201353
 5232         hx    170    ccc     H8   5232 0.12238100   1.008000   ; qtot 169.323734
 5233         c3    170    ccc     C5   5233 -0.20771900  12.010000   ; qtot 169.116015
 5234         hc    170    ccc     H9   5234 0.11463100   1.008000   ; qtot 169.230646
 5235         hc    170    ccc    H10   5235 0.11463100   1.008000   ; qtot 169.345277
 5236          c    170    ccc     C6   5236 0.64078100  12.010000   ; qtot 169.986058
 5237          o    170    ccc     O1   5237 -0.49231900  16.000000   ; qtot 169.493739
 5238         oh    170    ccc     O2   5238 -0.51841900  16.000000   ; qtot 168.975320
 5239         ho    170    ccc    H11   5239 0.45318100   1.008000   ; qtot 169.428501
 5240         c3    170    ccc     C7   5240 0.12498100  12.010000   ; qtot 169.553482
 5241         hx    170    ccc    H12   5241 0.12238100   1.008000   ; qtot 169.675863
 5242         hx    170    ccc    H13   5242 0.12238100   1.008000   ; qtot 169.798244
 5243         c3    170    ccc     C8   5243 -0.20771900  12.010000   ; qtot 169.590525
 5244         hc    170    ccc    H14   5244 0.11463100   1.008000   ; qtot 169.705156
 5245         hc    170    ccc    H15   5245 0.11463100   1.008000   ; qtot 169.819787
 5246          c    170    ccc     C9   5246 0.64078100  12.010000   ; qtot 170.460568
 5247          o    170    ccc     O3   5247 -0.49231900  16.000000   ; qtot 169.968249
 5248         oh    170    ccc     O4   5248 -0.51841900  16.000000   ; qtot 169.449830
 5249         ho    170    ccc    H16   5249 0.45318100   1.008000   ; qtot 169.903011
 5250         os    170    ccc     O5   5250 -0.39491900  16.000000   ; qtot 169.508092
 5251         hn    170    ccc    H17   5251 0.49148100   1.008000   ; qtot 169.999573
; residue  171 ccc rtp ccc q 1.0
 5252         c3    171    ccc     C1   5252 0.14608100  12.010000   ; qtot 170.145654
 5253         h1    171    ccc     H1   5253 0.06738100   1.008000   ; qtot 170.213035
 5254         h1    171    ccc     H2   5254 0.06738100   1.008000   ; qtot 170.280416
 5255         c3    171    ccc     C2   5255 -0.14571900  12.010000   ; qtot 170.134697
 5256         hc    171    ccc     H3   5256 0.08688100   1.008000   ; qtot 170.221578
 5257         hc    171    ccc     H4   5257 0.08688100   1.008000   ; qtot 170.308459
 5258         c3    171    ccc     C3   5258 0.12348100  12.010000   ; qtot 170.431940
 5259         hx    171    ccc     H5   5259 0.10638100   1.008000   ; qtot 170.538321
 5260         hx    171    ccc     H6   5260 0.10638100   1.008000   ; qtot 170.644702
 5261         n4    171    ccc     N1   5261 -0.69071900  14.010000   ; qtot 169.953983
 5262         c3    171    ccc     C4   5262 0.12498100  12.010000   ; qtot 170.078964
 5263         hx    171    ccc     H7   5263 0.12238100   1.008000   ; qtot 170.201345
 5264         hx    171    ccc     H8   5264 0.12238100   1.008000   ; qtot 170.323726
 5265         c3    171    ccc     C5   5265 -0.20771900  12.010000   ; qtot 170.116007
 5266         hc    171    ccc     H9   5266 0.11463100   1.008000   ; qtot 170.230638
 5267         hc    171    ccc    H10   5267 0.11463100   1.008000   ; qtot 170.345269
 5268          c    171    ccc     C6   5268 0.64078100  12.010000   ; qtot 170.986050
 5269          o    171    ccc     O1   5269 -0.49231900  16.000000   ; qtot 170.493731
 5270         oh    171    ccc     O2   5270 -0.51841900  16.000000   ; qtot 169.975312
 5271         ho    171    ccc    H11   5271 0.45318100   1.008000   ; qtot 170.428493
 5272         c3    171    ccc     C7   5272 0.12498100  12.010000   ; qtot 170.553474
 5273         hx    171    ccc    H12   5273 0.12238100   1.008000   ; qtot 170.675855
 5274         hx    171    ccc    H13   5274 0.12238100   1.008000   ; qtot 170.798236
 5275         c3    171    ccc     C8   5275 -0.20771900  12.010000   ; qtot 170.590517
 5276         hc    171    ccc    H14   5276 0.11463100   1.008000   ; qtot 170.705148
 5277         hc    171    ccc    H15   5277 0.11463100   1.008000   ; qtot 170.819779
 5278          c    171    ccc     C9   5278 0.64078100  12.010000   ; qtot 171.460560
 5279          o    171    ccc     O3   5279 -0.49231900  16.000000   ; qtot 170.968241
 5280         oh    171    ccc     O4   5280 -0.51841900  16.000000   ; qtot 170.449822
 5281         ho    171    ccc    H16   5281 0.45318100   1.008000   ; qtot 170.903003
 5282         os    171    ccc     O5   5282 -0.39491900  16.000000   ; qtot 170.508084
 5283         hn    171    ccc    H17   5283 0.49148100   1.008000   ; qtot 170.999565
; residue  172 ccc rtp ccc q 1.0
 5284         c3    172    ccc     C1   5284 0.14608100  12.010000   ; qtot 171.145646
 5285         h1    172    ccc     H1   5285 0.06738100   1.008000   ; qtot 171.213027
 5286         h1    172    ccc     H2   5286 0.06738100   1.008000   ; qtot 171.280408
 5287         c3    172    ccc     C2   5287 -0.14571900  12.010000   ; qtot 171.134689
 5288         hc    172    ccc     H3   5288 0.08688100   1.008000   ; qtot 171.221570
 5289         hc    172    ccc     H4   5289 0.08688100   1.008000   ; qtot 171.308451
 5290         c3    172    ccc     C3   5290 0.12348100  12.010000   ; qtot 171.431932
 5291         hx    172    ccc     H5   5291 0.10638100   1.008000   ; qtot 171.538313
 5292         hx    172    ccc     H6   5292 0.10638100   1.008000   ; qtot 171.644694
 5293         n4    172    ccc     N1   5293 -0.69071900  14.010000   ; qtot 170.953975
 5294         c3    172    ccc     C4   5294 0.12498100  12.010000   ; qtot 171.078956
 5295         hx    172    ccc     H7   5295 0.12238100   1.008000   ; qtot 171.201337
 5296         hx    172    ccc     H8   5296 0.12238100   1.008000   ; qtot 171.323718
 5297         c3    172    ccc     C5   5297 -0.20771900  12.010000   ; qtot 171.115999
 5298         hc    172    ccc     H9   5298 0.11463100   1.008000   ; qtot 171.230630
 5299         hc    172    ccc    H10   5299 0.11463100   1.008000   ; qtot 171.345261
 5300          c    172    ccc     C6   5300 0.64078100  12.010000   ; qtot 171.986042
 5301          o    172    ccc     O1   5301 -0.49231900  16.000000   ; qtot 171.493723
 5302         oh    172    ccc     O2   5302 -0.51841900  16.000000   ; qtot 170.975304
 5303         ho    172    ccc    H11   5303 0.45318100   1.008000   ; qtot 171.428485
 5304         c3    172    ccc     C7   5304 0.12498100  12.010000   ; qtot 171.553466
 5305         hx    172    ccc    H12   5305 0.12238100   1.008000   ; qtot 171.675847
 5306         hx    172    ccc    H13   5306 0.12238100   1.008000   ; qtot 171.798228
 5307         c3    172    ccc     C8   5307 -0.20771900  12.010000   ; qtot 171.590509
 5308         hc    172    ccc    H14   5308 0.11463100   1.008000   ; qtot 171.705140
 5309         hc    172    ccc    H15   5309 0.11463100   1.008000   ; qtot 171.819771
 5310          c    172    ccc     C9   5310 0.64078100  12.010000   ; qtot 172.460552
 5311          o    172    ccc     O3   5311 -0.49231900  16.000000   ; qtot 171.968233
 5312         oh    172    ccc     O4   5312 -0.51841900  16.000000   ; qtot 171.449814
 5313         ho    172    ccc    H16   5313 0.45318100   1.008000   ; qtot 171.902995
 5314         os    172    ccc     O5   5314 -0.39491900  16.000000   ; qtot 171.508076
 5315         hn    172    ccc    H17   5315 0.49148100   1.008000   ; qtot 171.999557
; residue  173 ccc rtp ccc q 1.0
 5316         c3    173    ccc     C1   5316 0.14608100  12.010000   ; qtot 172.145638
 5317         h1    173    ccc     H1   5317 0.06738100   1.008000   ; qtot 172.213019
 5318         h1    173    ccc     H2   5318 0.06738100   1.008000   ; qtot 172.280400
 5319         c3    173    ccc     C2   5319 -0.14571900  12.010000   ; qtot 172.134681
 5320         hc    173    ccc     H3   5320 0.08688100   1.008000   ; qtot 172.221562
 5321         hc    173    ccc     H4   5321 0.08688100   1.008000   ; qtot 172.308443
 5322         c3    173    ccc     C3   5322 0.12348100  12.010000   ; qtot 172.431924
 5323         hx    173    ccc     H5   5323 0.10638100   1.008000   ; qtot 172.538305
 5324         hx    173    ccc     H6   5324 0.10638100   1.008000   ; qtot 172.644686
 5325         n4    173    ccc     N1   5325 -0.69071900  14.010000   ; qtot 171.953967
 5326         c3    173    ccc     C4   5326 0.12498100  12.010000   ; qtot 172.078948
 5327         hx    173    ccc     H7   5327 0.12238100   1.008000   ; qtot 172.201329
 5328         hx    173    ccc     H8   5328 0.12238100   1.008000   ; qtot 172.323710
 5329         c3    173    ccc     C5   5329 -0.20771900  12.010000   ; qtot 172.115991
 5330         hc    173    ccc     H9   5330 0.11463100   1.008000   ; qtot 172.230622
 5331         hc    173    ccc    H10   5331 0.11463100   1.008000   ; qtot 172.345253
 5332          c    173    ccc     C6   5332 0.64078100  12.010000   ; qtot 172.986034
 5333          o    173    ccc     O1   5333 -0.49231900  16.000000   ; qtot 172.493715
 5334         oh    173    ccc     O2   5334 -0.51841900  16.000000   ; qtot 171.975296
 5335         ho    173    ccc    H11   5335 0.45318100   1.008000   ; qtot 172.428477
 5336         c3    173    ccc     C7   5336 0.12498100  12.010000   ; qtot 172.553458
 5337         hx    173    ccc    H12   5337 0.12238100   1.008000   ; qtot 172.675839
 5338         hx    173    ccc    H13   5338 0.12238100   1.008000   ; qtot 172.798220
 5339         c3    173    ccc     C8   5339 -0.20771900  12.010000   ; qtot 172.590501
 5340         hc    173    ccc    H14   5340 0.11463100   1.008000   ; qtot 172.705132
 5341         hc    173    ccc    H15   5341 0.11463100   1.008000   ; qtot 172.819763
 5342          c    173    ccc     C9   5342 0.64078100  12.010000   ; qtot 173.460544
 5343          o    173    ccc     O3   5343 -0.49231900  16.000000   ; qtot 172.968225
 5344         oh    173    ccc     O4   5344 -0.51841900  16.000000   ; qtot 172.449806
 5345         ho    173    ccc    H16   5345 0.45318100   1.008000   ; qtot 172.902987
 5346         os    173    ccc     O5   5346 -0.39491900  16.000000   ; qtot 172.508068
 5347         hn    173    ccc    H17   5347 0.49148100   1.008000   ; qtot 172.999549
; residue  174 ccc rtp ccc q 1.0
 5348         c3    174    ccc     C1   5348 0.14608100  12.010000   ; qtot 173.145630
 5349         h1    174    ccc     H1   5349 0.06738100   1.008000   ; qtot 173.213011
 5350         h1    174    ccc     H2   5350 0.06738100   1.008000   ; qtot 173.280392
 5351         c3    174    ccc     C2   5351 -0.14571900  12.010000   ; qtot 173.134673
 5352         hc    174    ccc     H3   5352 0.08688100   1.008000   ; qtot 173.221554
 5353         hc    174    ccc     H4   5353 0.08688100   1.008000   ; qtot 173.308435
 5354         c3    174    ccc     C3   5354 0.12348100  12.010000   ; qtot 173.431916
 5355         hx    174    ccc     H5   5355 0.10638100   1.008000   ; qtot 173.538297
 5356         hx    174    ccc     H6   5356 0.10638100   1.008000   ; qtot 173.644678
 5357         n4    174    ccc     N1   5357 -0.69071900  14.010000   ; qtot 172.953959
 5358         c3    174    ccc     C4   5358 0.12498100  12.010000   ; qtot 173.078940
 5359         hx    174    ccc     H7   5359 0.12238100   1.008000   ; qtot 173.201321
 5360         hx    174    ccc     H8   5360 0.12238100   1.008000   ; qtot 173.323702
 5361         c3    174    ccc     C5   5361 -0.20771900  12.010000   ; qtot 173.115983
 5362         hc    174    ccc     H9   5362 0.11463100   1.008000   ; qtot 173.230614
 5363         hc    174    ccc    H10   5363 0.11463100   1.008000   ; qtot 173.345245
 5364          c    174    ccc     C6   5364 0.64078100  12.010000   ; qtot 173.986026
 5365          o    174    ccc     O1   5365 -0.49231900  16.000000   ; qtot 173.493707
 5366         oh    174    ccc     O2   5366 -0.51841900  16.000000   ; qtot 172.975288
 5367         ho    174    ccc    H11   5367 0.45318100   1.008000   ; qtot 173.428469
 5368         c3    174    ccc     C7   5368 0.12498100  12.010000   ; qtot 173.553450
 5369         hx    174    ccc    H12   5369 0.12238100   1.008000   ; qtot 173.675831
 5370         hx    174    ccc    H13   5370 0.12238100   1.008000   ; qtot 173.798212
 5371         c3    174    ccc     C8   5371 -0.20771900  12.010000   ; qtot 173.590493
 5372         hc    174    ccc    H14   5372 0.11463100   1.008000   ; qtot 173.705124
 5373         hc    174    ccc    H15   5373 0.11463100   1.008000   ; qtot 173.819755
 5374          c    174    ccc     C9   5374 0.64078100  12.010000   ; qtot 174.460536
 5375          o    174    ccc     O3   5375 -0.49231900  16.000000   ; qtot 173.968217
 5376         oh    174    ccc     O4   5376 -0.51841900  16.000000   ; qtot 173.449798
 5377         ho    174    ccc    H16   5377 0.45318100   1.008000   ; qtot 173.902979
 5378         os    174    ccc     O5   5378 -0.39491900  16.000000   ; qtot 173.508060
 5379         hn    174    ccc    H17   5379 0.49148100   1.008000   ; qtot 173.999541
; residue  175 ccc rtp ccc q 1.0
 5380         c3    175    ccc     C1   5380 0.14608100  12.010000   ; qtot 174.145622
 5381         h1    175    ccc     H1   5381 0.06738100   1.008000   ; qtot 174.213003
 5382         h1    175    ccc     H2   5382 0.06738100   1.008000   ; qtot 174.280384
 5383         c3    175    ccc     C2   5383 -0.14571900  12.010000   ; qtot 174.134665
 5384         hc    175    ccc     H3   5384 0.08688100   1.008000   ; qtot 174.221546
 5385         hc    175    ccc     H4   5385 0.08688100   1.008000   ; qtot 174.308427
 5386         c3    175    ccc     C3   5386 0.12348100  12.010000   ; qtot 174.431908
 5387         hx    175    ccc     H5   5387 0.10638100   1.008000   ; qtot 174.538289
 5388         hx    175    ccc     H6   5388 0.10638100   1.008000   ; qtot 174.644670
 5389         n4    175    ccc     N1   5389 -0.69071900  14.010000   ; qtot 173.953951
 5390         c3    175    ccc     C4   5390 0.12498100  12.010000   ; qtot 174.078932
 5391         hx    175    ccc     H7   5391 0.12238100   1.008000   ; qtot 174.201313
 5392         hx    175    ccc     H8   5392 0.12238100   1.008000   ; qtot 174.323694
 5393         c3    175    ccc     C5   5393 -0.20771900  12.010000   ; qtot 174.115975
 5394         hc    175    ccc     H9   5394 0.11463100   1.008000   ; qtot 174.230606
 5395         hc    175    ccc    H10   5395 0.11463100   1.008000   ; qtot 174.345237
 5396          c    175    ccc     C6   5396 0.64078100  12.010000   ; qtot 174.986018
 5397          o    175    ccc     O1   5397 -0.49231900  16.000000   ; qtot 174.493699
 5398         oh    175    ccc     O2   5398 -0.51841900  16.000000   ; qtot 173.975280
 5399         ho    175    ccc    H11   5399 0.45318100   1.008000   ; qtot 174.428461
 5400         c3    175    ccc     C7   5400 0.12498100  12.010000   ; qtot 174.553442
 5401         hx    175    ccc    H12   5401 0.12238100   1.008000   ; qtot 174.675823
 5402         hx    175    ccc    H13   5402 0.12238100   1.008000   ; qtot 174.798204
 5403         c3    175    ccc     C8   5403 -0.20771900  12.010000   ; qtot 174.590485
 5404         hc    175    ccc    H14   5404 0.11463100   1.008000   ; qtot 174.705116
 5405         hc    175    ccc    H15   5405 0.11463100   1.008000   ; qtot 174.819747
 5406          c    175    ccc     C9   5406 0.64078100  12.010000   ; qtot 175.460528
 5407          o    175    ccc     O3   5407 -0.49231900  16.000000   ; qtot 174.968209
 5408         oh    175    ccc     O4   5408 -0.51841900  16.000000   ; qtot 174.449790
 5409         ho    175    ccc    H16   5409 0.45318100   1.008000   ; qtot 174.902971
 5410         os    175    ccc     O5   5410 -0.39491900  16.000000   ; qtot 174.508052
 5411         hn    175    ccc    H17   5411 0.49148100   1.008000   ; qtot 174.999533
; residue  176 ccc rtp ccc q 1.0
 5412         c3    176    ccc     C1   5412 0.14608100  12.010000   ; qtot 175.145614
 5413         h1    176    ccc     H1   5413 0.06738100   1.008000   ; qtot 175.212995
 5414         h1    176    ccc     H2   5414 0.06738100   1.008000   ; qtot 175.280376
 5415         c3    176    ccc     C2   5415 -0.14571900  12.010000   ; qtot 175.134657
 5416         hc    176    ccc     H3   5416 0.08688100   1.008000   ; qtot 175.221538
 5417         hc    176    ccc     H4   5417 0.08688100   1.008000   ; qtot 175.308419
 5418         c3    176    ccc     C3   5418 0.12348100  12.010000   ; qtot 175.431900
 5419         hx    176    ccc     H5   5419 0.10638100   1.008000   ; qtot 175.538281
 5420         hx    176    ccc     H6   5420 0.10638100   1.008000   ; qtot 175.644662
 5421         n4    176    ccc     N1   5421 -0.69071900  14.010000   ; qtot 174.953943
 5422         c3    176    ccc     C4   5422 0.12498100  12.010000   ; qtot 175.078924
 5423         hx    176    ccc     H7   5423 0.12238100   1.008000   ; qtot 175.201305
 5424         hx    176    ccc     H8   5424 0.12238100   1.008000   ; qtot 175.323686
 5425         c3    176    ccc     C5   5425 -0.20771900  12.010000   ; qtot 175.115967
 5426         hc    176    ccc     H9   5426 0.11463100   1.008000   ; qtot 175.230598
 5427         hc    176    ccc    H10   5427 0.11463100   1.008000   ; qtot 175.345229
 5428          c    176    ccc     C6   5428 0.64078100  12.010000   ; qtot 175.986010
 5429          o    176    ccc     O1   5429 -0.49231900  16.000000   ; qtot 175.493691
 5430         oh    176    ccc     O2   5430 -0.51841900  16.000000   ; qtot 174.975272
 5431         ho    176    ccc    H11   5431 0.45318100   1.008000   ; qtot 175.428453
 5432         c3    176    ccc     C7   5432 0.12498100  12.010000   ; qtot 175.553434
 5433         hx    176    ccc    H12   5433 0.12238100   1.008000   ; qtot 175.675815
 5434         hx    176    ccc    H13   5434 0.12238100   1.008000   ; qtot 175.798196
 5435         c3    176    ccc     C8   5435 -0.20771900  12.010000   ; qtot 175.590477
 5436         hc    176    ccc    H14   5436 0.11463100   1.008000   ; qtot 175.705108
 5437         hc    176    ccc    H15   5437 0.11463100   1.008000   ; qtot 175.819739
 5438          c    176    ccc     C9   5438 0.64078100  12.010000   ; qtot 176.460520
 5439          o    176    ccc     O3   5439 -0.49231900  16.000000   ; qtot 175.968201
 5440         oh    176    ccc     O4   5440 -0.51841900  16.000000   ; qtot 175.449782
 5441         ho    176    ccc    H16   5441 0.45318100   1.008000   ; qtot 175.902963
 5442         os    176    ccc     O5   5442 -0.39491900  16.000000   ; qtot 175.508044
 5443         hn    176    ccc    H17   5443 0.49148100   1.008000   ; qtot 175.999525
; residue  177 ccc rtp ccc q 1.0
 5444         c3    177    ccc     C1   5444 0.14608100  12.010000   ; qtot 176.145606
 5445         h1    177    ccc     H1   5445 0.06738100   1.008000   ; qtot 176.212987
 5446         h1    177    ccc     H2   5446 0.06738100   1.008000   ; qtot 176.280368
 5447         c3    177    ccc     C2   5447 -0.14571900  12.010000   ; qtot 176.134649
 5448         hc    177    ccc     H3   5448 0.08688100   1.008000   ; qtot 176.221530
 5449         hc    177    ccc     H4   5449 0.08688100   1.008000   ; qtot 176.308411
 5450         c3    177    ccc     C3   5450 0.12348100  12.010000   ; qtot 176.431892
 5451         hx    177    ccc     H5   5451 0.10638100   1.008000   ; qtot 176.538273
 5452         hx    177    ccc     H6   5452 0.10638100   1.008000   ; qtot 176.644654
 5453         n4    177    ccc     N1   5453 -0.69071900  14.010000   ; qtot 175.953935
 5454         c3    177    ccc     C4   5454 0.12498100  12.010000   ; qtot 176.078916
 5455         hx    177    ccc     H7   5455 0.12238100   1.008000   ; qtot 176.201297
 5456         hx    177    ccc     H8   5456 0.12238100   1.008000   ; qtot 176.323678
 5457         c3    177    ccc     C5   5457 -0.20771900  12.010000   ; qtot 176.115959
 5458         hc    177    ccc     H9   5458 0.11463100   1.008000   ; qtot 176.230590
 5459         hc    177    ccc    H10   5459 0.11463100   1.008000   ; qtot 176.345221
 5460          c    177    ccc     C6   5460 0.64078100  12.010000   ; qtot 176.986002
 5461          o    177    ccc     O1   5461 -0.49231900  16.000000   ; qtot 176.493683
 5462         oh    177    ccc     O2   5462 -0.51841900  16.000000   ; qtot 175.975264
 5463         ho    177    ccc    H11   5463 0.45318100   1.008000   ; qtot 176.428445
 5464         c3    177    ccc     C7   5464 0.12498100  12.010000   ; qtot 176.553426
 5465         hx    177    ccc    H12   5465 0.12238100   1.008000   ; qtot 176.675807
 5466         hx    177    ccc    H13   5466 0.12238100   1.008000   ; qtot 176.798188
 5467         c3    177    ccc     C8   5467 -0.20771900  12.010000   ; qtot 176.590469
 5468         hc    177    ccc    H14   5468 0.11463100   1.008000   ; qtot 176.705100
 5469         hc    177    ccc    H15   5469 0.11463100   1.008000   ; qtot 176.819731
 5470          c    177    ccc     C9   5470 0.64078100  12.010000   ; qtot 177.460512
 5471          o    177    ccc     O3   5471 -0.49231900  16.000000   ; qtot 176.968193
 5472         oh    177    ccc     O4   5472 -0.51841900  16.000000   ; qtot 176.449774
 5473         ho    177    ccc    H16   5473 0.45318100   1.008000   ; qtot 176.902955
 5474         os    177    ccc     O5   5474 -0.39491900  16.000000   ; qtot 176.508036
 5475         hn    177    ccc    H17   5475 0.49148100   1.008000   ; qtot 176.999517
; residue  178 ccc rtp ccc q 1.0
 5476         c3    178    ccc     C1   5476 0.14608100  12.010000   ; qtot 177.145598
 5477         h1    178    ccc     H1   5477 0.06738100   1.008000   ; qtot 177.212979
 5478         h1    178    ccc     H2   5478 0.06738100   1.008000   ; qtot 177.280360
 5479         c3    178    ccc     C2   5479 -0.14571900  12.010000   ; qtot 177.134641
 5480         hc    178    ccc     H3   5480 0.08688100   1.008000   ; qtot 177.221522
 5481         hc    178    ccc     H4   5481 0.08688100   1.008000   ; qtot 177.308403
 5482         c3    178    ccc     C3   5482 0.12348100  12.010000   ; qtot 177.431884
 5483         hx    178    ccc     H5   5483 0.10638100   1.008000   ; qtot 177.538265
 5484         hx    178    ccc     H6   5484 0.10638100   1.008000   ; qtot 177.644646
 5485         n4    178    ccc     N1   5485 -0.69071900  14.010000   ; qtot 176.953927
 5486         c3    178    ccc     C4   5486 0.12498100  12.010000   ; qtot 177.078908
 5487         hx    178    ccc     H7   5487 0.12238100   1.008000   ; qtot 177.201289
 5488         hx    178    ccc     H8   5488 0.12238100   1.008000   ; qtot 177.323670
 5489         c3    178    ccc     C5   5489 -0.20771900  12.010000   ; qtot 177.115951
 5490         hc    178    ccc     H9   5490 0.11463100   1.008000   ; qtot 177.230582
 5491         hc    178    ccc    H10   5491 0.11463100   1.008000   ; qtot 177.345213
 5492          c    178    ccc     C6   5492 0.64078100  12.010000   ; qtot 177.985994
 5493          o    178    ccc     O1   5493 -0.49231900  16.000000   ; qtot 177.493675
 5494         oh    178    ccc     O2   5494 -0.51841900  16.000000   ; qtot 176.975256
 5495         ho    178    ccc    H11   5495 0.45318100   1.008000   ; qtot 177.428437
 5496         c3    178    ccc     C7   5496 0.12498100  12.010000   ; qtot 177.553418
 5497         hx    178    ccc    H12   5497 0.12238100   1.008000   ; qtot 177.675799
 5498         hx    178    ccc    H13   5498 0.12238100   1.008000   ; qtot 177.798180
 5499         c3    178    ccc     C8   5499 -0.20771900  12.010000   ; qtot 177.590461
 5500         hc    178    ccc    H14   5500 0.11463100   1.008000   ; qtot 177.705092
 5501         hc    178    ccc    H15   5501 0.11463100   1.008000   ; qtot 177.819723
 5502          c    178    ccc     C9   5502 0.64078100  12.010000   ; qtot 178.460504
 5503          o    178    ccc     O3   5503 -0.49231900  16.000000   ; qtot 177.968185
 5504         oh    178    ccc     O4   5504 -0.51841900  16.000000   ; qtot 177.449766
 5505         ho    178    ccc    H16   5505 0.45318100   1.008000   ; qtot 177.902947
 5506         os    178    ccc     O5   5506 -0.39491900  16.000000   ; qtot 177.508028
 5507         hn    178    ccc    H17   5507 0.49148100   1.008000   ; qtot 177.999509
; residue  179 ccc rtp ccc q 1.0
 5508         c3    179    ccc     C1   5508 0.14608100  12.010000   ; qtot 178.145590
 5509         h1    179    ccc     H1   5509 0.06738100   1.008000   ; qtot 178.212971
 5510         h1    179    ccc     H2   5510 0.06738100   1.008000   ; qtot 178.280352
 5511         c3    179    ccc     C2   5511 -0.14571900  12.010000   ; qtot 178.134633
 5512         hc    179    ccc     H3   5512 0.08688100   1.008000   ; qtot 178.221514
 5513         hc    179    ccc     H4   5513 0.08688100   1.008000   ; qtot 178.308395
 5514         c3    179    ccc     C3   5514 0.12348100  12.010000   ; qtot 178.431876
 5515         hx    179    ccc     H5   5515 0.10638100   1.008000   ; qtot 178.538257
 5516         hx    179    ccc     H6   5516 0.10638100   1.008000   ; qtot 178.644638
 5517         n4    179    ccc     N1   5517 -0.69071900  14.010000   ; qtot 177.953919
 5518         c3    179    ccc     C4   5518 0.12498100  12.010000   ; qtot 178.078900
 5519         hx    179    ccc     H7   5519 0.12238100   1.008000   ; qtot 178.201281
 5520         hx    179    ccc     H8   5520 0.12238100   1.008000   ; qtot 178.323662
 5521         c3    179    ccc     C5   5521 -0.20771900  12.010000   ; qtot 178.115943
 5522         hc    179    ccc     H9   5522 0.11463100   1.008000   ; qtot 178.230574
 5523         hc    179    ccc    H10   5523 0.11463100   1.008000   ; qtot 178.345205
 5524          c    179    ccc     C6   5524 0.64078100  12.010000   ; qtot 178.985986
 5525          o    179    ccc     O1   5525 -0.49231900  16.000000   ; qtot 178.493667
 5526         oh    179    ccc     O2   5526 -0.51841900  16.000000   ; qtot 177.975248
 5527         ho    179    ccc    H11   5527 0.45318100   1.008000   ; qtot 178.428429
 5528         c3    179    ccc     C7   5528 0.12498100  12.010000   ; qtot 178.553410
 5529         hx    179    ccc    H12   5529 0.12238100   1.008000   ; qtot 178.675791
 5530         hx    179    ccc    H13   5530 0.12238100   1.008000   ; qtot 178.798172
 5531         c3    179    ccc     C8   5531 -0.20771900  12.010000   ; qtot 178.590453
 5532         hc    179    ccc    H14   5532 0.11463100   1.008000   ; qtot 178.705084
 5533         hc    179    ccc    H15   5533 0.11463100   1.008000   ; qtot 178.819715
 5534          c    179    ccc     C9   5534 0.64078100  12.010000   ; qtot 179.460496
 5535          o    179    ccc     O3   5535 -0.49231900  16.000000   ; qtot 178.968177
 5536         oh    179    ccc     O4   5536 -0.51841900  16.000000   ; qtot 178.449758
 5537         ho    179    ccc    H16   5537 0.45318100   1.008000   ; qtot 178.902939
 5538         os    179    ccc     O5   5538 -0.39491900  16.000000   ; qtot 178.508020
 5539         hn    179    ccc    H17   5539 0.49148100   1.008000   ; qtot 178.999501
; residue  180 ccc rtp ccc q 1.0
 5540         c3    180    ccc     C1   5540 0.14608100  12.010000   ; qtot 179.145582
 5541         h1    180    ccc     H1   5541 0.06738100   1.008000   ; qtot 179.212963
 5542         h1    180    ccc     H2   5542 0.06738100   1.008000   ; qtot 179.280344
 5543         c3    180    ccc     C2   5543 -0.14571900  12.010000   ; qtot 179.134625
 5544         hc    180    ccc     H3   5544 0.08688100   1.008000   ; qtot 179.221506
 5545         hc    180    ccc     H4   5545 0.08688100   1.008000   ; qtot 179.308387
 5546         c3    180    ccc     C3   5546 0.12348100  12.010000   ; qtot 179.431868
 5547         hx    180    ccc     H5   5547 0.10638100   1.008000   ; qtot 179.538249
 5548         hx    180    ccc     H6   5548 0.10638100   1.008000   ; qtot 179.644630
 5549         n4    180    ccc     N1   5549 -0.69071900  14.010000   ; qtot 178.953911
 5550         c3    180    ccc     C4   5550 0.12498100  12.010000   ; qtot 179.078892
 5551         hx    180    ccc     H7   5551 0.12238100   1.008000   ; qtot 179.201273
 5552         hx    180    ccc     H8   5552 0.12238100   1.008000   ; qtot 179.323654
 5553         c3    180    ccc     C5   5553 -0.20771900  12.010000   ; qtot 179.115935
 5554         hc    180    ccc     H9   5554 0.11463100   1.008000   ; qtot 179.230566
 5555         hc    180    ccc    H10   5555 0.11463100   1.008000   ; qtot 179.345197
 5556          c    180    ccc     C6   5556 0.64078100  12.010000   ; qtot 179.985978
 5557          o    180    ccc     O1   5557 -0.49231900  16.000000   ; qtot 179.493659
 5558         oh    180    ccc     O2   5558 -0.51841900  16.000000   ; qtot 178.975240
 5559         ho    180    ccc    H11   5559 0.45318100   1.008000   ; qtot 179.428421
 5560         c3    180    ccc     C7   5560 0.12498100  12.010000   ; qtot 179.553402
 5561         hx    180    ccc    H12   5561 0.12238100   1.008000   ; qtot 179.675783
 5562         hx    180    ccc    H13   5562 0.12238100   1.008000   ; qtot 179.798164
 5563         c3    180    ccc     C8   5563 -0.20771900  12.010000   ; qtot 179.590445
 5564         hc    180    ccc    H14   5564 0.11463100   1.008000   ; qtot 179.705076
 5565         hc    180    ccc    H15   5565 0.11463100   1.008000   ; qtot 179.819707
 5566          c    180    ccc     C9   5566 0.64078100  12.010000   ; qtot 180.460488
 5567          o    180    ccc     O3   5567 -0.49231900  16.000000   ; qtot 179.968169
 5568         oh    180    ccc     O4   5568 -0.51841900  16.000000   ; qtot 179.449750
 5569         ho    180    ccc    H16   5569 0.45318100   1.008000   ; qtot 179.902931
 5570         os    180    ccc     O5   5570 -0.39491900  16.000000   ; qtot 179.508012
 5571         hn    180    ccc    H17   5571 0.49148100   1.008000   ; qtot 179.999493
; residue  181 ccc rtp ccc q 1.0
 5572         c3    181    ccc     C1   5572 0.14608100  12.010000   ; qtot 180.145574
 5573         h1    181    ccc     H1   5573 0.06738100   1.008000   ; qtot 180.212955
 5574         h1    181    ccc     H2   5574 0.06738100   1.008000   ; qtot 180.280336
 5575         c3    181    ccc     C2   5575 -0.14571900  12.010000   ; qtot 180.134617
 5576         hc    181    ccc     H3   5576 0.08688100   1.008000   ; qtot 180.221498
 5577         hc    181    ccc     H4   5577 0.08688100   1.008000   ; qtot 180.308379
 5578         c3    181    ccc     C3   5578 0.12348100  12.010000   ; qtot 180.431860
 5579         hx    181    ccc     H5   5579 0.10638100   1.008000   ; qtot 180.538241
 5580         hx    181    ccc     H6   5580 0.10638100   1.008000   ; qtot 180.644622
 5581         n4    181    ccc     N1   5581 -0.69071900  14.010000   ; qtot 179.953903
 5582         c3    181    ccc     C4   5582 0.12498100  12.010000   ; qtot 180.078884
 5583         hx    181    ccc     H7   5583 0.12238100   1.008000   ; qtot 180.201265
 5584         hx    181    ccc     H8   5584 0.12238100   1.008000   ; qtot 180.323646
 5585         c3    181    ccc     C5   5585 -0.20771900  12.010000   ; qtot 180.115927
 5586         hc    181    ccc     H9   5586 0.11463100   1.008000   ; qtot 180.230558
 5587         hc    181    ccc    H10   5587 0.11463100   1.008000   ; qtot 180.345189
 5588          c    181    ccc     C6   5588 0.64078100  12.010000   ; qtot 180.985970
 5589          o    181    ccc     O1   5589 -0.49231900  16.000000   ; qtot 180.493651
 5590         oh    181    ccc     O2   5590 -0.51841900  16.000000   ; qtot 179.975232
 5591         ho    181    ccc    H11   5591 0.45318100   1.008000   ; qtot 180.428413
 5592         c3    181    ccc     C7   5592 0.12498100  12.010000   ; qtot 180.553394
 5593         hx    181    ccc    H12   5593 0.12238100   1.008000   ; qtot 180.675775
 5594         hx    181    ccc    H13   5594 0.12238100   1.008000   ; qtot 180.798156
 5595         c3    181    ccc     C8   5595 -0.20771900  12.010000   ; qtot 180.590437
 5596         hc    181    ccc    H14   5596 0.11463100   1.008000   ; qtot 180.705068
 5597         hc    181    ccc    H15   5597 0.11463100   1.008000   ; qtot 180.819699
 5598          c    181    ccc     C9   5598 0.64078100  12.010000   ; qtot 181.460480
 5599          o    181    ccc     O3   5599 -0.49231900  16.000000   ; qtot 180.968161
 5600         oh    181    ccc     O4   5600 -0.51841900  16.000000   ; qtot 180.449742
 5601         ho    181    ccc    H16   5601 0.45318100   1.008000   ; qtot 180.902923
 5602         os    181    ccc     O5   5602 -0.39491900  16.000000   ; qtot 180.508004
 5603         hn    181    ccc    H17   5603 0.49148100   1.008000   ; qtot 180.999485
; residue  182 ccc rtp ccc q 1.0
 5604         c3    182    ccc     C1   5604 0.14608100  12.010000   ; qtot 181.145566
 5605         h1    182    ccc     H1   5605 0.06738100   1.008000   ; qtot 181.212947
 5606         h1    182    ccc     H2   5606 0.06738100   1.008000   ; qtot 181.280328
 5607         c3    182    ccc     C2   5607 -0.14571900  12.010000   ; qtot 181.134609
 5608         hc    182    ccc     H3   5608 0.08688100   1.008000   ; qtot 181.221490
 5609         hc    182    ccc     H4   5609 0.08688100   1.008000   ; qtot 181.308371
 5610         c3    182    ccc     C3   5610 0.12348100  12.010000   ; qtot 181.431852
 5611         hx    182    ccc     H5   5611 0.10638100   1.008000   ; qtot 181.538233
 5612         hx    182    ccc     H6   5612 0.10638100   1.008000   ; qtot 181.644614
 5613         n4    182    ccc     N1   5613 -0.69071900  14.010000   ; qtot 180.953895
 5614         c3    182    ccc     C4   5614 0.12498100  12.010000   ; qtot 181.078876
 5615         hx    182    ccc     H7   5615 0.12238100   1.008000   ; qtot 181.201257
 5616         hx    182    ccc     H8   5616 0.12238100   1.008000   ; qtot 181.323638
 5617         c3    182    ccc     C5   5617 -0.20771900  12.010000   ; qtot 181.115919
 5618         hc    182    ccc     H9   5618 0.11463100   1.008000   ; qtot 181.230550
 5619         hc    182    ccc    H10   5619 0.11463100   1.008000   ; qtot 181.345181
 5620          c    182    ccc     C6   5620 0.64078100  12.010000   ; qtot 181.985962
 5621          o    182    ccc     O1   5621 -0.49231900  16.000000   ; qtot 181.493643
 5622         oh    182    ccc     O2   5622 -0.51841900  16.000000   ; qtot 180.975224
 5623         ho    182    ccc    H11   5623 0.45318100   1.008000   ; qtot 181.428405
 5624         c3    182    ccc     C7   5624 0.12498100  12.010000   ; qtot 181.553386
 5625         hx    182    ccc    H12   5625 0.12238100   1.008000   ; qtot 181.675767
 5626         hx    182    ccc    H13   5626 0.12238100   1.008000   ; qtot 181.798148
 5627         c3    182    ccc     C8   5627 -0.20771900  12.010000   ; qtot 181.590429
 5628         hc    182    ccc    H14   5628 0.11463100   1.008000   ; qtot 181.705060
 5629         hc    182    ccc    H15   5629 0.11463100   1.008000   ; qtot 181.819691
 5630          c    182    ccc     C9   5630 0.64078100  12.010000   ; qtot 182.460472
 5631          o    182    ccc     O3   5631 -0.49231900  16.000000   ; qtot 181.968153
 5632         oh    182    ccc     O4   5632 -0.51841900  16.000000   ; qtot 181.449734
 5633         ho    182    ccc    H16   5633 0.45318100   1.008000   ; qtot 181.902915
 5634         os    182    ccc     O5   5634 -0.39491900  16.000000   ; qtot 181.507996
 5635         hn    182    ccc    H17   5635 0.49148100   1.008000   ; qtot 181.999477
; residue  183 ccc rtp ccc q 1.0
 5636         c3    183    ccc     C1   5636 0.14608100  12.010000   ; qtot 182.145558
 5637         h1    183    ccc     H1   5637 0.06738100   1.008000   ; qtot 182.212939
 5638         h1    183    ccc     H2   5638 0.06738100   1.008000   ; qtot 182.280320
 5639         c3    183    ccc     C2   5639 -0.14571900  12.010000   ; qtot 182.134601
 5640         hc    183    ccc     H3   5640 0.08688100   1.008000   ; qtot 182.221482
 5641         hc    183    ccc     H4   5641 0.08688100   1.008000   ; qtot 182.308363
 5642         c3    183    ccc     C3   5642 0.12348100  12.010000   ; qtot 182.431844
 5643         hx    183    ccc     H5   5643 0.10638100   1.008000   ; qtot 182.538225
 5644         hx    183    ccc     H6   5644 0.10638100   1.008000   ; qtot 182.644606
 5645         n4    183    ccc     N1   5645 -0.69071900  14.010000   ; qtot 181.953887
 5646         c3    183    ccc     C4   5646 0.12498100  12.010000   ; qtot 182.078868
 5647         hx    183    ccc     H7   5647 0.12238100   1.008000   ; qtot 182.201249
 5648         hx    183    ccc     H8   5648 0.12238100   1.008000   ; qtot 182.323630
 5649         c3    183    ccc     C5   5649 -0.20771900  12.010000   ; qtot 182.115911
 5650         hc    183    ccc     H9   5650 0.11463100   1.008000   ; qtot 182.230542
 5651         hc    183    ccc    H10   5651 0.11463100   1.008000   ; qtot 182.345173
 5652          c    183    ccc     C6   5652 0.64078100  12.010000   ; qtot 182.985954
 5653          o    183    ccc     O1   5653 -0.49231900  16.000000   ; qtot 182.493635
 5654         oh    183    ccc     O2   5654 -0.51841900  16.000000   ; qtot 181.975216
 5655         ho    183    ccc    H11   5655 0.45318100   1.008000   ; qtot 182.428397
 5656         c3    183    ccc     C7   5656 0.12498100  12.010000   ; qtot 182.553378
 5657         hx    183    ccc    H12   5657 0.12238100   1.008000   ; qtot 182.675759
 5658         hx    183    ccc    H13   5658 0.12238100   1.008000   ; qtot 182.798140
 5659         c3    183    ccc     C8   5659 -0.20771900  12.010000   ; qtot 182.590421
 5660         hc    183    ccc    H14   5660 0.11463100   1.008000   ; qtot 182.705052
 5661         hc    183    ccc    H15   5661 0.11463100   1.008000   ; qtot 182.819683
 5662          c    183    ccc     C9   5662 0.64078100  12.010000   ; qtot 183.460464
 5663          o    183    ccc     O3   5663 -0.49231900  16.000000   ; qtot 182.968145
 5664         oh    183    ccc     O4   5664 -0.51841900  16.000000   ; qtot 182.449726
 5665         ho    183    ccc    H16   5665 0.45318100   1.008000   ; qtot 182.902907
 5666         os    183    ccc     O5   5666 -0.39491900  16.000000   ; qtot 182.507988
 5667         hn    183    ccc    H17   5667 0.49148100   1.008000   ; qtot 182.999469
; residue  184 ccc rtp ccc q 1.0
 5668         c3    184    ccc     C1   5668 0.14608100  12.010000   ; qtot 183.145550
 5669         h1    184    ccc     H1   5669 0.06738100   1.008000   ; qtot 183.212931
 5670         h1    184    ccc     H2   5670 0.06738100   1.008000   ; qtot 183.280312
 5671         c3    184    ccc     C2   5671 -0.14571900  12.010000   ; qtot 183.134593
 5672         hc    184    ccc     H3   5672 0.08688100   1.008000   ; qtot 183.221474
 5673         hc    184    ccc     H4   5673 0.08688100   1.008000   ; qtot 183.308355
 5674         c3    184    ccc     C3   5674 0.12348100  12.010000   ; qtot 183.431836
 5675         hx    184    ccc     H5   5675 0.10638100   1.008000   ; qtot 183.538217
 5676         hx    184    ccc     H6   5676 0.10638100   1.008000   ; qtot 183.644598
 5677         n4    184    ccc     N1   5677 -0.69071900  14.010000   ; qtot 182.953879
 5678         c3    184    ccc     C4   5678 0.12498100  12.010000   ; qtot 183.078860
 5679         hx    184    ccc     H7   5679 0.12238100   1.008000   ; qtot 183.201241
 5680         hx    184    ccc     H8   5680 0.12238100   1.008000   ; qtot 183.323622
 5681         c3    184    ccc     C5   5681 -0.20771900  12.010000   ; qtot 183.115903
 5682         hc    184    ccc     H9   5682 0.11463100   1.008000   ; qtot 183.230534
 5683         hc    184    ccc    H10   5683 0.11463100   1.008000   ; qtot 183.345165
 5684          c    184    ccc     C6   5684 0.64078100  12.010000   ; qtot 183.985946
 5685          o    184    ccc     O1   5685 -0.49231900  16.000000   ; qtot 183.493627
 5686         oh    184    ccc     O2   5686 -0.51841900  16.000000   ; qtot 182.975208
 5687         ho    184    ccc    H11   5687 0.45318100   1.008000   ; qtot 183.428389
 5688         c3    184    ccc     C7   5688 0.12498100  12.010000   ; qtot 183.553370
 5689         hx    184    ccc    H12   5689 0.12238100   1.008000   ; qtot 183.675751
 5690         hx    184    ccc    H13   5690 0.12238100   1.008000   ; qtot 183.798132
 5691         c3    184    ccc     C8   5691 -0.20771900  12.010000   ; qtot 183.590413
 5692         hc    184    ccc    H14   5692 0.11463100   1.008000   ; qtot 183.705044
 5693         hc    184    ccc    H15   5693 0.11463100   1.008000   ; qtot 183.819675
 5694          c    184    ccc     C9   5694 0.64078100  12.010000   ; qtot 184.460456
 5695          o    184    ccc     O3   5695 -0.49231900  16.000000   ; qtot 183.968137
 5696         oh    184    ccc     O4   5696 -0.51841900  16.000000   ; qtot 183.449718
 5697         ho    184    ccc    H16   5697 0.45318100   1.008000   ; qtot 183.902899
 5698         os    184    ccc     O5   5698 -0.39491900  16.000000   ; qtot 183.507980
 5699         hn    184    ccc    H17   5699 0.49148100   1.008000   ; qtot 183.999461
; residue  185 ccc rtp ccc q 1.0
 5700         c3    185    ccc     C1   5700 0.14608100  12.010000   ; qtot 184.145542
 5701         h1    185    ccc     H1   5701 0.06738100   1.008000   ; qtot 184.212923
 5702         h1    185    ccc     H2   5702 0.06738100   1.008000   ; qtot 184.280304
 5703         c3    185    ccc     C2   5703 -0.14571900  12.010000   ; qtot 184.134585
 5704         hc    185    ccc     H3   5704 0.08688100   1.008000   ; qtot 184.221466
 5705         hc    185    ccc     H4   5705 0.08688100   1.008000   ; qtot 184.308347
 5706         c3    185    ccc     C3   5706 0.12348100  12.010000   ; qtot 184.431828
 5707         hx    185    ccc     H5   5707 0.10638100   1.008000   ; qtot 184.538209
 5708         hx    185    ccc     H6   5708 0.10638100   1.008000   ; qtot 184.644590
 5709         n4    185    ccc     N1   5709 -0.69071900  14.010000   ; qtot 183.953871
 5710         c3    185    ccc     C4   5710 0.12498100  12.010000   ; qtot 184.078852
 5711         hx    185    ccc     H7   5711 0.12238100   1.008000   ; qtot 184.201233
 5712         hx    185    ccc     H8   5712 0.12238100   1.008000   ; qtot 184.323614
 5713         c3    185    ccc     C5   5713 -0.20771900  12.010000   ; qtot 184.115895
 5714         hc    185    ccc     H9   5714 0.11463100   1.008000   ; qtot 184.230526
 5715         hc    185    ccc    H10   5715 0.11463100   1.008000   ; qtot 184.345157
 5716          c    185    ccc     C6   5716 0.64078100  12.010000   ; qtot 184.985938
 5717          o    185    ccc     O1   5717 -0.49231900  16.000000   ; qtot 184.493619
 5718         oh    185    ccc     O2   5718 -0.51841900  16.000000   ; qtot 183.975200
 5719         ho    185    ccc    H11   5719 0.45318100   1.008000   ; qtot 184.428381
 5720         c3    185    ccc     C7   5720 0.12498100  12.010000   ; qtot 184.553362
 5721         hx    185    ccc    H12   5721 0.12238100   1.008000   ; qtot 184.675743
 5722         hx    185    ccc    H13   5722 0.12238100   1.008000   ; qtot 184.798124
 5723         c3    185    ccc     C8   5723 -0.20771900  12.010000   ; qtot 184.590405
 5724         hc    185    ccc    H14   5724 0.11463100   1.008000   ; qtot 184.705036
 5725         hc    185    ccc    H15   5725 0.11463100   1.008000   ; qtot 184.819667
 5726          c    185    ccc     C9   5726 0.64078100  12.010000   ; qtot 185.460448
 5727          o    185    ccc     O3   5727 -0.49231900  16.000000   ; qtot 184.968129
 5728         oh    185    ccc     O4   5728 -0.51841900  16.000000   ; qtot 184.449710
 5729         ho    185    ccc    H16   5729 0.45318100   1.008000   ; qtot 184.902891
 5730         os    185    ccc     O5   5730 -0.39491900  16.000000   ; qtot 184.507972
 5731         hn    185    ccc    H17   5731 0.49148100   1.008000   ; qtot 184.999453
; residue  186 ccc rtp ccc q 1.0
 5732         c3    186    ccc     C1   5732 0.14608100  12.010000   ; qtot 185.145534
 5733         h1    186    ccc     H1   5733 0.06738100   1.008000   ; qtot 185.212915
 5734         h1    186    ccc     H2   5734 0.06738100   1.008000   ; qtot 185.280296
 5735         c3    186    ccc     C2   5735 -0.14571900  12.010000   ; qtot 185.134577
 5736         hc    186    ccc     H3   5736 0.08688100   1.008000   ; qtot 185.221458
 5737         hc    186    ccc     H4   5737 0.08688100   1.008000   ; qtot 185.308339
 5738         c3    186    ccc     C3   5738 0.12348100  12.010000   ; qtot 185.431820
 5739         hx    186    ccc     H5   5739 0.10638100   1.008000   ; qtot 185.538201
 5740         hx    186    ccc     H6   5740 0.10638100   1.008000   ; qtot 185.644582
 5741         n4    186    ccc     N1   5741 -0.69071900  14.010000   ; qtot 184.953863
 5742         c3    186    ccc     C4   5742 0.12498100  12.010000   ; qtot 185.078844
 5743         hx    186    ccc     H7   5743 0.12238100   1.008000   ; qtot 185.201225
 5744         hx    186    ccc     H8   5744 0.12238100   1.008000   ; qtot 185.323606
 5745         c3    186    ccc     C5   5745 -0.20771900  12.010000   ; qtot 185.115887
 5746         hc    186    ccc     H9   5746 0.11463100   1.008000   ; qtot 185.230518
 5747         hc    186    ccc    H10   5747 0.11463100   1.008000   ; qtot 185.345149
 5748          c    186    ccc     C6   5748 0.64078100  12.010000   ; qtot 185.985930
 5749          o    186    ccc     O1   5749 -0.49231900  16.000000   ; qtot 185.493611
 5750         oh    186    ccc     O2   5750 -0.51841900  16.000000   ; qtot 184.975192
 5751         ho    186    ccc    H11   5751 0.45318100   1.008000   ; qtot 185.428373
 5752         c3    186    ccc     C7   5752 0.12498100  12.010000   ; qtot 185.553354
 5753         hx    186    ccc    H12   5753 0.12238100   1.008000   ; qtot 185.675735
 5754         hx    186    ccc    H13   5754 0.12238100   1.008000   ; qtot 185.798116
 5755         c3    186    ccc     C8   5755 -0.20771900  12.010000   ; qtot 185.590397
 5756         hc    186    ccc    H14   5756 0.11463100   1.008000   ; qtot 185.705028
 5757         hc    186    ccc    H15   5757 0.11463100   1.008000   ; qtot 185.819659
 5758          c    186    ccc     C9   5758 0.64078100  12.010000   ; qtot 186.460440
 5759          o    186    ccc     O3   5759 -0.49231900  16.000000   ; qtot 185.968121
 5760         oh    186    ccc     O4   5760 -0.51841900  16.000000   ; qtot 185.449702
 5761         ho    186    ccc    H16   5761 0.45318100   1.008000   ; qtot 185.902883
 5762         os    186    ccc     O5   5762 -0.39491900  16.000000   ; qtot 185.507964
 5763         hn    186    ccc    H17   5763 0.49148100   1.008000   ; qtot 185.999445
; residue  187 ccc rtp ccc q 1.0
 5764         c3    187    ccc     C1   5764 0.14608100  12.010000   ; qtot 186.145526
 5765         h1    187    ccc     H1   5765 0.06738100   1.008000   ; qtot 186.212907
 5766         h1    187    ccc     H2   5766 0.06738100   1.008000   ; qtot 186.280288
 5767         c3    187    ccc     C2   5767 -0.14571900  12.010000   ; qtot 186.134569
 5768         hc    187    ccc     H3   5768 0.08688100   1.008000   ; qtot 186.221450
 5769         hc    187    ccc     H4   5769 0.08688100   1.008000   ; qtot 186.308331
 5770         c3    187    ccc     C3   5770 0.12348100  12.010000   ; qtot 186.431812
 5771         hx    187    ccc     H5   5771 0.10638100   1.008000   ; qtot 186.538193
 5772         hx    187    ccc     H6   5772 0.10638100   1.008000   ; qtot 186.644574
 5773         n4    187    ccc     N1   5773 -0.69071900  14.010000   ; qtot 185.953855
 5774         c3    187    ccc     C4   5774 0.12498100  12.010000   ; qtot 186.078836
 5775         hx    187    ccc     H7   5775 0.12238100   1.008000   ; qtot 186.201217
 5776         hx    187    ccc     H8   5776 0.12238100   1.008000   ; qtot 186.323598
 5777         c3    187    ccc     C5   5777 -0.20771900  12.010000   ; qtot 186.115879
 5778         hc    187    ccc     H9   5778 0.11463100   1.008000   ; qtot 186.230510
 5779         hc    187    ccc    H10   5779 0.11463100   1.008000   ; qtot 186.345141
 5780          c    187    ccc     C6   5780 0.64078100  12.010000   ; qtot 186.985922
 5781          o    187    ccc     O1   5781 -0.49231900  16.000000   ; qtot 186.493603
 5782         oh    187    ccc     O2   5782 -0.51841900  16.000000   ; qtot 185.975184
 5783         ho    187    ccc    H11   5783 0.45318100   1.008000   ; qtot 186.428365
 5784         c3    187    ccc     C7   5784 0.12498100  12.010000   ; qtot 186.553346
 5785         hx    187    ccc    H12   5785 0.12238100   1.008000   ; qtot 186.675727
 5786         hx    187    ccc    H13   5786 0.12238100   1.008000   ; qtot 186.798108
 5787         c3    187    ccc     C8   5787 -0.20771900  12.010000   ; qtot 186.590389
 5788         hc    187    ccc    H14   5788 0.11463100   1.008000   ; qtot 186.705020
 5789         hc    187    ccc    H15   5789 0.11463100   1.008000   ; qtot 186.819651
 5790          c    187    ccc     C9   5790 0.64078100  12.010000   ; qtot 187.460432
 5791          o    187    ccc     O3   5791 -0.49231900  16.000000   ; qtot 186.968113
 5792         oh    187    ccc     O4   5792 -0.51841900  16.000000   ; qtot 186.449694
 5793         ho    187    ccc    H16   5793 0.45318100   1.008000   ; qtot 186.902875
 5794         os    187    ccc     O5   5794 -0.39491900  16.000000   ; qtot 186.507956
 5795         hn    187    ccc    H17   5795 0.49148100   1.008000   ; qtot 186.999437
; residue  188 ccc rtp ccc q 1.0
 5796         c3    188    ccc     C1   5796 0.14608100  12.010000   ; qtot 187.145518
 5797         h1    188    ccc     H1   5797 0.06738100   1.008000   ; qtot 187.212899
 5798         h1    188    ccc     H2   5798 0.06738100   1.008000   ; qtot 187.280280
 5799         c3    188    ccc     C2   5799 -0.14571900  12.010000   ; qtot 187.134561
 5800         hc    188    ccc     H3   5800 0.08688100   1.008000   ; qtot 187.221442
 5801         hc    188    ccc     H4   5801 0.08688100   1.008000   ; qtot 187.308323
 5802         c3    188    ccc     C3   5802 0.12348100  12.010000   ; qtot 187.431804
 5803         hx    188    ccc     H5   5803 0.10638100   1.008000   ; qtot 187.538185
 5804         hx    188    ccc     H6   5804 0.10638100   1.008000   ; qtot 187.644566
 5805         n4    188    ccc     N1   5805 -0.69071900  14.010000   ; qtot 186.953847
 5806         c3    188    ccc     C4   5806 0.12498100  12.010000   ; qtot 187.078828
 5807         hx    188    ccc     H7   5807 0.12238100   1.008000   ; qtot 187.201209
 5808         hx    188    ccc     H8   5808 0.12238100   1.008000   ; qtot 187.323590
 5809         c3    188    ccc     C5   5809 -0.20771900  12.010000   ; qtot 187.115871
 5810         hc    188    ccc     H9   5810 0.11463100   1.008000   ; qtot 187.230502
 5811         hc    188    ccc    H10   5811 0.11463100   1.008000   ; qtot 187.345133
 5812          c    188    ccc     C6   5812 0.64078100  12.010000   ; qtot 187.985914
 5813          o    188    ccc     O1   5813 -0.49231900  16.000000   ; qtot 187.493595
 5814         oh    188    ccc     O2   5814 -0.51841900  16.000000   ; qtot 186.975176
 5815         ho    188    ccc    H11   5815 0.45318100   1.008000   ; qtot 187.428357
 5816         c3    188    ccc     C7   5816 0.12498100  12.010000   ; qtot 187.553338
 5817         hx    188    ccc    H12   5817 0.12238100   1.008000   ; qtot 187.675719
 5818         hx    188    ccc    H13   5818 0.12238100   1.008000   ; qtot 187.798100
 5819         c3    188    ccc     C8   5819 -0.20771900  12.010000   ; qtot 187.590381
 5820         hc    188    ccc    H14   5820 0.11463100   1.008000   ; qtot 187.705012
 5821         hc    188    ccc    H15   5821 0.11463100   1.008000   ; qtot 187.819643
 5822          c    188    ccc     C9   5822 0.64078100  12.010000   ; qtot 188.460424
 5823          o    188    ccc     O3   5823 -0.49231900  16.000000   ; qtot 187.968105
 5824         oh    188    ccc     O4   5824 -0.51841900  16.000000   ; qtot 187.449686
 5825         ho    188    ccc    H16   5825 0.45318100   1.008000   ; qtot 187.902867
 5826         os    188    ccc     O5   5826 -0.39491900  16.000000   ; qtot 187.507948
 5827         hn    188    ccc    H17   5827 0.49148100   1.008000   ; qtot 187.999429
; residue  189 ccc rtp ccc q 1.0
 5828         c3    189    ccc     C1   5828 0.14608100  12.010000   ; qtot 188.145510
 5829         h1    189    ccc     H1   5829 0.06738100   1.008000   ; qtot 188.212891
 5830         h1    189    ccc     H2   5830 0.06738100   1.008000   ; qtot 188.280272
 5831         c3    189    ccc     C2   5831 -0.14571900  12.010000   ; qtot 188.134553
 5832         hc    189    ccc     H3   5832 0.08688100   1.008000   ; qtot 188.221434
 5833         hc    189    ccc     H4   5833 0.08688100   1.008000   ; qtot 188.308315
 5834         c3    189    ccc     C3   5834 0.12348100  12.010000   ; qtot 188.431796
 5835         hx    189    ccc     H5   5835 0.10638100   1.008000   ; qtot 188.538177
 5836         hx    189    ccc     H6   5836 0.10638100   1.008000   ; qtot 188.644558
 5837         n4    189    ccc     N1   5837 -0.69071900  14.010000   ; qtot 187.953839
 5838         c3    189    ccc     C4   5838 0.12498100  12.010000   ; qtot 188.078820
 5839         hx    189    ccc     H7   5839 0.12238100   1.008000   ; qtot 188.201201
 5840         hx    189    ccc     H8   5840 0.12238100   1.008000   ; qtot 188.323582
 5841         c3    189    ccc     C5   5841 -0.20771900  12.010000   ; qtot 188.115863
 5842         hc    189    ccc     H9   5842 0.11463100   1.008000   ; qtot 188.230494
 5843         hc    189    ccc    H10   5843 0.11463100   1.008000   ; qtot 188.345125
 5844          c    189    ccc     C6   5844 0.64078100  12.010000   ; qtot 188.985906
 5845          o    189    ccc     O1   5845 -0.49231900  16.000000   ; qtot 188.493587
 5846         oh    189    ccc     O2   5846 -0.51841900  16.000000   ; qtot 187.975168
 5847         ho    189    ccc    H11   5847 0.45318100   1.008000   ; qtot 188.428349
 5848         c3    189    ccc     C7   5848 0.12498100  12.010000   ; qtot 188.553330
 5849         hx    189    ccc    H12   5849 0.12238100   1.008000   ; qtot 188.675711
 5850         hx    189    ccc    H13   5850 0.12238100   1.008000   ; qtot 188.798092
 5851         c3    189    ccc     C8   5851 -0.20771900  12.010000   ; qtot 188.590373
 5852         hc    189    ccc    H14   5852 0.11463100   1.008000   ; qtot 188.705004
 5853         hc    189    ccc    H15   5853 0.11463100   1.008000   ; qtot 188.819635
 5854          c    189    ccc     C9   5854 0.64078100  12.010000   ; qtot 189.460416
 5855          o    189    ccc     O3   5855 -0.49231900  16.000000   ; qtot 188.968097
 5856         oh    189    ccc     O4   5856 -0.51841900  16.000000   ; qtot 188.449678
 5857         ho    189    ccc    H16   5857 0.45318100   1.008000   ; qtot 188.902859
 5858         os    189    ccc     O5   5858 -0.39491900  16.000000   ; qtot 188.507940
 5859         hn    189    ccc    H17   5859 0.49148100   1.008000   ; qtot 188.999421
; residue  190 ccc rtp ccc q 1.0
 5860         c3    190    ccc     C1   5860 0.14608100  12.010000   ; qtot 189.145502
 5861         h1    190    ccc     H1   5861 0.06738100   1.008000   ; qtot 189.212883
 5862         h1    190    ccc     H2   5862 0.06738100   1.008000   ; qtot 189.280264
 5863         c3    190    ccc     C2   5863 -0.14571900  12.010000   ; qtot 189.134545
 5864         hc    190    ccc     H3   5864 0.08688100   1.008000   ; qtot 189.221426
 5865         hc    190    ccc     H4   5865 0.08688100   1.008000   ; qtot 189.308307
 5866         c3    190    ccc     C3   5866 0.12348100  12.010000   ; qtot 189.431788
 5867         hx    190    ccc     H5   5867 0.10638100   1.008000   ; qtot 189.538169
 5868         hx    190    ccc     H6   5868 0.10638100   1.008000   ; qtot 189.644550
 5869         n4    190    ccc     N1   5869 -0.69071900  14.010000   ; qtot 188.953831
 5870         c3    190    ccc     C4   5870 0.12498100  12.010000   ; qtot 189.078812
 5871         hx    190    ccc     H7   5871 0.12238100   1.008000   ; qtot 189.201193
 5872         hx    190    ccc     H8   5872 0.12238100   1.008000   ; qtot 189.323574
 5873         c3    190    ccc     C5   5873 -0.20771900  12.010000   ; qtot 189.115855
 5874         hc    190    ccc     H9   5874 0.11463100   1.008000   ; qtot 189.230486
 5875         hc    190    ccc    H10   5875 0.11463100   1.008000   ; qtot 189.345117
 5876          c    190    ccc     C6   5876 0.64078100  12.010000   ; qtot 189.985898
 5877          o    190    ccc     O1   5877 -0.49231900  16.000000   ; qtot 189.493579
 5878         oh    190    ccc     O2   5878 -0.51841900  16.000000   ; qtot 188.975160
 5879         ho    190    ccc    H11   5879 0.45318100   1.008000   ; qtot 189.428341
 5880         c3    190    ccc     C7   5880 0.12498100  12.010000   ; qtot 189.553322
 5881         hx    190    ccc    H12   5881 0.12238100   1.008000   ; qtot 189.675703
 5882         hx    190    ccc    H13   5882 0.12238100   1.008000   ; qtot 189.798084
 5883         c3    190    ccc     C8   5883 -0.20771900  12.010000   ; qtot 189.590365
 5884         hc    190    ccc    H14   5884 0.11463100   1.008000   ; qtot 189.704996
 5885         hc    190    ccc    H15   5885 0.11463100   1.008000   ; qtot 189.819627
 5886          c    190    ccc     C9   5886 0.64078100  12.010000   ; qtot 190.460408
 5887          o    190    ccc     O3   5887 -0.49231900  16.000000   ; qtot 189.968089
 5888         oh    190    ccc     O4   5888 -0.51841900  16.000000   ; qtot 189.449670
 5889         ho    190    ccc    H16   5889 0.45318100   1.008000   ; qtot 189.902851
 5890         os    190    ccc     O5   5890 -0.39491900  16.000000   ; qtot 189.507932
 5891         hn    190    ccc    H17   5891 0.49148100   1.008000   ; qtot 189.999413

[ bonds ]
;    ai     aj funct         c0         c1         c2         c3
      1      2     1   0.15110 237065.440000
      1      5     1   0.15110 237065.440000
      1      8     1   0.15110 237065.440000
      2     14     1   0.15375 251793.120000
      5     17     1   0.15375 251793.120000
      8     11     1   0.15375 251793.120000
     11     23     1   0.15375 251793.120000
     14     26     1   0.15375 251793.120000
     17     20     1   0.15375 251793.120000
     20     58     1   0.14316 258236.480000
     23     88     1   0.14316 258236.480000
     26    118     1   0.14316 258236.480000
     30     31     1   0.15110 237065.440000
     30     34     1   0.15110 237065.440000
     30     37     1   0.15110 237065.440000
     31     43     1   0.15375 251793.120000
     34     46     1   0.15375 251793.120000
     37     40     1   0.15375 251793.120000
     40     49     1   0.15375 251793.120000
     43     55     1   0.15375 251793.120000
     46     52     1   0.15375 251793.120000
     49     58     1   0.14316 258236.480000
     52    148     1   0.14316 258236.480000
     55    178     1   0.14316 258236.480000
     60     61     1   0.15110 237065.440000
     60     64     1   0.15110 237065.440000
     60     67     1   0.15110 237065.440000
     61     73     1   0.15375 251793.120000
     64     76     1   0.15375 251793.120000
     67     70     1   0.15375 251793.120000
     70     79     1   0.15375 251793.120000
     73     85     1   0.15375 251793.120000
     76     82     1   0.15375 251793.120000
     79     88     1   0.14316 258236.480000
     82    208     1   0.14316 258236.480000
     85    238     1   0.14316 258236.480000
     90     91     1   0.15110 237065.440000
     90     94     1   0.15110 237065.440000
     90     97     1   0.15110 237065.440000
     91    103     1   0.15375 251793.120000
     94    106     1   0.15375 251793.120000
     97    100     1   0.15375 251793.120000
    100    109     1   0.15375 251793.120000
    103    115     1   0.15375 251793.120000
    106    112     1   0.15375 251793.120000
    109    118     1   0.14316 258236.480000
    112    268     1   0.14316 258236.480000
    115    298     1   0.14316 258236.480000
    120    121     1   0.15110 237065.440000
    120    124     1   0.15110 237065.440000
    120    127     1   0.15110 237065.440000
    121    133     1   0.15375 251793.120000
    124    136     1   0.15375 251793.120000
    127    130     1   0.15375 251793.120000
    130    139     1   0.15375 251793.120000
    133    145     1   0.15375 251793.120000
    136    142     1   0.15375 251793.120000
    139    148     1   0.14316 258236.480000
    142    328     1   0.14316 258236.480000
    145    358     1   0.14316 258236.480000
    150    151     1   0.15110 237065.440000
    150    154     1   0.15110 237065.440000
    150    157     1   0.15110 237065.440000
    151    163     1   0.15375 251793.120000
    154    166     1   0.15375 251793.120000
    157    160     1   0.15375 251793.120000
    160    169     1   0.15375 251793.120000
    163    175     1   0.15375 251793.120000
    166    172     1   0.15375 251793.120000
    169    178     1   0.14316 258236.480000
    172    388     1   0.14316 258236.480000
    175    418     1   0.14316 258236.480000
    180    181     1   0.15110 237065.440000
    180    184     1   0.15110 237065.440000
    180    187     1   0.15110 237065.440000
    181    193     1   0.15375 251793.120000
    184    196     1   0.15375 251793.120000
    187    190     1   0.15375 251793.120000
    190    199     1   0.15375 251793.120000
    193    205     1   0.15375 251793.120000
    196    202     1   0.15375 251793.120000
    199    208     1   0.14316 258236.480000
    202    448     1   0.14316 258236.480000
    205    478     1   0.14316 258236.480000
    210    211     1   0.15110 237065.440000
    210    214     1   0.15110 237065.440000
    210    217     1   0.15110 237065.440000
    211    223     1   0.15375 251793.120000
    214    226     1   0.15375 251793.120000
    217    220     1   0.15375 251793.120000
    220    229     1   0.15375 251793.120000
    223    235     1   0.15375 251793.120000
    226    232     1   0.15375 251793.120000
    229    238     1   0.14316 258236.480000
    232    508     1   0.14316 258236.480000
    235    538     1   0.14316 258236.480000
    240    241     1   0.15110 237065.440000
    240    244     1   0.15110 237065.440000
    240    247     1   0.15110 237065.440000
    241    253     1   0.15375 251793.120000
    244    256     1   0.15375 251793.120000
    247    250     1   0.15375 251793.120000
    250    259     1   0.15375 251793.120000
    253    265     1   0.15375 251793.120000
    256    262     1   0.15375 251793.120000
    259    268     1   0.14316 258236.480000
    262    568     1   0.14316 258236.480000
    265    598     1   0.14316 258236.480000
    270    271     1   0.15110 237065.440000
    270    274     1   0.15110 237065.440000
    270    277     1   0.15110 237065.440000
    271    283     1   0.15375 251793.120000
    274    286     1   0.15375 251793.120000
    277    280     1   0.15375 251793.120000
    280    289     1   0.15375 251793.120000
    283    295     1   0.15375 251793.120000
    286    292     1   0.15375 251793.120000
    289    298     1   0.14316 258236.480000
    292    628     1   0.14316 258236.480000
    295    658     1   0.14316 258236.480000
    300    301     1   0.15110 237065.440000
    300    304     1   0.15110 237065.440000
    300    307     1   0.15110 237065.440000
    301    313     1   0.15375 251793.120000
    304    316     1   0.15375 251793.120000
    307    310     1   0.15375 251793.120000
    310    319     1   0.15375 251793.120000
    313    325     1   0.15375 251793.120000
    316    322     1   0.15375 251793.120000
    319    328     1   0.14316 258236.480000
    322    688     1   0.14316 258236.480000
    325    718     1   0.14316 258236.480000
    330    331     1   0.15110 237065.440000
    330    334     1   0.15110 237065.440000
    330    337     1   0.15110 237065.440000
    331    343     1   0.15375 251793.120000
    334    346     1   0.15375 251793.120000
    337    340     1   0.15375 251793.120000
    340    349     1   0.15375 251793.120000
    343    355     1   0.15375 251793.120000
    346    352     1   0.15375 251793.120000
    349    358     1   0.14316 258236.480000
    352    748     1   0.14316 258236.480000
    355    778     1   0.14316 258236.480000
    360    361     1   0.15110 237065.440000
    360    364     1   0.15110 237065.440000
    360    367     1   0.15110 237065.440000
    361    373     1   0.15375 251793.120000
    364    376     1   0.15375 251793.120000
    367    370     1   0.15375 251793.120000
    370    379     1   0.15375 251793.120000
    373    385     1   0.15375 251793.120000
    376    382     1   0.15375 251793.120000
    379    388     1   0.14316 258236.480000
    382    808     1   0.14316 258236.480000
    385    838     1   0.14316 258236.480000
    390    391     1   0.15110 237065.440000
    390    394     1   0.15110 237065.440000
    390    397     1   0.15110 237065.440000
    391    403     1   0.15375 251793.120000
    394    406     1   0.15375 251793.120000
    397    400     1   0.15375 251793.120000
    400    409     1   0.15375 251793.120000
    403    415     1   0.15375 251793.120000
    406    412     1   0.15375 251793.120000
    409    418     1   0.14316 258236.480000
    412    868     1   0.14316 258236.480000
    415    898     1   0.14316 258236.480000
    420    421     1   0.15110 237065.440000
    420    424     1   0.15110 237065.440000
    420    427     1   0.15110 237065.440000
    421    433     1   0.15375 251793.120000
    424    436     1   0.15375 251793.120000
    427    430     1   0.15375 251793.120000
    430    439     1   0.15375 251793.120000
    433    445     1   0.15375 251793.120000
    436    442     1   0.15375 251793.120000
    439    448     1   0.14316 258236.480000
    442    928     1   0.14316 258236.480000
    445    958     1   0.14316 258236.480000
    450    451     1   0.15110 237065.440000
    450    454     1   0.15110 237065.440000
    450    457     1   0.15110 237065.440000
    451    463     1   0.15375 251793.120000
    454    466     1   0.15375 251793.120000
    457    460     1   0.15375 251793.120000
    460    469     1   0.15375 251793.120000
    463    475     1   0.15375 251793.120000
    466    472     1   0.15375 251793.120000
    469    478     1   0.14316 258236.480000
    472    988     1   0.14316 258236.480000
    475   1018     1   0.14316 258236.480000
    480    481     1   0.15110 237065.440000
    480    484     1   0.15110 237065.440000
    480    487     1   0.15110 237065.440000
    481    493     1   0.15375 251793.120000
    484    496     1   0.15375 251793.120000
    487    490     1   0.15375 251793.120000
    490    499     1   0.15375 251793.120000
    493    505     1   0.15375 251793.120000
    496    502     1   0.15375 251793.120000
    499    508     1   0.14316 258236.480000
    502   1048     1   0.14316 258236.480000
    505   1078     1   0.14316 258236.480000
    510    511     1   0.15110 237065.440000
    510    514     1   0.15110 237065.440000
    510    517     1   0.15110 237065.440000
    511    523     1   0.15375 251793.120000
    514    526     1   0.15375 251793.120000
    517    520     1   0.15375 251793.120000
    520    529     1   0.15375 251793.120000
    523    535     1   0.15375 251793.120000
    526    532     1   0.15375 251793.120000
    529    538     1   0.14316 258236.480000
    532   1108     1   0.14316 258236.480000
    535   1138     1   0.14316 258236.480000
    540    541     1   0.15110 237065.440000
    540    544     1   0.15110 237065.440000
    540    547     1   0.15110 237065.440000
    541    553     1   0.15375 251793.120000
    544    556     1   0.15375 251793.120000
    547    550     1   0.15375 251793.120000
    550    559     1   0.15375 251793.120000
    553    565     1   0.15375 251793.120000
    556    562     1   0.15375 251793.120000
    559    568     1   0.14316 258236.480000
    562   1168     1   0.14316 258236.480000
    565   1198     1   0.14316 258236.480000
    570    571     1   0.15110 237065.440000
    570    574     1   0.15110 237065.440000
    570    577     1   0.15110 237065.440000
    571    583     1   0.15375 251793.120000
    574    586     1   0.15375 251793.120000
    577    580     1   0.15375 251793.120000
    580    589     1   0.15375 251793.120000
    583    595     1   0.15375 251793.120000
    586    592     1   0.15375 251793.120000
    589    598     1   0.14316 258236.480000
    592   1228     1   0.14316 258236.480000
    595   1258     1   0.14316 258236.480000
    600    601     1   0.15110 237065.440000
    600    604     1   0.15110 237065.440000
    600    607     1   0.15110 237065.440000
    601    613     1   0.15375 251793.120000
    604    616     1   0.15375 251793.120000
    607    610     1   0.15375 251793.120000
    610    619     1   0.15375 251793.120000
    613    625     1   0.15375 251793.120000
    616    622     1   0.15375 251793.120000
    619    628     1   0.14316 258236.480000
    622   1288     1   0.14316 258236.480000
    625   1318     1   0.14316 258236.480000
    630    631     1   0.15110 237065.440000
    630    634     1   0.15110 237065.440000
    630    637     1   0.15110 237065.440000
    631    643     1   0.15375 251793.120000
    634    646     1   0.15375 251793.120000
    637    640     1   0.15375 251793.120000
    640    649     1   0.15375 251793.120000
    643    655     1   0.15375 251793.120000
    646    652     1   0.15375 251793.120000
    649    658     1   0.14316 258236.480000
    652   1348     1   0.14316 258236.480000
    655   1378     1   0.14316 258236.480000
    660    661     1   0.15110 237065.440000
    660    664     1   0.15110 237065.440000
    660    667     1   0.15110 237065.440000
    661    673     1   0.15375 251793.120000
    664    676     1   0.15375 251793.120000
    667    670     1   0.15375 251793.120000
    670    679     1   0.15375 251793.120000
    673    685     1   0.15375 251793.120000
    676    682     1   0.15375 251793.120000
    679    688     1   0.14316 258236.480000
    682   1408     1   0.14316 258236.480000
    685   1438     1   0.14316 258236.480000
    690    691     1   0.15110 237065.440000
    690    694     1   0.15110 237065.440000
    690    697     1   0.15110 237065.440000
    691    703     1   0.15375 251793.120000
    694    706     1   0.15375 251793.120000
    697    700     1   0.15375 251793.120000
    700    709     1   0.15375 251793.120000
    703    715     1   0.15375 251793.120000
    706    712     1   0.15375 251793.120000
    709    718     1   0.14316 258236.480000
    712   1468     1   0.14316 258236.480000
    715   1498     1   0.14316 258236.480000
    720    721     1   0.15110 237065.440000
    720    724     1   0.15110 237065.440000
    720    727     1   0.15110 237065.440000
    721    733     1   0.15375 251793.120000
    724    736     1   0.15375 251793.120000
    727    730     1   0.15375 251793.120000
    730    739     1   0.15375 251793.120000
    733    745     1   0.15375 251793.120000
    736    742     1   0.15375 251793.120000
    739    748     1   0.14316 258236.480000
    742   1528     1   0.14316 258236.480000
    745   1558     1   0.14316 258236.480000
    750    751     1   0.15110 237065.440000
    750    754     1   0.15110 237065.440000
    750    757     1   0.15110 237065.440000
    751    763     1   0.15375 251793.120000
    754    766     1   0.15375 251793.120000
    757    760     1   0.15375 251793.120000
    760    769     1   0.15375 251793.120000
    763    775     1   0.15375 251793.120000
    766    772     1   0.15375 251793.120000
    769    778     1   0.14316 258236.480000
    772   1588     1   0.14316 258236.480000
    775   1618     1   0.14316 258236.480000
    780    781     1   0.15110 237065.440000
    780    784     1   0.15110 237065.440000
    780    787     1   0.15110 237065.440000
    781    793     1   0.15375 251793.120000
    784    796     1   0.15375 251793.120000
    787    790     1   0.15375 251793.120000
    790    799     1   0.15375 251793.120000
    793    805     1   0.15375 251793.120000
    796    802     1   0.15375 251793.120000
    799    808     1   0.14316 258236.480000
    802   1648     1   0.14316 258236.480000
    805   1678     1   0.14316 258236.480000
    810    811     1   0.15110 237065.440000
    810    814     1   0.15110 237065.440000
    810    817     1   0.15110 237065.440000
    811    823     1   0.15375 251793.120000
    814    826     1   0.15375 251793.120000
    817    820     1   0.15375 251793.120000
    820    829     1   0.15375 251793.120000
    823    835     1   0.15375 251793.120000
    826    832     1   0.15375 251793.120000
    829    838     1   0.14316 258236.480000
    832   1708     1   0.14316 258236.480000
    835   1738     1   0.14316 258236.480000
    840    841     1   0.15110 237065.440000
    840    844     1   0.15110 237065.440000
    840    847     1   0.15110 237065.440000
    841    853     1   0.15375 251793.120000
    844    856     1   0.15375 251793.120000
    847    850     1   0.15375 251793.120000
    850    859     1   0.15375 251793.120000
    853    865     1   0.15375 251793.120000
    856    862     1   0.15375 251793.120000
    859    868     1   0.14316 258236.480000
    862   1768     1   0.14316 258236.480000
    865   1798     1   0.14316 258236.480000
    870    871     1   0.15110 237065.440000
    870    874     1   0.15110 237065.440000
    870    877     1   0.15110 237065.440000
    871    883     1   0.15375 251793.120000
    874    886     1   0.15375 251793.120000
    877    880     1   0.15375 251793.120000
    880    889     1   0.15375 251793.120000
    883    895     1   0.15375 251793.120000
    886    892     1   0.15375 251793.120000
    889    898     1   0.14316 258236.480000
    892   1828     1   0.14316 258236.480000
    895   1858     1   0.14316 258236.480000
    900    901     1   0.15110 237065.440000
    900    904     1   0.15110 237065.440000
    900    907     1   0.15110 237065.440000
    901    913     1   0.15375 251793.120000
    904    916     1   0.15375 251793.120000
    907    910     1   0.15375 251793.120000
    910    919     1   0.15375 251793.120000
    913    925     1   0.15375 251793.120000
    916    922     1   0.15375 251793.120000
    919    928     1   0.14316 258236.480000
    922   1888     1   0.14316 258236.480000
    925   1918     1   0.14316 258236.480000
    930    931     1   0.15110 237065.440000
    930    934     1   0.15110 237065.440000
    930    937     1   0.15110 237065.440000
    931    943     1   0.15375 251793.120000
    934    946     1   0.15375 251793.120000
    937    940     1   0.15375 251793.120000
    940    949     1   0.15375 251793.120000
    943    955     1   0.15375 251793.120000
    946    952     1   0.15375 251793.120000
    949    958     1   0.14316 258236.480000
    952   1948     1   0.14316 258236.480000
    955   1978     1   0.14316 258236.480000
    960    961     1   0.15110 237065.440000
    960    964     1   0.15110 237065.440000
    960    967     1   0.15110 237065.440000
    961    973     1   0.15375 251793.120000
    964    976     1   0.15375 251793.120000
    967    970     1   0.15375 251793.120000
    970    979     1   0.15375 251793.120000
    973    985     1   0.15375 251793.120000
    976    982     1   0.15375 251793.120000
    979    988     1   0.14316 258236.480000
    982   2008     1   0.14316 258236.480000
    985   2038     1   0.14316 258236.480000
    990    991     1   0.15110 237065.440000
    990    994     1   0.15110 237065.440000
    990    997     1   0.15110 237065.440000
    991   1003     1   0.15375 251793.120000
    994   1006     1   0.15375 251793.120000
    997   1000     1   0.15375 251793.120000
   1000   1009     1   0.15375 251793.120000
   1003   1015     1   0.15375 251793.120000
   1006   1012     1   0.15375 251793.120000
   1009   1018     1   0.14316 258236.480000
   1012   2068     1   0.14316 258236.480000
   1015   2098     1   0.14316 258236.480000
   1020   1021     1   0.15110 237065.440000
   1020   1024     1   0.15110 237065.440000
   1020   1027     1   0.15110 237065.440000
   1021   1033     1   0.15375 251793.120000
   1024   1036     1   0.15375 251793.120000
   1027   1030     1   0.15375 251793.120000
   1030   1039     1   0.15375 251793.120000
   1033   1045     1   0.15375 251793.120000
   1036   1042     1   0.15375 251793.120000
   1039   1048     1   0.14316 258236.480000
   1042   2128     1   0.14316 258236.480000
   1045   2158     1   0.14316 258236.480000
   1050   1051     1   0.15110 237065.440000
   1050   1054     1   0.15110 237065.440000
   1050   1057     1   0.15110 237065.440000
   1051   1063     1   0.15375 251793.120000
   1054   1066     1   0.15375 251793.120000
   1057   1060     1   0.15375 251793.120000
   1060   1069     1   0.15375 251793.120000
   1063   1075     1   0.15375 251793.120000
   1066   1072     1   0.15375 251793.120000
   1069   1078     1   0.14316 258236.480000
   1072   2188     1   0.14316 258236.480000
   1075   2218     1   0.14316 258236.480000
   1080   1081     1   0.15110 237065.440000
   1080   1084     1   0.15110 237065.440000
   1080   1087     1   0.15110 237065.440000
   1081   1093     1   0.15375 251793.120000
   1084   1096     1   0.15375 251793.120000
   1087   1090     1   0.15375 251793.120000
   1090   1099     1   0.15375 251793.120000
   1093   1105     1   0.15375 251793.120000
   1096   1102     1   0.15375 251793.120000
   1099   1108     1   0.14316 258236.480000
   1102   2248     1   0.14316 258236.480000
   1105   2278     1   0.14316 258236.480000
   1110   1111     1   0.15110 237065.440000
   1110   1114     1   0.15110 237065.440000
   1110   1117     1   0.15110 237065.440000
   1111   1123     1   0.15375 251793.120000
   1114   1126     1   0.15375 251793.120000
   1117   1120     1   0.15375 251793.120000
   1120   1129     1   0.15375 251793.120000
   1123   1135     1   0.15375 251793.120000
   1126   1132     1   0.15375 251793.120000
   1129   1138     1   0.14316 258236.480000
   1132   2308     1   0.14316 258236.480000
   1135   2338     1   0.14316 258236.480000
   1140   1141     1   0.15110 237065.440000
   1140   1144     1   0.15110 237065.440000
   1140   1147     1   0.15110 237065.440000
   1141   1153     1   0.15375 251793.120000
   1144   1156     1   0.15375 251793.120000
   1147   1150     1   0.15375 251793.120000
   1150   1159     1   0.15375 251793.120000
   1153   1165     1   0.15375 251793.120000
   1156   1162     1   0.15375 251793.120000
   1159   1168     1   0.14316 258236.480000
   1162   2368     1   0.14316 258236.480000
   1165   2398     1   0.14316 258236.480000
   1170   1171     1   0.15110 237065.440000
   1170   1174     1   0.15110 237065.440000
   1170   1177     1   0.15110 237065.440000
   1171   1183     1   0.15375 251793.120000
   1174   1186     1   0.15375 251793.120000
   1177   1180     1   0.15375 251793.120000
   1180   1189     1   0.15375 251793.120000
   1183   1195     1   0.15375 251793.120000
   1186   1192     1   0.15375 251793.120000
   1189   1198     1   0.14316 258236.480000
   1192   2428     1   0.14316 258236.480000
   1195   2458     1   0.14316 258236.480000
   1200   1201     1   0.15110 237065.440000
   1200   1204     1   0.15110 237065.440000
   1200   1207     1   0.15110 237065.440000
   1201   1213     1   0.15375 251793.120000
   1204   1216     1   0.15375 251793.120000
   1207   1210     1   0.15375 251793.120000
   1210   1219     1   0.15375 251793.120000
   1213   1225     1   0.15375 251793.120000
   1216   1222     1   0.15375 251793.120000
   1219   1228     1   0.14316 258236.480000
   1222   2488     1   0.14316 258236.480000
   1225   2518     1   0.14316 258236.480000
   1230   1231     1   0.15110 237065.440000
   1230   1234     1   0.15110 237065.440000
   1230   1237     1   0.15110 237065.440000
   1231   1243     1   0.15375 251793.120000
   1234   1246     1   0.15375 251793.120000
   1237   1240     1   0.15375 251793.120000
   1240   1249     1   0.15375 251793.120000
   1243   1255     1   0.15375 251793.120000
   1246   1252     1   0.15375 251793.120000
   1249   1258     1   0.14316 258236.480000
   1252   2548     1   0.14316 258236.480000
   1255   2578     1   0.14316 258236.480000
   1260   1261     1   0.15110 237065.440000
   1260   1264     1   0.15110 237065.440000
   1260   1267     1   0.15110 237065.440000
   1261   1273     1   0.15375 251793.120000
   1264   1276     1   0.15375 251793.120000
   1267   1270     1   0.15375 251793.120000
   1270   1279     1   0.15375 251793.120000
   1273   1285     1   0.15375 251793.120000
   1276   1282     1   0.15375 251793.120000
   1279   1288     1   0.14316 258236.480000
   1282   2608     1   0.14316 258236.480000
   1285   2638     1   0.14316 258236.480000
   1290   1291     1   0.15110 237065.440000
   1290   1294     1   0.15110 237065.440000
   1290   1297     1   0.15110 237065.440000
   1291   1303     1   0.15375 251793.120000
   1294   1306     1   0.15375 251793.120000
   1297   1300     1   0.15375 251793.120000
   1300   1309     1   0.15375 251793.120000
   1303   1315     1   0.15375 251793.120000
   1306   1312     1   0.15375 251793.120000
   1309   1318     1   0.14316 258236.480000
   1312   2668     1   0.14316 258236.480000
   1315   2698     1   0.14316 258236.480000
   1320   1321     1   0.15110 237065.440000
   1320   1324     1   0.15110 237065.440000
   1320   1327     1   0.15110 237065.440000
   1321   1333     1   0.15375 251793.120000
   1324   1336     1   0.15375 251793.120000
   1327   1330     1   0.15375 251793.120000
   1330   1339     1   0.15375 251793.120000
   1333   1345     1   0.15375 251793.120000
   1336   1342     1   0.15375 251793.120000
   1339   1348     1   0.14316 258236.480000
   1342   2728     1   0.14316 258236.480000
   1345   2758     1   0.14316 258236.480000
   1350   1351     1   0.15110 237065.440000
   1350   1354     1   0.15110 237065.440000
   1350   1357     1   0.15110 237065.440000
   1351   1363     1   0.15375 251793.120000
   1354   1366     1   0.15375 251793.120000
   1357   1360     1   0.15375 251793.120000
   1360   1369     1   0.15375 251793.120000
   1363   1375     1   0.15375 251793.120000
   1366   1372     1   0.15375 251793.120000
   1369   1378     1   0.14316 258236.480000
   1372   2788     1   0.14316 258236.480000
   1375   2818     1   0.14316 258236.480000
   1380   1381     1   0.15110 237065.440000
   1380   1384     1   0.15110 237065.440000
   1380   1387     1   0.15110 237065.440000
   1381   1393     1   0.15375 251793.120000
   1384   1396     1   0.15375 251793.120000
   1387   1390     1   0.15375 251793.120000
   1390   1399     1   0.15375 251793.120000
   1393   1405     1   0.15375 251793.120000
   1396   1402     1   0.15375 251793.120000
   1399   1408     1   0.14316 258236.480000
   1402   2850     1   0.14316 258236.480000
   1405   2882     1   0.14316 258236.480000
   1410   1411     1   0.15110 237065.440000
   1410   1414     1   0.15110 237065.440000
   1410   1417     1   0.15110 237065.440000
   1411   1423     1   0.15375 251793.120000
   1414   1426     1   0.15375 251793.120000
   1417   1420     1   0.15375 251793.120000
   1420   1429     1   0.15375 251793.120000
   1423   1435     1   0.15375 251793.120000
   1426   1432     1   0.15375 251793.120000
   1429   1438     1   0.14316 258236.480000
   1432   2914     1   0.14316 258236.480000
   1435   2946     1   0.14316 258236.480000
   1440   1441     1   0.15110 237065.440000
   1440   1444     1   0.15110 237065.440000
   1440   1447     1   0.15110 237065.440000
   1441   1453     1   0.15375 251793.120000
   1444   1456     1   0.15375 251793.120000
   1447   1450     1   0.15375 251793.120000
   1450   1459     1   0.15375 251793.120000
   1453   1465     1   0.15375 251793.120000
   1456   1462     1   0.15375 251793.120000
   1459   1468     1   0.14316 258236.480000
   1462   2978     1   0.14316 258236.480000
   1465   3010     1   0.14316 258236.480000
   1470   1471     1   0.15110 237065.440000
   1470   1474     1   0.15110 237065.440000
   1470   1477     1   0.15110 237065.440000
   1471   1483     1   0.15375 251793.120000
   1474   1486     1   0.15375 251793.120000
   1477   1480     1   0.15375 251793.120000
   1480   1489     1   0.15375 251793.120000
   1483   1495     1   0.15375 251793.120000
   1486   1492     1   0.15375 251793.120000
   1489   1498     1   0.14316 258236.480000
   1492   3042     1   0.14316 258236.480000
   1495   3074     1   0.14316 258236.480000
   1500   1501     1   0.15110 237065.440000
   1500   1504     1   0.15110 237065.440000
   1500   1507     1   0.15110 237065.440000
   1501   1513     1   0.15375 251793.120000
   1504   1516     1   0.15375 251793.120000
   1507   1510     1   0.15375 251793.120000
   1510   1519     1   0.15375 251793.120000
   1513   1525     1   0.15375 251793.120000
   1516   1522     1   0.15375 251793.120000
   1519   1528     1   0.14316 258236.480000
   1522   3106     1   0.14316 258236.480000
   1525   3138     1   0.14316 258236.480000
   1530   1531     1   0.15110 237065.440000
   1530   1534     1   0.15110 237065.440000
   1530   1537     1   0.15110 237065.440000
   1531   1543     1   0.15375 251793.120000
   1534   1546     1   0.15375 251793.120000
   1537   1540     1   0.15375 251793.120000
   1540   1549     1   0.15375 251793.120000
   1543   1555     1   0.15375 251793.120000
   1546   1552     1   0.15375 251793.120000
   1549   1558     1   0.14316 258236.480000
   1552   3170     1   0.14316 258236.480000
   1555   3202     1   0.14316 258236.480000
   1560   1561     1   0.15110 237065.440000
   1560   1564     1   0.15110 237065.440000
   1560   1567     1   0.15110 237065.440000
   1561   1573     1   0.15375 251793.120000
   1564   1576     1   0.15375 251793.120000
   1567   1570     1   0.15375 251793.120000
   1570   1579     1   0.15375 251793.120000
   1573   1585     1   0.15375 251793.120000
   1576   1582     1   0.15375 251793.120000
   1579   1588     1   0.14316 258236.480000
   1582   3234     1   0.14316 258236.480000
   1585   3266     1   0.14316 258236.480000
   1590   1591     1   0.15110 237065.440000
   1590   1594     1   0.15110 237065.440000
   1590   1597     1   0.15110 237065.440000
   1591   1603     1   0.15375 251793.120000
   1594   1606     1   0.15375 251793.120000
   1597   1600     1   0.15375 251793.120000
   1600   1609     1   0.15375 251793.120000
   1603   1615     1   0.15375 251793.120000
   1606   1612     1   0.15375 251793.120000
   1609   1618     1   0.14316 258236.480000
   1612   3298     1   0.14316 258236.480000
   1615   3330     1   0.14316 258236.480000
   1620   1621     1   0.15110 237065.440000
   1620   1624     1   0.15110 237065.440000
   1620   1627     1   0.15110 237065.440000
   1621   1633     1   0.15375 251793.120000
   1624   1636     1   0.15375 251793.120000
   1627   1630     1   0.15375 251793.120000
   1630   1639     1   0.15375 251793.120000
   1633   1645     1   0.15375 251793.120000
   1636   1642     1   0.15375 251793.120000
   1639   1648     1   0.14316 258236.480000
   1642   3362     1   0.14316 258236.480000
   1645   3394     1   0.14316 258236.480000
   1650   1651     1   0.15110 237065.440000
   1650   1654     1   0.15110 237065.440000
   1650   1657     1   0.15110 237065.440000
   1651   1663     1   0.15375 251793.120000
   1654   1666     1   0.15375 251793.120000
   1657   1660     1   0.15375 251793.120000
   1660   1669     1   0.15375 251793.120000
   1663   1675     1   0.15375 251793.120000
   1666   1672     1   0.15375 251793.120000
   1669   1678     1   0.14316 258236.480000
   1672   3426     1   0.14316 258236.480000
   1675   3458     1   0.14316 258236.480000
   1680   1681     1   0.15110 237065.440000
   1680   1684     1   0.15110 237065.440000
   1680   1687     1   0.15110 237065.440000
   1681   1693     1   0.15375 251793.120000
   1684   1696     1   0.15375 251793.120000
   1687   1690     1   0.15375 251793.120000
   1690   1699     1   0.15375 251793.120000
   1693   1705     1   0.15375 251793.120000
   1696   1702     1   0.15375 251793.120000
   1699   1708     1   0.14316 258236.480000
   1702   3490     1   0.14316 258236.480000
   1705   3522     1   0.14316 258236.480000
   1710   1711     1   0.15110 237065.440000
   1710   1714     1   0.15110 237065.440000
   1710   1717     1   0.15110 237065.440000
   1711   1723     1   0.15375 251793.120000
   1714   1726     1   0.15375 251793.120000
   1717   1720     1   0.15375 251793.120000
   1720   1729     1   0.15375 251793.120000
   1723   1735     1   0.15375 251793.120000
   1726   1732     1   0.15375 251793.120000
   1729   1738     1   0.14316 258236.480000
   1732   3554     1   0.14316 258236.480000
   1735   3586     1   0.14316 258236.480000
   1740   1741     1   0.15110 237065.440000
   1740   1744     1   0.15110 237065.440000
   1740   1747     1   0.15110 237065.440000
   1741   1753     1   0.15375 251793.120000
   1744   1756     1   0.15375 251793.120000
   1747   1750     1   0.15375 251793.120000
   1750   1759     1   0.15375 251793.120000
   1753   1765     1   0.15375 251793.120000
   1756   1762     1   0.15375 251793.120000
   1759   1768     1   0.14316 258236.480000
   1762   3618     1   0.14316 258236.480000
   1765   3650     1   0.14316 258236.480000
   1770   1771     1   0.15110 237065.440000
   1770   1774     1   0.15110 237065.440000
   1770   1777     1   0.15110 237065.440000
   1771   1783     1   0.15375 251793.120000
   1774   1786     1   0.15375 251793.120000
   1777   1780     1   0.15375 251793.120000
   1780   1789     1   0.15375 251793.120000
   1783   1795     1   0.15375 251793.120000
   1786   1792     1   0.15375 251793.120000
   1789   1798     1   0.14316 258236.480000
   1792   3682     1   0.14316 258236.480000
   1795   3714     1   0.14316 258236.480000
   1800   1801     1   0.15110 237065.440000
   1800   1804     1   0.15110 237065.440000
   1800   1807     1   0.15110 237065.440000
   1801   1813     1   0.15375 251793.120000
   1804   1816     1   0.15375 251793.120000
   1807   1810     1   0.15375 251793.120000
   1810   1819     1   0.15375 251793.120000
   1813   1825     1   0.15375 251793.120000
   1816   1822     1   0.15375 251793.120000
   1819   1828     1   0.14316 258236.480000
   1822   3746     1   0.14316 258236.480000
   1825   3778     1   0.14316 258236.480000
   1830   1831     1   0.15110 237065.440000
   1830   1834     1   0.15110 237065.440000
   1830   1837     1   0.15110 237065.440000
   1831   1843     1   0.15375 251793.120000
   1834   1846     1   0.15375 251793.120000
   1837   1840     1   0.15375 251793.120000
   1840   1849     1   0.15375 251793.120000
   1843   1855     1   0.15375 251793.120000
   1846   1852     1   0.15375 251793.120000
   1849   1858     1   0.14316 258236.480000
   1852   3810     1   0.14316 258236.480000
   1855   3842     1   0.14316 258236.480000
   1860   1861     1   0.15110 237065.440000
   1860   1864     1   0.15110 237065.440000
   1860   1867     1   0.15110 237065.440000
   1861   1873     1   0.15375 251793.120000
   1864   1876     1   0.15375 251793.120000
   1867   1870     1   0.15375 251793.120000
   1870   1879     1   0.15375 251793.120000
   1873   1885     1   0.15375 251793.120000
   1876   1882     1   0.15375 251793.120000
   1879   1888     1   0.14316 258236.480000
   1882   3874     1   0.14316 258236.480000
   1885   3906     1   0.14316 258236.480000
   1890   1891     1   0.15110 237065.440000
   1890   1894     1   0.15110 237065.440000
   1890   1897     1   0.15110 237065.440000
   1891   1903     1   0.15375 251793.120000
   1894   1906     1   0.15375 251793.120000
   1897   1900     1   0.15375 251793.120000
   1900   1909     1   0.15375 251793.120000
   1903   1915     1   0.15375 251793.120000
   1906   1912     1   0.15375 251793.120000
   1909   1918     1   0.14316 258236.480000
   1912   3938     1   0.14316 258236.480000
   1915   3970     1   0.14316 258236.480000
   1920   1921     1   0.15110 237065.440000
   1920   1924     1   0.15110 237065.440000
   1920   1927     1   0.15110 237065.440000
   1921   1933     1   0.15375 251793.120000
   1924   1936     1   0.15375 251793.120000
   1927   1930     1   0.15375 251793.120000
   1930   1939     1   0.15375 251793.120000
   1933   1945     1   0.15375 251793.120000
   1936   1942     1   0.15375 251793.120000
   1939   1948     1   0.14316 258236.480000
   1942   4002     1   0.14316 258236.480000
   1945   4034     1   0.14316 258236.480000
   1950   1951     1   0.15110 237065.440000
   1950   1954     1   0.15110 237065.440000
   1950   1957     1   0.15110 237065.440000
   1951   1963     1   0.15375 251793.120000
   1954   1966     1   0.15375 251793.120000
   1957   1960     1   0.15375 251793.120000
   1960   1969     1   0.15375 251793.120000
   1963   1975     1   0.15375 251793.120000
   1966   1972     1   0.15375 251793.120000
   1969   1978     1   0.14316 258236.480000
   1972   4066     1   0.14316 258236.480000
   1975   4098     1   0.14316 258236.480000
   1980   1981     1   0.15110 237065.440000
   1980   1984     1   0.15110 237065.440000
   1980   1987     1   0.15110 237065.440000
   1981   1993     1   0.15375 251793.120000
   1984   1996     1   0.15375 251793.120000
   1987   1990     1   0.15375 251793.120000
   1990   1999     1   0.15375 251793.120000
   1993   2005     1   0.15375 251793.120000
   1996   2002     1   0.15375 251793.120000
   1999   2008     1   0.14316 258236.480000
   2002   4130     1   0.14316 258236.480000
   2005   4162     1   0.14316 258236.480000
   2010   2011     1   0.15110 237065.440000
   2010   2014     1   0.15110 237065.440000
   2010   2017     1   0.15110 237065.440000
   2011   2023     1   0.15375 251793.120000
   2014   2026     1   0.15375 251793.120000
   2017   2020     1   0.15375 251793.120000
   2020   2029     1   0.15375 251793.120000
   2023   2035     1   0.15375 251793.120000
   2026   2032     1   0.15375 251793.120000
   2029   2038     1   0.14316 258236.480000
   2032   4194     1   0.14316 258236.480000
   2035   4226     1   0.14316 258236.480000
   2040   2041     1   0.15110 237065.440000
   2040   2044     1   0.15110 237065.440000
   2040   2047     1   0.15110 237065.440000
   2041   2053     1   0.15375 251793.120000
   2044   2056     1   0.15375 251793.120000
   2047   2050     1   0.15375 251793.120000
   2050   2059     1   0.15375 251793.120000
   2053   2065     1   0.15375 251793.120000
   2056   2062     1   0.15375 251793.120000
   2059   2068     1   0.14316 258236.480000
   2062   4258     1   0.14316 258236.480000
   2065   4290     1   0.14316 258236.480000
   2070   2071     1   0.15110 237065.440000
   2070   2074     1   0.15110 237065.440000
   2070   2077     1   0.15110 237065.440000
   2071   2083     1   0.15375 251793.120000
   2074   2086     1   0.15375 251793.120000
   2077   2080     1   0.15375 251793.120000
   2080   2089     1   0.15375 251793.120000
   2083   2095     1   0.15375 251793.120000
   2086   2092     1   0.15375 251793.120000
   2089   2098     1   0.14316 258236.480000
   2092   4322     1   0.14316 258236.480000
   2095   4354     1   0.14316 258236.480000
   2100   2101     1   0.15110 237065.440000
   2100   2104     1   0.15110 237065.440000
   2100   2107     1   0.15110 237065.440000
   2101   2113     1   0.15375 251793.120000
   2104   2116     1   0.15375 251793.120000
   2107   2110     1   0.15375 251793.120000
   2110   2119     1   0.15375 251793.120000
   2113   2125     1   0.15375 251793.120000
   2116   2122     1   0.15375 251793.120000
   2119   2128     1   0.14316 258236.480000
   2122   4386     1   0.14316 258236.480000
   2125   4418     1   0.14316 258236.480000
   2130   2131     1   0.15110 237065.440000
   2130   2134     1   0.15110 237065.440000
   2130   2137     1   0.15110 237065.440000
   2131   2143     1   0.15375 251793.120000
   2134   2146     1   0.15375 251793.120000
   2137   2140     1   0.15375 251793.120000
   2140   2149     1   0.15375 251793.120000
   2143   2155     1   0.15375 251793.120000
   2146   2152     1   0.15375 251793.120000
   2149   2158     1   0.14316 258236.480000
   2152   4450     1   0.14316 258236.480000
   2155   4482     1   0.14316 258236.480000
   2160   2161     1   0.15110 237065.440000
   2160   2164     1   0.15110 237065.440000
   2160   2167     1   0.15110 237065.440000
   2161   2173     1   0.15375 251793.120000
   2164   2176     1   0.15375 251793.120000
   2167   2170     1   0.15375 251793.120000
   2170   2179     1   0.15375 251793.120000
   2173   2185     1   0.15375 251793.120000
   2176   2182     1   0.15375 251793.120000
   2179   2188     1   0.14316 258236.480000
   2182   4514     1   0.14316 258236.480000
   2185   4546     1   0.14316 258236.480000
   2190   2191     1   0.15110 237065.440000
   2190   2194     1   0.15110 237065.440000
   2190   2197     1   0.15110 237065.440000
   2191   2203     1   0.15375 251793.120000
   2194   2206     1   0.15375 251793.120000
   2197   2200     1   0.15375 251793.120000
   2200   2209     1   0.15375 251793.120000
   2203   2215     1   0.15375 251793.120000
   2206   2212     1   0.15375 251793.120000
   2209   2218     1   0.14316 258236.480000
   2212   4578     1   0.14316 258236.480000
   2215   4610     1   0.14316 258236.480000
   2220   2221     1   0.15110 237065.440000
   2220   2224     1   0.15110 237065.440000
   2220   2227     1   0.15110 237065.440000
   2221   2233     1   0.15375 251793.120000
   2224   2236     1   0.15375 251793.120000
   2227   2230     1   0.15375 251793.120000
   2230   2239     1   0.15375 251793.120000
   2233   2245     1   0.15375 251793.120000
   2236   2242     1   0.15375 251793.120000
   2239   2248     1   0.14316 258236.480000
   2242   4642     1   0.14316 258236.480000
   2245   4674     1   0.14316 258236.480000
   2250   2251     1   0.15110 237065.440000
   2250   2254     1   0.15110 237065.440000
   2250   2257     1   0.15110 237065.440000
   2251   2263     1   0.15375 251793.120000
   2254   2266     1   0.15375 251793.120000
   2257   2260     1   0.15375 251793.120000
   2260   2269     1   0.15375 251793.120000
   2263   2275     1   0.15375 251793.120000
   2266   2272     1   0.15375 251793.120000
   2269   2278     1   0.14316 258236.480000
   2272   4706     1   0.14316 258236.480000
   2275   4738     1   0.14316 258236.480000
   2280   2281     1   0.15110 237065.440000
   2280   2284     1   0.15110 237065.440000
   2280   2287     1   0.15110 237065.440000
   2281   2293     1   0.15375 251793.120000
   2284   2296     1   0.15375 251793.120000
   2287   2290     1   0.15375 251793.120000
   2290   2299     1   0.15375 251793.120000
   2293   2305     1   0.15375 251793.120000
   2296   2302     1   0.15375 251793.120000
   2299   2308     1   0.14316 258236.480000
   2302   4770     1   0.14316 258236.480000
   2305   4802     1   0.14316 258236.480000
   2310   2311     1   0.15110 237065.440000
   2310   2314     1   0.15110 237065.440000
   2310   2317     1   0.15110 237065.440000
   2311   2323     1   0.15375 251793.120000
   2314   2326     1   0.15375 251793.120000
   2317   2320     1   0.15375 251793.120000
   2320   2329     1   0.15375 251793.120000
   2323   2335     1   0.15375 251793.120000
   2326   2332     1   0.15375 251793.120000
   2329   2338     1   0.14316 258236.480000
   2332   4834     1   0.14316 258236.480000
   2335   4866     1   0.14316 258236.480000
   2340   2341     1   0.15110 237065.440000
   2340   2344     1   0.15110 237065.440000
   2340   2347     1   0.15110 237065.440000
   2341   2353     1   0.15375 251793.120000
   2344   2356     1   0.15375 251793.120000
   2347   2350     1   0.15375 251793.120000
   2350   2359     1   0.15375 251793.120000
   2353   2365     1   0.15375 251793.120000
   2356   2362     1   0.15375 251793.120000
   2359   2368     1   0.14316 258236.480000
   2362   4898     1   0.14316 258236.480000
   2365   4930     1   0.14316 258236.480000
   2370   2371     1   0.15110 237065.440000
   2370   2374     1   0.15110 237065.440000
   2370   2377     1   0.15110 237065.440000
   2371   2383     1   0.15375 251793.120000
   2374   2386     1   0.15375 251793.120000
   2377   2380     1   0.15375 251793.120000
   2380   2389     1   0.15375 251793.120000
   2383   2395     1   0.15375 251793.120000
   2386   2392     1   0.15375 251793.120000
   2389   2398     1   0.14316 258236.480000
   2392   4962     1   0.14316 258236.480000
   2395   4994     1   0.14316 258236.480000
   2400   2401     1   0.15110 237065.440000
   2400   2404     1   0.15110 237065.440000
   2400   2407     1   0.15110 237065.440000
   2401   2413     1   0.15375 251793.120000
   2404   2416     1   0.15375 251793.120000
   2407   2410     1   0.15375 251793.120000
   2410   2419     1   0.15375 251793.120000
   2413   2425     1   0.15375 251793.120000
   2416   2422     1   0.15375 251793.120000
   2419   2428     1   0.14316 258236.480000
   2422   5026     1   0.14316 258236.480000
   2425   5058     1   0.14316 258236.480000
   2430   2431     1   0.15110 237065.440000
   2430   2434     1   0.15110 237065.440000
   2430   2437     1   0.15110 237065.440000
   2431   2443     1   0.15375 251793.120000
   2434   2446     1   0.15375 251793.120000
   2437   2440     1   0.15375 251793.120000
   2440   2449     1   0.15375 251793.120000
   2443   2455     1   0.15375 251793.120000
   2446   2452     1   0.15375 251793.120000
   2449   2458     1   0.14316 258236.480000
   2452   5090     1   0.14316 258236.480000
   2455   5122     1   0.14316 258236.480000
   2460   2461     1   0.15110 237065.440000
   2460   2464     1   0.15110 237065.440000
   2460   2467     1   0.15110 237065.440000
   2461   2473     1   0.15375 251793.120000
   2464   2476     1   0.15375 251793.120000
   2467   2470     1   0.15375 251793.120000
   2470   2479     1   0.15375 251793.120000
   2473   2485     1   0.15375 251793.120000
   2476   2482     1   0.15375 251793.120000
   2479   2488     1   0.14316 258236.480000
   2482   5154     1   0.14316 258236.480000
   2485   5186     1   0.14316 258236.480000
   2490   2491     1   0.15110 237065.440000
   2490   2494     1   0.15110 237065.440000
   2490   2497     1   0.15110 237065.440000
   2491   2503     1   0.15375 251793.120000
   2494   2506     1   0.15375 251793.120000
   2497   2500     1   0.15375 251793.120000
   2500   2509     1   0.15375 251793.120000
   2503   2515     1   0.15375 251793.120000
   2506   2512     1   0.15375 251793.120000
   2509   2518     1   0.14316 258236.480000
   2512   5218     1   0.14316 258236.480000
   2515   5250     1   0.14316 258236.480000
   2520   2521     1   0.15110 237065.440000
   2520   2524     1   0.15110 237065.440000
   2520   2527     1   0.15110 237065.440000
   2521   2533     1   0.15375 251793.120000
   2524   2536     1   0.15375 251793.120000
   2527   2530     1   0.15375 251793.120000
   2530   2539     1   0.15375 251793.120000
   2533   2545     1   0.15375 251793.120000
   2536   2542     1   0.15375 251793.120000
   2539   2548     1   0.14316 258236.480000
   2542   5282     1   0.14316 258236.480000
   2545   5314     1   0.14316 258236.480000
   2550   2551     1   0.15110 237065.440000
   2550   2554     1   0.15110 237065.440000
   2550   2557     1   0.15110 237065.440000
   2551   2563     1   0.15375 251793.120000
   2554   2566     1   0.15375 251793.120000
   2557   2560     1   0.15375 251793.120000
   2560   2569     1   0.15375 251793.120000
   2563   2575     1   0.15375 251793.120000
   2566   2572     1   0.15375 251793.120000
   2569   2578     1   0.14316 258236.480000
   2572   5346     1   0.14316 258236.480000
   2575   5378     1   0.14316 258236.480000
   2580   2581     1   0.15110 237065.440000
   2580   2584     1   0.15110 237065.440000
   2580   2587     1   0.15110 237065.440000
   2581   2593     1   0.15375 251793.120000
   2584   2596     1   0.15375 251793.120000
   2587   2590     1   0.15375 251793.120000
   2590   2599     1   0.15375 251793.120000
   2593   2605     1   0.15375 251793.120000
   2596   2602     1   0.15375 251793.120000
   2599   2608     1   0.14316 258236.480000
   2602   5410     1   0.14316 258236.480000
   2605   5442     1   0.14316 258236.480000
   2610   2611     1   0.15110 237065.440000
   2610   2614     1   0.15110 237065.440000
   2610   2617     1   0.15110 237065.440000
   2611   2623     1   0.15375 251793.120000
   2614   2626     1   0.15375 251793.120000
   2617   2620     1   0.15375 251793.120000
   2620   2629     1   0.15375 251793.120000
   2623   2635     1   0.15375 251793.120000
   2626   2632     1   0.15375 251793.120000
   2629   2638     1   0.14316 258236.480000
   2632   5474     1   0.14316 258236.480000
   2635   5506     1   0.14316 258236.480000
   2640   2641     1   0.15110 237065.440000
   2640   2644     1   0.15110 237065.440000
   2640   2647     1   0.15110 237065.440000
   2641   2653     1   0.15375 251793.120000
   2644   2656     1   0.15375 251793.120000
   2647   2650     1   0.15375 251793.120000
   2650   2659     1   0.15375 251793.120000
   2653   2665     1   0.15375 251793.120000
   2656   2662     1   0.15375 251793.120000
   2659   2668     1   0.14316 258236.480000
   2662   5538     1   0.14316 258236.480000
   2665   5570     1   0.14316 258236.480000
   2670   2671     1   0.15110 237065.440000
   2670   2674     1   0.15110 237065.440000
   2670   2677     1   0.15110 237065.440000
   2671   2683     1   0.15375 251793.120000
   2674   2686     1   0.15375 251793.120000
   2677   2680     1   0.15375 251793.120000
   2680   2689     1   0.15375 251793.120000
   2683   2695     1   0.15375 251793.120000
   2686   2692     1   0.15375 251793.120000
   2689   2698     1   0.14316 258236.480000
   2692   5602     1   0.14316 258236.480000
   2695   5634     1   0.14316 258236.480000
   2700   2701     1   0.15110 237065.440000
   2700   2704     1   0.15110 237065.440000
   2700   2707     1   0.15110 237065.440000
   2701   2713     1   0.15375 251793.120000
   2704   2716     1   0.15375 251793.120000
   2707   2710     1   0.15375 251793.120000
   2710   2719     1   0.15375 251793.120000
   2713   2725     1   0.15375 251793.120000
   2716   2722     1   0.15375 251793.120000
   2719   2728     1   0.14316 258236.480000
   2722   5666     1   0.14316 258236.480000
   2725   5698     1   0.14316 258236.480000
   2730   2731     1   0.15110 237065.440000
   2730   2734     1   0.15110 237065.440000
   2730   2737     1   0.15110 237065.440000
   2731   2743     1   0.15375 251793.120000
   2734   2746     1   0.15375 251793.120000
   2737   2740     1   0.15375 251793.120000
   2740   2749     1   0.15375 251793.120000
   2743   2755     1   0.15375 251793.120000
   2746   2752     1   0.15375 251793.120000
   2749   2758     1   0.14316 258236.480000
   2752   5730     1   0.14316 258236.480000
   2755   5762     1   0.14316 258236.480000
   2760   2761     1   0.15110 237065.440000
   2760   2764     1   0.15110 237065.440000
   2760   2767     1   0.15110 237065.440000
   2761   2773     1   0.15375 251793.120000
   2764   2776     1   0.15375 251793.120000
   2767   2770     1   0.15375 251793.120000
   2770   2779     1   0.15375 251793.120000
   2773   2785     1   0.15375 251793.120000
   2776   2782     1   0.15375 251793.120000
   2779   2788     1   0.14316 258236.480000
   2782   5794     1   0.14316 258236.480000
   2785   5826     1   0.14316 258236.480000
   2790   2791     1   0.15110 237065.440000
   2790   2794     1   0.15110 237065.440000
   2790   2797     1   0.15110 237065.440000
   2791   2803     1   0.15375 251793.120000
   2794   2806     1   0.15375 251793.120000
   2797   2800     1   0.15375 251793.120000
   2800   2809     1   0.15375 251793.120000
   2803   2815     1   0.15375 251793.120000
   2806   2812     1   0.15375 251793.120000
   2809   2818     1   0.14316 258236.480000
   2812   5858     1   0.14316 258236.480000
   2815   5890     1   0.14316 258236.480000
   2820   2823     1   0.15375 251793.120000
   2820   2850     1   0.14316 258236.480000
   2823   2826     1   0.15375 251793.120000
   2826   2829     1   0.15110 237065.440000
   2829   2830     1   0.15110 237065.440000
   2829   2840     1   0.15110 237065.440000
   2830   2833     1   0.15375 251793.120000
   2833   2836     1   0.15241 261918.400000
   2836   2837     1   0.12183 533627.360000
   2836   2838     1   0.13513 334803.680000
   2840   2843     1   0.15375 251793.120000
   2843   2846     1   0.15241 261918.400000
   2846   2847     1   0.12183 533627.360000
   2846   2848     1   0.13513 334803.680000
   2852   2855     1   0.15375 251793.120000
   2852   2882     1   0.14316 258236.480000
   2855   2858     1   0.15375 251793.120000
   2858   2861     1   0.15110 237065.440000
   2861   2862     1   0.15110 237065.440000
   2861   2872     1   0.15110 237065.440000
   2862   2865     1   0.15375 251793.120000
   2865   2868     1   0.15241 261918.400000
   2868   2869     1   0.12183 533627.360000
   2868   2870     1   0.13513 334803.680000
   2872   2875     1   0.15375 251793.120000
   2875   2878     1   0.15241 261918.400000
   2878   2879     1   0.12183 533627.360000
   2878   2880     1   0.13513 334803.680000
   2884   2887     1   0.15375 251793.120000
   2884   2914     1   0.14316 258236.480000
   2887   2890     1   0.15375 251793.120000
   2890   2893     1   0.15110 237065.440000
   2893   2894     1   0.15110 237065.440000
   2893   2904     1   0.15110 237065.440000
   2894   2897     1   0.15375 251793.120000
   2897   2900     1   0.15241 261918.400000
   2900   2901     1   0.12183 533627.360000
   2900   2902     1   0.13513 334803.680000
   2904   2907     1   0.15375 251793.120000
   2907   2910     1   0.15241 261918.400000
   2910   2911     1   0.12183 533627.360000
   2910   2912     1   0.13513 334803.680000
   2916   2919     1   0.15375 251793.120000
   2916   2946     1   0.14316 258236.480000
   2919   2922     1   0.15375 251793.120000
   2922   2925     1   0.15110 237065.440000
   2925   2926     1   0.15110 237065.440000
   2925   2936     1   0.15110 237065.440000
   2926   2929     1   0.15375 251793.120000
   2929   2932     1   0.15241 261918.400000
   2932   2933     1   0.12183 533627.360000
   2932   2934     1   0.13513 334803.680000
   2936   2939     1   0.15375 251793.120000
   2939   2942     1   0.15241 261918.400000
   2942   2943     1   0.12183 533627.360000
   2942   2944     1   0.13513 334803.680000
   2948   2951     1   0.15375 251793.120000
   2948   2978     1   0.14316 258236.480000
   2951   2954     1   0.15375 251793.120000
   2954   2957     1   0.15110 237065.440000
   2957   2958     1   0.15110 237065.440000
   2957   2968     1   0.15110 237065.440000
   2958   2961     1   0.15375 251793.120000
   2961   2964     1   0.15241 261918.400000
   2964   2965     1   0.12183 533627.360000
   2964   2966     1   0.13513 334803.680000
   2968   2971     1   0.15375 251793.120000
   2971   2974     1   0.15241 261918.400000
   2974   2975     1   0.12183 533627.360000
   2974   2976     1   0.13513 334803.680000
   2980   2983     1   0.15375 251793.120000
   2980   3010     1   0.14316 258236.480000
   2983   2986     1   0.15375 251793.120000
   2986   2989     1   0.15110 237065.440000
   2989   2990     1   0.15110 237065.440000
   2989   3000     1   0.15110 237065.440000
   2990   2993     1   0.15375 251793.120000
   2993   2996     1   0.15241 261918.400000
   2996   2997     1   0.12183 533627.360000
   2996   2998     1   0.13513 334803.680000
   3000   3003     1   0.15375 251793.120000
   3003   3006     1   0.15241 261918.400000
   3006   3007     1   0.12183 533627.360000
   3006   3008     1   0.13513 334803.680000
   3012   3015     1   0.15375 251793.120000
   3012   3042     1   0.14316 258236.480000
   3015   3018     1   0.15375 251793.120000
   3018   3021     1   0.15110 237065.440000
   3021   3022     1   0.15110 237065.440000
   3021   3032     1   0.15110 237065.440000
   3022   3025     1   0.15375 251793.120000
   3025   3028     1   0.15241 261918.400000
   3028   3029     1   0.12183 533627.360000
   3028   3030     1   0.13513 334803.680000
   3032   3035     1   0.15375 251793.120000
   3035   3038     1   0.15241 261918.400000
   3038   3039     1   0.12183 533627.360000
   3038   3040     1   0.13513 334803.680000
   3044   3047     1   0.15375 251793.120000
   3044   3074     1   0.14316 258236.480000
   3047   3050     1   0.15375 251793.120000
   3050   3053     1   0.15110 237065.440000
   3053   3054     1   0.15110 237065.440000
   3053   3064     1   0.15110 237065.440000
   3054   3057     1   0.15375 251793.120000
   3057   3060     1   0.15241 261918.400000
   3060   3061     1   0.12183 533627.360000
   3060   3062     1   0.13513 334803.680000
   3064   3067     1   0.15375 251793.120000
   3067   3070     1   0.15241 261918.400000
   3070   3071     1   0.12183 533627.360000
   3070   3072     1   0.13513 334803.680000
   3076   3079     1   0.15375 251793.120000
   3076   3106     1   0.14316 258236.480000
   3079   3082     1   0.15375 251793.120000
   3082   3085     1   0.15110 237065.440000
   3085   3086     1   0.15110 237065.440000
   3085   3096     1   0.15110 237065.440000
   3086   3089     1   0.15375 251793.120000
   3089   3092     1   0.15241 261918.400000
   3092   3093     1   0.12183 533627.360000
   3092   3094     1   0.13513 334803.680000
   3096   3099     1   0.15375 251793.120000
   3099   3102     1   0.15241 261918.400000
   3102   3103     1   0.12183 533627.360000
   3102   3104     1   0.13513 334803.680000
   3108   3111     1   0.15375 251793.120000
   3108   3138     1   0.14316 258236.480000
   3111   3114     1   0.15375 251793.120000
   3114   3117     1   0.15110 237065.440000
   3117   3118     1   0.15110 237065.440000
   3117   3128     1   0.15110 237065.440000
   3118   3121     1   0.15375 251793.120000
   3121   3124     1   0.15241 261918.400000
   3124   3125     1   0.12183 533627.360000
   3124   3126     1   0.13513 334803.680000
   3128   3131     1   0.15375 251793.120000
   3131   3134     1   0.15241 261918.400000
   3134   3135     1   0.12183 533627.360000
   3134   3136     1   0.13513 334803.680000
   3140   3143     1   0.15375 251793.120000
   3140   3170     1   0.14316 258236.480000
   3143   3146     1   0.15375 251793.120000
   3146   3149     1   0.15110 237065.440000
   3149   3150     1   0.15110 237065.440000
   3149   3160     1   0.15110 237065.440000
   3150   3153     1   0.15375 251793.120000
   3153   3156     1   0.15241 261918.400000
   3156   3157     1   0.12183 533627.360000
   3156   3158     1   0.13513 334803.680000
   3160   3163     1   0.15375 251793.120000
   3163   3166     1   0.15241 261918.400000
   3166   3167     1   0.12183 533627.360000
   3166   3168     1   0.13513 334803.680000
   3172   3175     1   0.15375 251793.120000
   3172   3202     1   0.14316 258236.480000
   3175   3178     1   0.15375 251793.120000
   3178   3181     1   0.15110 237065.440000
   3181   3182     1   0.15110 237065.440000
   3181   3192     1   0.15110 237065.440000
   3182   3185     1   0.15375 251793.120000
   3185   3188     1   0.15241 261918.400000
   3188   3189     1   0.12183 533627.360000
   3188   3190     1   0.13513 334803.680000
   3192   3195     1   0.15375 251793.120000
   3195   3198     1   0.15241 261918.400000
   3198   3199     1   0.12183 533627.360000
   3198   3200     1   0.13513 334803.680000
   3204   3207     1   0.15375 251793.120000
   3204   3234     1   0.14316 258236.480000
   3207   3210     1   0.15375 251793.120000
   3210   3213     1   0.15110 237065.440000
   3213   3214     1   0.15110 237065.440000
   3213   3224     1   0.15110 237065.440000
   3214   3217     1   0.15375 251793.120000
   3217   3220     1   0.15241 261918.400000
   3220   3221     1   0.12183 533627.360000
   3220   3222     1   0.13513 334803.680000
   3224   3227     1   0.15375 251793.120000
   3227   3230     1   0.15241 261918.400000
   3230   3231     1   0.12183 533627.360000
   3230   3232     1   0.13513 334803.680000
   3236   3239     1   0.15375 251793.120000
   3236   3266     1   0.14316 258236.480000
   3239   3242     1   0.15375 251793.120000
   3242   3245     1   0.15110 237065.440000
   3245   3246     1   0.15110 237065.440000
   3245   3256     1   0.15110 237065.440000
   3246   3249     1   0.15375 251793.120000
   3249   3252     1   0.15241 261918.400000
   3252   3253     1   0.12183 533627.360000
   3252   3254     1   0.13513 334803.680000
   3256   3259     1   0.15375 251793.120000
   3259   3262     1   0.15241 261918.400000
   3262   3263     1   0.12183 533627.360000
   3262   3264     1   0.13513 334803.680000
   3268   3271     1   0.15375 251793.120000
   3268   3298     1   0.14316 258236.480000
   3271   3274     1   0.15375 251793.120000
   3274   3277     1   0.15110 237065.440000
   3277   3278     1   0.15110 237065.440000
   3277   3288     1   0.15110 237065.440000
   3278   3281     1   0.15375 251793.120000
   3281   3284     1   0.15241 261918.400000
   3284   3285     1   0.12183 533627.360000
   3284   3286     1   0.13513 334803.680000
   3288   3291     1   0.15375 251793.120000
   3291   3294     1   0.15241 261918.400000
   3294   3295     1   0.12183 533627.360000
   3294   3296     1   0.13513 334803.680000
   3300   3303     1   0.15375 251793.120000
   3300   3330     1   0.14316 258236.480000
   3303   3306     1   0.15375 251793.120000
   3306   3309     1   0.15110 237065.440000
   3309   3310     1   0.15110 237065.440000
   3309   3320     1   0.15110 237065.440000
   3310   3313     1   0.15375 251793.120000
   3313   3316     1   0.15241 261918.400000
   3316   3317     1   0.12183 533627.360000
   3316   3318     1   0.13513 334803.680000
   3320   3323     1   0.15375 251793.120000
   3323   3326     1   0.15241 261918.400000
   3326   3327     1   0.12183 533627.360000
   3326   3328     1   0.13513 334803.680000
   3332   3335     1   0.15375 251793.120000
   3332   3362     1   0.14316 258236.480000
   3335   3338     1   0.15375 251793.120000
   3338   3341     1   0.15110 237065.440000
   3341   3342     1   0.15110 237065.440000
   3341   3352     1   0.15110 237065.440000
   3342   3345     1   0.15375 251793.120000
   3345   3348     1   0.15241 261918.400000
   3348   3349     1   0.12183 533627.360000
   3348   3350     1   0.13513 334803.680000
   3352   3355     1   0.15375 251793.120000
   3355   3358     1   0.15241 261918.400000
   3358   3359     1   0.12183 533627.360000
   3358   3360     1   0.13513 334803.680000
   3364   3367     1   0.15375 251793.120000
   3364   3394     1   0.14316 258236.480000
   3367   3370     1   0.15375 251793.120000
   3370   3373     1   0.15110 237065.440000
   3373   3374     1   0.15110 237065.440000
   3373   3384     1   0.15110 237065.440000
   3374   3377     1   0.15375 251793.120000
   3377   3380     1   0.15241 261918.400000
   3380   3381     1   0.12183 533627.360000
   3380   3382     1   0.13513 334803.680000
   3384   3387     1   0.15375 251793.120000
   3387   3390     1   0.15241 261918.400000
   3390   3391     1   0.12183 533627.360000
   3390   3392     1   0.13513 334803.680000
   3396   3399     1   0.15375 251793.120000
   3396   3426     1   0.14316 258236.480000
   3399   3402     1   0.15375 251793.120000
   3402   3405     1   0.15110 237065.440000
   3405   3406     1   0.15110 237065.440000
   3405   3416     1   0.15110 237065.440000
   3406   3409     1   0.15375 251793.120000
   3409   3412     1   0.15241 261918.400000
   3412   3413     1   0.12183 533627.360000
   3412   3414     1   0.13513 334803.680000
   3416   3419     1   0.15375 251793.120000
   3419   3422     1   0.15241 261918.400000
   3422   3423     1   0.12183 533627.360000
   3422   3424     1   0.13513 334803.680000
   3428   3431     1   0.15375 251793.120000
   3428   3458     1   0.14316 258236.480000
   3431   3434     1   0.15375 251793.120000
   3434   3437     1   0.15110 237065.440000
   3437   3438     1   0.15110 237065.440000
   3437   3448     1   0.15110 237065.440000
   3438   3441     1   0.15375 251793.120000
   3441   3444     1   0.15241 261918.400000
   3444   3445     1   0.12183 533627.360000
   3444   3446     1   0.13513 334803.680000
   3448   3451     1   0.15375 251793.120000
   3451   3454     1   0.15241 261918.400000
   3454   3455     1   0.12183 533627.360000
   3454   3456     1   0.13513 334803.680000
   3460   3463     1   0.15375 251793.120000
   3460   3490     1   0.14316 258236.480000
   3463   3466     1   0.15375 251793.120000
   3466   3469     1   0.15110 237065.440000
   3469   3470     1   0.15110 237065.440000
   3469   3480     1   0.15110 237065.440000
   3470   3473     1   0.15375 251793.120000
   3473   3476     1   0.15241 261918.400000
   3476   3477     1   0.12183 533627.360000
   3476   3478     1   0.13513 334803.680000
   3480   3483     1   0.15375 251793.120000
   3483   3486     1   0.15241 261918.400000
   3486   3487     1   0.12183 533627.360000
   3486   3488     1   0.13513 334803.680000
   3492   3495     1   0.15375 251793.120000
   3492   3522     1   0.14316 258236.480000
   3495   3498     1   0.15375 251793.120000
   3498   3501     1   0.15110 237065.440000
   3501   3502     1   0.15110 237065.440000
   3501   3512     1   0.15110 237065.440000
   3502   3505     1   0.15375 251793.120000
   3505   3508     1   0.15241 261918.400000
   3508   3509     1   0.12183 533627.360000
   3508   3510     1   0.13513 334803.680000
   3512   3515     1   0.15375 251793.120000
   3515   3518     1   0.15241 261918.400000
   3518   3519     1   0.12183 533627.360000
   3518   3520     1   0.13513 334803.680000
   3524   3527     1   0.15375 251793.120000
   3524   3554     1   0.14316 258236.480000
   3527   3530     1   0.15375 251793.120000
   3530   3533     1   0.15110 237065.440000
   3533   3534     1   0.15110 237065.440000
   3533   3544     1   0.15110 237065.440000
   3534   3537     1   0.15375 251793.120000
   3537   3540     1   0.15241 261918.400000
   3540   3541     1   0.12183 533627.360000
   3540   3542     1   0.13513 334803.680000
   3544   3547     1   0.15375 251793.120000
   3547   3550     1   0.15241 261918.400000
   3550   3551     1   0.12183 533627.360000
   3550   3552     1   0.13513 334803.680000
   3556   3559     1   0.15375 251793.120000
   3556   3586     1   0.14316 258236.480000
   3559   3562     1   0.15375 251793.120000
   3562   3565     1   0.15110 237065.440000
   3565   3566     1   0.15110 237065.440000
   3565   3576     1   0.15110 237065.440000
   3566   3569     1   0.15375 251793.120000
   3569   3572     1   0.15241 261918.400000
   3572   3573     1   0.12183 533627.360000
   3572   3574     1   0.13513 334803.680000
   3576   3579     1   0.15375 251793.120000
   3579   3582     1   0.15241 261918.400000
   3582   3583     1   0.12183 533627.360000
   3582   3584     1   0.13513 334803.680000
   3588   3591     1   0.15375 251793.120000
   3588   3618     1   0.14316 258236.480000
   3591   3594     1   0.15375 251793.120000
   3594   3597     1   0.15110 237065.440000
   3597   3598     1   0.15110 237065.440000
   3597   3608     1   0.15110 237065.440000
   3598   3601     1   0.15375 251793.120000
   3601   3604     1   0.15241 261918.400000
   3604   3605     1   0.12183 533627.360000
   3604   3606     1   0.13513 334803.680000
   3608   3611     1   0.15375 251793.120000
   3611   3614     1   0.15241 261918.400000
   3614   3615     1   0.12183 533627.360000
   3614   3616     1   0.13513 334803.680000
   3620   3623     1   0.15375 251793.120000
   3620   3650     1   0.14316 258236.480000
   3623   3626     1   0.15375 251793.120000
   3626   3629     1   0.15110 237065.440000
   3629   3630     1   0.15110 237065.440000
   3629   3640     1   0.15110 237065.440000
   3630   3633     1   0.15375 251793.120000
   3633   3636     1   0.15241 261918.400000
   3636   3637     1   0.12183 533627.360000
   3636   3638     1   0.13513 334803.680000
   3640   3643     1   0.15375 251793.120000
   3643   3646     1   0.15241 261918.400000
   3646   3647     1   0.12183 533627.360000
   3646   3648     1   0.13513 334803.680000
   3652   3655     1   0.15375 251793.120000
   3652   3682     1   0.14316 258236.480000
   3655   3658     1   0.15375 251793.120000
   3658   3661     1   0.15110 237065.440000
   3661   3662     1   0.15110 237065.440000
   3661   3672     1   0.15110 237065.440000
   3662   3665     1   0.15375 251793.120000
   3665   3668     1   0.15241 261918.400000
   3668   3669     1   0.12183 533627.360000
   3668   3670     1   0.13513 334803.680000
   3672   3675     1   0.15375 251793.120000
   3675   3678     1   0.15241 261918.400000
   3678   3679     1   0.12183 533627.360000
   3678   3680     1   0.13513 334803.680000
   3684   3687     1   0.15375 251793.120000
   3684   3714     1   0.14316 258236.480000
   3687   3690     1   0.15375 251793.120000
   3690   3693     1   0.15110 237065.440000
   3693   3694     1   0.15110 237065.440000
   3693   3704     1   0.15110 237065.440000
   3694   3697     1   0.15375 251793.120000
   3697   3700     1   0.15241 261918.400000
   3700   3701     1   0.12183 533627.360000
   3700   3702     1   0.13513 334803.680000
   3704   3707     1   0.15375 251793.120000
   3707   3710     1   0.15241 261918.400000
   3710   3711     1   0.12183 533627.360000
   3710   3712     1   0.13513 334803.680000
   3716   3719     1   0.15375 251793.120000
   3716   3746     1   0.14316 258236.480000
   3719   3722     1   0.15375 251793.120000
   3722   3725     1   0.15110 237065.440000
   3725   3726     1   0.15110 237065.440000
   3725   3736     1   0.15110 237065.440000
   3726   3729     1   0.15375 251793.120000
   3729   3732     1   0.15241 261918.400000
   3732   3733     1   0.12183 533627.360000
   3732   3734     1   0.13513 334803.680000
   3736   3739     1   0.15375 251793.120000
   3739   3742     1   0.15241 261918.400000
   3742   3743     1   0.12183 533627.360000
   3742   3744     1   0.13513 334803.680000
   3748   3751     1   0.15375 251793.120000
   3748   3778     1   0.14316 258236.480000
   3751   3754     1   0.15375 251793.120000
   3754   3757     1   0.15110 237065.440000
   3757   3758     1   0.15110 237065.440000
   3757   3768     1   0.15110 237065.440000
   3758   3761     1   0.15375 251793.120000
   3761   3764     1   0.15241 261918.400000
   3764   3765     1   0.12183 533627.360000
   3764   3766     1   0.13513 334803.680000
   3768   3771     1   0.15375 251793.120000
   3771   3774     1   0.15241 261918.400000
   3774   3775     1   0.12183 533627.360000
   3774   3776     1   0.13513 334803.680000
   3780   3783     1   0.15375 251793.120000
   3780   3810     1   0.14316 258236.480000
   3783   3786     1   0.15375 251793.120000
   3786   3789     1   0.15110 237065.440000
   3789   3790     1   0.15110 237065.440000
   3789   3800     1   0.15110 237065.440000
   3790   3793     1   0.15375 251793.120000
   3793   3796     1   0.15241 261918.400000
   3796   3797     1   0.12183 533627.360000
   3796   3798     1   0.13513 334803.680000
   3800   3803     1   0.15375 251793.120000
   3803   3806     1   0.15241 261918.400000
   3806   3807     1   0.12183 533627.360000
   3806   3808     1   0.13513 334803.680000
   3812   3815     1   0.15375 251793.120000
   3812   3842     1   0.14316 258236.480000
   3815   3818     1   0.15375 251793.120000
   3818   3821     1   0.15110 237065.440000
   3821   3822     1   0.15110 237065.440000
   3821   3832     1   0.15110 237065.440000
   3822   3825     1   0.15375 251793.120000
   3825   3828     1   0.15241 261918.400000
   3828   3829     1   0.12183 533627.360000
   3828   3830     1   0.13513 334803.680000
   3832   3835     1   0.15375 251793.120000
   3835   3838     1   0.15241 261918.400000
   3838   3839     1   0.12183 533627.360000
   3838   3840     1   0.13513 334803.680000
   3844   3847     1   0.15375 251793.120000
   3844   3874     1   0.14316 258236.480000
   3847   3850     1   0.15375 251793.120000
   3850   3853     1   0.15110 237065.440000
   3853   3854     1   0.15110 237065.440000
   3853   3864     1   0.15110 237065.440000
   3854   3857     1   0.15375 251793.120000
   3857   3860     1   0.15241 261918.400000
   3860   3861     1   0.12183 533627.360000
   3860   3862     1   0.13513 334803.680000
   3864   3867     1   0.15375 251793.120000
   3867   3870     1   0.15241 261918.400000
   3870   3871     1   0.12183 533627.360000
   3870   3872     1   0.13513 334803.680000
   3876   3879     1   0.15375 251793.120000
   3876   3906     1   0.14316 258236.480000
   3879   3882     1   0.15375 251793.120000
   3882   3885     1   0.15110 237065.440000
   3885   3886     1   0.15110 237065.440000
   3885   3896     1   0.15110 237065.440000
   3886   3889     1   0.15375 251793.120000
   3889   3892     1   0.15241 261918.400000
   3892   3893     1   0.12183 533627.360000
   3892   3894     1   0.13513 334803.680000
   3896   3899     1   0.15375 251793.120000
   3899   3902     1   0.15241 261918.400000
   3902   3903     1   0.12183 533627.360000
   3902   3904     1   0.13513 334803.680000
   3908   3911     1   0.15375 251793.120000
   3908   3938     1   0.14316 258236.480000
   3911   3914     1   0.15375 251793.120000
   3914   3917     1   0.15110 237065.440000
   3917   3918     1   0.15110 237065.440000
   3917   3928     1   0.15110 237065.440000
   3918   3921     1   0.15375 251793.120000
   3921   3924     1   0.15241 261918.400000
   3924   3925     1   0.12183 533627.360000
   3924   3926     1   0.13513 334803.680000
   3928   3931     1   0.15375 251793.120000
   3931   3934     1   0.15241 261918.400000
   3934   3935     1   0.12183 533627.360000
   3934   3936     1   0.13513 334803.680000
   3940   3943     1   0.15375 251793.120000
   3940   3970     1   0.14316 258236.480000
   3943   3946     1   0.15375 251793.120000
   3946   3949     1   0.15110 237065.440000
   3949   3950     1   0.15110 237065.440000
   3949   3960     1   0.15110 237065.440000
   3950   3953     1   0.15375 251793.120000
   3953   3956     1   0.15241 261918.400000
   3956   3957     1   0.12183 533627.360000
   3956   3958     1   0.13513 334803.680000
   3960   3963     1   0.15375 251793.120000
   3963   3966     1   0.15241 261918.400000
   3966   3967     1   0.12183 533627.360000
   3966   3968     1   0.13513 334803.680000
   3972   3975     1   0.15375 251793.120000
   3972   4002     1   0.14316 258236.480000
   3975   3978     1   0.15375 251793.120000
   3978   3981     1   0.15110 237065.440000
   3981   3982     1   0.15110 237065.440000
   3981   3992     1   0.15110 237065.440000
   3982   3985     1   0.15375 251793.120000
   3985   3988     1   0.15241 261918.400000
   3988   3989     1   0.12183 533627.360000
   3988   3990     1   0.13513 334803.680000
   3992   3995     1   0.15375 251793.120000
   3995   3998     1   0.15241 261918.400000
   3998   3999     1   0.12183 533627.360000
   3998   4000     1   0.13513 334803.680000
   4004   4007     1   0.15375 251793.120000
   4004   4034     1   0.14316 258236.480000
   4007   4010     1   0.15375 251793.120000
   4010   4013     1   0.15110 237065.440000
   4013   4014     1   0.15110 237065.440000
   4013   4024     1   0.15110 237065.440000
   4014   4017     1   0.15375 251793.120000
   4017   4020     1   0.15241 261918.400000
   4020   4021     1   0.12183 533627.360000
   4020   4022     1   0.13513 334803.680000
   4024   4027     1   0.15375 251793.120000
   4027   4030     1   0.15241 261918.400000
   4030   4031     1   0.12183 533627.360000
   4030   4032     1   0.13513 334803.680000
   4036   4039     1   0.15375 251793.120000
   4036   4066     1   0.14316 258236.480000
   4039   4042     1   0.15375 251793.120000
   4042   4045     1   0.15110 237065.440000
   4045   4046     1   0.15110 237065.440000
   4045   4056     1   0.15110 237065.440000
   4046   4049     1   0.15375 251793.120000
   4049   4052     1   0.15241 261918.400000
   4052   4053     1   0.12183 533627.360000
   4052   4054     1   0.13513 334803.680000
   4056   4059     1   0.15375 251793.120000
   4059   4062     1   0.15241 261918.400000
   4062   4063     1   0.12183 533627.360000
   4062   4064     1   0.13513 334803.680000
   4068   4071     1   0.15375 251793.120000
   4068   4098     1   0.14316 258236.480000
   4071   4074     1   0.15375 251793.120000
   4074   4077     1   0.15110 237065.440000
   4077   4078     1   0.15110 237065.440000
   4077   4088     1   0.15110 237065.440000
   4078   4081     1   0.15375 251793.120000
   4081   4084     1   0.15241 261918.400000
   4084   4085     1   0.12183 533627.360000
   4084   4086     1   0.13513 334803.680000
   4088   4091     1   0.15375 251793.120000
   4091   4094     1   0.15241 261918.400000
   4094   4095     1   0.12183 533627.360000
   4094   4096     1   0.13513 334803.680000
   4100   4103     1   0.15375 251793.120000
   4100   4130     1   0.14316 258236.480000
   4103   4106     1   0.15375 251793.120000
   4106   4109     1   0.15110 237065.440000
   4109   4110     1   0.15110 237065.440000
   4109   4120     1   0.15110 237065.440000
   4110   4113     1   0.15375 251793.120000
   4113   4116     1   0.15241 261918.400000
   4116   4117     1   0.12183 533627.360000
   4116   4118     1   0.13513 334803.680000
   4120   4123     1   0.15375 251793.120000
   4123   4126     1   0.15241 261918.400000
   4126   4127     1   0.12183 533627.360000
   4126   4128     1   0.13513 334803.680000
   4132   4135     1   0.15375 251793.120000
   4132   4162     1   0.14316 258236.480000
   4135   4138     1   0.15375 251793.120000
   4138   4141     1   0.15110 237065.440000
   4141   4142     1   0.15110 237065.440000
   4141   4152     1   0.15110 237065.440000
   4142   4145     1   0.15375 251793.120000
   4145   4148     1   0.15241 261918.400000
   4148   4149     1   0.12183 533627.360000
   4148   4150     1   0.13513 334803.680000
   4152   4155     1   0.15375 251793.120000
   4155   4158     1   0.15241 261918.400000
   4158   4159     1   0.12183 533627.360000
   4158   4160     1   0.13513 334803.680000
   4164   4167     1   0.15375 251793.120000
   4164   4194     1   0.14316 258236.480000
   4167   4170     1   0.15375 251793.120000
   4170   4173     1   0.15110 237065.440000
   4173   4174     1   0.15110 237065.440000
   4173   4184     1   0.15110 237065.440000
   4174   4177     1   0.15375 251793.120000
   4177   4180     1   0.15241 261918.400000
   4180   4181     1   0.12183 533627.360000
   4180   4182     1   0.13513 334803.680000
   4184   4187     1   0.15375 251793.120000
   4187   4190     1   0.15241 261918.400000
   4190   4191     1   0.12183 533627.360000
   4190   4192     1   0.13513 334803.680000
   4196   4199     1   0.15375 251793.120000
   4196   4226     1   0.14316 258236.480000
   4199   4202     1   0.15375 251793.120000
   4202   4205     1   0.15110 237065.440000
   4205   4206     1   0.15110 237065.440000
   4205   4216     1   0.15110 237065.440000
   4206   4209     1   0.15375 251793.120000
   4209   4212     1   0.15241 261918.400000
   4212   4213     1   0.12183 533627.360000
   4212   4214     1   0.13513 334803.680000
   4216   4219     1   0.15375 251793.120000
   4219   4222     1   0.15241 261918.400000
   4222   4223     1   0.12183 533627.360000
   4222   4224     1   0.13513 334803.680000
   4228   4231     1   0.15375 251793.120000
   4228   4258     1   0.14316 258236.480000
   4231   4234     1   0.15375 251793.120000
   4234   4237     1   0.15110 237065.440000
   4237   4238     1   0.15110 237065.440000
   4237   4248     1   0.15110 237065.440000
   4238   4241     1   0.15375 251793.120000
   4241   4244     1   0.15241 261918.400000
   4244   4245     1   0.12183 533627.360000
   4244   4246     1   0.13513 334803.680000
   4248   4251     1   0.15375 251793.120000
   4251   4254     1   0.15241 261918.400000
   4254   4255     1   0.12183 533627.360000
   4254   4256     1   0.13513 334803.680000
   4260   4263     1   0.15375 251793.120000
   4260   4290     1   0.14316 258236.480000
   4263   4266     1   0.15375 251793.120000
   4266   4269     1   0.15110 237065.440000
   4269   4270     1   0.15110 237065.440000
   4269   4280     1   0.15110 237065.440000
   4270   4273     1   0.15375 251793.120000
   4273   4276     1   0.15241 261918.400000
   4276   4277     1   0.12183 533627.360000
   4276   4278     1   0.13513 334803.680000
   4280   4283     1   0.15375 251793.120000
   4283   4286     1   0.15241 261918.400000
   4286   4287     1   0.12183 533627.360000
   4286   4288     1   0.13513 334803.680000
   4292   4295     1   0.15375 251793.120000
   4292   4322     1   0.14316 258236.480000
   4295   4298     1   0.15375 251793.120000
   4298   4301     1   0.15110 237065.440000
   4301   4302     1   0.15110 237065.440000
   4301   4312     1   0.15110 237065.440000
   4302   4305     1   0.15375 251793.120000
   4305   4308     1   0.15241 261918.400000
   4308   4309     1   0.12183 533627.360000
   4308   4310     1   0.13513 334803.680000
   4312   4315     1   0.15375 251793.120000
   4315   4318     1   0.15241 261918.400000
   4318   4319     1   0.12183 533627.360000
   4318   4320     1   0.13513 334803.680000
   4324   4327     1   0.15375 251793.120000
   4324   4354     1   0.14316 258236.480000
   4327   4330     1   0.15375 251793.120000
   4330   4333     1   0.15110 237065.440000
   4333   4334     1   0.15110 237065.440000
   4333   4344     1   0.15110 237065.440000
   4334   4337     1   0.15375 251793.120000
   4337   4340     1   0.15241 261918.400000
   4340   4341     1   0.12183 533627.360000
   4340   4342     1   0.13513 334803.680000
   4344   4347     1   0.15375 251793.120000
   4347   4350     1   0.15241 261918.400000
   4350   4351     1   0.12183 533627.360000
   4350   4352     1   0.13513 334803.680000
   4356   4359     1   0.15375 251793.120000
   4356   4386     1   0.14316 258236.480000
   4359   4362     1   0.15375 251793.120000
   4362   4365     1   0.15110 237065.440000
   4365   4366     1   0.15110 237065.440000
   4365   4376     1   0.15110 237065.440000
   4366   4369     1   0.15375 251793.120000
   4369   4372     1   0.15241 261918.400000
   4372   4373     1   0.12183 533627.360000
   4372   4374     1   0.13513 334803.680000
   4376   4379     1   0.15375 251793.120000
   4379   4382     1   0.15241 261918.400000
   4382   4383     1   0.12183 533627.360000
   4382   4384     1   0.13513 334803.680000
   4388   4391     1   0.15375 251793.120000
   4388   4418     1   0.14316 258236.480000
   4391   4394     1   0.15375 251793.120000
   4394   4397     1   0.15110 237065.440000
   4397   4398     1   0.15110 237065.440000
   4397   4408     1   0.15110 237065.440000
   4398   4401     1   0.15375 251793.120000
   4401   4404     1   0.15241 261918.400000
   4404   4405     1   0.12183 533627.360000
   4404   4406     1   0.13513 334803.680000
   4408   4411     1   0.15375 251793.120000
   4411   4414     1   0.15241 261918.400000
   4414   4415     1   0.12183 533627.360000
   4414   4416     1   0.13513 334803.680000
   4420   4423     1   0.15375 251793.120000
   4420   4450     1   0.14316 258236.480000
   4423   4426     1   0.15375 251793.120000
   4426   4429     1   0.15110 237065.440000
   4429   4430     1   0.15110 237065.440000
   4429   4440     1   0.15110 237065.440000
   4430   4433     1   0.15375 251793.120000
   4433   4436     1   0.15241 261918.400000
   4436   4437     1   0.12183 533627.360000
   4436   4438     1   0.13513 334803.680000
   4440   4443     1   0.15375 251793.120000
   4443   4446     1   0.15241 261918.400000
   4446   4447     1   0.12183 533627.360000
   4446   4448     1   0.13513 334803.680000
   4452   4455     1   0.15375 251793.120000
   4452   4482     1   0.14316 258236.480000
   4455   4458     1   0.15375 251793.120000
   4458   4461     1   0.15110 237065.440000
   4461   4462     1   0.15110 237065.440000
   4461   4472     1   0.15110 237065.440000
   4462   4465     1   0.15375 251793.120000
   4465   4468     1   0.15241 261918.400000
   4468   4469     1   0.12183 533627.360000
   4468   4470     1   0.13513 334803.680000
   4472   4475     1   0.15375 251793.120000
   4475   4478     1   0.15241 261918.400000
   4478   4479     1   0.12183 533627.360000
   4478   4480     1   0.13513 334803.680000
   4484   4487     1   0.15375 251793.120000
   4484   4514     1   0.14316 258236.480000
   4487   4490     1   0.15375 251793.120000
   4490   4493     1   0.15110 237065.440000
   4493   4494     1   0.15110 237065.440000
   4493   4504     1   0.15110 237065.440000
   4494   4497     1   0.15375 251793.120000
   4497   4500     1   0.15241 261918.400000
   4500   4501     1   0.12183 533627.360000
   4500   4502     1   0.13513 334803.680000
   4504   4507     1   0.15375 251793.120000
   4507   4510     1   0.15241 261918.400000
   4510   4511     1   0.12183 533627.360000
   4510   4512     1   0.13513 334803.680000
   4516   4519     1   0.15375 251793.120000
   4516   4546     1   0.14316 258236.480000
   4519   4522     1   0.15375 251793.120000
   4522   4525     1   0.15110 237065.440000
   4525   4526     1   0.15110 237065.440000
   4525   4536     1   0.15110 237065.440000
   4526   4529     1   0.15375 251793.120000
   4529   4532     1   0.15241 261918.400000
   4532   4533     1   0.12183 533627.360000
   4532   4534     1   0.13513 334803.680000
   4536   4539     1   0.15375 251793.120000
   4539   4542     1   0.15241 261918.400000
   4542   4543     1   0.12183 533627.360000
   4542   4544     1   0.13513 334803.680000
   4548   4551     1   0.15375 251793.120000
   4548   4578     1   0.14316 258236.480000
   4551   4554     1   0.15375 251793.120000
   4554   4557     1   0.15110 237065.440000
   4557   4558     1   0.15110 237065.440000
   4557   4568     1   0.15110 237065.440000
   4558   4561     1   0.15375 251793.120000
   4561   4564     1   0.15241 261918.400000
   4564   4565     1   0.12183 533627.360000
   4564   4566     1   0.13513 334803.680000
   4568   4571     1   0.15375 251793.120000
   4571   4574     1   0.15241 261918.400000
   4574   4575     1   0.12183 533627.360000
   4574   4576     1   0.13513 334803.680000
   4580   4583     1   0.15375 251793.120000
   4580   4610     1   0.14316 258236.480000
   4583   4586     1   0.15375 251793.120000
   4586   4589     1   0.15110 237065.440000
   4589   4590     1   0.15110 237065.440000
   4589   4600     1   0.15110 237065.440000
   4590   4593     1   0.15375 251793.120000
   4593   4596     1   0.15241 261918.400000
   4596   4597     1   0.12183 533627.360000
   4596   4598     1   0.13513 334803.680000
   4600   4603     1   0.15375 251793.120000
   4603   4606     1   0.15241 261918.400000
   4606   4607     1   0.12183 533627.360000
   4606   4608     1   0.13513 334803.680000
   4612   4615     1   0.15375 251793.120000
   4612   4642     1   0.14316 258236.480000
   4615   4618     1   0.15375 251793.120000
   4618   4621     1   0.15110 237065.440000
   4621   4622     1   0.15110 237065.440000
   4621   4632     1   0.15110 237065.440000
   4622   4625     1   0.15375 251793.120000
   4625   4628     1   0.15241 261918.400000
   4628   4629     1   0.12183 533627.360000
   4628   4630     1   0.13513 334803.680000
   4632   4635     1   0.15375 251793.120000
   4635   4638     1   0.15241 261918.400000
   4638   4639     1   0.12183 533627.360000
   4638   4640     1   0.13513 334803.680000
   4644   4647     1   0.15375 251793.120000
   4644   4674     1   0.14316 258236.480000
   4647   4650     1   0.15375 251793.120000
   4650   4653     1   0.15110 237065.440000
   4653   4654     1   0.15110 237065.440000
   4653   4664     1   0.15110 237065.440000
   4654   4657     1   0.15375 251793.120000
   4657   4660     1   0.15241 261918.400000
   4660   4661     1   0.12183 533627.360000
   4660   4662     1   0.13513 334803.680000
   4664   4667     1   0.15375 251793.120000
   4667   4670     1   0.15241 261918.400000
   4670   4671     1   0.12183 533627.360000
   4670   4672     1   0.13513 334803.680000
   4676   4679     1   0.15375 251793.120000
   4676   4706     1   0.14316 258236.480000
   4679   4682     1   0.15375 251793.120000
   4682   4685     1   0.15110 237065.440000
   4685   4686     1   0.15110 237065.440000
   4685   4696     1   0.15110 237065.440000
   4686   4689     1   0.15375 251793.120000
   4689   4692     1   0.15241 261918.400000
   4692   4693     1   0.12183 533627.360000
   4692   4694     1   0.13513 334803.680000
   4696   4699     1   0.15375 251793.120000
   4699   4702     1   0.15241 261918.400000
   4702   4703     1   0.12183 533627.360000
   4702   4704     1   0.13513 334803.680000
   4708   4711     1   0.15375 251793.120000
   4708   4738     1   0.14316 258236.480000
   4711   4714     1   0.15375 251793.120000
   4714   4717     1   0.15110 237065.440000
   4717   4718     1   0.15110 237065.440000
   4717   4728     1   0.15110 237065.440000
   4718   4721     1   0.15375 251793.120000
   4721   4724     1   0.15241 261918.400000
   4724   4725     1   0.12183 533627.360000
   4724   4726     1   0.13513 334803.680000
   4728   4731     1   0.15375 251793.120000
   4731   4734     1   0.15241 261918.400000
   4734   4735     1   0.12183 533627.360000
   4734   4736     1   0.13513 334803.680000
   4740   4743     1   0.15375 251793.120000
   4740   4770     1   0.14316 258236.480000
   4743   4746     1   0.15375 251793.120000
   4746   4749     1   0.15110 237065.440000
   4749   4750     1   0.15110 237065.440000
   4749   4760     1   0.15110 237065.440000
   4750   4753     1   0.15375 251793.120000
   4753   4756     1   0.15241 261918.400000
   4756   4757     1   0.12183 533627.360000
   4756   4758     1   0.13513 334803.680000
   4760   4763     1   0.15375 251793.120000
   4763   4766     1   0.15241 261918.400000
   4766   4767     1   0.12183 533627.360000
   4766   4768     1   0.13513 334803.680000
   4772   4775     1   0.15375 251793.120000
   4772   4802     1   0.14316 258236.480000
   4775   4778     1   0.15375 251793.120000
   4778   4781     1   0.15110 237065.440000
   4781   4782     1   0.15110 237065.440000
   4781   4792     1   0.15110 237065.440000
   4782   4785     1   0.15375 251793.120000
   4785   4788     1   0.15241 261918.400000
   4788   4789     1   0.12183 533627.360000
   4788   4790     1   0.13513 334803.680000
   4792   4795     1   0.15375 251793.120000
   4795   4798     1   0.15241 261918.400000
   4798   4799     1   0.12183 533627.360000
   4798   4800     1   0.13513 334803.680000
   4804   4807     1   0.15375 251793.120000
   4804   4834     1   0.14316 258236.480000
   4807   4810     1   0.15375 251793.120000
   4810   4813     1   0.15110 237065.440000
   4813   4814     1   0.15110 237065.440000
   4813   4824     1   0.15110 237065.440000
   4814   4817     1   0.15375 251793.120000
   4817   4820     1   0.15241 261918.400000
   4820   4821     1   0.12183 533627.360000
   4820   4822     1   0.13513 334803.680000
   4824   4827     1   0.15375 251793.120000
   4827   4830     1   0.15241 261918.400000
   4830   4831     1   0.12183 533627.360000
   4830   4832     1   0.13513 334803.680000
   4836   4839     1   0.15375 251793.120000
   4836   4866     1   0.14316 258236.480000
   4839   4842     1   0.15375 251793.120000
   4842   4845     1   0.15110 237065.440000
   4845   4846     1   0.15110 237065.440000
   4845   4856     1   0.15110 237065.440000
   4846   4849     1   0.15375 251793.120000
   4849   4852     1   0.15241 261918.400000
   4852   4853     1   0.12183 533627.360000
   4852   4854     1   0.13513 334803.680000
   4856   4859     1   0.15375 251793.120000
   4859   4862     1   0.15241 261918.400000
   4862   4863     1   0.12183 533627.360000
   4862   4864     1   0.13513 334803.680000
   4868   4871     1   0.15375 251793.120000
   4868   4898     1   0.14316 258236.480000
   4871   4874     1   0.15375 251793.120000
   4874   4877     1   0.15110 237065.440000
   4877   4878     1   0.15110 237065.440000
   4877   4888     1   0.15110 237065.440000
   4878   4881     1   0.15375 251793.120000
   4881   4884     1   0.15241 261918.400000
   4884   4885     1   0.12183 533627.360000
   4884   4886     1   0.13513 334803.680000
   4888   4891     1   0.15375 251793.120000
   4891   4894     1   0.15241 261918.400000
   4894   4895     1   0.12183 533627.360000
   4894   4896     1   0.13513 334803.680000
   4900   4903     1   0.15375 251793.120000
   4900   4930     1   0.14316 258236.480000
   4903   4906     1   0.15375 251793.120000
   4906   4909     1   0.15110 237065.440000
   4909   4910     1   0.15110 237065.440000
   4909   4920     1   0.15110 237065.440000
   4910   4913     1   0.15375 251793.120000
   4913   4916     1   0.15241 261918.400000
   4916   4917     1   0.12183 533627.360000
   4916   4918     1   0.13513 334803.680000
   4920   4923     1   0.15375 251793.120000
   4923   4926     1   0.15241 261918.400000
   4926   4927     1   0.12183 533627.360000
   4926   4928     1   0.13513 334803.680000
   4932   4935     1   0.15375 251793.120000
   4932   4962     1   0.14316 258236.480000
   4935   4938     1   0.15375 251793.120000
   4938   4941     1   0.15110 237065.440000
   4941   4942     1   0.15110 237065.440000
   4941   4952     1   0.15110 237065.440000
   4942   4945     1   0.15375 251793.120000
   4945   4948     1   0.15241 261918.400000
   4948   4949     1   0.12183 533627.360000
   4948   4950     1   0.13513 334803.680000
   4952   4955     1   0.15375 251793.120000
   4955   4958     1   0.15241 261918.400000
   4958   4959     1   0.12183 533627.360000
   4958   4960     1   0.13513 334803.680000
   4964   4967     1   0.15375 251793.120000
   4964   4994     1   0.14316 258236.480000
   4967   4970     1   0.15375 251793.120000
   4970   4973     1   0.15110 237065.440000
   4973   4974     1   0.15110 237065.440000
   4973   4984     1   0.15110 237065.440000
   4974   4977     1   0.15375 251793.120000
   4977   4980     1   0.15241 261918.400000
   4980   4981     1   0.12183 533627.360000
   4980   4982     1   0.13513 334803.680000
   4984   4987     1   0.15375 251793.120000
   4987   4990     1   0.15241 261918.400000
   4990   4991     1   0.12183 533627.360000
   4990   4992     1   0.13513 334803.680000
   4996   4999     1   0.15375 251793.120000
   4996   5026     1   0.14316 258236.480000
   4999   5002     1   0.15375 251793.120000
   5002   5005     1   0.15110 237065.440000
   5005   5006     1   0.15110 237065.440000
   5005   5016     1   0.15110 237065.440000
   5006   5009     1   0.15375 251793.120000
   5009   5012     1   0.15241 261918.400000
   5012   5013     1   0.12183 533627.360000
   5012   5014     1   0.13513 334803.680000
   5016   5019     1   0.15375 251793.120000
   5019   5022     1   0.15241 261918.400000
   5022   5023     1   0.12183 533627.360000
   5022   5024     1   0.13513 334803.680000
   5028   5031     1   0.15375 251793.120000
   5028   5058     1   0.14316 258236.480000
   5031   5034     1   0.15375 251793.120000
   5034   5037     1   0.15110 237065.440000
   5037   5038     1   0.15110 237065.440000
   5037   5048     1   0.15110 237065.440000
   5038   5041     1   0.15375 251793.120000
   5041   5044     1   0.15241 261918.400000
   5044   5045     1   0.12183 533627.360000
   5044   5046     1   0.13513 334803.680000
   5048   5051     1   0.15375 251793.120000
   5051   5054     1   0.15241 261918.400000
   5054   5055     1   0.12183 533627.360000
   5054   5056     1   0.13513 334803.680000
   5060   5063     1   0.15375 251793.120000
   5060   5090     1   0.14316 258236.480000
   5063   5066     1   0.15375 251793.120000
   5066   5069     1   0.15110 237065.440000
   5069   5070     1   0.15110 237065.440000
   5069   5080     1   0.15110 237065.440000
   5070   5073     1   0.15375 251793.120000
   5073   5076     1   0.15241 261918.400000
   5076   5077     1   0.12183 533627.360000
   5076   5078     1   0.13513 334803.680000
   5080   5083     1   0.15375 251793.120000
   5083   5086     1   0.15241 261918.400000
   5086   5087     1   0.12183 533627.360000
   5086   5088     1   0.13513 334803.680000
   5092   5095     1   0.15375 251793.120000
   5092   5122     1   0.14316 258236.480000
   5095   5098     1   0.15375 251793.120000
   5098   5101     1   0.15110 237065.440000
   5101   5102     1   0.15110 237065.440000
   5101   5112     1   0.15110 237065.440000
   5102   5105     1   0.15375 251793.120000
   5105   5108     1   0.15241 261918.400000
   5108   5109     1   0.12183 533627.360000
   5108   5110     1   0.13513 334803.680000
   5112   5115     1   0.15375 251793.120000
   5115   5118     1   0.15241 261918.400000
   5118   5119     1   0.12183 533627.360000
   5118   5120     1   0.13513 334803.680000
   5124   5127     1   0.15375 251793.120000
   5124   5154     1   0.14316 258236.480000
   5127   5130     1   0.15375 251793.120000
   5130   5133     1   0.15110 237065.440000
   5133   5134     1   0.15110 237065.440000
   5133   5144     1   0.15110 237065.440000
   5134   5137     1   0.15375 251793.120000
   5137   5140     1   0.15241 261918.400000
   5140   5141     1   0.12183 533627.360000
   5140   5142     1   0.13513 334803.680000
   5144   5147     1   0.15375 251793.120000
   5147   5150     1   0.15241 261918.400000
   5150   5151     1   0.12183 533627.360000
   5150   5152     1   0.13513 334803.680000
   5156   5159     1   0.15375 251793.120000
   5156   5186     1   0.14316 258236.480000
   5159   5162     1   0.15375 251793.120000
   5162   5165     1   0.15110 237065.440000
   5165   5166     1   0.15110 237065.440000
   5165   5176     1   0.15110 237065.440000
   5166   5169     1   0.15375 251793.120000
   5169   5172     1   0.15241 261918.400000
   5172   5173     1   0.12183 533627.360000
   5172   5174     1   0.13513 334803.680000
   5176   5179     1   0.15375 251793.120000
   5179   5182     1   0.15241 261918.400000
   5182   5183     1   0.12183 533627.360000
   5182   5184     1   0.13513 334803.680000
   5188   5191     1   0.15375 251793.120000
   5188   5218     1   0.14316 258236.480000
   5191   5194     1   0.15375 251793.120000
   5194   5197     1   0.15110 237065.440000
   5197   5198     1   0.15110 237065.440000
   5197   5208     1   0.15110 237065.440000
   5198   5201     1   0.15375 251793.120000
   5201   5204     1   0.15241 261918.400000
   5204   5205     1   0.12183 533627.360000
   5204   5206     1   0.13513 334803.680000
   5208   5211     1   0.15375 251793.120000
   5211   5214     1   0.15241 261918.400000
   5214   5215     1   0.12183 533627.360000
   5214   5216     1   0.13513 334803.680000
   5220   5223     1   0.15375 251793.120000
   5220   5250     1   0.14316 258236.480000
   5223   5226     1   0.15375 251793.120000
   5226   5229     1   0.15110 237065.440000
   5229   5230     1   0.15110 237065.440000
   5229   5240     1   0.15110 237065.440000
   5230   5233     1   0.15375 251793.120000
   5233   5236     1   0.15241 261918.400000
   5236   5237     1   0.12183 533627.360000
   5236   5238     1   0.13513 334803.680000
   5240   5243     1   0.15375 251793.120000
   5243   5246     1   0.15241 261918.400000
   5246   5247     1   0.12183 533627.360000
   5246   5248     1   0.13513 334803.680000
   5252   5255     1   0.15375 251793.120000
   5252   5282     1   0.14316 258236.480000
   5255   5258     1   0.15375 251793.120000
   5258   5261     1   0.15110 237065.440000
   5261   5262     1   0.15110 237065.440000
   5261   5272     1   0.15110 237065.440000
   5262   5265     1   0.15375 251793.120000
   5265   5268     1   0.15241 261918.400000
   5268   5269     1   0.12183 533627.360000
   5268   5270     1   0.13513 334803.680000
   5272   5275     1   0.15375 251793.120000
   5275   5278     1   0.15241 261918.400000
   5278   5279     1   0.12183 533627.360000
   5278   5280     1   0.13513 334803.680000
   5284   5287     1   0.15375 251793.120000
   5284   5314     1   0.14316 258236.480000
   5287   5290     1   0.15375 251793.120000
   5290   5293     1   0.15110 237065.440000
   5293   5294     1   0.15110 237065.440000
   5293   5304     1   0.15110 237065.440000
   5294   5297     1   0.15375 251793.120000
   5297   5300     1   0.15241 261918.400000
   5300   5301     1   0.12183 533627.360000
   5300   5302     1   0.13513 334803.680000
   5304   5307     1   0.15375 251793.120000
   5307   5310     1   0.15241 261918.400000
   5310   5311     1   0.12183 533627.360000
   5310   5312     1   0.13513 334803.680000
   5316   5319     1   0.15375 251793.120000
   5316   5346     1   0.14316 258236.480000
   5319   5322     1   0.15375 251793.120000
   5322   5325     1   0.15110 237065.440000
   5325   5326     1   0.15110 237065.440000
   5325   5336     1   0.15110 237065.440000
   5326   5329     1   0.15375 251793.120000
   5329   5332     1   0.15241 261918.400000
   5332   5333     1   0.12183 533627.360000
   5332   5334     1   0.13513 334803.680000
   5336   5339     1   0.15375 251793.120000
   5339   5342     1   0.15241 261918.400000
   5342   5343     1   0.12183 533627.360000
   5342   5344     1   0.13513 334803.680000
   5348   5351     1   0.15375 251793.120000
   5348   5378     1   0.14316 258236.480000
   5351   5354     1   0.15375 251793.120000
   5354   5357     1   0.15110 237065.440000
   5357   5358     1   0.15110 237065.440000
   5357   5368     1   0.15110 237065.440000
   5358   5361     1   0.15375 251793.120000
   5361   5364     1   0.15241 261918.400000
   5364   5365     1   0.12183 533627.360000
   5364   5366     1   0.13513 334803.680000
   5368   5371     1   0.15375 251793.120000
   5371   5374     1   0.15241 261918.400000
   5374   5375     1   0.12183 533627.360000
   5374   5376     1   0.13513 334803.680000
   5380   5383     1   0.15375 251793.120000
   5380   5410     1   0.14316 258236.480000
   5383   5386     1   0.15375 251793.120000
   5386   5389     1   0.15110 237065.440000
   5389   5390     1   0.15110 237065.440000
   5389   5400     1   0.15110 237065.440000
   5390   5393     1   0.15375 251793.120000
   5393   5396     1   0.15241 261918.400000
   5396   5397     1   0.12183 533627.360000
   5396   5398     1   0.13513 334803.680000
   5400   5403     1   0.15375 251793.120000
   5403   5406     1   0.15241 261918.400000
   5406   5407     1   0.12183 533627.360000
   5406   5408     1   0.13513 334803.680000
   5412   5415     1   0.15375 251793.120000
   5412   5442     1   0.14316 258236.480000
   5415   5418     1   0.15375 251793.120000
   5418   5421     1   0.15110 237065.440000
   5421   5422     1   0.15110 237065.440000
   5421   5432     1   0.15110 237065.440000
   5422   5425     1   0.15375 251793.120000
   5425   5428     1   0.15241 261918.400000
   5428   5429     1   0.12183 533627.360000
   5428   5430     1   0.13513 334803.680000
   5432   5435     1   0.15375 251793.120000
   5435   5438     1   0.15241 261918.400000
   5438   5439     1   0.12183 533627.360000
   5438   5440     1   0.13513 334803.680000
   5444   5447     1   0.15375 251793.120000
   5444   5474     1   0.14316 258236.480000
   5447   5450     1   0.15375 251793.120000
   5450   5453     1   0.15110 237065.440000
   5453   5454     1   0.15110 237065.440000
   5453   5464     1   0.15110 237065.440000
   5454   5457     1   0.15375 251793.120000
   5457   5460     1   0.15241 261918.400000
   5460   5461     1   0.12183 533627.360000
   5460   5462     1   0.13513 334803.680000
   5464   5467     1   0.15375 251793.120000
   5467   5470     1   0.15241 261918.400000
   5470   5471     1   0.12183 533627.360000
   5470   5472     1   0.13513 334803.680000
   5476   5479     1   0.15375 251793.120000
   5476   5506     1   0.14316 258236.480000
   5479   5482     1   0.15375 251793.120000
   5482   5485     1   0.15110 237065.440000
   5485   5486     1   0.15110 237065.440000
   5485   5496     1   0.15110 237065.440000
   5486   5489     1   0.15375 251793.120000
   5489   5492     1   0.15241 261918.400000
   5492   5493     1   0.12183 533627.360000
   5492   5494     1   0.13513 334803.680000
   5496   5499     1   0.15375 251793.120000
   5499   5502     1   0.15241 261918.400000
   5502   5503     1   0.12183 533627.360000
   5502   5504     1   0.13513 334803.680000
   5508   5511     1   0.15375 251793.120000
   5508   5538     1   0.14316 258236.480000
   5511   5514     1   0.15375 251793.120000
   5514   5517     1   0.15110 237065.440000
   5517   5518     1   0.15110 237065.440000
   5517   5528     1   0.15110 237065.440000
   5518   5521     1   0.15375 251793.120000
   5521   5524     1   0.15241 261918.400000
   5524   5525     1   0.12183 533627.360000
   5524   5526     1   0.13513 334803.680000
   5528   5531     1   0.15375 251793.120000
   5531   5534     1   0.15241 261918.400000
   5534   5535     1   0.12183 533627.360000
   5534   5536     1   0.13513 334803.680000
   5540   5543     1   0.15375 251793.120000
   5540   5570     1   0.14316 258236.480000
   5543   5546     1   0.15375 251793.120000
   5546   5549     1   0.15110 237065.440000
   5549   5550     1   0.15110 237065.440000
   5549   5560     1   0.15110 237065.440000
   5550   5553     1   0.15375 251793.120000
   5553   5556     1   0.15241 261918.400000
   5556   5557     1   0.12183 533627.360000
   5556   5558     1   0.13513 334803.680000
   5560   5563     1   0.15375 251793.120000
   5563   5566     1   0.15241 261918.400000
   5566   5567     1   0.12183 533627.360000
   5566   5568     1   0.13513 334803.680000
   5572   5575     1   0.15375 251793.120000
   5572   5602     1   0.14316 258236.480000
   5575   5578     1   0.15375 251793.120000
   5578   5581     1   0.15110 237065.440000
   5581   5582     1   0.15110 237065.440000
   5581   5592     1   0.15110 237065.440000
   5582   5585     1   0.15375 251793.120000
   5585   5588     1   0.15241 261918.400000
   5588   5589     1   0.12183 533627.360000
   5588   5590     1   0.13513 334803.680000
   5592   5595     1   0.15375 251793.120000
   5595   5598     1   0.15241 261918.400000
   5598   5599     1   0.12183 533627.360000
   5598   5600     1   0.13513 334803.680000
   5604   5607     1   0.15375 251793.120000
   5604   5634     1   0.14316 258236.480000
   5607   5610     1   0.15375 251793.120000
   5610   5613     1   0.15110 237065.440000
   5613   5614     1   0.15110 237065.440000
   5613   5624     1   0.15110 237065.440000
   5614   5617     1   0.15375 251793.120000
   5617   5620     1   0.15241 261918.400000
   5620   5621     1   0.12183 533627.360000
   5620   5622     1   0.13513 334803.680000
   5624   5627     1   0.15375 251793.120000
   5627   5630     1   0.15241 261918.400000
   5630   5631     1   0.12183 533627.360000
   5630   5632     1   0.13513 334803.680000
   5636   5639     1   0.15375 251793.120000
   5636   5666     1   0.14316 258236.480000
   5639   5642     1   0.15375 251793.120000
   5642   5645     1   0.15110 237065.440000
   5645   5646     1   0.15110 237065.440000
   5645   5656     1   0.15110 237065.440000
   5646   5649     1   0.15375 251793.120000
   5649   5652     1   0.15241 261918.400000
   5652   5653     1   0.12183 533627.360000
   5652   5654     1   0.13513 334803.680000
   5656   5659     1   0.15375 251793.120000
   5659   5662     1   0.15241 261918.400000
   5662   5663     1   0.12183 533627.360000
   5662   5664     1   0.13513 334803.680000
   5668   5671     1   0.15375 251793.120000
   5668   5698     1   0.14316 258236.480000
   5671   5674     1   0.15375 251793.120000
   5674   5677     1   0.15110 237065.440000
   5677   5678     1   0.15110 237065.440000
   5677   5688     1   0.15110 237065.440000
   5678   5681     1   0.15375 251793.120000
   5681   5684     1   0.15241 261918.400000
   5684   5685     1   0.12183 533627.360000
   5684   5686     1   0.13513 334803.680000
   5688   5691     1   0.15375 251793.120000
   5691   5694     1   0.15241 261918.400000
   5694   5695     1   0.12183 533627.360000
   5694   5696     1   0.13513 334803.680000
   5700   5703     1   0.15375 251793.120000
   5700   5730     1   0.14316 258236.480000
   5703   5706     1   0.15375 251793.120000
   5706   5709     1   0.15110 237065.440000
   5709   5710     1   0.15110 237065.440000
   5709   5720     1   0.15110 237065.440000
   5710   5713     1   0.15375 251793.120000
   5713   5716     1   0.15241 261918.400000
   5716   5717     1   0.12183 533627.360000
   5716   5718     1   0.13513 334803.680000
   5720   5723     1   0.15375 251793.120000
   5723   5726     1   0.15241 261918.400000
   5726   5727     1   0.12183 533627.360000
   5726   5728     1   0.13513 334803.680000
   5732   5735     1   0.15375 251793.120000
   5732   5762     1   0.14316 258236.480000
   5735   5738     1   0.15375 251793.120000
   5738   5741     1   0.15110 237065.440000
   5741   5742     1   0.15110 237065.440000
   5741   5752     1   0.15110 237065.440000
   5742   5745     1   0.15375 251793.120000
   5745   5748     1   0.15241 261918.400000
   5748   5749     1   0.12183 533627.360000
   5748   5750     1   0.13513 334803.680000
   5752   5755     1   0.15375 251793.120000
   5755   5758     1   0.15241 261918.400000
   5758   5759     1   0.12183 533627.360000
   5758   5760     1   0.13513 334803.680000
   5764   5767     1   0.15375 251793.120000
   5764   5794     1   0.14316 258236.480000
   5767   5770     1   0.15375 251793.120000
   5770   5773     1   0.15110 237065.440000
   5773   5774     1   0.15110 237065.440000
   5773   5784     1   0.15110 237065.440000
   5774   5777     1   0.15375 251793.120000
   5777   5780     1   0.15241 261918.400000
   5780   5781     1   0.12183 533627.360000
   5780   5782     1   0.13513 334803.680000
   5784   5787     1   0.15375 251793.120000
   5787   5790     1   0.15241 261918.400000
   5790   5791     1   0.12183 533627.360000
   5790   5792     1   0.13513 334803.680000
   5796   5799     1   0.15375 251793.120000
   5796   5826     1   0.14316 258236.480000
   5799   5802     1   0.15375 251793.120000
   5802   5805     1   0.15110 237065.440000
   5805   5806     1   0.15110 237065.440000
   5805   5816     1   0.15110 237065.440000
   5806   5809     1   0.15375 251793.120000
   5809   5812     1   0.15241 261918.400000
   5812   5813     1   0.12183 533627.360000
   5812   5814     1   0.13513 334803.680000
   5816   5819     1   0.15375 251793.120000
   5819   5822     1   0.15241 261918.400000
   5822   5823     1   0.12183 533627.360000
   5822   5824     1   0.13513 334803.680000
   5828   5831     1   0.15375 251793.120000
   5828   5858     1   0.14316 258236.480000
   5831   5834     1   0.15375 251793.120000
   5834   5837     1   0.15110 237065.440000
   5837   5838     1   0.15110 237065.440000
   5837   5848     1   0.15110 237065.440000
   5838   5841     1   0.15375 251793.120000
   5841   5844     1   0.15241 261918.400000
   5844   5845     1   0.12183 533627.360000
   5844   5846     1   0.13513 334803.680000
   5848   5851     1   0.15375 251793.120000
   5851   5854     1   0.15241 261918.400000
   5854   5855     1   0.12183 533627.360000
   5854   5856     1   0.13513 334803.680000
   5860   5863     1   0.15375 251793.120000
   5860   5890     1   0.14316 258236.480000
   5863   5866     1   0.15375 251793.120000
   5866   5869     1   0.15110 237065.440000
   5869   5870     1   0.15110 237065.440000
   5869   5880     1   0.15110 237065.440000
   5870   5873     1   0.15375 251793.120000
   5873   5876     1   0.15241 261918.400000
   5876   5877     1   0.12183 533627.360000
   5876   5878     1   0.13513 334803.680000
   5880   5883     1   0.15375 251793.120000
   5883   5886     1   0.15241 261918.400000
   5886   5887     1   0.12183 533627.360000
   5886   5888     1   0.13513 334803.680000
      1     29     1   0.10304 312293.760000
      2      3     1   0.10910 283424.160000
      2      4     1   0.10910 283424.160000
      5      6     1   0.10910 283424.160000
      5      7     1   0.10910 283424.160000
      8      9     1   0.10910 283424.160000
      8     10     1   0.10910 283424.160000
     11     12     1   0.10969 276646.080000
     11     13     1   0.10969 276646.080000
     14     15     1   0.10969 276646.080000
     14     16     1   0.10969 276646.080000
     17     18     1   0.10969 276646.080000
     17     19     1   0.10969 276646.080000
     20     21     1   0.10969 276646.080000
     20     22     1   0.10969 276646.080000
     23     24     1   0.10969 276646.080000
     23     25     1   0.10969 276646.080000
     26     27     1   0.10969 276646.080000
     26     28     1   0.10969 276646.080000
     30     59     1   0.10304 312293.760000
     31     32     1   0.10910 283424.160000
     31     33     1   0.10910 283424.160000
     34     35     1   0.10910 283424.160000
     34     36     1   0.10910 283424.160000
     37     38     1   0.10910 283424.160000
     37     39     1   0.10910 283424.160000
     40     41     1   0.10969 276646.080000
     40     42     1   0.10969 276646.080000
     43     44     1   0.10969 276646.080000
     43     45     1   0.10969 276646.080000
     46     47     1   0.10969 276646.080000
     46     48     1   0.10969 276646.080000
     49     50     1   0.10969 276646.080000
     49     51     1   0.10969 276646.080000
     52     53     1   0.10969 276646.080000
     52     54     1   0.10969 276646.080000
     55     56     1   0.10969 276646.080000
     55     57     1   0.10969 276646.080000
     60     89     1   0.10304 312293.760000
     61     62     1   0.10910 283424.160000
     61     63     1   0.10910 283424.160000
     64     65     1   0.10910 283424.160000
     64     66     1   0.10910 283424.160000
     67     68     1   0.10910 283424.160000
     67     69     1   0.10910 283424.160000
     70     71     1   0.10969 276646.080000
     70     72     1   0.10969 276646.080000
     73     74     1   0.10969 276646.080000
     73     75     1   0.10969 276646.080000
     76     77     1   0.10969 276646.080000
     76     78     1   0.10969 276646.080000
     79     80     1   0.10969 276646.080000
     79     81     1   0.10969 276646.080000
     82     83     1   0.10969 276646.080000
     82     84     1   0.10969 276646.080000
     85     86     1   0.10969 276646.080000
     85     87     1   0.10969 276646.080000
     90    119     1   0.10304 312293.760000
     91     92     1   0.10910 283424.160000
     91     93     1   0.10910 283424.160000
     94     95     1   0.10910 283424.160000
     94     96     1   0.10910 283424.160000
     97     98     1   0.10910 283424.160000
     97     99     1   0.10910 283424.160000
    100    101     1   0.10969 276646.080000
    100    102     1   0.10969 276646.080000
    103    104     1   0.10969 276646.080000
    103    105     1   0.10969 276646.080000
    106    107     1   0.10969 276646.080000
    106    108     1   0.10969 276646.080000
    109    110     1   0.10969 276646.080000
    109    111     1   0.10969 276646.080000
    112    113     1   0.10969 276646.080000
    112    114     1   0.10969 276646.080000
    115    116     1   0.10969 276646.080000
    115    117     1   0.10969 276646.080000
    120    149     1   0.10304 312293.760000
    121    122     1   0.10910 283424.160000
    121    123     1   0.10910 283424.160000
    124    125     1   0.10910 283424.160000
    124    126     1   0.10910 283424.160000
    127    128     1   0.10910 283424.160000
    127    129     1   0.10910 283424.160000
    130    131     1   0.10969 276646.080000
    130    132     1   0.10969 276646.080000
    133    134     1   0.10969 276646.080000
    133    135     1   0.10969 276646.080000
    136    137     1   0.10969 276646.080000
    136    138     1   0.10969 276646.080000
    139    140     1   0.10969 276646.080000
    139    141     1   0.10969 276646.080000
    142    143     1   0.10969 276646.080000
    142    144     1   0.10969 276646.080000
    145    146     1   0.10969 276646.080000
    145    147     1   0.10969 276646.080000
    150    179     1   0.10304 312293.760000
    151    152     1   0.10910 283424.160000
    151    153     1   0.10910 283424.160000
    154    155     1   0.10910 283424.160000
    154    156     1   0.10910 283424.160000
    157    158     1   0.10910 283424.160000
    157    159     1   0.10910 283424.160000
    160    161     1   0.10969 276646.080000
    160    162     1   0.10969 276646.080000
    163    164     1   0.10969 276646.080000
    163    165     1   0.10969 276646.080000
    166    167     1   0.10969 276646.080000
    166    168     1   0.10969 276646.080000
    169    170     1   0.10969 276646.080000
    169    171     1   0.10969 276646.080000
    172    173     1   0.10969 276646.080000
    172    174     1   0.10969 276646.080000
    175    176     1   0.10969 276646.080000
    175    177     1   0.10969 276646.080000
    180    209     1   0.10304 312293.760000
    181    182     1   0.10910 283424.160000
    181    183     1   0.10910 283424.160000
    184    185     1   0.10910 283424.160000
    184    186     1   0.10910 283424.160000
    187    188     1   0.10910 283424.160000
    187    189     1   0.10910 283424.160000
    190    191     1   0.10969 276646.080000
    190    192     1   0.10969 276646.080000
    193    194     1   0.10969 276646.080000
    193    195     1   0.10969 276646.080000
    196    197     1   0.10969 276646.080000
    196    198     1   0.10969 276646.080000
    199    200     1   0.10969 276646.080000
    199    201     1   0.10969 276646.080000
    202    203     1   0.10969 276646.080000
    202    204     1   0.10969 276646.080000
    205    206     1   0.10969 276646.080000
    205    207     1   0.10969 276646.080000
    210    239     1   0.10304 312293.760000
    211    212     1   0.10910 283424.160000
    211    213     1   0.10910 283424.160000
    214    215     1   0.10910 283424.160000
    214    216     1   0.10910 283424.160000
    217    218     1   0.10910 283424.160000
    217    219     1   0.10910 283424.160000
    220    221     1   0.10969 276646.080000
    220    222     1   0.10969 276646.080000
    223    224     1   0.10969 276646.080000
    223    225     1   0.10969 276646.080000
    226    227     1   0.10969 276646.080000
    226    228     1   0.10969 276646.080000
    229    230     1   0.10969 276646.080000
    229    231     1   0.10969 276646.080000
    232    233     1   0.10969 276646.080000
    232    234     1   0.10969 276646.080000
    235    236     1   0.10969 276646.080000
    235    237     1   0.10969 276646.080000
    240    269     1   0.10304 312293.760000
    241    242     1   0.10910 283424.160000
    241    243     1   0.10910 283424.160000
    244    245     1   0.10910 283424.160000
    244    246     1   0.10910 283424.160000
    247    248     1   0.10910 283424.160000
    247    249     1   0.10910 283424.160000
    250    251     1   0.10969 276646.080000
    250    252     1   0.10969 276646.080000
    253    254     1   0.10969 276646.080000
    253    255     1   0.10969 276646.080000
    256    257     1   0.10969 276646.080000
    256    258     1   0.10969 276646.080000
    259    260     1   0.10969 276646.080000
    259    261     1   0.10969 276646.080000
    262    263     1   0.10969 276646.080000
    262    264     1   0.10969 276646.080000
    265    266     1   0.10969 276646.080000
    265    267     1   0.10969 276646.080000
    270    299     1   0.10304 312293.760000
    271    272     1   0.10910 283424.160000
    271    273     1   0.10910 283424.160000
    274    275     1   0.10910 283424.160000
    274    276     1   0.10910 283424.160000
    277    278     1   0.10910 283424.160000
    277    279     1   0.10910 283424.160000
    280    281     1   0.10969 276646.080000
    280    282     1   0.10969 276646.080000
    283    284     1   0.10969 276646.080000
    283    285     1   0.10969 276646.080000
    286    287     1   0.10969 276646.080000
    286    288     1   0.10969 276646.080000
    289    290     1   0.10969 276646.080000
    289    291     1   0.10969 276646.080000
    292    293     1   0.10969 276646.080000
    292    294     1   0.10969 276646.080000
    295    296     1   0.10969 276646.080000
    295    297     1   0.10969 276646.080000
    300    329     1   0.10304 312293.760000
    301    302     1   0.10910 283424.160000
    301    303     1   0.10910 283424.160000
    304    305     1   0.10910 283424.160000
    304    306     1   0.10910 283424.160000
    307    308     1   0.10910 283424.160000
    307    309     1   0.10910 283424.160000
    310    311     1   0.10969 276646.080000
    310    312     1   0.10969 276646.080000
    313    314     1   0.10969 276646.080000
    313    315     1   0.10969 276646.080000
    316    317     1   0.10969 276646.080000
    316    318     1   0.10969 276646.080000
    319    320     1   0.10969 276646.080000
    319    321     1   0.10969 276646.080000
    322    323     1   0.10969 276646.080000
    322    324     1   0.10969 276646.080000
    325    326     1   0.10969 276646.080000
    325    327     1   0.10969 276646.080000
    330    359     1   0.10304 312293.760000
    331    332     1   0.10910 283424.160000
    331    333     1   0.10910 283424.160000
    334    335     1   0.10910 283424.160000
    334    336     1   0.10910 283424.160000
    337    338     1   0.10910 283424.160000
    337    339     1   0.10910 283424.160000
    340    341     1   0.10969 276646.080000
    340    342     1   0.10969 276646.080000
    343    344     1   0.10969 276646.080000
    343    345     1   0.10969 276646.080000
    346    347     1   0.10969 276646.080000
    346    348     1   0.10969 276646.080000
    349    350     1   0.10969 276646.080000
    349    351     1   0.10969 276646.080000
    352    353     1   0.10969 276646.080000
    352    354     1   0.10969 276646.080000
    355    356     1   0.10969 276646.080000
    355    357     1   0.10969 276646.080000
    360    389     1   0.10304 312293.760000
    361    362     1   0.10910 283424.160000
    361    363     1   0.10910 283424.160000
    364    365     1   0.10910 283424.160000
    364    366     1   0.10910 283424.160000
    367    368     1   0.10910 283424.160000
    367    369     1   0.10910 283424.160000
    370    371     1   0.10969 276646.080000
    370    372     1   0.10969 276646.080000
    373    374     1   0.10969 276646.080000
    373    375     1   0.10969 276646.080000
    376    377     1   0.10969 276646.080000
    376    378     1   0.10969 276646.080000
    379    380     1   0.10969 276646.080000
    379    381     1   0.10969 276646.080000
    382    383     1   0.10969 276646.080000
    382    384     1   0.10969 276646.080000
    385    386     1   0.10969 276646.080000
    385    387     1   0.10969 276646.080000
    390    419     1   0.10304 312293.760000
    391    392     1   0.10910 283424.160000
    391    393     1   0.10910 283424.160000
    394    395     1   0.10910 283424.160000
    394    396     1   0.10910 283424.160000
    397    398     1   0.10910 283424.160000
    397    399     1   0.10910 283424.160000
    400    401     1   0.10969 276646.080000
    400    402     1   0.10969 276646.080000
    403    404     1   0.10969 276646.080000
    403    405     1   0.10969 276646.080000
    406    407     1   0.10969 276646.080000
    406    408     1   0.10969 276646.080000
    409    410     1   0.10969 276646.080000
    409    411     1   0.10969 276646.080000
    412    413     1   0.10969 276646.080000
    412    414     1   0.10969 276646.080000
    415    416     1   0.10969 276646.080000
    415    417     1   0.10969 276646.080000
    420    449     1   0.10304 312293.760000
    421    422     1   0.10910 283424.160000
    421    423     1   0.10910 283424.160000
    424    425     1   0.10910 283424.160000
    424    426     1   0.10910 283424.160000
    427    428     1   0.10910 283424.160000
    427    429     1   0.10910 283424.160000
    430    431     1   0.10969 276646.080000
    430    432     1   0.10969 276646.080000
    433    434     1   0.10969 276646.080000
    433    435     1   0.10969 276646.080000
    436    437     1   0.10969 276646.080000
    436    438     1   0.10969 276646.080000
    439    440     1   0.10969 276646.080000
    439    441     1   0.10969 276646.080000
    442    443     1   0.10969 276646.080000
    442    444     1   0.10969 276646.080000
    445    446     1   0.10969 276646.080000
    445    447     1   0.10969 276646.080000
    450    479     1   0.10304 312293.760000
    451    452     1   0.10910 283424.160000
    451    453     1   0.10910 283424.160000
    454    455     1   0.10910 283424.160000
    454    456     1   0.10910 283424.160000
    457    458     1   0.10910 283424.160000
    457    459     1   0.10910 283424.160000
    460    461     1   0.10969 276646.080000
    460    462     1   0.10969 276646.080000
    463    464     1   0.10969 276646.080000
    463    465     1   0.10969 276646.080000
    466    467     1   0.10969 276646.080000
    466    468     1   0.10969 276646.080000
    469    470     1   0.10969 276646.080000
    469    471     1   0.10969 276646.080000
    472    473     1   0.10969 276646.080000
    472    474     1   0.10969 276646.080000
    475    476     1   0.10969 276646.080000
    475    477     1   0.10969 276646.080000
    480    509     1   0.10304 312293.760000
    481    482     1   0.10910 283424.160000
    481    483     1   0.10910 283424.160000
    484    485     1   0.10910 283424.160000
    484    486     1   0.10910 283424.160000
    487    488     1   0.10910 283424.160000
    487    489     1   0.10910 283424.160000
    490    491     1   0.10969 276646.080000
    490    492     1   0.10969 276646.080000
    493    494     1   0.10969 276646.080000
    493    495     1   0.10969 276646.080000
    496    497     1   0.10969 276646.080000
    496    498     1   0.10969 276646.080000
    499    500     1   0.10969 276646.080000
    499    501     1   0.10969 276646.080000
    502    503     1   0.10969 276646.080000
    502    504     1   0.10969 276646.080000
    505    506     1   0.10969 276646.080000
    505    507     1   0.10969 276646.080000
    510    539     1   0.10304 312293.760000
    511    512     1   0.10910 283424.160000
    511    513     1   0.10910 283424.160000
    514    515     1   0.10910 283424.160000
    514    516     1   0.10910 283424.160000
    517    518     1   0.10910 283424.160000
    517    519     1   0.10910 283424.160000
    520    521     1   0.10969 276646.080000
    520    522     1   0.10969 276646.080000
    523    524     1   0.10969 276646.080000
    523    525     1   0.10969 276646.080000
    526    527     1   0.10969 276646.080000
    526    528     1   0.10969 276646.080000
    529    530     1   0.10969 276646.080000
    529    531     1   0.10969 276646.080000
    532    533     1   0.10969 276646.080000
    532    534     1   0.10969 276646.080000
    535    536     1   0.10969 276646.080000
    535    537     1   0.10969 276646.080000
    540    569     1   0.10304 312293.760000
    541    542     1   0.10910 283424.160000
    541    543     1   0.10910 283424.160000
    544    545     1   0.10910 283424.160000
    544    546     1   0.10910 283424.160000
    547    548     1   0.10910 283424.160000
    547    549     1   0.10910 283424.160000
    550    551     1   0.10969 276646.080000
    550    552     1   0.10969 276646.080000
    553    554     1   0.10969 276646.080000
    553    555     1   0.10969 276646.080000
    556    557     1   0.10969 276646.080000
    556    558     1   0.10969 276646.080000
    559    560     1   0.10969 276646.080000
    559    561     1   0.10969 276646.080000
    562    563     1   0.10969 276646.080000
    562    564     1   0.10969 276646.080000
    565    566     1   0.10969 276646.080000
    565    567     1   0.10969 276646.080000
    570    599     1   0.10304 312293.760000
    571    572     1   0.10910 283424.160000
    571    573     1   0.10910 283424.160000
    574    575     1   0.10910 283424.160000
    574    576     1   0.10910 283424.160000
    577    578     1   0.10910 283424.160000
    577    579     1   0.10910 283424.160000
    580    581     1   0.10969 276646.080000
    580    582     1   0.10969 276646.080000
    583    584     1   0.10969 276646.080000
    583    585     1   0.10969 276646.080000
    586    587     1   0.10969 276646.080000
    586    588     1   0.10969 276646.080000
    589    590     1   0.10969 276646.080000
    589    591     1   0.10969 276646.080000
    592    593     1   0.10969 276646.080000
    592    594     1   0.10969 276646.080000
    595    596     1   0.10969 276646.080000
    595    597     1   0.10969 276646.080000
    600    629     1   0.10304 312293.760000
    601    602     1   0.10910 283424.160000
    601    603     1   0.10910 283424.160000
    604    605     1   0.10910 283424.160000
    604    606     1   0.10910 283424.160000
    607    608     1   0.10910 283424.160000
    607    609     1   0.10910 283424.160000
    610    611     1   0.10969 276646.080000
    610    612     1   0.10969 276646.080000
    613    614     1   0.10969 276646.080000
    613    615     1   0.10969 276646.080000
    616    617     1   0.10969 276646.080000
    616    618     1   0.10969 276646.080000
    619    620     1   0.10969 276646.080000
    619    621     1   0.10969 276646.080000
    622    623     1   0.10969 276646.080000
    622    624     1   0.10969 276646.080000
    625    626     1   0.10969 276646.080000
    625    627     1   0.10969 276646.080000
    630    659     1   0.10304 312293.760000
    631    632     1   0.10910 283424.160000
    631    633     1   0.10910 283424.160000
    634    635     1   0.10910 283424.160000
    634    636     1   0.10910 283424.160000
    637    638     1   0.10910 283424.160000
    637    639     1   0.10910 283424.160000
    640    641     1   0.10969 276646.080000
    640    642     1   0.10969 276646.080000
    643    644     1   0.10969 276646.080000
    643    645     1   0.10969 276646.080000
    646    647     1   0.10969 276646.080000
    646    648     1   0.10969 276646.080000
    649    650     1   0.10969 276646.080000
    649    651     1   0.10969 276646.080000
    652    653     1   0.10969 276646.080000
    652    654     1   0.10969 276646.080000
    655    656     1   0.10969 276646.080000
    655    657     1   0.10969 276646.080000
    660    689     1   0.10304 312293.760000
    661    662     1   0.10910 283424.160000
    661    663     1   0.10910 283424.160000
    664    665     1   0.10910 283424.160000
    664    666     1   0.10910 283424.160000
    667    668     1   0.10910 283424.160000
    667    669     1   0.10910 283424.160000
    670    671     1   0.10969 276646.080000
    670    672     1   0.10969 276646.080000
    673    674     1   0.10969 276646.080000
    673    675     1   0.10969 276646.080000
    676    677     1   0.10969 276646.080000
    676    678     1   0.10969 276646.080000
    679    680     1   0.10969 276646.080000
    679    681     1   0.10969 276646.080000
    682    683     1   0.10969 276646.080000
    682    684     1   0.10969 276646.080000
    685    686     1   0.10969 276646.080000
    685    687     1   0.10969 276646.080000
    690    719     1   0.10304 312293.760000
    691    692     1   0.10910 283424.160000
    691    693     1   0.10910 283424.160000
    694    695     1   0.10910 283424.160000
    694    696     1   0.10910 283424.160000
    697    698     1   0.10910 283424.160000
    697    699     1   0.10910 283424.160000
    700    701     1   0.10969 276646.080000
    700    702     1   0.10969 276646.080000
    703    704     1   0.10969 276646.080000
    703    705     1   0.10969 276646.080000
    706    707     1   0.10969 276646.080000
    706    708     1   0.10969 276646.080000
    709    710     1   0.10969 276646.080000
    709    711     1   0.10969 276646.080000
    712    713     1   0.10969 276646.080000
    712    714     1   0.10969 276646.080000
    715    716     1   0.10969 276646.080000
    715    717     1   0.10969 276646.080000
    720    749     1   0.10304 312293.760000
    721    722     1   0.10910 283424.160000
    721    723     1   0.10910 283424.160000
    724    725     1   0.10910 283424.160000
    724    726     1   0.10910 283424.160000
    727    728     1   0.10910 283424.160000
    727    729     1   0.10910 283424.160000
    730    731     1   0.10969 276646.080000
    730    732     1   0.10969 276646.080000
    733    734     1   0.10969 276646.080000
    733    735     1   0.10969 276646.080000
    736    737     1   0.10969 276646.080000
    736    738     1   0.10969 276646.080000
    739    740     1   0.10969 276646.080000
    739    741     1   0.10969 276646.080000
    742    743     1   0.10969 276646.080000
    742    744     1   0.10969 276646.080000
    745    746     1   0.10969 276646.080000
    745    747     1   0.10969 276646.080000
    750    779     1   0.10304 312293.760000
    751    752     1   0.10910 283424.160000
    751    753     1   0.10910 283424.160000
    754    755     1   0.10910 283424.160000
    754    756     1   0.10910 283424.160000
    757    758     1   0.10910 283424.160000
    757    759     1   0.10910 283424.160000
    760    761     1   0.10969 276646.080000
    760    762     1   0.10969 276646.080000
    763    764     1   0.10969 276646.080000
    763    765     1   0.10969 276646.080000
    766    767     1   0.10969 276646.080000
    766    768     1   0.10969 276646.080000
    769    770     1   0.10969 276646.080000
    769    771     1   0.10969 276646.080000
    772    773     1   0.10969 276646.080000
    772    774     1   0.10969 276646.080000
    775    776     1   0.10969 276646.080000
    775    777     1   0.10969 276646.080000
    780    809     1   0.10304 312293.760000
    781    782     1   0.10910 283424.160000
    781    783     1   0.10910 283424.160000
    784    785     1   0.10910 283424.160000
    784    786     1   0.10910 283424.160000
    787    788     1   0.10910 283424.160000
    787    789     1   0.10910 283424.160000
    790    791     1   0.10969 276646.080000
    790    792     1   0.10969 276646.080000
    793    794     1   0.10969 276646.080000
    793    795     1   0.10969 276646.080000
    796    797     1   0.10969 276646.080000
    796    798     1   0.10969 276646.080000
    799    800     1   0.10969 276646.080000
    799    801     1   0.10969 276646.080000
    802    803     1   0.10969 276646.080000
    802    804     1   0.10969 276646.080000
    805    806     1   0.10969 276646.080000
    805    807     1   0.10969 276646.080000
    810    839     1   0.10304 312293.760000
    811    812     1   0.10910 283424.160000
    811    813     1   0.10910 283424.160000
    814    815     1   0.10910 283424.160000
    814    816     1   0.10910 283424.160000
    817    818     1   0.10910 283424.160000
    817    819     1   0.10910 283424.160000
    820    821     1   0.10969 276646.080000
    820    822     1   0.10969 276646.080000
    823    824     1   0.10969 276646.080000
    823    825     1   0.10969 276646.080000
    826    827     1   0.10969 276646.080000
    826    828     1   0.10969 276646.080000
    829    830     1   0.10969 276646.080000
    829    831     1   0.10969 276646.080000
    832    833     1   0.10969 276646.080000
    832    834     1   0.10969 276646.080000
    835    836     1   0.10969 276646.080000
    835    837     1   0.10969 276646.080000
    840    869     1   0.10304 312293.760000
    841    842     1   0.10910 283424.160000
    841    843     1   0.10910 283424.160000
    844    845     1   0.10910 283424.160000
    844    846     1   0.10910 283424.160000
    847    848     1   0.10910 283424.160000
    847    849     1   0.10910 283424.160000
    850    851     1   0.10969 276646.080000
    850    852     1   0.10969 276646.080000
    853    854     1   0.10969 276646.080000
    853    855     1   0.10969 276646.080000
    856    857     1   0.10969 276646.080000
    856    858     1   0.10969 276646.080000
    859    860     1   0.10969 276646.080000
    859    861     1   0.10969 276646.080000
    862    863     1   0.10969 276646.080000
    862    864     1   0.10969 276646.080000
    865    866     1   0.10969 276646.080000
    865    867     1   0.10969 276646.080000
    870    899     1   0.10304 312293.760000
    871    872     1   0.10910 283424.160000
    871    873     1   0.10910 283424.160000
    874    875     1   0.10910 283424.160000
    874    876     1   0.10910 283424.160000
    877    878     1   0.10910 283424.160000
    877    879     1   0.10910 283424.160000
    880    881     1   0.10969 276646.080000
    880    882     1   0.10969 276646.080000
    883    884     1   0.10969 276646.080000
    883    885     1   0.10969 276646.080000
    886    887     1   0.10969 276646.080000
    886    888     1   0.10969 276646.080000
    889    890     1   0.10969 276646.080000
    889    891     1   0.10969 276646.080000
    892    893     1   0.10969 276646.080000
    892    894     1   0.10969 276646.080000
    895    896     1   0.10969 276646.080000
    895    897     1   0.10969 276646.080000
    900    929     1   0.10304 312293.760000
    901    902     1   0.10910 283424.160000
    901    903     1   0.10910 283424.160000
    904    905     1   0.10910 283424.160000
    904    906     1   0.10910 283424.160000
    907    908     1   0.10910 283424.160000
    907    909     1   0.10910 283424.160000
    910    911     1   0.10969 276646.080000
    910    912     1   0.10969 276646.080000
    913    914     1   0.10969 276646.080000
    913    915     1   0.10969 276646.080000
    916    917     1   0.10969 276646.080000
    916    918     1   0.10969 276646.080000
    919    920     1   0.10969 276646.080000
    919    921     1   0.10969 276646.080000
    922    923     1   0.10969 276646.080000
    922    924     1   0.10969 276646.080000
    925    926     1   0.10969 276646.080000
    925    927     1   0.10969 276646.080000
    930    959     1   0.10304 312293.760000
    931    932     1   0.10910 283424.160000
    931    933     1   0.10910 283424.160000
    934    935     1   0.10910 283424.160000
    934    936     1   0.10910 283424.160000
    937    938     1   0.10910 283424.160000
    937    939     1   0.10910 283424.160000
    940    941     1   0.10969 276646.080000
    940    942     1   0.10969 276646.080000
    943    944     1   0.10969 276646.080000
    943    945     1   0.10969 276646.080000
    946    947     1   0.10969 276646.080000
    946    948     1   0.10969 276646.080000
    949    950     1   0.10969 276646.080000
    949    951     1   0.10969 276646.080000
    952    953     1   0.10969 276646.080000
    952    954     1   0.10969 276646.080000
    955    956     1   0.10969 276646.080000
    955    957     1   0.10969 276646.080000
    960    989     1   0.10304 312293.760000
    961    962     1   0.10910 283424.160000
    961    963     1   0.10910 283424.160000
    964    965     1   0.10910 283424.160000
    964    966     1   0.10910 283424.160000
    967    968     1   0.10910 283424.160000
    967    969     1   0.10910 283424.160000
    970    971     1   0.10969 276646.080000
    970    972     1   0.10969 276646.080000
    973    974     1   0.10969 276646.080000
    973    975     1   0.10969 276646.080000
    976    977     1   0.10969 276646.080000
    976    978     1   0.10969 276646.080000
    979    980     1   0.10969 276646.080000
    979    981     1   0.10969 276646.080000
    982    983     1   0.10969 276646.080000
    982    984     1   0.10969 276646.080000
    985    986     1   0.10969 276646.080000
    985    987     1   0.10969 276646.080000
    990   1019     1   0.10304 312293.760000
    991    992     1   0.10910 283424.160000
    991    993     1   0.10910 283424.160000
    994    995     1   0.10910 283424.160000
    994    996     1   0.10910 283424.160000
    997    998     1   0.10910 283424.160000
    997    999     1   0.10910 283424.160000
   1000   1001     1   0.10969 276646.080000
   1000   1002     1   0.10969 276646.080000
   1003   1004     1   0.10969 276646.080000
   1003   1005     1   0.10969 276646.080000
   1006   1007     1   0.10969 276646.080000
   1006   1008     1   0.10969 276646.080000
   1009   1010     1   0.10969 276646.080000
   1009   1011     1   0.10969 276646.080000
   1012   1013     1   0.10969 276646.080000
   1012   1014     1   0.10969 276646.080000
   1015   1016     1   0.10969 276646.080000
   1015   1017     1   0.10969 276646.080000
   1020   1049     1   0.10304 312293.760000
   1021   1022     1   0.10910 283424.160000
   1021   1023     1   0.10910 283424.160000
   1024   1025     1   0.10910 283424.160000
   1024   1026     1   0.10910 283424.160000
   1027   1028     1   0.10910 283424.160000
   1027   1029     1   0.10910 283424.160000
   1030   1031     1   0.10969 276646.080000
   1030   1032     1   0.10969 276646.080000
   1033   1034     1   0.10969 276646.080000
   1033   1035     1   0.10969 276646.080000
   1036   1037     1   0.10969 276646.080000
   1036   1038     1   0.10969 276646.080000
   1039   1040     1   0.10969 276646.080000
   1039   1041     1   0.10969 276646.080000
   1042   1043     1   0.10969 276646.080000
   1042   1044     1   0.10969 276646.080000
   1045   1046     1   0.10969 276646.080000
   1045   1047     1   0.10969 276646.080000
   1050   1079     1   0.10304 312293.760000
   1051   1052     1   0.10910 283424.160000
   1051   1053     1   0.10910 283424.160000
   1054   1055     1   0.10910 283424.160000
   1054   1056     1   0.10910 283424.160000
   1057   1058     1   0.10910 283424.160000
   1057   1059     1   0.10910 283424.160000
   1060   1061     1   0.10969 276646.080000
   1060   1062     1   0.10969 276646.080000
   1063   1064     1   0.10969 276646.080000
   1063   1065     1   0.10969 276646.080000
   1066   1067     1   0.10969 276646.080000
   1066   1068     1   0.10969 276646.080000
   1069   1070     1   0.10969 276646.080000
   1069   1071     1   0.10969 276646.080000
   1072   1073     1   0.10969 276646.080000
   1072   1074     1   0.10969 276646.080000
   1075   1076     1   0.10969 276646.080000
   1075   1077     1   0.10969 276646.080000
   1080   1109     1   0.10304 312293.760000
   1081   1082     1   0.10910 283424.160000
   1081   1083     1   0.10910 283424.160000
   1084   1085     1   0.10910 283424.160000
   1084   1086     1   0.10910 283424.160000
   1087   1088     1   0.10910 283424.160000
   1087   1089     1   0.10910 283424.160000
   1090   1091     1   0.10969 276646.080000
   1090   1092     1   0.10969 276646.080000
   1093   1094     1   0.10969 276646.080000
   1093   1095     1   0.10969 276646.080000
   1096   1097     1   0.10969 276646.080000
   1096   1098     1   0.10969 276646.080000
   1099   1100     1   0.10969 276646.080000
   1099   1101     1   0.10969 276646.080000
   1102   1103     1   0.10969 276646.080000
   1102   1104     1   0.10969 276646.080000
   1105   1106     1   0.10969 276646.080000
   1105   1107     1   0.10969 276646.080000
   1110   1139     1   0.10304 312293.760000
   1111   1112     1   0.10910 283424.160000
   1111   1113     1   0.10910 283424.160000
   1114   1115     1   0.10910 283424.160000
   1114   1116     1   0.10910 283424.160000
   1117   1118     1   0.10910 283424.160000
   1117   1119     1   0.10910 283424.160000
   1120   1121     1   0.10969 276646.080000
   1120   1122     1   0.10969 276646.080000
   1123   1124     1   0.10969 276646.080000
   1123   1125     1   0.10969 276646.080000
   1126   1127     1   0.10969 276646.080000
   1126   1128     1   0.10969 276646.080000
   1129   1130     1   0.10969 276646.080000
   1129   1131     1   0.10969 276646.080000
   1132   1133     1   0.10969 276646.080000
   1132   1134     1   0.10969 276646.080000
   1135   1136     1   0.10969 276646.080000
   1135   1137     1   0.10969 276646.080000
   1140   1169     1   0.10304 312293.760000
   1141   1142     1   0.10910 283424.160000
   1141   1143     1   0.10910 283424.160000
   1144   1145     1   0.10910 283424.160000
   1144   1146     1   0.10910 283424.160000
   1147   1148     1   0.10910 283424.160000
   1147   1149     1   0.10910 283424.160000
   1150   1151     1   0.10969 276646.080000
   1150   1152     1   0.10969 276646.080000
   1153   1154     1   0.10969 276646.080000
   1153   1155     1   0.10969 276646.080000
   1156   1157     1   0.10969 276646.080000
   1156   1158     1   0.10969 276646.080000
   1159   1160     1   0.10969 276646.080000
   1159   1161     1   0.10969 276646.080000
   1162   1163     1   0.10969 276646.080000
   1162   1164     1   0.10969 276646.080000
   1165   1166     1   0.10969 276646.080000
   1165   1167     1   0.10969 276646.080000
   1170   1199     1   0.10304 312293.760000
   1171   1172     1   0.10910 283424.160000
   1171   1173     1   0.10910 283424.160000
   1174   1175     1   0.10910 283424.160000
   1174   1176     1   0.10910 283424.160000
   1177   1178     1   0.10910 283424.160000
   1177   1179     1   0.10910 283424.160000
   1180   1181     1   0.10969 276646.080000
   1180   1182     1   0.10969 276646.080000
   1183   1184     1   0.10969 276646.080000
   1183   1185     1   0.10969 276646.080000
   1186   1187     1   0.10969 276646.080000
   1186   1188     1   0.10969 276646.080000
   1189   1190     1   0.10969 276646.080000
   1189   1191     1   0.10969 276646.080000
   1192   1193     1   0.10969 276646.080000
   1192   1194     1   0.10969 276646.080000
   1195   1196     1   0.10969 276646.080000
   1195   1197     1   0.10969 276646.080000
   1200   1229     1   0.10304 312293.760000
   1201   1202     1   0.10910 283424.160000
   1201   1203     1   0.10910 283424.160000
   1204   1205     1   0.10910 283424.160000
   1204   1206     1   0.10910 283424.160000
   1207   1208     1   0.10910 283424.160000
   1207   1209     1   0.10910 283424.160000
   1210   1211     1   0.10969 276646.080000
   1210   1212     1   0.10969 276646.080000
   1213   1214     1   0.10969 276646.080000
   1213   1215     1   0.10969 276646.080000
   1216   1217     1   0.10969 276646.080000
   1216   1218     1   0.10969 276646.080000
   1219   1220     1   0.10969 276646.080000
   1219   1221     1   0.10969 276646.080000
   1222   1223     1   0.10969 276646.080000
   1222   1224     1   0.10969 276646.080000
   1225   1226     1   0.10969 276646.080000
   1225   1227     1   0.10969 276646.080000
   1230   1259     1   0.10304 312293.760000
   1231   1232     1   0.10910 283424.160000
   1231   1233     1   0.10910 283424.160000
   1234   1235     1   0.10910 283424.160000
   1234   1236     1   0.10910 283424.160000
   1237   1238     1   0.10910 283424.160000
   1237   1239     1   0.10910 283424.160000
   1240   1241     1   0.10969 276646.080000
   1240   1242     1   0.10969 276646.080000
   1243   1244     1   0.10969 276646.080000
   1243   1245     1   0.10969 276646.080000
   1246   1247     1   0.10969 276646.080000
   1246   1248     1   0.10969 276646.080000
   1249   1250     1   0.10969 276646.080000
   1249   1251     1   0.10969 276646.080000
   1252   1253     1   0.10969 276646.080000
   1252   1254     1   0.10969 276646.080000
   1255   1256     1   0.10969 276646.080000
   1255   1257     1   0.10969 276646.080000
   1260   1289     1   0.10304 312293.760000
   1261   1262     1   0.10910 283424.160000
   1261   1263     1   0.10910 283424.160000
   1264   1265     1   0.10910 283424.160000
   1264   1266     1   0.10910 283424.160000
   1267   1268     1   0.10910 283424.160000
   1267   1269     1   0.10910 283424.160000
   1270   1271     1   0.10969 276646.080000
   1270   1272     1   0.10969 276646.080000
   1273   1274     1   0.10969 276646.080000
   1273   1275     1   0.10969 276646.080000
   1276   1277     1   0.10969 276646.080000
   1276   1278     1   0.10969 276646.080000
   1279   1280     1   0.10969 276646.080000
   1279   1281     1   0.10969 276646.080000
   1282   1283     1   0.10969 276646.080000
   1282   1284     1   0.10969 276646.080000
   1285   1286     1   0.10969 276646.080000
   1285   1287     1   0.10969 276646.080000
   1290   1319     1   0.10304 312293.760000
   1291   1292     1   0.10910 283424.160000
   1291   1293     1   0.10910 283424.160000
   1294   1295     1   0.10910 283424.160000
   1294   1296     1   0.10910 283424.160000
   1297   1298     1   0.10910 283424.160000
   1297   1299     1   0.10910 283424.160000
   1300   1301     1   0.10969 276646.080000
   1300   1302     1   0.10969 276646.080000
   1303   1304     1   0.10969 276646.080000
   1303   1305     1   0.10969 276646.080000
   1306   1307     1   0.10969 276646.080000
   1306   1308     1   0.10969 276646.080000
   1309   1310     1   0.10969 276646.080000
   1309   1311     1   0.10969 276646.080000
   1312   1313     1   0.10969 276646.080000
   1312   1314     1   0.10969 276646.080000
   1315   1316     1   0.10969 276646.080000
   1315   1317     1   0.10969 276646.080000
   1320   1349     1   0.10304 312293.760000
   1321   1322     1   0.10910 283424.160000
   1321   1323     1   0.10910 283424.160000
   1324   1325     1   0.10910 283424.160000
   1324   1326     1   0.10910 283424.160000
   1327   1328     1   0.10910 283424.160000
   1327   1329     1   0.10910 283424.160000
   1330   1331     1   0.10969 276646.080000
   1330   1332     1   0.10969 276646.080000
   1333   1334     1   0.10969 276646.080000
   1333   1335     1   0.10969 276646.080000
   1336   1337     1   0.10969 276646.080000
   1336   1338     1   0.10969 276646.080000
   1339   1340     1   0.10969 276646.080000
   1339   1341     1   0.10969 276646.080000
   1342   1343     1   0.10969 276646.080000
   1342   1344     1   0.10969 276646.080000
   1345   1346     1   0.10969 276646.080000
   1345   1347     1   0.10969 276646.080000
   1350   1379     1   0.10304 312293.760000
   1351   1352     1   0.10910 283424.160000
   1351   1353     1   0.10910 283424.160000
   1354   1355     1   0.10910 283424.160000
   1354   1356     1   0.10910 283424.160000
   1357   1358     1   0.10910 283424.160000
   1357   1359     1   0.10910 283424.160000
   1360   1361     1   0.10969 276646.080000
   1360   1362     1   0.10969 276646.080000
   1363   1364     1   0.10969 276646.080000
   1363   1365     1   0.10969 276646.080000
   1366   1367     1   0.10969 276646.080000
   1366   1368     1   0.10969 276646.080000
   1369   1370     1   0.10969 276646.080000
   1369   1371     1   0.10969 276646.080000
   1372   1373     1   0.10969 276646.080000
   1372   1374     1   0.10969 276646.080000
   1375   1376     1   0.10969 276646.080000
   1375   1377     1   0.10969 276646.080000
   1380   1409     1   0.10304 312293.760000
   1381   1382     1   0.10910 283424.160000
   1381   1383     1   0.10910 283424.160000
   1384   1385     1   0.10910 283424.160000
   1384   1386     1   0.10910 283424.160000
   1387   1388     1   0.10910 283424.160000
   1387   1389     1   0.10910 283424.160000
   1390   1391     1   0.10969 276646.080000
   1390   1392     1   0.10969 276646.080000
   1393   1394     1   0.10969 276646.080000
   1393   1395     1   0.10969 276646.080000
   1396   1397     1   0.10969 276646.080000
   1396   1398     1   0.10969 276646.080000
   1399   1400     1   0.10969 276646.080000
   1399   1401     1   0.10969 276646.080000
   1402   1403     1   0.10969 276646.080000
   1402   1404     1   0.10969 276646.080000
   1405   1406     1   0.10969 276646.080000
   1405   1407     1   0.10969 276646.080000
   1410   1439     1   0.10304 312293.760000
   1411   1412     1   0.10910 283424.160000
   1411   1413     1   0.10910 283424.160000
   1414   1415     1   0.10910 283424.160000
   1414   1416     1   0.10910 283424.160000
   1417   1418     1   0.10910 283424.160000
   1417   1419     1   0.10910 283424.160000
   1420   1421     1   0.10969 276646.080000
   1420   1422     1   0.10969 276646.080000
   1423   1424     1   0.10969 276646.080000
   1423   1425     1   0.10969 276646.080000
   1426   1427     1   0.10969 276646.080000
   1426   1428     1   0.10969 276646.080000
   1429   1430     1   0.10969 276646.080000
   1429   1431     1   0.10969 276646.080000
   1432   1433     1   0.10969 276646.080000
   1432   1434     1   0.10969 276646.080000
   1435   1436     1   0.10969 276646.080000
   1435   1437     1   0.10969 276646.080000
   1440   1469     1   0.10304 312293.760000
   1441   1442     1   0.10910 283424.160000
   1441   1443     1   0.10910 283424.160000
   1444   1445     1   0.10910 283424.160000
   1444   1446     1   0.10910 283424.160000
   1447   1448     1   0.10910 283424.160000
   1447   1449     1   0.10910 283424.160000
   1450   1451     1   0.10969 276646.080000
   1450   1452     1   0.10969 276646.080000
   1453   1454     1   0.10969 276646.080000
   1453   1455     1   0.10969 276646.080000
   1456   1457     1   0.10969 276646.080000
   1456   1458     1   0.10969 276646.080000
   1459   1460     1   0.10969 276646.080000
   1459   1461     1   0.10969 276646.080000
   1462   1463     1   0.10969 276646.080000
   1462   1464     1   0.10969 276646.080000
   1465   1466     1   0.10969 276646.080000
   1465   1467     1   0.10969 276646.080000
   1470   1499     1   0.10304 312293.760000
   1471   1472     1   0.10910 283424.160000
   1471   1473     1   0.10910 283424.160000
   1474   1475     1   0.10910 283424.160000
   1474   1476     1   0.10910 283424.160000
   1477   1478     1   0.10910 283424.160000
   1477   1479     1   0.10910 283424.160000
   1480   1481     1   0.10969 276646.080000
   1480   1482     1   0.10969 276646.080000
   1483   1484     1   0.10969 276646.080000
   1483   1485     1   0.10969 276646.080000
   1486   1487     1   0.10969 276646.080000
   1486   1488     1   0.10969 276646.080000
   1489   1490     1   0.10969 276646.080000
   1489   1491     1   0.10969 276646.080000
   1492   1493     1   0.10969 276646.080000
   1492   1494     1   0.10969 276646.080000
   1495   1496     1   0.10969 276646.080000
   1495   1497     1   0.10969 276646.080000
   1500   1529     1   0.10304 312293.760000
   1501   1502     1   0.10910 283424.160000
   1501   1503     1   0.10910 283424.160000
   1504   1505     1   0.10910 283424.160000
   1504   1506     1   0.10910 283424.160000
   1507   1508     1   0.10910 283424.160000
   1507   1509     1   0.10910 283424.160000
   1510   1511     1   0.10969 276646.080000
   1510   1512     1   0.10969 276646.080000
   1513   1514     1   0.10969 276646.080000
   1513   1515     1   0.10969 276646.080000
   1516   1517     1   0.10969 276646.080000
   1516   1518     1   0.10969 276646.080000
   1519   1520     1   0.10969 276646.080000
   1519   1521     1   0.10969 276646.080000
   1522   1523     1   0.10969 276646.080000
   1522   1524     1   0.10969 276646.080000
   1525   1526     1   0.10969 276646.080000
   1525   1527     1   0.10969 276646.080000
   1530   1559     1   0.10304 312293.760000
   1531   1532     1   0.10910 283424.160000
   1531   1533     1   0.10910 283424.160000
   1534   1535     1   0.10910 283424.160000
   1534   1536     1   0.10910 283424.160000
   1537   1538     1   0.10910 283424.160000
   1537   1539     1   0.10910 283424.160000
   1540   1541     1   0.10969 276646.080000
   1540   1542     1   0.10969 276646.080000
   1543   1544     1   0.10969 276646.080000
   1543   1545     1   0.10969 276646.080000
   1546   1547     1   0.10969 276646.080000
   1546   1548     1   0.10969 276646.080000
   1549   1550     1   0.10969 276646.080000
   1549   1551     1   0.10969 276646.080000
   1552   1553     1   0.10969 276646.080000
   1552   1554     1   0.10969 276646.080000
   1555   1556     1   0.10969 276646.080000
   1555   1557     1   0.10969 276646.080000
   1560   1589     1   0.10304 312293.760000
   1561   1562     1   0.10910 283424.160000
   1561   1563     1   0.10910 283424.160000
   1564   1565     1   0.10910 283424.160000
   1564   1566     1   0.10910 283424.160000
   1567   1568     1   0.10910 283424.160000
   1567   1569     1   0.10910 283424.160000
   1570   1571     1   0.10969 276646.080000
   1570   1572     1   0.10969 276646.080000
   1573   1574     1   0.10969 276646.080000
   1573   1575     1   0.10969 276646.080000
   1576   1577     1   0.10969 276646.080000
   1576   1578     1   0.10969 276646.080000
   1579   1580     1   0.10969 276646.080000
   1579   1581     1   0.10969 276646.080000
   1582   1583     1   0.10969 276646.080000
   1582   1584     1   0.10969 276646.080000
   1585   1586     1   0.10969 276646.080000
   1585   1587     1   0.10969 276646.080000
   1590   1619     1   0.10304 312293.760000
   1591   1592     1   0.10910 283424.160000
   1591   1593     1   0.10910 283424.160000
   1594   1595     1   0.10910 283424.160000
   1594   1596     1   0.10910 283424.160000
   1597   1598     1   0.10910 283424.160000
   1597   1599     1   0.10910 283424.160000
   1600   1601     1   0.10969 276646.080000
   1600   1602     1   0.10969 276646.080000
   1603   1604     1   0.10969 276646.080000
   1603   1605     1   0.10969 276646.080000
   1606   1607     1   0.10969 276646.080000
   1606   1608     1   0.10969 276646.080000
   1609   1610     1   0.10969 276646.080000
   1609   1611     1   0.10969 276646.080000
   1612   1613     1   0.10969 276646.080000
   1612   1614     1   0.10969 276646.080000
   1615   1616     1   0.10969 276646.080000
   1615   1617     1   0.10969 276646.080000
   1620   1649     1   0.10304 312293.760000
   1621   1622     1   0.10910 283424.160000
   1621   1623     1   0.10910 283424.160000
   1624   1625     1   0.10910 283424.160000
   1624   1626     1   0.10910 283424.160000
   1627   1628     1   0.10910 283424.160000
   1627   1629     1   0.10910 283424.160000
   1630   1631     1   0.10969 276646.080000
   1630   1632     1   0.10969 276646.080000
   1633   1634     1   0.10969 276646.080000
   1633   1635     1   0.10969 276646.080000
   1636   1637     1   0.10969 276646.080000
   1636   1638     1   0.10969 276646.080000
   1639   1640     1   0.10969 276646.080000
   1639   1641     1   0.10969 276646.080000
   1642   1643     1   0.10969 276646.080000
   1642   1644     1   0.10969 276646.080000
   1645   1646     1   0.10969 276646.080000
   1645   1647     1   0.10969 276646.080000
   1650   1679     1   0.10304 312293.760000
   1651   1652     1   0.10910 283424.160000
   1651   1653     1   0.10910 283424.160000
   1654   1655     1   0.10910 283424.160000
   1654   1656     1   0.10910 283424.160000
   1657   1658     1   0.10910 283424.160000
   1657   1659     1   0.10910 283424.160000
   1660   1661     1   0.10969 276646.080000
   1660   1662     1   0.10969 276646.080000
   1663   1664     1   0.10969 276646.080000
   1663   1665     1   0.10969 276646.080000
   1666   1667     1   0.10969 276646.080000
   1666   1668     1   0.10969 276646.080000
   1669   1670     1   0.10969 276646.080000
   1669   1671     1   0.10969 276646.080000
   1672   1673     1   0.10969 276646.080000
   1672   1674     1   0.10969 276646.080000
   1675   1676     1   0.10969 276646.080000
   1675   1677     1   0.10969 276646.080000
   1680   1709     1   0.10304 312293.760000
   1681   1682     1   0.10910 283424.160000
   1681   1683     1   0.10910 283424.160000
   1684   1685     1   0.10910 283424.160000
   1684   1686     1   0.10910 283424.160000
   1687   1688     1   0.10910 283424.160000
   1687   1689     1   0.10910 283424.160000
   1690   1691     1   0.10969 276646.080000
   1690   1692     1   0.10969 276646.080000
   1693   1694     1   0.10969 276646.080000
   1693   1695     1   0.10969 276646.080000
   1696   1697     1   0.10969 276646.080000
   1696   1698     1   0.10969 276646.080000
   1699   1700     1   0.10969 276646.080000
   1699   1701     1   0.10969 276646.080000
   1702   1703     1   0.10969 276646.080000
   1702   1704     1   0.10969 276646.080000
   1705   1706     1   0.10969 276646.080000
   1705   1707     1   0.10969 276646.080000
   1710   1739     1   0.10304 312293.760000
   1711   1712     1   0.10910 283424.160000
   1711   1713     1   0.10910 283424.160000
   1714   1715     1   0.10910 283424.160000
   1714   1716     1   0.10910 283424.160000
   1717   1718     1   0.10910 283424.160000
   1717   1719     1   0.10910 283424.160000
   1720   1721     1   0.10969 276646.080000
   1720   1722     1   0.10969 276646.080000
   1723   1724     1   0.10969 276646.080000
   1723   1725     1   0.10969 276646.080000
   1726   1727     1   0.10969 276646.080000
   1726   1728     1   0.10969 276646.080000
   1729   1730     1   0.10969 276646.080000
   1729   1731     1   0.10969 276646.080000
   1732   1733     1   0.10969 276646.080000
   1732   1734     1   0.10969 276646.080000
   1735   1736     1   0.10969 276646.080000
   1735   1737     1   0.10969 276646.080000
   1740   1769     1   0.10304 312293.760000
   1741   1742     1   0.10910 283424.160000
   1741   1743     1   0.10910 283424.160000
   1744   1745     1   0.10910 283424.160000
   1744   1746     1   0.10910 283424.160000
   1747   1748     1   0.10910 283424.160000
   1747   1749     1   0.10910 283424.160000
   1750   1751     1   0.10969 276646.080000
   1750   1752     1   0.10969 276646.080000
   1753   1754     1   0.10969 276646.080000
   1753   1755     1   0.10969 276646.080000
   1756   1757     1   0.10969 276646.080000
   1756   1758     1   0.10969 276646.080000
   1759   1760     1   0.10969 276646.080000
   1759   1761     1   0.10969 276646.080000
   1762   1763     1   0.10969 276646.080000
   1762   1764     1   0.10969 276646.080000
   1765   1766     1   0.10969 276646.080000
   1765   1767     1   0.10969 276646.080000
   1770   1799     1   0.10304 312293.760000
   1771   1772     1   0.10910 283424.160000
   1771   1773     1   0.10910 283424.160000
   1774   1775     1   0.10910 283424.160000
   1774   1776     1   0.10910 283424.160000
   1777   1778     1   0.10910 283424.160000
   1777   1779     1   0.10910 283424.160000
   1780   1781     1   0.10969 276646.080000
   1780   1782     1   0.10969 276646.080000
   1783   1784     1   0.10969 276646.080000
   1783   1785     1   0.10969 276646.080000
   1786   1787     1   0.10969 276646.080000
   1786   1788     1   0.10969 276646.080000
   1789   1790     1   0.10969 276646.080000
   1789   1791     1   0.10969 276646.080000
   1792   1793     1   0.10969 276646.080000
   1792   1794     1   0.10969 276646.080000
   1795   1796     1   0.10969 276646.080000
   1795   1797     1   0.10969 276646.080000
   1800   1829     1   0.10304 312293.760000
   1801   1802     1   0.10910 283424.160000
   1801   1803     1   0.10910 283424.160000
   1804   1805     1   0.10910 283424.160000
   1804   1806     1   0.10910 283424.160000
   1807   1808     1   0.10910 283424.160000
   1807   1809     1   0.10910 283424.160000
   1810   1811     1   0.10969 276646.080000
   1810   1812     1   0.10969 276646.080000
   1813   1814     1   0.10969 276646.080000
   1813   1815     1   0.10969 276646.080000
   1816   1817     1   0.10969 276646.080000
   1816   1818     1   0.10969 276646.080000
   1819   1820     1   0.10969 276646.080000
   1819   1821     1   0.10969 276646.080000
   1822   1823     1   0.10969 276646.080000
   1822   1824     1   0.10969 276646.080000
   1825   1826     1   0.10969 276646.080000
   1825   1827     1   0.10969 276646.080000
   1830   1859     1   0.10304 312293.760000
   1831   1832     1   0.10910 283424.160000
   1831   1833     1   0.10910 283424.160000
   1834   1835     1   0.10910 283424.160000
   1834   1836     1   0.10910 283424.160000
   1837   1838     1   0.10910 283424.160000
   1837   1839     1   0.10910 283424.160000
   1840   1841     1   0.10969 276646.080000
   1840   1842     1   0.10969 276646.080000
   1843   1844     1   0.10969 276646.080000
   1843   1845     1   0.10969 276646.080000
   1846   1847     1   0.10969 276646.080000
   1846   1848     1   0.10969 276646.080000
   1849   1850     1   0.10969 276646.080000
   1849   1851     1   0.10969 276646.080000
   1852   1853     1   0.10969 276646.080000
   1852   1854     1   0.10969 276646.080000
   1855   1856     1   0.10969 276646.080000
   1855   1857     1   0.10969 276646.080000
   1860   1889     1   0.10304 312293.760000
   1861   1862     1   0.10910 283424.160000
   1861   1863     1   0.10910 283424.160000
   1864   1865     1   0.10910 283424.160000
   1864   1866     1   0.10910 283424.160000
   1867   1868     1   0.10910 283424.160000
   1867   1869     1   0.10910 283424.160000
   1870   1871     1   0.10969 276646.080000
   1870   1872     1   0.10969 276646.080000
   1873   1874     1   0.10969 276646.080000
   1873   1875     1   0.10969 276646.080000
   1876   1877     1   0.10969 276646.080000
   1876   1878     1   0.10969 276646.080000
   1879   1880     1   0.10969 276646.080000
   1879   1881     1   0.10969 276646.080000
   1882   1883     1   0.10969 276646.080000
   1882   1884     1   0.10969 276646.080000
   1885   1886     1   0.10969 276646.080000
   1885   1887     1   0.10969 276646.080000
   1890   1919     1   0.10304 312293.760000
   1891   1892     1   0.10910 283424.160000
   1891   1893     1   0.10910 283424.160000
   1894   1895     1   0.10910 283424.160000
   1894   1896     1   0.10910 283424.160000
   1897   1898     1   0.10910 283424.160000
   1897   1899     1   0.10910 283424.160000
   1900   1901     1   0.10969 276646.080000
   1900   1902     1   0.10969 276646.080000
   1903   1904     1   0.10969 276646.080000
   1903   1905     1   0.10969 276646.080000
   1906   1907     1   0.10969 276646.080000
   1906   1908     1   0.10969 276646.080000
   1909   1910     1   0.10969 276646.080000
   1909   1911     1   0.10969 276646.080000
   1912   1913     1   0.10969 276646.080000
   1912   1914     1   0.10969 276646.080000
   1915   1916     1   0.10969 276646.080000
   1915   1917     1   0.10969 276646.080000
   1920   1949     1   0.10304 312293.760000
   1921   1922     1   0.10910 283424.160000
   1921   1923     1   0.10910 283424.160000
   1924   1925     1   0.10910 283424.160000
   1924   1926     1   0.10910 283424.160000
   1927   1928     1   0.10910 283424.160000
   1927   1929     1   0.10910 283424.160000
   1930   1931     1   0.10969 276646.080000
   1930   1932     1   0.10969 276646.080000
   1933   1934     1   0.10969 276646.080000
   1933   1935     1   0.10969 276646.080000
   1936   1937     1   0.10969 276646.080000
   1936   1938     1   0.10969 276646.080000
   1939   1940     1   0.10969 276646.080000
   1939   1941     1   0.10969 276646.080000
   1942   1943     1   0.10969 276646.080000
   1942   1944     1   0.10969 276646.080000
   1945   1946     1   0.10969 276646.080000
   1945   1947     1   0.10969 276646.080000
   1950   1979     1   0.10304 312293.760000
   1951   1952     1   0.10910 283424.160000
   1951   1953     1   0.10910 283424.160000
   1954   1955     1   0.10910 283424.160000
   1954   1956     1   0.10910 283424.160000
   1957   1958     1   0.10910 283424.160000
   1957   1959     1   0.10910 283424.160000
   1960   1961     1   0.10969 276646.080000
   1960   1962     1   0.10969 276646.080000
   1963   1964     1   0.10969 276646.080000
   1963   1965     1   0.10969 276646.080000
   1966   1967     1   0.10969 276646.080000
   1966   1968     1   0.10969 276646.080000
   1969   1970     1   0.10969 276646.080000
   1969   1971     1   0.10969 276646.080000
   1972   1973     1   0.10969 276646.080000
   1972   1974     1   0.10969 276646.080000
   1975   1976     1   0.10969 276646.080000
   1975   1977     1   0.10969 276646.080000
   1980   2009     1   0.10304 312293.760000
   1981   1982     1   0.10910 283424.160000
   1981   1983     1   0.10910 283424.160000
   1984   1985     1   0.10910 283424.160000
   1984   1986     1   0.10910 283424.160000
   1987   1988     1   0.10910 283424.160000
   1987   1989     1   0.10910 283424.160000
   1990   1991     1   0.10969 276646.080000
   1990   1992     1   0.10969 276646.080000
   1993   1994     1   0.10969 276646.080000
   1993   1995     1   0.10969 276646.080000
   1996   1997     1   0.10969 276646.080000
   1996   1998     1   0.10969 276646.080000
   1999   2000     1   0.10969 276646.080000
   1999   2001     1   0.10969 276646.080000
   2002   2003     1   0.10969 276646.080000
   2002   2004     1   0.10969 276646.080000
   2005   2006     1   0.10969 276646.080000
   2005   2007     1   0.10969 276646.080000
   2010   2039     1   0.10304 312293.760000
   2011   2012     1   0.10910 283424.160000
   2011   2013     1   0.10910 283424.160000
   2014   2015     1   0.10910 283424.160000
   2014   2016     1   0.10910 283424.160000
   2017   2018     1   0.10910 283424.160000
   2017   2019     1   0.10910 283424.160000
   2020   2021     1   0.10969 276646.080000
   2020   2022     1   0.10969 276646.080000
   2023   2024     1   0.10969 276646.080000
   2023   2025     1   0.10969 276646.080000
   2026   2027     1   0.10969 276646.080000
   2026   2028     1   0.10969 276646.080000
   2029   2030     1   0.10969 276646.080000
   2029   2031     1   0.10969 276646.080000
   2032   2033     1   0.10969 276646.080000
   2032   2034     1   0.10969 276646.080000
   2035   2036     1   0.10969 276646.080000
   2035   2037     1   0.10969 276646.080000
   2040   2069     1   0.10304 312293.760000
   2041   2042     1   0.10910 283424.160000
   2041   2043     1   0.10910 283424.160000
   2044   2045     1   0.10910 283424.160000
   2044   2046     1   0.10910 283424.160000
   2047   2048     1   0.10910 283424.160000
   2047   2049     1   0.10910 283424.160000
   2050   2051     1   0.10969 276646.080000
   2050   2052     1   0.10969 276646.080000
   2053   2054     1   0.10969 276646.080000
   2053   2055     1   0.10969 276646.080000
   2056   2057     1   0.10969 276646.080000
   2056   2058     1   0.10969 276646.080000
   2059   2060     1   0.10969 276646.080000
   2059   2061     1   0.10969 276646.080000
   2062   2063     1   0.10969 276646.080000
   2062   2064     1   0.10969 276646.080000
   2065   2066     1   0.10969 276646.080000
   2065   2067     1   0.10969 276646.080000
   2070   2099     1   0.10304 312293.760000
   2071   2072     1   0.10910 283424.160000
   2071   2073     1   0.10910 283424.160000
   2074   2075     1   0.10910 283424.160000
   2074   2076     1   0.10910 283424.160000
   2077   2078     1   0.10910 283424.160000
   2077   2079     1   0.10910 283424.160000
   2080   2081     1   0.10969 276646.080000
   2080   2082     1   0.10969 276646.080000
   2083   2084     1   0.10969 276646.080000
   2083   2085     1   0.10969 276646.080000
   2086   2087     1   0.10969 276646.080000
   2086   2088     1   0.10969 276646.080000
   2089   2090     1   0.10969 276646.080000
   2089   2091     1   0.10969 276646.080000
   2092   2093     1   0.10969 276646.080000
   2092   2094     1   0.10969 276646.080000
   2095   2096     1   0.10969 276646.080000
   2095   2097     1   0.10969 276646.080000
   2100   2129     1   0.10304 312293.760000
   2101   2102     1   0.10910 283424.160000
   2101   2103     1   0.10910 283424.160000
   2104   2105     1   0.10910 283424.160000
   2104   2106     1   0.10910 283424.160000
   2107   2108     1   0.10910 283424.160000
   2107   2109     1   0.10910 283424.160000
   2110   2111     1   0.10969 276646.080000
   2110   2112     1   0.10969 276646.080000
   2113   2114     1   0.10969 276646.080000
   2113   2115     1   0.10969 276646.080000
   2116   2117     1   0.10969 276646.080000
   2116   2118     1   0.10969 276646.080000
   2119   2120     1   0.10969 276646.080000
   2119   2121     1   0.10969 276646.080000
   2122   2123     1   0.10969 276646.080000
   2122   2124     1   0.10969 276646.080000
   2125   2126     1   0.10969 276646.080000
   2125   2127     1   0.10969 276646.080000
   2130   2159     1   0.10304 312293.760000
   2131   2132     1   0.10910 283424.160000
   2131   2133     1   0.10910 283424.160000
   2134   2135     1   0.10910 283424.160000
   2134   2136     1   0.10910 283424.160000
   2137   2138     1   0.10910 283424.160000
   2137   2139     1   0.10910 283424.160000
   2140   2141     1   0.10969 276646.080000
   2140   2142     1   0.10969 276646.080000
   2143   2144     1   0.10969 276646.080000
   2143   2145     1   0.10969 276646.080000
   2146   2147     1   0.10969 276646.080000
   2146   2148     1   0.10969 276646.080000
   2149   2150     1   0.10969 276646.080000
   2149   2151     1   0.10969 276646.080000
   2152   2153     1   0.10969 276646.080000
   2152   2154     1   0.10969 276646.080000
   2155   2156     1   0.10969 276646.080000
   2155   2157     1   0.10969 276646.080000
   2160   2189     1   0.10304 312293.760000
   2161   2162     1   0.10910 283424.160000
   2161   2163     1   0.10910 283424.160000
   2164   2165     1   0.10910 283424.160000
   2164   2166     1   0.10910 283424.160000
   2167   2168     1   0.10910 283424.160000
   2167   2169     1   0.10910 283424.160000
   2170   2171     1   0.10969 276646.080000
   2170   2172     1   0.10969 276646.080000
   2173   2174     1   0.10969 276646.080000
   2173   2175     1   0.10969 276646.080000
   2176   2177     1   0.10969 276646.080000
   2176   2178     1   0.10969 276646.080000
   2179   2180     1   0.10969 276646.080000
   2179   2181     1   0.10969 276646.080000
   2182   2183     1   0.10969 276646.080000
   2182   2184     1   0.10969 276646.080000
   2185   2186     1   0.10969 276646.080000
   2185   2187     1   0.10969 276646.080000
   2190   2219     1   0.10304 312293.760000
   2191   2192     1   0.10910 283424.160000
   2191   2193     1   0.10910 283424.160000
   2194   2195     1   0.10910 283424.160000
   2194   2196     1   0.10910 283424.160000
   2197   2198     1   0.10910 283424.160000
   2197   2199     1   0.10910 283424.160000
   2200   2201     1   0.10969 276646.080000
   2200   2202     1   0.10969 276646.080000
   2203   2204     1   0.10969 276646.080000
   2203   2205     1   0.10969 276646.080000
   2206   2207     1   0.10969 276646.080000
   2206   2208     1   0.10969 276646.080000
   2209   2210     1   0.10969 276646.080000
   2209   2211     1   0.10969 276646.080000
   2212   2213     1   0.10969 276646.080000
   2212   2214     1   0.10969 276646.080000
   2215   2216     1   0.10969 276646.080000
   2215   2217     1   0.10969 276646.080000
   2220   2249     1   0.10304 312293.760000
   2221   2222     1   0.10910 283424.160000
   2221   2223     1   0.10910 283424.160000
   2224   2225     1   0.10910 283424.160000
   2224   2226     1   0.10910 283424.160000
   2227   2228     1   0.10910 283424.160000
   2227   2229     1   0.10910 283424.160000
   2230   2231     1   0.10969 276646.080000
   2230   2232     1   0.10969 276646.080000
   2233   2234     1   0.10969 276646.080000
   2233   2235     1   0.10969 276646.080000
   2236   2237     1   0.10969 276646.080000
   2236   2238     1   0.10969 276646.080000
   2239   2240     1   0.10969 276646.080000
   2239   2241     1   0.10969 276646.080000
   2242   2243     1   0.10969 276646.080000
   2242   2244     1   0.10969 276646.080000
   2245   2246     1   0.10969 276646.080000
   2245   2247     1   0.10969 276646.080000
   2250   2279     1   0.10304 312293.760000
   2251   2252     1   0.10910 283424.160000
   2251   2253     1   0.10910 283424.160000
   2254   2255     1   0.10910 283424.160000
   2254   2256     1   0.10910 283424.160000
   2257   2258     1   0.10910 283424.160000
   2257   2259     1   0.10910 283424.160000
   2260   2261     1   0.10969 276646.080000
   2260   2262     1   0.10969 276646.080000
   2263   2264     1   0.10969 276646.080000
   2263   2265     1   0.10969 276646.080000
   2266   2267     1   0.10969 276646.080000
   2266   2268     1   0.10969 276646.080000
   2269   2270     1   0.10969 276646.080000
   2269   2271     1   0.10969 276646.080000
   2272   2273     1   0.10969 276646.080000
   2272   2274     1   0.10969 276646.080000
   2275   2276     1   0.10969 276646.080000
   2275   2277     1   0.10969 276646.080000
   2280   2309     1   0.10304 312293.760000
   2281   2282     1   0.10910 283424.160000
   2281   2283     1   0.10910 283424.160000
   2284   2285     1   0.10910 283424.160000
   2284   2286     1   0.10910 283424.160000
   2287   2288     1   0.10910 283424.160000
   2287   2289     1   0.10910 283424.160000
   2290   2291     1   0.10969 276646.080000
   2290   2292     1   0.10969 276646.080000
   2293   2294     1   0.10969 276646.080000
   2293   2295     1   0.10969 276646.080000
   2296   2297     1   0.10969 276646.080000
   2296   2298     1   0.10969 276646.080000
   2299   2300     1   0.10969 276646.080000
   2299   2301     1   0.10969 276646.080000
   2302   2303     1   0.10969 276646.080000
   2302   2304     1   0.10969 276646.080000
   2305   2306     1   0.10969 276646.080000
   2305   2307     1   0.10969 276646.080000
   2310   2339     1   0.10304 312293.760000
   2311   2312     1   0.10910 283424.160000
   2311   2313     1   0.10910 283424.160000
   2314   2315     1   0.10910 283424.160000
   2314   2316     1   0.10910 283424.160000
   2317   2318     1   0.10910 283424.160000
   2317   2319     1   0.10910 283424.160000
   2320   2321     1   0.10969 276646.080000
   2320   2322     1   0.10969 276646.080000
   2323   2324     1   0.10969 276646.080000
   2323   2325     1   0.10969 276646.080000
   2326   2327     1   0.10969 276646.080000
   2326   2328     1   0.10969 276646.080000
   2329   2330     1   0.10969 276646.080000
   2329   2331     1   0.10969 276646.080000
   2332   2333     1   0.10969 276646.080000
   2332   2334     1   0.10969 276646.080000
   2335   2336     1   0.10969 276646.080000
   2335   2337     1   0.10969 276646.080000
   2340   2369     1   0.10304 312293.760000
   2341   2342     1   0.10910 283424.160000
   2341   2343     1   0.10910 283424.160000
   2344   2345     1   0.10910 283424.160000
   2344   2346     1   0.10910 283424.160000
   2347   2348     1   0.10910 283424.160000
   2347   2349     1   0.10910 283424.160000
   2350   2351     1   0.10969 276646.080000
   2350   2352     1   0.10969 276646.080000
   2353   2354     1   0.10969 276646.080000
   2353   2355     1   0.10969 276646.080000
   2356   2357     1   0.10969 276646.080000
   2356   2358     1   0.10969 276646.080000
   2359   2360     1   0.10969 276646.080000
   2359   2361     1   0.10969 276646.080000
   2362   2363     1   0.10969 276646.080000
   2362   2364     1   0.10969 276646.080000
   2365   2366     1   0.10969 276646.080000
   2365   2367     1   0.10969 276646.080000
   2370   2399     1   0.10304 312293.760000
   2371   2372     1   0.10910 283424.160000
   2371   2373     1   0.10910 283424.160000
   2374   2375     1   0.10910 283424.160000
   2374   2376     1   0.10910 283424.160000
   2377   2378     1   0.10910 283424.160000
   2377   2379     1   0.10910 283424.160000
   2380   2381     1   0.10969 276646.080000
   2380   2382     1   0.10969 276646.080000
   2383   2384     1   0.10969 276646.080000
   2383   2385     1   0.10969 276646.080000
   2386   2387     1   0.10969 276646.080000
   2386   2388     1   0.10969 276646.080000
   2389   2390     1   0.10969 276646.080000
   2389   2391     1   0.10969 276646.080000
   2392   2393     1   0.10969 276646.080000
   2392   2394     1   0.10969 276646.080000
   2395   2396     1   0.10969 276646.080000
   2395   2397     1   0.10969 276646.080000
   2400   2429     1   0.10304 312293.760000
   2401   2402     1   0.10910 283424.160000
   2401   2403     1   0.10910 283424.160000
   2404   2405     1   0.10910 283424.160000
   2404   2406     1   0.10910 283424.160000
   2407   2408     1   0.10910 283424.160000
   2407   2409     1   0.10910 283424.160000
   2410   2411     1   0.10969 276646.080000
   2410   2412     1   0.10969 276646.080000
   2413   2414     1   0.10969 276646.080000
   2413   2415     1   0.10969 276646.080000
   2416   2417     1   0.10969 276646.080000
   2416   2418     1   0.10969 276646.080000
   2419   2420     1   0.10969 276646.080000
   2419   2421     1   0.10969 276646.080000
   2422   2423     1   0.10969 276646.080000
   2422   2424     1   0.10969 276646.080000
   2425   2426     1   0.10969 276646.080000
   2425   2427     1   0.10969 276646.080000
   2430   2459     1   0.10304 312293.760000
   2431   2432     1   0.10910 283424.160000
   2431   2433     1   0.10910 283424.160000
   2434   2435     1   0.10910 283424.160000
   2434   2436     1   0.10910 283424.160000
   2437   2438     1   0.10910 283424.160000
   2437   2439     1   0.10910 283424.160000
   2440   2441     1   0.10969 276646.080000
   2440   2442     1   0.10969 276646.080000
   2443   2444     1   0.10969 276646.080000
   2443   2445     1   0.10969 276646.080000
   2446   2447     1   0.10969 276646.080000
   2446   2448     1   0.10969 276646.080000
   2449   2450     1   0.10969 276646.080000
   2449   2451     1   0.10969 276646.080000
   2452   2453     1   0.10969 276646.080000
   2452   2454     1   0.10969 276646.080000
   2455   2456     1   0.10969 276646.080000
   2455   2457     1   0.10969 276646.080000
   2460   2489     1   0.10304 312293.760000
   2461   2462     1   0.10910 283424.160000
   2461   2463     1   0.10910 283424.160000
   2464   2465     1   0.10910 283424.160000
   2464   2466     1   0.10910 283424.160000
   2467   2468     1   0.10910 283424.160000
   2467   2469     1   0.10910 283424.160000
   2470   2471     1   0.10969 276646.080000
   2470   2472     1   0.10969 276646.080000
   2473   2474     1   0.10969 276646.080000
   2473   2475     1   0.10969 276646.080000
   2476   2477     1   0.10969 276646.080000
   2476   2478     1   0.10969 276646.080000
   2479   2480     1   0.10969 276646.080000
   2479   2481     1   0.10969 276646.080000
   2482   2483     1   0.10969 276646.080000
   2482   2484     1   0.10969 276646.080000
   2485   2486     1   0.10969 276646.080000
   2485   2487     1   0.10969 276646.080000
   2490   2519     1   0.10304 312293.760000
   2491   2492     1   0.10910 283424.160000
   2491   2493     1   0.10910 283424.160000
   2494   2495     1   0.10910 283424.160000
   2494   2496     1   0.10910 283424.160000
   2497   2498     1   0.10910 283424.160000
   2497   2499     1   0.10910 283424.160000
   2500   2501     1   0.10969 276646.080000
   2500   2502     1   0.10969 276646.080000
   2503   2504     1   0.10969 276646.080000
   2503   2505     1   0.10969 276646.080000
   2506   2507     1   0.10969 276646.080000
   2506   2508     1   0.10969 276646.080000
   2509   2510     1   0.10969 276646.080000
   2509   2511     1   0.10969 276646.080000
   2512   2513     1   0.10969 276646.080000
   2512   2514     1   0.10969 276646.080000
   2515   2516     1   0.10969 276646.080000
   2515   2517     1   0.10969 276646.080000
   2520   2549     1   0.10304 312293.760000
   2521   2522     1   0.10910 283424.160000
   2521   2523     1   0.10910 283424.160000
   2524   2525     1   0.10910 283424.160000
   2524   2526     1   0.10910 283424.160000
   2527   2528     1   0.10910 283424.160000
   2527   2529     1   0.10910 283424.160000
   2530   2531     1   0.10969 276646.080000
   2530   2532     1   0.10969 276646.080000
   2533   2534     1   0.10969 276646.080000
   2533   2535     1   0.10969 276646.080000
   2536   2537     1   0.10969 276646.080000
   2536   2538     1   0.10969 276646.080000
   2539   2540     1   0.10969 276646.080000
   2539   2541     1   0.10969 276646.080000
   2542   2543     1   0.10969 276646.080000
   2542   2544     1   0.10969 276646.080000
   2545   2546     1   0.10969 276646.080000
   2545   2547     1   0.10969 276646.080000
   2550   2579     1   0.10304 312293.760000
   2551   2552     1   0.10910 283424.160000
   2551   2553     1   0.10910 283424.160000
   2554   2555     1   0.10910 283424.160000
   2554   2556     1   0.10910 283424.160000
   2557   2558     1   0.10910 283424.160000
   2557   2559     1   0.10910 283424.160000
   2560   2561     1   0.10969 276646.080000
   2560   2562     1   0.10969 276646.080000
   2563   2564     1   0.10969 276646.080000
   2563   2565     1   0.10969 276646.080000
   2566   2567     1   0.10969 276646.080000
   2566   2568     1   0.10969 276646.080000
   2569   2570     1   0.10969 276646.080000
   2569   2571     1   0.10969 276646.080000
   2572   2573     1   0.10969 276646.080000
   2572   2574     1   0.10969 276646.080000
   2575   2576     1   0.10969 276646.080000
   2575   2577     1   0.10969 276646.080000
   2580   2609     1   0.10304 312293.760000
   2581   2582     1   0.10910 283424.160000
   2581   2583     1   0.10910 283424.160000
   2584   2585     1   0.10910 283424.160000
   2584   2586     1   0.10910 283424.160000
   2587   2588     1   0.10910 283424.160000
   2587   2589     1   0.10910 283424.160000
   2590   2591     1   0.10969 276646.080000
   2590   2592     1   0.10969 276646.080000
   2593   2594     1   0.10969 276646.080000
   2593   2595     1   0.10969 276646.080000
   2596   2597     1   0.10969 276646.080000
   2596   2598     1   0.10969 276646.080000
   2599   2600     1   0.10969 276646.080000
   2599   2601     1   0.10969 276646.080000
   2602   2603     1   0.10969 276646.080000
   2602   2604     1   0.10969 276646.080000
   2605   2606     1   0.10969 276646.080000
   2605   2607     1   0.10969 276646.080000
   2610   2639     1   0.10304 312293.760000
   2611   2612     1   0.10910 283424.160000
   2611   2613     1   0.10910 283424.160000
   2614   2615     1   0.10910 283424.160000
   2614   2616     1   0.10910 283424.160000
   2617   2618     1   0.10910 283424.160000
   2617   2619     1   0.10910 283424.160000
   2620   2621     1   0.10969 276646.080000
   2620   2622     1   0.10969 276646.080000
   2623   2624     1   0.10969 276646.080000
   2623   2625     1   0.10969 276646.080000
   2626   2627     1   0.10969 276646.080000
   2626   2628     1   0.10969 276646.080000
   2629   2630     1   0.10969 276646.080000
   2629   2631     1   0.10969 276646.080000
   2632   2633     1   0.10969 276646.080000
   2632   2634     1   0.10969 276646.080000
   2635   2636     1   0.10969 276646.080000
   2635   2637     1   0.10969 276646.080000
   2640   2669     1   0.10304 312293.760000
   2641   2642     1   0.10910 283424.160000
   2641   2643     1   0.10910 283424.160000
   2644   2645     1   0.10910 283424.160000
   2644   2646     1   0.10910 283424.160000
   2647   2648     1   0.10910 283424.160000
   2647   2649     1   0.10910 283424.160000
   2650   2651     1   0.10969 276646.080000
   2650   2652     1   0.10969 276646.080000
   2653   2654     1   0.10969 276646.080000
   2653   2655     1   0.10969 276646.080000
   2656   2657     1   0.10969 276646.080000
   2656   2658     1   0.10969 276646.080000
   2659   2660     1   0.10969 276646.080000
   2659   2661     1   0.10969 276646.080000
   2662   2663     1   0.10969 276646.080000
   2662   2664     1   0.10969 276646.080000
   2665   2666     1   0.10969 276646.080000
   2665   2667     1   0.10969 276646.080000
   2670   2699     1   0.10304 312293.760000
   2671   2672     1   0.10910 283424.160000
   2671   2673     1   0.10910 283424.160000
   2674   2675     1   0.10910 283424.160000
   2674   2676     1   0.10910 283424.160000
   2677   2678     1   0.10910 283424.160000
   2677   2679     1   0.10910 283424.160000
   2680   2681     1   0.10969 276646.080000
   2680   2682     1   0.10969 276646.080000
   2683   2684     1   0.10969 276646.080000
   2683   2685     1   0.10969 276646.080000
   2686   2687     1   0.10969 276646.080000
   2686   2688     1   0.10969 276646.080000
   2689   2690     1   0.10969 276646.080000
   2689   2691     1   0.10969 276646.080000
   2692   2693     1   0.10969 276646.080000
   2692   2694     1   0.10969 276646.080000
   2695   2696     1   0.10969 276646.080000
   2695   2697     1   0.10969 276646.080000
   2700   2729     1   0.10304 312293.760000
   2701   2702     1   0.10910 283424.160000
   2701   2703     1   0.10910 283424.160000
   2704   2705     1   0.10910 283424.160000
   2704   2706     1   0.10910 283424.160000
   2707   2708     1   0.10910 283424.160000
   2707   2709     1   0.10910 283424.160000
   2710   2711     1   0.10969 276646.080000
   2710   2712     1   0.10969 276646.080000
   2713   2714     1   0.10969 276646.080000
   2713   2715     1   0.10969 276646.080000
   2716   2717     1   0.10969 276646.080000
   2716   2718     1   0.10969 276646.080000
   2719   2720     1   0.10969 276646.080000
   2719   2721     1   0.10969 276646.080000
   2722   2723     1   0.10969 276646.080000
   2722   2724     1   0.10969 276646.080000
   2725   2726     1   0.10969 276646.080000
   2725   2727     1   0.10969 276646.080000
   2730   2759     1   0.10304 312293.760000
   2731   2732     1   0.10910 283424.160000
   2731   2733     1   0.10910 283424.160000
   2734   2735     1   0.10910 283424.160000
   2734   2736     1   0.10910 283424.160000
   2737   2738     1   0.10910 283424.160000
   2737   2739     1   0.10910 283424.160000
   2740   2741     1   0.10969 276646.080000
   2740   2742     1   0.10969 276646.080000
   2743   2744     1   0.10969 276646.080000
   2743   2745     1   0.10969 276646.080000
   2746   2747     1   0.10969 276646.080000
   2746   2748     1   0.10969 276646.080000
   2749   2750     1   0.10969 276646.080000
   2749   2751     1   0.10969 276646.080000
   2752   2753     1   0.10969 276646.080000
   2752   2754     1   0.10969 276646.080000
   2755   2756     1   0.10969 276646.080000
   2755   2757     1   0.10969 276646.080000
   2760   2789     1   0.10304 312293.760000
   2761   2762     1   0.10910 283424.160000
   2761   2763     1   0.10910 283424.160000
   2764   2765     1   0.10910 283424.160000
   2764   2766     1   0.10910 283424.160000
   2767   2768     1   0.10910 283424.160000
   2767   2769     1   0.10910 283424.160000
   2770   2771     1   0.10969 276646.080000
   2770   2772     1   0.10969 276646.080000
   2773   2774     1   0.10969 276646.080000
   2773   2775     1   0.10969 276646.080000
   2776   2777     1   0.10969 276646.080000
   2776   2778     1   0.10969 276646.080000
   2779   2780     1   0.10969 276646.080000
   2779   2781     1   0.10969 276646.080000
   2782   2783     1   0.10969 276646.080000
   2782   2784     1   0.10969 276646.080000
   2785   2786     1   0.10969 276646.080000
   2785   2787     1   0.10969 276646.080000
   2790   2819     1   0.10304 312293.760000
   2791   2792     1   0.10910 283424.160000
   2791   2793     1   0.10910 283424.160000
   2794   2795     1   0.10910 283424.160000
   2794   2796     1   0.10910 283424.160000
   2797   2798     1   0.10910 283424.160000
   2797   2799     1   0.10910 283424.160000
   2800   2801     1   0.10969 276646.080000
   2800   2802     1   0.10969 276646.080000
   2803   2804     1   0.10969 276646.080000
   2803   2805     1   0.10969 276646.080000
   2806   2807     1   0.10969 276646.080000
   2806   2808     1   0.10969 276646.080000
   2809   2810     1   0.10969 276646.080000
   2809   2811     1   0.10969 276646.080000
   2812   2813     1   0.10969 276646.080000
   2812   2814     1   0.10969 276646.080000
   2815   2816     1   0.10969 276646.080000
   2815   2817     1   0.10969 276646.080000
   2820   2821     1   0.10969 276646.080000
   2820   2822     1   0.10969 276646.080000
   2823   2824     1   0.10969 276646.080000
   2823   2825     1   0.10969 276646.080000
   2826   2827     1   0.10910 283424.160000
   2826   2828     1   0.10910 283424.160000
   2829   2851     1   0.10304 312293.760000
   2830   2831     1   0.10910 283424.160000
   2830   2832     1   0.10910 283424.160000
   2833   2834     1   0.10969 276646.080000
   2833   2835     1   0.10969 276646.080000
   2838   2839     1   0.09730 310787.520000
   2840   2841     1   0.10910 283424.160000
   2840   2842     1   0.10910 283424.160000
   2843   2844     1   0.10969 276646.080000
   2843   2845     1   0.10969 276646.080000
   2848   2849     1   0.09730 310787.520000
   2852   2853     1   0.10969 276646.080000
   2852   2854     1   0.10969 276646.080000
   2855   2856     1   0.10969 276646.080000
   2855   2857     1   0.10969 276646.080000
   2858   2859     1   0.10910 283424.160000
   2858   2860     1   0.10910 283424.160000
   2861   2883     1   0.10304 312293.760000
   2862   2863     1   0.10910 283424.160000
   2862   2864     1   0.10910 283424.160000
   2865   2866     1   0.10969 276646.080000
   2865   2867     1   0.10969 276646.080000
   2870   2871     1   0.09730 310787.520000
   2872   2873     1   0.10910 283424.160000
   2872   2874     1   0.10910 283424.160000
   2875   2876     1   0.10969 276646.080000
   2875   2877     1   0.10969 276646.080000
   2880   2881     1   0.09730 310787.520000
   2884   2885     1   0.10969 276646.080000
   2884   2886     1   0.10969 276646.080000
   2887   2888     1   0.10969 276646.080000
   2887   2889     1   0.10969 276646.080000
   2890   2891     1   0.10910 283424.160000
   2890   2892     1   0.10910 283424.160000
   2893   2915     1   0.10304 312293.760000
   2894   2895     1   0.10910 283424.160000
   2894   2896     1   0.10910 283424.160000
   2897   2898     1   0.10969 276646.080000
   2897   2899     1   0.10969 276646.080000
   2902   2903     1   0.09730 310787.520000
   2904   2905     1   0.10910 283424.160000
   2904   2906     1   0.10910 283424.160000
   2907   2908     1   0.10969 276646.080000
   2907   2909     1   0.10969 276646.080000
   2912   2913     1   0.09730 310787.520000
   2916   2917     1   0.10969 276646.080000
   2916   2918     1   0.10969 276646.080000
   2919   2920     1   0.10969 276646.080000
   2919   2921     1   0.10969 276646.080000
   2922   2923     1   0.10910 283424.160000
   2922   2924     1   0.10910 283424.160000
   2925   2947     1   0.10304 312293.760000
   2926   2927     1   0.10910 283424.160000
   2926   2928     1   0.10910 283424.160000
   2929   2930     1   0.10969 276646.080000
   2929   2931     1   0.10969 276646.080000
   2934   2935     1   0.09730 310787.520000
   2936   2937     1   0.10910 283424.160000
   2936   2938     1   0.10910 283424.160000
   2939   2940     1   0.10969 276646.080000
   2939   2941     1   0.10969 276646.080000
   2944   2945     1   0.09730 310787.520000
   2948   2949     1   0.10969 276646.080000
   2948   2950     1   0.10969 276646.080000
   2951   2952     1   0.10969 276646.080000
   2951   2953     1   0.10969 276646.080000
   2954   2955     1   0.10910 283424.160000
   2954   2956     1   0.10910 283424.160000
   2957   2979     1   0.10304 312293.760000
   2958   2959     1   0.10910 283424.160000
   2958   2960     1   0.10910 283424.160000
   2961   2962     1   0.10969 276646.080000
   2961   2963     1   0.10969 276646.080000
   2966   2967     1   0.09730 310787.520000
   2968   2969     1   0.10910 283424.160000
   2968   2970     1   0.10910 283424.160000
   2971   2972     1   0.10969 276646.080000
   2971   2973     1   0.10969 276646.080000
   2976   2977     1   0.09730 310787.520000
   2980   2981     1   0.10969 276646.080000
   2980   2982     1   0.10969 276646.080000
   2983   2984     1   0.10969 276646.080000
   2983   2985     1   0.10969 276646.080000
   2986   2987     1   0.10910 283424.160000
   2986   2988     1   0.10910 283424.160000
   2989   3011     1   0.10304 312293.760000
   2990   2991     1   0.10910 283424.160000
   2990   2992     1   0.10910 283424.160000
   2993   2994     1   0.10969 276646.080000
   2993   2995     1   0.10969 276646.080000
   2998   2999     1   0.09730 310787.520000
   3000   3001     1   0.10910 283424.160000
   3000   3002     1   0.10910 283424.160000
   3003   3004     1   0.10969 276646.080000
   3003   3005     1   0.10969 276646.080000
   3008   3009     1   0.09730 310787.520000
   3012   3013     1   0.10969 276646.080000
   3012   3014     1   0.10969 276646.080000
   3015   3016     1   0.10969 276646.080000
   3015   3017     1   0.10969 276646.080000
   3018   3019     1   0.10910 283424.160000
   3018   3020     1   0.10910 283424.160000
   3021   3043     1   0.10304 312293.760000
   3022   3023     1   0.10910 283424.160000
   3022   3024     1   0.10910 283424.160000
   3025   3026     1   0.10969 276646.080000
   3025   3027     1   0.10969 276646.080000
   3030   3031     1   0.09730 310787.520000
   3032   3033     1   0.10910 283424.160000
   3032   3034     1   0.10910 283424.160000
   3035   3036     1   0.10969 276646.080000
   3035   3037     1   0.10969 276646.080000
   3040   3041     1   0.09730 310787.520000
   3044   3045     1   0.10969 276646.080000
   3044   3046     1   0.10969 276646.080000
   3047   3048     1   0.10969 276646.080000
   3047   3049     1   0.10969 276646.080000
   3050   3051     1   0.10910 283424.160000
   3050   3052     1   0.10910 283424.160000
   3053   3075     1   0.10304 312293.760000
   3054   3055     1   0.10910 283424.160000
   3054   3056     1   0.10910 283424.160000
   3057   3058     1   0.10969 276646.080000
   3057   3059     1   0.10969 276646.080000
   3062   3063     1   0.09730 310787.520000
   3064   3065     1   0.10910 283424.160000
   3064   3066     1   0.10910 283424.160000
   3067   3068     1   0.10969 276646.080000
   3067   3069     1   0.10969 276646.080000
   3072   3073     1   0.09730 310787.520000
   3076   3077     1   0.10969 276646.080000
   3076   3078     1   0.10969 276646.080000
   3079   3080     1   0.10969 276646.080000
   3079   3081     1   0.10969 276646.080000
   3082   3083     1   0.10910 283424.160000
   3082   3084     1   0.10910 283424.160000
   3085   3107     1   0.10304 312293.760000
   3086   3087     1   0.10910 283424.160000
   3086   3088     1   0.10910 283424.160000
   3089   3090     1   0.10969 276646.080000
   3089   3091     1   0.10969 276646.080000
   3094   3095     1   0.09730 310787.520000
   3096   3097     1   0.10910 283424.160000
   3096   3098     1   0.10910 283424.160000
   3099   3100     1   0.10969 276646.080000
   3099   3101     1   0.10969 276646.080000
   3104   3105     1   0.09730 310787.520000
   3108   3109     1   0.10969 276646.080000
   3108   3110     1   0.10969 276646.080000
   3111   3112     1   0.10969 276646.080000
   3111   3113     1   0.10969 276646.080000
   3114   3115     1   0.10910 283424.160000
   3114   3116     1   0.10910 283424.160000
   3117   3139     1   0.10304 312293.760000
   3118   3119     1   0.10910 283424.160000
   3118   3120     1   0.10910 283424.160000
   3121   3122     1   0.10969 276646.080000
   3121   3123     1   0.10969 276646.080000
   3126   3127     1   0.09730 310787.520000
   3128   3129     1   0.10910 283424.160000
   3128   3130     1   0.10910 283424.160000
   3131   3132     1   0.10969 276646.080000
   3131   3133     1   0.10969 276646.080000
   3136   3137     1   0.09730 310787.520000
   3140   3141     1   0.10969 276646.080000
   3140   3142     1   0.10969 276646.080000
   3143   3144     1   0.10969 276646.080000
   3143   3145     1   0.10969 276646.080000
   3146   3147     1   0.10910 283424.160000
   3146   3148     1   0.10910 283424.160000
   3149   3171     1   0.10304 312293.760000
   3150   3151     1   0.10910 283424.160000
   3150   3152     1   0.10910 283424.160000
   3153   3154     1   0.10969 276646.080000
   3153   3155     1   0.10969 276646.080000
   3158   3159     1   0.09730 310787.520000
   3160   3161     1   0.10910 283424.160000
   3160   3162     1   0.10910 283424.160000
   3163   3164     1   0.10969 276646.080000
   3163   3165     1   0.10969 276646.080000
   3168   3169     1   0.09730 310787.520000
   3172   3173     1   0.10969 276646.080000
   3172   3174     1   0.10969 276646.080000
   3175   3176     1   0.10969 276646.080000
   3175   3177     1   0.10969 276646.080000
   3178   3179     1   0.10910 283424.160000
   3178   3180     1   0.10910 283424.160000
   3181   3203     1   0.10304 312293.760000
   3182   3183     1   0.10910 283424.160000
   3182   3184     1   0.10910 283424.160000
   3185   3186     1   0.10969 276646.080000
   3185   3187     1   0.10969 276646.080000
   3190   3191     1   0.09730 310787.520000
   3192   3193     1   0.10910 283424.160000
   3192   3194     1   0.10910 283424.160000
   3195   3196     1   0.10969 276646.080000
   3195   3197     1   0.10969 276646.080000
   3200   3201     1   0.09730 310787.520000
   3204   3205     1   0.10969 276646.080000
   3204   3206     1   0.10969 276646.080000
   3207   3208     1   0.10969 276646.080000
   3207   3209     1   0.10969 276646.080000
   3210   3211     1   0.10910 283424.160000
   3210   3212     1   0.10910 283424.160000
   3213   3235     1   0.10304 312293.760000
   3214   3215     1   0.10910 283424.160000
   3214   3216     1   0.10910 283424.160000
   3217   3218     1   0.10969 276646.080000
   3217   3219     1   0.10969 276646.080000
   3222   3223     1   0.09730 310787.520000
   3224   3225     1   0.10910 283424.160000
   3224   3226     1   0.10910 283424.160000
   3227   3228     1   0.10969 276646.080000
   3227   3229     1   0.10969 276646.080000
   3232   3233     1   0.09730 310787.520000
   3236   3237     1   0.10969 276646.080000
   3236   3238     1   0.10969 276646.080000
   3239   3240     1   0.10969 276646.080000
   3239   3241     1   0.10969 276646.080000
   3242   3243     1   0.10910 283424.160000
   3242   3244     1   0.10910 283424.160000
   3245   3267     1   0.10304 312293.760000
   3246   3247     1   0.10910 283424.160000
   3246   3248     1   0.10910 283424.160000
   3249   3250     1   0.10969 276646.080000
   3249   3251     1   0.10969 276646.080000
   3254   3255     1   0.09730 310787.520000
   3256   3257     1   0.10910 283424.160000
   3256   3258     1   0.10910 283424.160000
   3259   3260     1   0.10969 276646.080000
   3259   3261     1   0.10969 276646.080000
   3264   3265     1   0.09730 310787.520000
   3268   3269     1   0.10969 276646.080000
   3268   3270     1   0.10969 276646.080000
   3271   3272     1   0.10969 276646.080000
   3271   3273     1   0.10969 276646.080000
   3274   3275     1   0.10910 283424.160000
   3274   3276     1   0.10910 283424.160000
   3277   3299     1   0.10304 312293.760000
   3278   3279     1   0.10910 283424.160000
   3278   3280     1   0.10910 283424.160000
   3281   3282     1   0.10969 276646.080000
   3281   3283     1   0.10969 276646.080000
   3286   3287     1   0.09730 310787.520000
   3288   3289     1   0.10910 283424.160000
   3288   3290     1   0.10910 283424.160000
   3291   3292     1   0.10969 276646.080000
   3291   3293     1   0.10969 276646.080000
   3296   3297     1   0.09730 310787.520000
   3300   3301     1   0.10969 276646.080000
   3300   3302     1   0.10969 276646.080000
   3303   3304     1   0.10969 276646.080000
   3303   3305     1   0.10969 276646.080000
   3306   3307     1   0.10910 283424.160000
   3306   3308     1   0.10910 283424.160000
   3309   3331     1   0.10304 312293.760000
   3310   3311     1   0.10910 283424.160000
   3310   3312     1   0.10910 283424.160000
   3313   3314     1   0.10969 276646.080000
   3313   3315     1   0.10969 276646.080000
   3318   3319     1   0.09730 310787.520000
   3320   3321     1   0.10910 283424.160000
   3320   3322     1   0.10910 283424.160000
   3323   3324     1   0.10969 276646.080000
   3323   3325     1   0.10969 276646.080000
   3328   3329     1   0.09730 310787.520000
   3332   3333     1   0.10969 276646.080000
   3332   3334     1   0.10969 276646.080000
   3335   3336     1   0.10969 276646.080000
   3335   3337     1   0.10969 276646.080000
   3338   3339     1   0.10910 283424.160000
   3338   3340     1   0.10910 283424.160000
   3341   3363     1   0.10304 312293.760000
   3342   3343     1   0.10910 283424.160000
   3342   3344     1   0.10910 283424.160000
   3345   3346     1   0.10969 276646.080000
   3345   3347     1   0.10969 276646.080000
   3350   3351     1   0.09730 310787.520000
   3352   3353     1   0.10910 283424.160000
   3352   3354     1   0.10910 283424.160000
   3355   3356     1   0.10969 276646.080000
   3355   3357     1   0.10969 276646.080000
   3360   3361     1   0.09730 310787.520000
   3364   3365     1   0.10969 276646.080000
   3364   3366     1   0.10969 276646.080000
   3367   3368     1   0.10969 276646.080000
   3367   3369     1   0.10969 276646.080000
   3370   3371     1   0.10910 283424.160000
   3370   3372     1   0.10910 283424.160000
   3373   3395     1   0.10304 312293.760000
   3374   3375     1   0.10910 283424.160000
   3374   3376     1   0.10910 283424.160000
   3377   3378     1   0.10969 276646.080000
   3377   3379     1   0.10969 276646.080000
   3382   3383     1   0.09730 310787.520000
   3384   3385     1   0.10910 283424.160000
   3384   3386     1   0.10910 283424.160000
   3387   3388     1   0.10969 276646.080000
   3387   3389     1   0.10969 276646.080000
   3392   3393     1   0.09730 310787.520000
   3396   3397     1   0.10969 276646.080000
   3396   3398     1   0.10969 276646.080000
   3399   3400     1   0.10969 276646.080000
   3399   3401     1   0.10969 276646.080000
   3402   3403     1   0.10910 283424.160000
   3402   3404     1   0.10910 283424.160000
   3405   3427     1   0.10304 312293.760000
   3406   3407     1   0.10910 283424.160000
   3406   3408     1   0.10910 283424.160000
   3409   3410     1   0.10969 276646.080000
   3409   3411     1   0.10969 276646.080000
   3414   3415     1   0.09730 310787.520000
   3416   3417     1   0.10910 283424.160000
   3416   3418     1   0.10910 283424.160000
   3419   3420     1   0.10969 276646.080000
   3419   3421     1   0.10969 276646.080000
   3424   3425     1   0.09730 310787.520000
   3428   3429     1   0.10969 276646.080000
   3428   3430     1   0.10969 276646.080000
   3431   3432     1   0.10969 276646.080000
   3431   3433     1   0.10969 276646.080000
   3434   3435     1   0.10910 283424.160000
   3434   3436     1   0.10910 283424.160000
   3437   3459     1   0.10304 312293.760000
   3438   3439     1   0.10910 283424.160000
   3438   3440     1   0.10910 283424.160000
   3441   3442     1   0.10969 276646.080000
   3441   3443     1   0.10969 276646.080000
   3446   3447     1   0.09730 310787.520000
   3448   3449     1   0.10910 283424.160000
   3448   3450     1   0.10910 283424.160000
   3451   3452     1   0.10969 276646.080000
   3451   3453     1   0.10969 276646.080000
   3456   3457     1   0.09730 310787.520000
   3460   3461     1   0.10969 276646.080000
   3460   3462     1   0.10969 276646.080000
   3463   3464     1   0.10969 276646.080000
   3463   3465     1   0.10969 276646.080000
   3466   3467     1   0.10910 283424.160000
   3466   3468     1   0.10910 283424.160000
   3469   3491     1   0.10304 312293.760000
   3470   3471     1   0.10910 283424.160000
   3470   3472     1   0.10910 283424.160000
   3473   3474     1   0.10969 276646.080000
   3473   3475     1   0.10969 276646.080000
   3478   3479     1   0.09730 310787.520000
   3480   3481     1   0.10910 283424.160000
   3480   3482     1   0.10910 283424.160000
   3483   3484     1   0.10969 276646.080000
   3483   3485     1   0.10969 276646.080000
   3488   3489     1   0.09730 310787.520000
   3492   3493     1   0.10969 276646.080000
   3492   3494     1   0.10969 276646.080000
   3495   3496     1   0.10969 276646.080000
   3495   3497     1   0.10969 276646.080000
   3498   3499     1   0.10910 283424.160000
   3498   3500     1   0.10910 283424.160000
   3501   3523     1   0.10304 312293.760000
   3502   3503     1   0.10910 283424.160000
   3502   3504     1   0.10910 283424.160000
   3505   3506     1   0.10969 276646.080000
   3505   3507     1   0.10969 276646.080000
   3510   3511     1   0.09730 310787.520000
   3512   3513     1   0.10910 283424.160000
   3512   3514     1   0.10910 283424.160000
   3515   3516     1   0.10969 276646.080000
   3515   3517     1   0.10969 276646.080000
   3520   3521     1   0.09730 310787.520000
   3524   3525     1   0.10969 276646.080000
   3524   3526     1   0.10969 276646.080000
   3527   3528     1   0.10969 276646.080000
   3527   3529     1   0.10969 276646.080000
   3530   3531     1   0.10910 283424.160000
   3530   3532     1   0.10910 283424.160000
   3533   3555     1   0.10304 312293.760000
   3534   3535     1   0.10910 283424.160000
   3534   3536     1   0.10910 283424.160000
   3537   3538     1   0.10969 276646.080000
   3537   3539     1   0.10969 276646.080000
   3542   3543     1   0.09730 310787.520000
   3544   3545     1   0.10910 283424.160000
   3544   3546     1   0.10910 283424.160000
   3547   3548     1   0.10969 276646.080000
   3547   3549     1   0.10969 276646.080000
   3552   3553     1   0.09730 310787.520000
   3556   3557     1   0.10969 276646.080000
   3556   3558     1   0.10969 276646.080000
   3559   3560     1   0.10969 276646.080000
   3559   3561     1   0.10969 276646.080000
   3562   3563     1   0.10910 283424.160000
   3562   3564     1   0.10910 283424.160000
   3565   3587     1   0.10304 312293.760000
   3566   3567     1   0.10910 283424.160000
   3566   3568     1   0.10910 283424.160000
   3569   3570     1   0.10969 276646.080000
   3569   3571     1   0.10969 276646.080000
   3574   3575     1   0.09730 310787.520000
   3576   3577     1   0.10910 283424.160000
   3576   3578     1   0.10910 283424.160000
   3579   3580     1   0.10969 276646.080000
   3579   3581     1   0.10969 276646.080000
   3584   3585     1   0.09730 310787.520000
   3588   3589     1   0.10969 276646.080000
   3588   3590     1   0.10969 276646.080000
   3591   3592     1   0.10969 276646.080000
   3591   3593     1   0.10969 276646.080000
   3594   3595     1   0.10910 283424.160000
   3594   3596     1   0.10910 283424.160000
   3597   3619     1   0.10304 312293.760000
   3598   3599     1   0.10910 283424.160000
   3598   3600     1   0.10910 283424.160000
   3601   3602     1   0.10969 276646.080000
   3601   3603     1   0.10969 276646.080000
   3606   3607     1   0.09730 310787.520000
   3608   3609     1   0.10910 283424.160000
   3608   3610     1   0.10910 283424.160000
   3611   3612     1   0.10969 276646.080000
   3611   3613     1   0.10969 276646.080000
   3616   3617     1   0.09730 310787.520000
   3620   3621     1   0.10969 276646.080000
   3620   3622     1   0.10969 276646.080000
   3623   3624     1   0.10969 276646.080000
   3623   3625     1   0.10969 276646.080000
   3626   3627     1   0.10910 283424.160000
   3626   3628     1   0.10910 283424.160000
   3629   3651     1   0.10304 312293.760000
   3630   3631     1   0.10910 283424.160000
   3630   3632     1   0.10910 283424.160000
   3633   3634     1   0.10969 276646.080000
   3633   3635     1   0.10969 276646.080000
   3638   3639     1   0.09730 310787.520000
   3640   3641     1   0.10910 283424.160000
   3640   3642     1   0.10910 283424.160000
   3643   3644     1   0.10969 276646.080000
   3643   3645     1   0.10969 276646.080000
   3648   3649     1   0.09730 310787.520000
   3652   3653     1   0.10969 276646.080000
   3652   3654     1   0.10969 276646.080000
   3655   3656     1   0.10969 276646.080000
   3655   3657     1   0.10969 276646.080000
   3658   3659     1   0.10910 283424.160000
   3658   3660     1   0.10910 283424.160000
   3661   3683     1   0.10304 312293.760000
   3662   3663     1   0.10910 283424.160000
   3662   3664     1   0.10910 283424.160000
   3665   3666     1   0.10969 276646.080000
   3665   3667     1   0.10969 276646.080000
   3670   3671     1   0.09730 310787.520000
   3672   3673     1   0.10910 283424.160000
   3672   3674     1   0.10910 283424.160000
   3675   3676     1   0.10969 276646.080000
   3675   3677     1   0.10969 276646.080000
   3680   3681     1   0.09730 310787.520000
   3684   3685     1   0.10969 276646.080000
   3684   3686     1   0.10969 276646.080000
   3687   3688     1   0.10969 276646.080000
   3687   3689     1   0.10969 276646.080000
   3690   3691     1   0.10910 283424.160000
   3690   3692     1   0.10910 283424.160000
   3693   3715     1   0.10304 312293.760000
   3694   3695     1   0.10910 283424.160000
   3694   3696     1   0.10910 283424.160000
   3697   3698     1   0.10969 276646.080000
   3697   3699     1   0.10969 276646.080000
   3702   3703     1   0.09730 310787.520000
   3704   3705     1   0.10910 283424.160000
   3704   3706     1   0.10910 283424.160000
   3707   3708     1   0.10969 276646.080000
   3707   3709     1   0.10969 276646.080000
   3712   3713     1   0.09730 310787.520000
   3716   3717     1   0.10969 276646.080000
   3716   3718     1   0.10969 276646.080000
   3719   3720     1   0.10969 276646.080000
   3719   3721     1   0.10969 276646.080000
   3722   3723     1   0.10910 283424.160000
   3722   3724     1   0.10910 283424.160000
   3725   3747     1   0.10304 312293.760000
   3726   3727     1   0.10910 283424.160000
   3726   3728     1   0.10910 283424.160000
   3729   3730     1   0.10969 276646.080000
   3729   3731     1   0.10969 276646.080000
   3734   3735     1   0.09730 310787.520000
   3736   3737     1   0.10910 283424.160000
   3736   3738     1   0.10910 283424.160000
   3739   3740     1   0.10969 276646.080000
   3739   3741     1   0.10969 276646.080000
   3744   3745     1   0.09730 310787.520000
   3748   3749     1   0.10969 276646.080000
   3748   3750     1   0.10969 276646.080000
   3751   3752     1   0.10969 276646.080000
   3751   3753     1   0.10969 276646.080000
   3754   3755     1   0.10910 283424.160000
   3754   3756     1   0.10910 283424.160000
   3757   3779     1   0.10304 312293.760000
   3758   3759     1   0.10910 283424.160000
   3758   3760     1   0.10910 283424.160000
   3761   3762     1   0.10969 276646.080000
   3761   3763     1   0.10969 276646.080000
   3766   3767     1   0.09730 310787.520000
   3768   3769     1   0.10910 283424.160000
   3768   3770     1   0.10910 283424.160000
   3771   3772     1   0.10969 276646.080000
   3771   3773     1   0.10969 276646.080000
   3776   3777     1   0.09730 310787.520000
   3780   3781     1   0.10969 276646.080000
   3780   3782     1   0.10969 276646.080000
   3783   3784     1   0.10969 276646.080000
   3783   3785     1   0.10969 276646.080000
   3786   3787     1   0.10910 283424.160000
   3786   3788     1   0.10910 283424.160000
   3789   3811     1   0.10304 312293.760000
   3790   3791     1   0.10910 283424.160000
   3790   3792     1   0.10910 283424.160000
   3793   3794     1   0.10969 276646.080000
   3793   3795     1   0.10969 276646.080000
   3798   3799     1   0.09730 310787.520000
   3800   3801     1   0.10910 283424.160000
   3800   3802     1   0.10910 283424.160000
   3803   3804     1   0.10969 276646.080000
   3803   3805     1   0.10969 276646.080000
   3808   3809     1   0.09730 310787.520000
   3812   3813     1   0.10969 276646.080000
   3812   3814     1   0.10969 276646.080000
   3815   3816     1   0.10969 276646.080000
   3815   3817     1   0.10969 276646.080000
   3818   3819     1   0.10910 283424.160000
   3818   3820     1   0.10910 283424.160000
   3821   3843     1   0.10304 312293.760000
   3822   3823     1   0.10910 283424.160000
   3822   3824     1   0.10910 283424.160000
   3825   3826     1   0.10969 276646.080000
   3825   3827     1   0.10969 276646.080000
   3830   3831     1   0.09730 310787.520000
   3832   3833     1   0.10910 283424.160000
   3832   3834     1   0.10910 283424.160000
   3835   3836     1   0.10969 276646.080000
   3835   3837     1   0.10969 276646.080000
   3840   3841     1   0.09730 310787.520000
   3844   3845     1   0.10969 276646.080000
   3844   3846     1   0.10969 276646.080000
   3847   3848     1   0.10969 276646.080000
   3847   3849     1   0.10969 276646.080000
   3850   3851     1   0.10910 283424.160000
   3850   3852     1   0.10910 283424.160000
   3853   3875     1   0.10304 312293.760000
   3854   3855     1   0.10910 283424.160000
   3854   3856     1   0.10910 283424.160000
   3857   3858     1   0.10969 276646.080000
   3857   3859     1   0.10969 276646.080000
   3862   3863     1   0.09730 310787.520000
   3864   3865     1   0.10910 283424.160000
   3864   3866     1   0.10910 283424.160000
   3867   3868     1   0.10969 276646.080000
   3867   3869     1   0.10969 276646.080000
   3872   3873     1   0.09730 310787.520000
   3876   3877     1   0.10969 276646.080000
   3876   3878     1   0.10969 276646.080000
   3879   3880     1   0.10969 276646.080000
   3879   3881     1   0.10969 276646.080000
   3882   3883     1   0.10910 283424.160000
   3882   3884     1   0.10910 283424.160000
   3885   3907     1   0.10304 312293.760000
   3886   3887     1   0.10910 283424.160000
   3886   3888     1   0.10910 283424.160000
   3889   3890     1   0.10969 276646.080000
   3889   3891     1   0.10969 276646.080000
   3894   3895     1   0.09730 310787.520000
   3896   3897     1   0.10910 283424.160000
   3896   3898     1   0.10910 283424.160000
   3899   3900     1   0.10969 276646.080000
   3899   3901     1   0.10969 276646.080000
   3904   3905     1   0.09730 310787.520000
   3908   3909     1   0.10969 276646.080000
   3908   3910     1   0.10969 276646.080000
   3911   3912     1   0.10969 276646.080000
   3911   3913     1   0.10969 276646.080000
   3914   3915     1   0.10910 283424.160000
   3914   3916     1   0.10910 283424.160000
   3917   3939     1   0.10304 312293.760000
   3918   3919     1   0.10910 283424.160000
   3918   3920     1   0.10910 283424.160000
   3921   3922     1   0.10969 276646.080000
   3921   3923     1   0.10969 276646.080000
   3926   3927     1   0.09730 310787.520000
   3928   3929     1   0.10910 283424.160000
   3928   3930     1   0.10910 283424.160000
   3931   3932     1   0.10969 276646.080000
   3931   3933     1   0.10969 276646.080000
   3936   3937     1   0.09730 310787.520000
   3940   3941     1   0.10969 276646.080000
   3940   3942     1   0.10969 276646.080000
   3943   3944     1   0.10969 276646.080000
   3943   3945     1   0.10969 276646.080000
   3946   3947     1   0.10910 283424.160000
   3946   3948     1   0.10910 283424.160000
   3949   3971     1   0.10304 312293.760000
   3950   3951     1   0.10910 283424.160000
   3950   3952     1   0.10910 283424.160000
   3953   3954     1   0.10969 276646.080000
   3953   3955     1   0.10969 276646.080000
   3958   3959     1   0.09730 310787.520000
   3960   3961     1   0.10910 283424.160000
   3960   3962     1   0.10910 283424.160000
   3963   3964     1   0.10969 276646.080000
   3963   3965     1   0.10969 276646.080000
   3968   3969     1   0.09730 310787.520000
   3972   3973     1   0.10969 276646.080000
   3972   3974     1   0.10969 276646.080000
   3975   3976     1   0.10969 276646.080000
   3975   3977     1   0.10969 276646.080000
   3978   3979     1   0.10910 283424.160000
   3978   3980     1   0.10910 283424.160000
   3981   4003     1   0.10304 312293.760000
   3982   3983     1   0.10910 283424.160000
   3982   3984     1   0.10910 283424.160000
   3985   3986     1   0.10969 276646.080000
   3985   3987     1   0.10969 276646.080000
   3990   3991     1   0.09730 310787.520000
   3992   3993     1   0.10910 283424.160000
   3992   3994     1   0.10910 283424.160000
   3995   3996     1   0.10969 276646.080000
   3995   3997     1   0.10969 276646.080000
   4000   4001     1   0.09730 310787.520000
   4004   4005     1   0.10969 276646.080000
   4004   4006     1   0.10969 276646.080000
   4007   4008     1   0.10969 276646.080000
   4007   4009     1   0.10969 276646.080000
   4010   4011     1   0.10910 283424.160000
   4010   4012     1   0.10910 283424.160000
   4013   4035     1   0.10304 312293.760000
   4014   4015     1   0.10910 283424.160000
   4014   4016     1   0.10910 283424.160000
   4017   4018     1   0.10969 276646.080000
   4017   4019     1   0.10969 276646.080000
   4022   4023     1   0.09730 310787.520000
   4024   4025     1   0.10910 283424.160000
   4024   4026     1   0.10910 283424.160000
   4027   4028     1   0.10969 276646.080000
   4027   4029     1   0.10969 276646.080000
   4032   4033     1   0.09730 310787.520000
   4036   4037     1   0.10969 276646.080000
   4036   4038     1   0.10969 276646.080000
   4039   4040     1   0.10969 276646.080000
   4039   4041     1   0.10969 276646.080000
   4042   4043     1   0.10910 283424.160000
   4042   4044     1   0.10910 283424.160000
   4045   4067     1   0.10304 312293.760000
   4046   4047     1   0.10910 283424.160000
   4046   4048     1   0.10910 283424.160000
   4049   4050     1   0.10969 276646.080000
   4049   4051     1   0.10969 276646.080000
   4054   4055     1   0.09730 310787.520000
   4056   4057     1   0.10910 283424.160000
   4056   4058     1   0.10910 283424.160000
   4059   4060     1   0.10969 276646.080000
   4059   4061     1   0.10969 276646.080000
   4064   4065     1   0.09730 310787.520000
   4068   4069     1   0.10969 276646.080000
   4068   4070     1   0.10969 276646.080000
   4071   4072     1   0.10969 276646.080000
   4071   4073     1   0.10969 276646.080000
   4074   4075     1   0.10910 283424.160000
   4074   4076     1   0.10910 283424.160000
   4077   4099     1   0.10304 312293.760000
   4078   4079     1   0.10910 283424.160000
   4078   4080     1   0.10910 283424.160000
   4081   4082     1   0.10969 276646.080000
   4081   4083     1   0.10969 276646.080000
   4086   4087     1   0.09730 310787.520000
   4088   4089     1   0.10910 283424.160000
   4088   4090     1   0.10910 283424.160000
   4091   4092     1   0.10969 276646.080000
   4091   4093     1   0.10969 276646.080000
   4096   4097     1   0.09730 310787.520000
   4100   4101     1   0.10969 276646.080000
   4100   4102     1   0.10969 276646.080000
   4103   4104     1   0.10969 276646.080000
   4103   4105     1   0.10969 276646.080000
   4106   4107     1   0.10910 283424.160000
   4106   4108     1   0.10910 283424.160000
   4109   4131     1   0.10304 312293.760000
   4110   4111     1   0.10910 283424.160000
   4110   4112     1   0.10910 283424.160000
   4113   4114     1   0.10969 276646.080000
   4113   4115     1   0.10969 276646.080000
   4118   4119     1   0.09730 310787.520000
   4120   4121     1   0.10910 283424.160000
   4120   4122     1   0.10910 283424.160000
   4123   4124     1   0.10969 276646.080000
   4123   4125     1   0.10969 276646.080000
   4128   4129     1   0.09730 310787.520000
   4132   4133     1   0.10969 276646.080000
   4132   4134     1   0.10969 276646.080000
   4135   4136     1   0.10969 276646.080000
   4135   4137     1   0.10969 276646.080000
   4138   4139     1   0.10910 283424.160000
   4138   4140     1   0.10910 283424.160000
   4141   4163     1   0.10304 312293.760000
   4142   4143     1   0.10910 283424.160000
   4142   4144     1   0.10910 283424.160000
   4145   4146     1   0.10969 276646.080000
   4145   4147     1   0.10969 276646.080000
   4150   4151     1   0.09730 310787.520000
   4152   4153     1   0.10910 283424.160000
   4152   4154     1   0.10910 283424.160000
   4155   4156     1   0.10969 276646.080000
   4155   4157     1   0.10969 276646.080000
   4160   4161     1   0.09730 310787.520000
   4164   4165     1   0.10969 276646.080000
   4164   4166     1   0.10969 276646.080000
   4167   4168     1   0.10969 276646.080000
   4167   4169     1   0.10969 276646.080000
   4170   4171     1   0.10910 283424.160000
   4170   4172     1   0.10910 283424.160000
   4173   4195     1   0.10304 312293.760000
   4174   4175     1   0.10910 283424.160000
   4174   4176     1   0.10910 283424.160000
   4177   4178     1   0.10969 276646.080000
   4177   4179     1   0.10969 276646.080000
   4182   4183     1   0.09730 310787.520000
   4184   4185     1   0.10910 283424.160000
   4184   4186     1   0.10910 283424.160000
   4187   4188     1   0.10969 276646.080000
   4187   4189     1   0.10969 276646.080000
   4192   4193     1   0.09730 310787.520000
   4196   4197     1   0.10969 276646.080000
   4196   4198     1   0.10969 276646.080000
   4199   4200     1   0.10969 276646.080000
   4199   4201     1   0.10969 276646.080000
   4202   4203     1   0.10910 283424.160000
   4202   4204     1   0.10910 283424.160000
   4205   4227     1   0.10304 312293.760000
   4206   4207     1   0.10910 283424.160000
   4206   4208     1   0.10910 283424.160000
   4209   4210     1   0.10969 276646.080000
   4209   4211     1   0.10969 276646.080000
   4214   4215     1   0.09730 310787.520000
   4216   4217     1   0.10910 283424.160000
   4216   4218     1   0.10910 283424.160000
   4219   4220     1   0.10969 276646.080000
   4219   4221     1   0.10969 276646.080000
   4224   4225     1   0.09730 310787.520000
   4228   4229     1   0.10969 276646.080000
   4228   4230     1   0.10969 276646.080000
   4231   4232     1   0.10969 276646.080000
   4231   4233     1   0.10969 276646.080000
   4234   4235     1   0.10910 283424.160000
   4234   4236     1   0.10910 283424.160000
   4237   4259     1   0.10304 312293.760000
   4238   4239     1   0.10910 283424.160000
   4238   4240     1   0.10910 283424.160000
   4241   4242     1   0.10969 276646.080000
   4241   4243     1   0.10969 276646.080000
   4246   4247     1   0.09730 310787.520000
   4248   4249     1   0.10910 283424.160000
   4248   4250     1   0.10910 283424.160000
   4251   4252     1   0.10969 276646.080000
   4251   4253     1   0.10969 276646.080000
   4256   4257     1   0.09730 310787.520000
   4260   4261     1   0.10969 276646.080000
   4260   4262     1   0.10969 276646.080000
   4263   4264     1   0.10969 276646.080000
   4263   4265     1   0.10969 276646.080000
   4266   4267     1   0.10910 283424.160000
   4266   4268     1   0.10910 283424.160000
   4269   4291     1   0.10304 312293.760000
   4270   4271     1   0.10910 283424.160000
   4270   4272     1   0.10910 283424.160000
   4273   4274     1   0.10969 276646.080000
   4273   4275     1   0.10969 276646.080000
   4278   4279     1   0.09730 310787.520000
   4280   4281     1   0.10910 283424.160000
   4280   4282     1   0.10910 283424.160000
   4283   4284     1   0.10969 276646.080000
   4283   4285     1   0.10969 276646.080000
   4288   4289     1   0.09730 310787.520000
   4292   4293     1   0.10969 276646.080000
   4292   4294     1   0.10969 276646.080000
   4295   4296     1   0.10969 276646.080000
   4295   4297     1   0.10969 276646.080000
   4298   4299     1   0.10910 283424.160000
   4298   4300     1   0.10910 283424.160000
   4301   4323     1   0.10304 312293.760000
   4302   4303     1   0.10910 283424.160000
   4302   4304     1   0.10910 283424.160000
   4305   4306     1   0.10969 276646.080000
   4305   4307     1   0.10969 276646.080000
   4310   4311     1   0.09730 310787.520000
   4312   4313     1   0.10910 283424.160000
   4312   4314     1   0.10910 283424.160000
   4315   4316     1   0.10969 276646.080000
   4315   4317     1   0.10969 276646.080000
   4320   4321     1   0.09730 310787.520000
   4324   4325     1   0.10969 276646.080000
   4324   4326     1   0.10969 276646.080000
   4327   4328     1   0.10969 276646.080000
   4327   4329     1   0.10969 276646.080000
   4330   4331     1   0.10910 283424.160000
   4330   4332     1   0.10910 283424.160000
   4333   4355     1   0.10304 312293.760000
   4334   4335     1   0.10910 283424.160000
   4334   4336     1   0.10910 283424.160000
   4337   4338     1   0.10969 276646.080000
   4337   4339     1   0.10969 276646.080000
   4342   4343     1   0.09730 310787.520000
   4344   4345     1   0.10910 283424.160000
   4344   4346     1   0.10910 283424.160000
   4347   4348     1   0.10969 276646.080000
   4347   4349     1   0.10969 276646.080000
   4352   4353     1   0.09730 310787.520000
   4356   4357     1   0.10969 276646.080000
   4356   4358     1   0.10969 276646.080000
   4359   4360     1   0.10969 276646.080000
   4359   4361     1   0.10969 276646.080000
   4362   4363     1   0.10910 283424.160000
   4362   4364     1   0.10910 283424.160000
   4365   4387     1   0.10304 312293.760000
   4366   4367     1   0.10910 283424.160000
   4366   4368     1   0.10910 283424.160000
   4369   4370     1   0.10969 276646.080000
   4369   4371     1   0.10969 276646.080000
   4374   4375     1   0.09730 310787.520000
   4376   4377     1   0.10910 283424.160000
   4376   4378     1   0.10910 283424.160000
   4379   4380     1   0.10969 276646.080000
   4379   4381     1   0.10969 276646.080000
   4384   4385     1   0.09730 310787.520000
   4388   4389     1   0.10969 276646.080000
   4388   4390     1   0.10969 276646.080000
   4391   4392     1   0.10969 276646.080000
   4391   4393     1   0.10969 276646.080000
   4394   4395     1   0.10910 283424.160000
   4394   4396     1   0.10910 283424.160000
   4397   4419     1   0.10304 312293.760000
   4398   4399     1   0.10910 283424.160000
   4398   4400     1   0.10910 283424.160000
   4401   4402     1   0.10969 276646.080000
   4401   4403     1   0.10969 276646.080000
   4406   4407     1   0.09730 310787.520000
   4408   4409     1   0.10910 283424.160000
   4408   4410     1   0.10910 283424.160000
   4411   4412     1   0.10969 276646.080000
   4411   4413     1   0.10969 276646.080000
   4416   4417     1   0.09730 310787.520000
   4420   4421     1   0.10969 276646.080000
   4420   4422     1   0.10969 276646.080000
   4423   4424     1   0.10969 276646.080000
   4423   4425     1   0.10969 276646.080000
   4426   4427     1   0.10910 283424.160000
   4426   4428     1   0.10910 283424.160000
   4429   4451     1   0.10304 312293.760000
   4430   4431     1   0.10910 283424.160000
   4430   4432     1   0.10910 283424.160000
   4433   4434     1   0.10969 276646.080000
   4433   4435     1   0.10969 276646.080000
   4438   4439     1   0.09730 310787.520000
   4440   4441     1   0.10910 283424.160000
   4440   4442     1   0.10910 283424.160000
   4443   4444     1   0.10969 276646.080000
   4443   4445     1   0.10969 276646.080000
   4448   4449     1   0.09730 310787.520000
   4452   4453     1   0.10969 276646.080000
   4452   4454     1   0.10969 276646.080000
   4455   4456     1   0.10969 276646.080000
   4455   4457     1   0.10969 276646.080000
   4458   4459     1   0.10910 283424.160000
   4458   4460     1   0.10910 283424.160000
   4461   4483     1   0.10304 312293.760000
   4462   4463     1   0.10910 283424.160000
   4462   4464     1   0.10910 283424.160000
   4465   4466     1   0.10969 276646.080000
   4465   4467     1   0.10969 276646.080000
   4470   4471     1   0.09730 310787.520000
   4472   4473     1   0.10910 283424.160000
   4472   4474     1   0.10910 283424.160000
   4475   4476     1   0.10969 276646.080000
   4475   4477     1   0.10969 276646.080000
   4480   4481     1   0.09730 310787.520000
   4484   4485     1   0.10969 276646.080000
   4484   4486     1   0.10969 276646.080000
   4487   4488     1   0.10969 276646.080000
   4487   4489     1   0.10969 276646.080000
   4490   4491     1   0.10910 283424.160000
   4490   4492     1   0.10910 283424.160000
   4493   4515     1   0.10304 312293.760000
   4494   4495     1   0.10910 283424.160000
   4494   4496     1   0.10910 283424.160000
   4497   4498     1   0.10969 276646.080000
   4497   4499     1   0.10969 276646.080000
   4502   4503     1   0.09730 310787.520000
   4504   4505     1   0.10910 283424.160000
   4504   4506     1   0.10910 283424.160000
   4507   4508     1   0.10969 276646.080000
   4507   4509     1   0.10969 276646.080000
   4512   4513     1   0.09730 310787.520000
   4516   4517     1   0.10969 276646.080000
   4516   4518     1   0.10969 276646.080000
   4519   4520     1   0.10969 276646.080000
   4519   4521     1   0.10969 276646.080000
   4522   4523     1   0.10910 283424.160000
   4522   4524     1   0.10910 283424.160000
   4525   4547     1   0.10304 312293.760000
   4526   4527     1   0.10910 283424.160000
   4526   4528     1   0.10910 283424.160000
   4529   4530     1   0.10969 276646.080000
   4529   4531     1   0.10969 276646.080000
   4534   4535     1   0.09730 310787.520000
   4536   4537     1   0.10910 283424.160000
   4536   4538     1   0.10910 283424.160000
   4539   4540     1   0.10969 276646.080000
   4539   4541     1   0.10969 276646.080000
   4544   4545     1   0.09730 310787.520000
   4548   4549     1   0.10969 276646.080000
   4548   4550     1   0.10969 276646.080000
   4551   4552     1   0.10969 276646.080000
   4551   4553     1   0.10969 276646.080000
   4554   4555     1   0.10910 283424.160000
   4554   4556     1   0.10910 283424.160000
   4557   4579     1   0.10304 312293.760000
   4558   4559     1   0.10910 283424.160000
   4558   4560     1   0.10910 283424.160000
   4561   4562     1   0.10969 276646.080000
   4561   4563     1   0.10969 276646.080000
   4566   4567     1   0.09730 310787.520000
   4568   4569     1   0.10910 283424.160000
   4568   4570     1   0.10910 283424.160000
   4571   4572     1   0.10969 276646.080000
   4571   4573     1   0.10969 276646.080000
   4576   4577     1   0.09730 310787.520000
   4580   4581     1   0.10969 276646.080000
   4580   4582     1   0.10969 276646.080000
   4583   4584     1   0.10969 276646.080000
   4583   4585     1   0.10969 276646.080000
   4586   4587     1   0.10910 283424.160000
   4586   4588     1   0.10910 283424.160000
   4589   4611     1   0.10304 312293.760000
   4590   4591     1   0.10910 283424.160000
   4590   4592     1   0.10910 283424.160000
   4593   4594     1   0.10969 276646.080000
   4593   4595     1   0.10969 276646.080000
   4598   4599     1   0.09730 310787.520000
   4600   4601     1   0.10910 283424.160000
   4600   4602     1   0.10910 283424.160000
   4603   4604     1   0.10969 276646.080000
   4603   4605     1   0.10969 276646.080000
   4608   4609     1   0.09730 310787.520000
   4612   4613     1   0.10969 276646.080000
   4612   4614     1   0.10969 276646.080000
   4615   4616     1   0.10969 276646.080000
   4615   4617     1   0.10969 276646.080000
   4618   4619     1   0.10910 283424.160000
   4618   4620     1   0.10910 283424.160000
   4621   4643     1   0.10304 312293.760000
   4622   4623     1   0.10910 283424.160000
   4622   4624     1   0.10910 283424.160000
   4625   4626     1   0.10969 276646.080000
   4625   4627     1   0.10969 276646.080000
   4630   4631     1   0.09730 310787.520000
   4632   4633     1   0.10910 283424.160000
   4632   4634     1   0.10910 283424.160000
   4635   4636     1   0.10969 276646.080000
   4635   4637     1   0.10969 276646.080000
   4640   4641     1   0.09730 310787.520000
   4644   4645     1   0.10969 276646.080000
   4644   4646     1   0.10969 276646.080000
   4647   4648     1   0.10969 276646.080000
   4647   4649     1   0.10969 276646.080000
   4650   4651     1   0.10910 283424.160000
   4650   4652     1   0.10910 283424.160000
   4653   4675     1   0.10304 312293.760000
   4654   4655     1   0.10910 283424.160000
   4654   4656     1   0.10910 283424.160000
   4657   4658     1   0.10969 276646.080000
   4657   4659     1   0.10969 276646.080000
   4662   4663     1   0.09730 310787.520000
   4664   4665     1   0.10910 283424.160000
   4664   4666     1   0.10910 283424.160000
   4667   4668     1   0.10969 276646.080000
   4667   4669     1   0.10969 276646.080000
   4672   4673     1   0.09730 310787.520000
   4676   4677     1   0.10969 276646.080000
   4676   4678     1   0.10969 276646.080000
   4679   4680     1   0.10969 276646.080000
   4679   4681     1   0.10969 276646.080000
   4682   4683     1   0.10910 283424.160000
   4682   4684     1   0.10910 283424.160000
   4685   4707     1   0.10304 312293.760000
   4686   4687     1   0.10910 283424.160000
   4686   4688     1   0.10910 283424.160000
   4689   4690     1   0.10969 276646.080000
   4689   4691     1   0.10969 276646.080000
   4694   4695     1   0.09730 310787.520000
   4696   4697     1   0.10910 283424.160000
   4696   4698     1   0.10910 283424.160000
   4699   4700     1   0.10969 276646.080000
   4699   4701     1   0.10969 276646.080000
   4704   4705     1   0.09730 310787.520000
   4708   4709     1   0.10969 276646.080000
   4708   4710     1   0.10969 276646.080000
   4711   4712     1   0.10969 276646.080000
   4711   4713     1   0.10969 276646.080000
   4714   4715     1   0.10910 283424.160000
   4714   4716     1   0.10910 283424.160000
   4717   4739     1   0.10304 312293.760000
   4718   4719     1   0.10910 283424.160000
   4718   4720     1   0.10910 283424.160000
   4721   4722     1   0.10969 276646.080000
   4721   4723     1   0.10969 276646.080000
   4726   4727     1   0.09730 310787.520000
   4728   4729     1   0.10910 283424.160000
   4728   4730     1   0.10910 283424.160000
   4731   4732     1   0.10969 276646.080000
   4731   4733     1   0.10969 276646.080000
   4736   4737     1   0.09730 310787.520000
   4740   4741     1   0.10969 276646.080000
   4740   4742     1   0.10969 276646.080000
   4743   4744     1   0.10969 276646.080000
   4743   4745     1   0.10969 276646.080000
   4746   4747     1   0.10910 283424.160000
   4746   4748     1   0.10910 283424.160000
   4749   4771     1   0.10304 312293.760000
   4750   4751     1   0.10910 283424.160000
   4750   4752     1   0.10910 283424.160000
   4753   4754     1   0.10969 276646.080000
   4753   4755     1   0.10969 276646.080000
   4758   4759     1   0.09730 310787.520000
   4760   4761     1   0.10910 283424.160000
   4760   4762     1   0.10910 283424.160000
   4763   4764     1   0.10969 276646.080000
   4763   4765     1   0.10969 276646.080000
   4768   4769     1   0.09730 310787.520000
   4772   4773     1   0.10969 276646.080000
   4772   4774     1   0.10969 276646.080000
   4775   4776     1   0.10969 276646.080000
   4775   4777     1   0.10969 276646.080000
   4778   4779     1   0.10910 283424.160000
   4778   4780     1   0.10910 283424.160000
   4781   4803     1   0.10304 312293.760000
   4782   4783     1   0.10910 283424.160000
   4782   4784     1   0.10910 283424.160000
   4785   4786     1   0.10969 276646.080000
   4785   4787     1   0.10969 276646.080000
   4790   4791     1   0.09730 310787.520000
   4792   4793     1   0.10910 283424.160000
   4792   4794     1   0.10910 283424.160000
   4795   4796     1   0.10969 276646.080000
   4795   4797     1   0.10969 276646.080000
   4800   4801     1   0.09730 310787.520000
   4804   4805     1   0.10969 276646.080000
   4804   4806     1   0.10969 276646.080000
   4807   4808     1   0.10969 276646.080000
   4807   4809     1   0.10969 276646.080000
   4810   4811     1   0.10910 283424.160000
   4810   4812     1   0.10910 283424.160000
   4813   4835     1   0.10304 312293.760000
   4814   4815     1   0.10910 283424.160000
   4814   4816     1   0.10910 283424.160000
   4817   4818     1   0.10969 276646.080000
   4817   4819     1   0.10969 276646.080000
   4822   4823     1   0.09730 310787.520000
   4824   4825     1   0.10910 283424.160000
   4824   4826     1   0.10910 283424.160000
   4827   4828     1   0.10969 276646.080000
   4827   4829     1   0.10969 276646.080000
   4832   4833     1   0.09730 310787.520000
   4836   4837     1   0.10969 276646.080000
   4836   4838     1   0.10969 276646.080000
   4839   4840     1   0.10969 276646.080000
   4839   4841     1   0.10969 276646.080000
   4842   4843     1   0.10910 283424.160000
   4842   4844     1   0.10910 283424.160000
   4845   4867     1   0.10304 312293.760000
   4846   4847     1   0.10910 283424.160000
   4846   4848     1   0.10910 283424.160000
   4849   4850     1   0.10969 276646.080000
   4849   4851     1   0.10969 276646.080000
   4854   4855     1   0.09730 310787.520000
   4856   4857     1   0.10910 283424.160000
   4856   4858     1   0.10910 283424.160000
   4859   4860     1   0.10969 276646.080000
   4859   4861     1   0.10969 276646.080000
   4864   4865     1   0.09730 310787.520000
   4868   4869     1   0.10969 276646.080000
   4868   4870     1   0.10969 276646.080000
   4871   4872     1   0.10969 276646.080000
   4871   4873     1   0.10969 276646.080000
   4874   4875     1   0.10910 283424.160000
   4874   4876     1   0.10910 283424.160000
   4877   4899     1   0.10304 312293.760000
   4878   4879     1   0.10910 283424.160000
   4878   4880     1   0.10910 283424.160000
   4881   4882     1   0.10969 276646.080000
   4881   4883     1   0.10969 276646.080000
   4886   4887     1   0.09730 310787.520000
   4888   4889     1   0.10910 283424.160000
   4888   4890     1   0.10910 283424.160000
   4891   4892     1   0.10969 276646.080000
   4891   4893     1   0.10969 276646.080000
   4896   4897     1   0.09730 310787.520000
   4900   4901     1   0.10969 276646.080000
   4900   4902     1   0.10969 276646.080000
   4903   4904     1   0.10969 276646.080000
   4903   4905     1   0.10969 276646.080000
   4906   4907     1   0.10910 283424.160000
   4906   4908     1   0.10910 283424.160000
   4909   4931     1   0.10304 312293.760000
   4910   4911     1   0.10910 283424.160000
   4910   4912     1   0.10910 283424.160000
   4913   4914     1   0.10969 276646.080000
   4913   4915     1   0.10969 276646.080000
   4918   4919     1   0.09730 310787.520000
   4920   4921     1   0.10910 283424.160000
   4920   4922     1   0.10910 283424.160000
   4923   4924     1   0.10969 276646.080000
   4923   4925     1   0.10969 276646.080000
   4928   4929     1   0.09730 310787.520000
   4932   4933     1   0.10969 276646.080000
   4932   4934     1   0.10969 276646.080000
   4935   4936     1   0.10969 276646.080000
   4935   4937     1   0.10969 276646.080000
   4938   4939     1   0.10910 283424.160000
   4938   4940     1   0.10910 283424.160000
   4941   4963     1   0.10304 312293.760000
   4942   4943     1   0.10910 283424.160000
   4942   4944     1   0.10910 283424.160000
   4945   4946     1   0.10969 276646.080000
   4945   4947     1   0.10969 276646.080000
   4950   4951     1   0.09730 310787.520000
   4952   4953     1   0.10910 283424.160000
   4952   4954     1   0.10910 283424.160000
   4955   4956     1   0.10969 276646.080000
   4955   4957     1   0.10969 276646.080000
   4960   4961     1   0.09730 310787.520000
   4964   4965     1   0.10969 276646.080000
   4964   4966     1   0.10969 276646.080000
   4967   4968     1   0.10969 276646.080000
   4967   4969     1   0.10969 276646.080000
   4970   4971     1   0.10910 283424.160000
   4970   4972     1   0.10910 283424.160000
   4973   4995     1   0.10304 312293.760000
   4974   4975     1   0.10910 283424.160000
   4974   4976     1   0.10910 283424.160000
   4977   4978     1   0.10969 276646.080000
   4977   4979     1   0.10969 276646.080000
   4982   4983     1   0.09730 310787.520000
   4984   4985     1   0.10910 283424.160000
   4984   4986     1   0.10910 283424.160000
   4987   4988     1   0.10969 276646.080000
   4987   4989     1   0.10969 276646.080000
   4992   4993     1   0.09730 310787.520000
   4996   4997     1   0.10969 276646.080000
   4996   4998     1   0.10969 276646.080000
   4999   5000     1   0.10969 276646.080000
   4999   5001     1   0.10969 276646.080000
   5002   5003     1   0.10910 283424.160000
   5002   5004     1   0.10910 283424.160000
   5005   5027     1   0.10304 312293.760000
   5006   5007     1   0.10910 283424.160000
   5006   5008     1   0.10910 283424.160000
   5009   5010     1   0.10969 276646.080000
   5009   5011     1   0.10969 276646.080000
   5014   5015     1   0.09730 310787.520000
   5016   5017     1   0.10910 283424.160000
   5016   5018     1   0.10910 283424.160000
   5019   5020     1   0.10969 276646.080000
   5019   5021     1   0.10969 276646.080000
   5024   5025     1   0.09730 310787.520000
   5028   5029     1   0.10969 276646.080000
   5028   5030     1   0.10969 276646.080000
   5031   5032     1   0.10969 276646.080000
   5031   5033     1   0.10969 276646.080000
   5034   5035     1   0.10910 283424.160000
   5034   5036     1   0.10910 283424.160000
   5037   5059     1   0.10304 312293.760000
   5038   5039     1   0.10910 283424.160000
   5038   5040     1   0.10910 283424.160000
   5041   5042     1   0.10969 276646.080000
   5041   5043     1   0.10969 276646.080000
   5046   5047     1   0.09730 310787.520000
   5048   5049     1   0.10910 283424.160000
   5048   5050     1   0.10910 283424.160000
   5051   5052     1   0.10969 276646.080000
   5051   5053     1   0.10969 276646.080000
   5056   5057     1   0.09730 310787.520000
   5060   5061     1   0.10969 276646.080000
   5060   5062     1   0.10969 276646.080000
   5063   5064     1   0.10969 276646.080000
   5063   5065     1   0.10969 276646.080000
   5066   5067     1   0.10910 283424.160000
   5066   5068     1   0.10910 283424.160000
   5069   5091     1   0.10304 312293.760000
   5070   5071     1   0.10910 283424.160000
   5070   5072     1   0.10910 283424.160000
   5073   5074     1   0.10969 276646.080000
   5073   5075     1   0.10969 276646.080000
   5078   5079     1   0.09730 310787.520000
   5080   5081     1   0.10910 283424.160000
   5080   5082     1   0.10910 283424.160000
   5083   5084     1   0.10969 276646.080000
   5083   5085     1   0.10969 276646.080000
   5088   5089     1   0.09730 310787.520000
   5092   5093     1   0.10969 276646.080000
   5092   5094     1   0.10969 276646.080000
   5095   5096     1   0.10969 276646.080000
   5095   5097     1   0.10969 276646.080000
   5098   5099     1   0.10910 283424.160000
   5098   5100     1   0.10910 283424.160000
   5101   5123     1   0.10304 312293.760000
   5102   5103     1   0.10910 283424.160000
   5102   5104     1   0.10910 283424.160000
   5105   5106     1   0.10969 276646.080000
   5105   5107     1   0.10969 276646.080000
   5110   5111     1   0.09730 310787.520000
   5112   5113     1   0.10910 283424.160000
   5112   5114     1   0.10910 283424.160000
   5115   5116     1   0.10969 276646.080000
   5115   5117     1   0.10969 276646.080000
   5120   5121     1   0.09730 310787.520000
   5124   5125     1   0.10969 276646.080000
   5124   5126     1   0.10969 276646.080000
   5127   5128     1   0.10969 276646.080000
   5127   5129     1   0.10969 276646.080000
   5130   5131     1   0.10910 283424.160000
   5130   5132     1   0.10910 283424.160000
   5133   5155     1   0.10304 312293.760000
   5134   5135     1   0.10910 283424.160000
   5134   5136     1   0.10910 283424.160000
   5137   5138     1   0.10969 276646.080000
   5137   5139     1   0.10969 276646.080000
   5142   5143     1   0.09730 310787.520000
   5144   5145     1   0.10910 283424.160000
   5144   5146     1   0.10910 283424.160000
   5147   5148     1   0.10969 276646.080000
   5147   5149     1   0.10969 276646.080000
   5152   5153     1   0.09730 310787.520000
   5156   5157     1   0.10969 276646.080000
   5156   5158     1   0.10969 276646.080000
   5159   5160     1   0.10969 276646.080000
   5159   5161     1   0.10969 276646.080000
   5162   5163     1   0.10910 283424.160000
   5162   5164     1   0.10910 283424.160000
   5165   5187     1   0.10304 312293.760000
   5166   5167     1   0.10910 283424.160000
   5166   5168     1   0.10910 283424.160000
   5169   5170     1   0.10969 276646.080000
   5169   5171     1   0.10969 276646.080000
   5174   5175     1   0.09730 310787.520000
   5176   5177     1   0.10910 283424.160000
   5176   5178     1   0.10910 283424.160000
   5179   5180     1   0.10969 276646.080000
   5179   5181     1   0.10969 276646.080000
   5184   5185     1   0.09730 310787.520000
   5188   5189     1   0.10969 276646.080000
   5188   5190     1   0.10969 276646.080000
   5191   5192     1   0.10969 276646.080000
   5191   5193     1   0.10969 276646.080000
   5194   5195     1   0.10910 283424.160000
   5194   5196     1   0.10910 283424.160000
   5197   5219     1   0.10304 312293.760000
   5198   5199     1   0.10910 283424.160000
   5198   5200     1   0.10910 283424.160000
   5201   5202     1   0.10969 276646.080000
   5201   5203     1   0.10969 276646.080000
   5206   5207     1   0.09730 310787.520000
   5208   5209     1   0.10910 283424.160000
   5208   5210     1   0.10910 283424.160000
   5211   5212     1   0.10969 276646.080000
   5211   5213     1   0.10969 276646.080000
   5216   5217     1   0.09730 310787.520000
   5220   5221     1   0.10969 276646.080000
   5220   5222     1   0.10969 276646.080000
   5223   5224     1   0.10969 276646.080000
   5223   5225     1   0.10969 276646.080000
   5226   5227     1   0.10910 283424.160000
   5226   5228     1   0.10910 283424.160000
   5229   5251     1   0.10304 312293.760000
   5230   5231     1   0.10910 283424.160000
   5230   5232     1   0.10910 283424.160000
   5233   5234     1   0.10969 276646.080000
   5233   5235     1   0.10969 276646.080000
   5238   5239     1   0.09730 310787.520000
   5240   5241     1   0.10910 283424.160000
   5240   5242     1   0.10910 283424.160000
   5243   5244     1   0.10969 276646.080000
   5243   5245     1   0.10969 276646.080000
   5248   5249     1   0.09730 310787.520000
   5252   5253     1   0.10969 276646.080000
   5252   5254     1   0.10969 276646.080000
   5255   5256     1   0.10969 276646.080000
   5255   5257     1   0.10969 276646.080000
   5258   5259     1   0.10910 283424.160000
   5258   5260     1   0.10910 283424.160000
   5261   5283     1   0.10304 312293.760000
   5262   5263     1   0.10910 283424.160000
   5262   5264     1   0.10910 283424.160000
   5265   5266     1   0.10969 276646.080000
   5265   5267     1   0.10969 276646.080000
   5270   5271     1   0.09730 310787.520000
   5272   5273     1   0.10910 283424.160000
   5272   5274     1   0.10910 283424.160000
   5275   5276     1   0.10969 276646.080000
   5275   5277     1   0.10969 276646.080000
   5280   5281     1   0.09730 310787.520000
   5284   5285     1   0.10969 276646.080000
   5284   5286     1   0.10969 276646.080000
   5287   5288     1   0.10969 276646.080000
   5287   5289     1   0.10969 276646.080000
   5290   5291     1   0.10910 283424.160000
   5290   5292     1   0.10910 283424.160000
   5293   5315     1   0.10304 312293.760000
   5294   5295     1   0.10910 283424.160000
   5294   5296     1   0.10910 283424.160000
   5297   5298     1   0.10969 276646.080000
   5297   5299     1   0.10969 276646.080000
   5302   5303     1   0.09730 310787.520000
   5304   5305     1   0.10910 283424.160000
   5304   5306     1   0.10910 283424.160000
   5307   5308     1   0.10969 276646.080000
   5307   5309     1   0.10969 276646.080000
   5312   5313     1   0.09730 310787.520000
   5316   5317     1   0.10969 276646.080000
   5316   5318     1   0.10969 276646.080000
   5319   5320     1   0.10969 276646.080000
   5319   5321     1   0.10969 276646.080000
   5322   5323     1   0.10910 283424.160000
   5322   5324     1   0.10910 283424.160000
   5325   5347     1   0.10304 312293.760000
   5326   5327     1   0.10910 283424.160000
   5326   5328     1   0.10910 283424.160000
   5329   5330     1   0.10969 276646.080000
   5329   5331     1   0.10969 276646.080000
   5334   5335     1   0.09730 310787.520000
   5336   5337     1   0.10910 283424.160000
   5336   5338     1   0.10910 283424.160000
   5339   5340     1   0.10969 276646.080000
   5339   5341     1   0.10969 276646.080000
   5344   5345     1   0.09730 310787.520000
   5348   5349     1   0.10969 276646.080000
   5348   5350     1   0.10969 276646.080000
   5351   5352     1   0.10969 276646.080000
   5351   5353     1   0.10969 276646.080000
   5354   5355     1   0.10910 283424.160000
   5354   5356     1   0.10910 283424.160000
   5357   5379     1   0.10304 312293.760000
   5358   5359     1   0.10910 283424.160000
   5358   5360     1   0.10910 283424.160000
   5361   5362     1   0.10969 276646.080000
   5361   5363     1   0.10969 276646.080000
   5366   5367     1   0.09730 310787.520000
   5368   5369     1   0.10910 283424.160000
   5368   5370     1   0.10910 283424.160000
   5371   5372     1   0.10969 276646.080000
   5371   5373     1   0.10969 276646.080000
   5376   5377     1   0.09730 310787.520000
   5380   5381     1   0.10969 276646.080000
   5380   5382     1   0.10969 276646.080000
   5383   5384     1   0.10969 276646.080000
   5383   5385     1   0.10969 276646.080000
   5386   5387     1   0.10910 283424.160000
   5386   5388     1   0.10910 283424.160000
   5389   5411     1   0.10304 312293.760000
   5390   5391     1   0.10910 283424.160000
   5390   5392     1   0.10910 283424.160000
   5393   5394     1   0.10969 276646.080000
   5393   5395     1   0.10969 276646.080000
   5398   5399     1   0.09730 310787.520000
   5400   5401     1   0.10910 283424.160000
   5400   5402     1   0.10910 283424.160000
   5403   5404     1   0.10969 276646.080000
   5403   5405     1   0.10969 276646.080000
   5408   5409     1   0.09730 310787.520000
   5412   5413     1   0.10969 276646.080000
   5412   5414     1   0.10969 276646.080000
   5415   5416     1   0.10969 276646.080000
   5415   5417     1   0.10969 276646.080000
   5418   5419     1   0.10910 283424.160000
   5418   5420     1   0.10910 283424.160000
   5421   5443     1   0.10304 312293.760000
   5422   5423     1   0.10910 283424.160000
   5422   5424     1   0.10910 283424.160000
   5425   5426     1   0.10969 276646.080000
   5425   5427     1   0.10969 276646.080000
   5430   5431     1   0.09730 310787.520000
   5432   5433     1   0.10910 283424.160000
   5432   5434     1   0.10910 283424.160000
   5435   5436     1   0.10969 276646.080000
   5435   5437     1   0.10969 276646.080000
   5440   5441     1   0.09730 310787.520000
   5444   5445     1   0.10969 276646.080000
   5444   5446     1   0.10969 276646.080000
   5447   5448     1   0.10969 276646.080000
   5447   5449     1   0.10969 276646.080000
   5450   5451     1   0.10910 283424.160000
   5450   5452     1   0.10910 283424.160000
   5453   5475     1   0.10304 312293.760000
   5454   5455     1   0.10910 283424.160000
   5454   5456     1   0.10910 283424.160000
   5457   5458     1   0.10969 276646.080000
   5457   5459     1   0.10969 276646.080000
   5462   5463     1   0.09730 310787.520000
   5464   5465     1   0.10910 283424.160000
   5464   5466     1   0.10910 283424.160000
   5467   5468     1   0.10969 276646.080000
   5467   5469     1   0.10969 276646.080000
   5472   5473     1   0.09730 310787.520000
   5476   5477     1   0.10969 276646.080000
   5476   5478     1   0.10969 276646.080000
   5479   5480     1   0.10969 276646.080000
   5479   5481     1   0.10969 276646.080000
   5482   5483     1   0.10910 283424.160000
   5482   5484     1   0.10910 283424.160000
   5485   5507     1   0.10304 312293.760000
   5486   5487     1   0.10910 283424.160000
   5486   5488     1   0.10910 283424.160000
   5489   5490     1   0.10969 276646.080000
   5489   5491     1   0.10969 276646.080000
   5494   5495     1   0.09730 310787.520000
   5496   5497     1   0.10910 283424.160000
   5496   5498     1   0.10910 283424.160000
   5499   5500     1   0.10969 276646.080000
   5499   5501     1   0.10969 276646.080000
   5504   5505     1   0.09730 310787.520000
   5508   5509     1   0.10969 276646.080000
   5508   5510     1   0.10969 276646.080000
   5511   5512     1   0.10969 276646.080000
   5511   5513     1   0.10969 276646.080000
   5514   5515     1   0.10910 283424.160000
   5514   5516     1   0.10910 283424.160000
   5517   5539     1   0.10304 312293.760000
   5518   5519     1   0.10910 283424.160000
   5518   5520     1   0.10910 283424.160000
   5521   5522     1   0.10969 276646.080000
   5521   5523     1   0.10969 276646.080000
   5526   5527     1   0.09730 310787.520000
   5528   5529     1   0.10910 283424.160000
   5528   5530     1   0.10910 283424.160000
   5531   5532     1   0.10969 276646.080000
   5531   5533     1   0.10969 276646.080000
   5536   5537     1   0.09730 310787.520000
   5540   5541     1   0.10969 276646.080000
   5540   5542     1   0.10969 276646.080000
   5543   5544     1   0.10969 276646.080000
   5543   5545     1   0.10969 276646.080000
   5546   5547     1   0.10910 283424.160000
   5546   5548     1   0.10910 283424.160000
   5549   5571     1   0.10304 312293.760000
   5550   5551     1   0.10910 283424.160000
   5550   5552     1   0.10910 283424.160000
   5553   5554     1   0.10969 276646.080000
   5553   5555     1   0.10969 276646.080000
   5558   5559     1   0.09730 310787.520000
   5560   5561     1   0.10910 283424.160000
   5560   5562     1   0.10910 283424.160000
   5563   5564     1   0.10969 276646.080000
   5563   5565     1   0.10969 276646.080000
   5568   5569     1   0.09730 310787.520000
   5572   5573     1   0.10969 276646.080000
   5572   5574     1   0.10969 276646.080000
   5575   5576     1   0.10969 276646.080000
   5575   5577     1   0.10969 276646.080000
   5578   5579     1   0.10910 283424.160000
   5578   5580     1   0.10910 283424.160000
   5581   5603     1   0.10304 312293.760000
   5582   5583     1   0.10910 283424.160000
   5582   5584     1   0.10910 283424.160000
   5585   5586     1   0.10969 276646.080000
   5585   5587     1   0.10969 276646.080000
   5590   5591     1   0.09730 310787.520000
   5592   5593     1   0.10910 283424.160000
   5592   5594     1   0.10910 283424.160000
   5595   5596     1   0.10969 276646.080000
   5595   5597     1   0.10969 276646.080000
   5600   5601     1   0.09730 310787.520000
   5604   5605     1   0.10969 276646.080000
   5604   5606     1   0.10969 276646.080000
   5607   5608     1   0.10969 276646.080000
   5607   5609     1   0.10969 276646.080000
   5610   5611     1   0.10910 283424.160000
   5610   5612     1   0.10910 283424.160000
   5613   5635     1   0.10304 312293.760000
   5614   5615     1   0.10910 283424.160000
   5614   5616     1   0.10910 283424.160000
   5617   5618     1   0.10969 276646.080000
   5617   5619     1   0.10969 276646.080000
   5622   5623     1   0.09730 310787.520000
   5624   5625     1   0.10910 283424.160000
   5624   5626     1   0.10910 283424.160000
   5627   5628     1   0.10969 276646.080000
   5627   5629     1   0.10969 276646.080000
   5632   5633     1   0.09730 310787.520000
   5636   5637     1   0.10969 276646.080000
   5636   5638     1   0.10969 276646.080000
   5639   5640     1   0.10969 276646.080000
   5639   5641     1   0.10969 276646.080000
   5642   5643     1   0.10910 283424.160000
   5642   5644     1   0.10910 283424.160000
   5645   5667     1   0.10304 312293.760000
   5646   5647     1   0.10910 283424.160000
   5646   5648     1   0.10910 283424.160000
   5649   5650     1   0.10969 276646.080000
   5649   5651     1   0.10969 276646.080000
   5654   5655     1   0.09730 310787.520000
   5656   5657     1   0.10910 283424.160000
   5656   5658     1   0.10910 283424.160000
   5659   5660     1   0.10969 276646.080000
   5659   5661     1   0.10969 276646.080000
   5664   5665     1   0.09730 310787.520000
   5668   5669     1   0.10969 276646.080000
   5668   5670     1   0.10969 276646.080000
   5671   5672     1   0.10969 276646.080000
   5671   5673     1   0.10969 276646.080000
   5674   5675     1   0.10910 283424.160000
   5674   5676     1   0.10910 283424.160000
   5677   5699     1   0.10304 312293.760000
   5678   5679     1   0.10910 283424.160000
   5678   5680     1   0.10910 283424.160000
   5681   5682     1   0.10969 276646.080000
   5681   5683     1   0.10969 276646.080000
   5686   5687     1   0.09730 310787.520000
   5688   5689     1   0.10910 283424.160000
   5688   5690     1   0.10910 283424.160000
   5691   5692     1   0.10969 276646.080000
   5691   5693     1   0.10969 276646.080000
   5696   5697     1   0.09730 310787.520000
   5700   5701     1   0.10969 276646.080000
   5700   5702     1   0.10969 276646.080000
   5703   5704     1   0.10969 276646.080000
   5703   5705     1   0.10969 276646.080000
   5706   5707     1   0.10910 283424.160000
   5706   5708     1   0.10910 283424.160000
   5709   5731     1   0.10304 312293.760000
   5710   5711     1   0.10910 283424.160000
   5710   5712     1   0.10910 283424.160000
   5713   5714     1   0.10969 276646.080000
   5713   5715     1   0.10969 276646.080000
   5718   5719     1   0.09730 310787.520000
   5720   5721     1   0.10910 283424.160000
   5720   5722     1   0.10910 283424.160000
   5723   5724     1   0.10969 276646.080000
   5723   5725     1   0.10969 276646.080000
   5728   5729     1   0.09730 310787.520000
   5732   5733     1   0.10969 276646.080000
   5732   5734     1   0.10969 276646.080000
   5735   5736     1   0.10969 276646.080000
   5735   5737     1   0.10969 276646.080000
   5738   5739     1   0.10910 283424.160000
   5738   5740     1   0.10910 283424.160000
   5741   5763     1   0.10304 312293.760000
   5742   5743     1   0.10910 283424.160000
   5742   5744     1   0.10910 283424.160000
   5745   5746     1   0.10969 276646.080000
   5745   5747     1   0.10969 276646.080000
   5750   5751     1   0.09730 310787.520000
   5752   5753     1   0.10910 283424.160000
   5752   5754     1   0.10910 283424.160000
   5755   5756     1   0.10969 276646.080000
   5755   5757     1   0.10969 276646.080000
   5760   5761     1   0.09730 310787.520000
   5764   5765     1   0.10969 276646.080000
   5764   5766     1   0.10969 276646.080000
   5767   5768     1   0.10969 276646.080000
   5767   5769     1   0.10969 276646.080000
   5770   5771     1   0.10910 283424.160000
   5770   5772     1   0.10910 283424.160000
   5773   5795     1   0.10304 312293.760000
   5774   5775     1   0.10910 283424.160000
   5774   5776     1   0.10910 283424.160000
   5777   5778     1   0.10969 276646.080000
   5777   5779     1   0.10969 276646.080000
   5782   5783     1   0.09730 310787.520000
   5784   5785     1   0.10910 283424.160000
   5784   5786     1   0.10910 283424.160000
   5787   5788     1   0.10969 276646.080000
   5787   5789     1   0.10969 276646.080000
   5792   5793     1   0.09730 310787.520000
   5796   5797     1   0.10969 276646.080000
   5796   5798     1   0.10969 276646.080000
   5799   5800     1   0.10969 276646.080000
   5799   5801     1   0.10969 276646.080000
   5802   5803     1   0.10910 283424.160000
   5802   5804     1   0.10910 283424.160000
   5805   5827     1   0.10304 312293.760000
   5806   5807     1   0.10910 283424.160000
   5806   5808     1   0.10910 283424.160000
   5809   5810     1   0.10969 276646.080000
   5809   5811     1   0.10969 276646.080000
   5814   5815     1   0.09730 310787.520000
   5816   5817     1   0.10910 283424.160000
   5816   5818     1   0.10910 283424.160000
   5819   5820     1   0.10969 276646.080000
   5819   5821     1   0.10969 276646.080000
   5824   5825     1   0.09730 310787.520000
   5828   5829     1   0.10969 276646.080000
   5828   5830     1   0.10969 276646.080000
   5831   5832     1   0.10969 276646.080000
   5831   5833     1   0.10969 276646.080000
   5834   5835     1   0.10910 283424.160000
   5834   5836     1   0.10910 283424.160000
   5837   5859     1   0.10304 312293.760000
   5838   5839     1   0.10910 283424.160000
   5838   5840     1   0.10910 283424.160000
   5841   5842     1   0.10969 276646.080000
   5841   5843     1   0.10969 276646.080000
   5846   5847     1   0.09730 310787.520000
   5848   5849     1   0.10910 283424.160000
   5848   5850     1   0.10910 283424.160000
   5851   5852     1   0.10969 276646.080000
   5851   5853     1   0.10969 276646.080000
   5856   5857     1   0.09730 310787.520000
   5860   5861     1   0.10969 276646.080000
   5860   5862     1   0.10969 276646.080000
   5863   5864     1   0.10969 276646.080000
   5863   5865     1   0.10969 276646.080000
   5866   5867     1   0.10910 283424.160000
   5866   5868     1   0.10910 283424.160000
   5869   5891     1   0.10304 312293.760000
   5870   5871     1   0.10910 283424.160000
   5870   5872     1   0.10910 283424.160000
   5873   5874     1   0.10969 276646.080000
   5873   5875     1   0.10969 276646.080000
   5878   5879     1   0.09730 310787.520000
   5880   5881     1   0.10910 283424.160000
   5880   5882     1   0.10910 283424.160000
   5883   5884     1   0.10969 276646.080000
   5883   5885     1   0.10969 276646.080000
   5888   5889     1   0.09730 310787.520000

[ pairs ]
;    ai     aj funct         c0         c1         c2         c3
      1     26     1
      1     20     1
      1     23     1
      2     17     1
      2     11     1
      2    118     1
      5     14     1
      5     11     1
      5     58     1
      8     14     1
      8     17     1
      8     88     1
     11     79     1
     14    109     1
     17     49     1
     20     40     1
     23     70     1
     26    100     1
     30     55     1
     30     52     1
     30     49     1
     31     46     1
     31     40     1
     31    178     1
     34     43     1
     34     40     1
     34    148     1
     37     43     1
     37     46     1
     37     58     1
     43    169     1
     46    139     1
     52    130     1
     55    160     1
     60     85     1
     60     82     1
     60     79     1
     61     76     1
     61     70     1
     61    238     1
     64     73     1
     64     70     1
     64    208     1
     67     73     1
     67     76     1
     67     88     1
     73    229     1
     76    199     1
     82    190     1
     85    220     1
     90    115     1
     90    112     1
     90    109     1
     91    106     1
     91    100     1
     91    298     1
     94    103     1
     94    100     1
     94    268     1
     97    103     1
     97    106     1
     97    118     1
    103    289     1
    106    259     1
    112    250     1
    115    280     1
    120    145     1
    120    142     1
    120    139     1
    121    136     1
    121    130     1
    121    358     1
    124    133     1
    124    130     1
    124    328     1
    127    133     1
    127    136     1
    127    148     1
    133    349     1
    136    319     1
    142    310     1
    145    340     1
    150    175     1
    150    172     1
    150    169     1
    151    166     1
    151    160     1
    151    418     1
    154    163     1
    154    160     1
    154    388     1
    157    163     1
    157    166     1
    157    178     1
    163    409     1
    166    379     1
    172    370     1
    175    400     1
    180    205     1
    180    202     1
    180    199     1
    181    196     1
    181    190     1
    181    478     1
    184    193     1
    184    190     1
    184    448     1
    187    193     1
    187    196     1
    187    208     1
    193    469     1
    196    439     1
    202    430     1
    205    460     1
    210    235     1
    210    232     1
    210    229     1
    211    226     1
    211    220     1
    211    538     1
    214    223     1
    214    220     1
    214    508     1
    217    223     1
    217    226     1
    217    238     1
    223    529     1
    226    499     1
    232    490     1
    235    520     1
    240    265     1
    240    262     1
    240    259     1
    241    256     1
    241    250     1
    241    598     1
    244    253     1
    244    250     1
    244    568     1
    247    253     1
    247    256     1
    247    268     1
    253    589     1
    256    559     1
    262    550     1
    265    580     1
    270    295     1
    270    292     1
    270    289     1
    271    286     1
    271    280     1
    271    658     1
    274    283     1
    274    280     1
    274    628     1
    277    283     1
    277    286     1
    277    298     1
    283    649     1
    286    619     1
    292    610     1
    295    640     1
    300    325     1
    300    322     1
    300    319     1
    301    316     1
    301    310     1
    301    718     1
    304    313     1
    304    310     1
    304    688     1
    307    313     1
    307    316     1
    307    328     1
    313    709     1
    316    679     1
    322    670     1
    325    700     1
    330    355     1
    330    352     1
    330    349     1
    331    346     1
    331    340     1
    331    778     1
    334    343     1
    334    340     1
    334    748     1
    337    343     1
    337    346     1
    337    358     1
    343    769     1
    346    739     1
    352    730     1
    355    760     1
    360    385     1
    360    382     1
    360    379     1
    361    376     1
    361    370     1
    361    838     1
    364    373     1
    364    370     1
    364    808     1
    367    373     1
    367    376     1
    367    388     1
    373    829     1
    376    799     1
    382    790     1
    385    820     1
    390    415     1
    390    412     1
    390    409     1
    391    406     1
    391    400     1
    391    898     1
    394    403     1
    394    400     1
    394    868     1
    397    403     1
    397    406     1
    397    418     1
    403    889     1
    406    859     1
    412    850     1
    415    880     1
    420    445     1
    420    442     1
    420    439     1
    421    436     1
    421    430     1
    421    958     1
    424    433     1
    424    430     1
    424    928     1
    427    433     1
    427    436     1
    427    448     1
    433    949     1
    436    919     1
    442    910     1
    445    940     1
    450    475     1
    450    472     1
    450    469     1
    451    466     1
    451    460     1
    451   1018     1
    454    463     1
    454    460     1
    454    988     1
    457    463     1
    457    466     1
    457    478     1
    463   1009     1
    466    979     1
    472    970     1
    475   1000     1
    480    505     1
    480    502     1
    480    499     1
    481    496     1
    481    490     1
    481   1078     1
    484    493     1
    484    490     1
    484   1048     1
    487    493     1
    487    496     1
    487    508     1
    493   1069     1
    496   1039     1
    502   1030     1
    505   1060     1
    510    535     1
    510    532     1
    510    529     1
    511    526     1
    511    520     1
    511   1138     1
    514    523     1
    514    520     1
    514   1108     1
    517    523     1
    517    526     1
    517    538     1
    523   1129     1
    526   1099     1
    532   1090     1
    535   1120     1
    540    565     1
    540    562     1
    540    559     1
    541    556     1
    541    550     1
    541   1198     1
    544    553     1
    544    550     1
    544   1168     1
    547    553     1
    547    556     1
    547    568     1
    553   1189     1
    556   1159     1
    562   1150     1
    565   1180     1
    570    595     1
    570    592     1
    570    589     1
    571    586     1
    571    580     1
    571   1258     1
    574    583     1
    574    580     1
    574   1228     1
    577    583     1
    577    586     1
    577    598     1
    583   1249     1
    586   1219     1
    592   1210     1
    595   1240     1
    600    625     1
    600    622     1
    600    619     1
    601    616     1
    601    610     1
    601   1318     1
    604    613     1
    604    610     1
    604   1288     1
    607    613     1
    607    616     1
    607    628     1
    613   1309     1
    616   1279     1
    622   1270     1
    625   1300     1
    630    655     1
    630    652     1
    630    649     1
    631    646     1
    631    640     1
    631   1378     1
    634    643     1
    634    640     1
    634   1348     1
    637    643     1
    637    646     1
    637    658     1
    643   1369     1
    646   1339     1
    652   1330     1
    655   1360     1
    660    685     1
    660    682     1
    660    679     1
    661    676     1
    661    670     1
    661   1438     1
    664    673     1
    664    670     1
    664   1408     1
    667    673     1
    667    676     1
    667    688     1
    673   1429     1
    676   1399     1
    682   1390     1
    685   1420     1
    690    715     1
    690    712     1
    690    709     1
    691    706     1
    691    700     1
    691   1498     1
    694    703     1
    694    700     1
    694   1468     1
    697    703     1
    697    706     1
    697    718     1
    703   1489     1
    706   1459     1
    712   1450     1
    715   1480     1
    720    745     1
    720    742     1
    720    739     1
    721    736     1
    721    730     1
    721   1558     1
    724    733     1
    724    730     1
    724   1528     1
    727    733     1
    727    736     1
    727    748     1
    733   1549     1
    736   1519     1
    742   1510     1
    745   1540     1
    750    775     1
    750    772     1
    750    769     1
    751    766     1
    751    760     1
    751   1618     1
    754    763     1
    754    760     1
    754   1588     1
    757    763     1
    757    766     1
    757    778     1
    763   1609     1
    766   1579     1
    772   1570     1
    775   1600     1
    780    805     1
    780    802     1
    780    799     1
    781    796     1
    781    790     1
    781   1678     1
    784    793     1
    784    790     1
    784   1648     1
    787    793     1
    787    796     1
    787    808     1
    793   1669     1
    796   1639     1
    802   1630     1
    805   1660     1
    810    835     1
    810    832     1
    810    829     1
    811    826     1
    811    820     1
    811   1738     1
    814    823     1
    814    820     1
    814   1708     1
    817    823     1
    817    826     1
    817    838     1
    823   1729     1
    826   1699     1
    832   1690     1
    835   1720     1
    840    865     1
    840    862     1
    840    859     1
    841    856     1
    841    850     1
    841   1798     1
    844    853     1
    844    850     1
    844   1768     1
    847    853     1
    847    856     1
    847    868     1
    853   1789     1
    856   1759     1
    862   1750     1
    865   1780     1
    870    895     1
    870    892     1
    870    889     1
    871    886     1
    871    880     1
    871   1858     1
    874    883     1
    874    880     1
    874   1828     1
    877    883     1
    877    886     1
    877    898     1
    883   1849     1
    886   1819     1
    892   1810     1
    895   1840     1
    900    925     1
    900    922     1
    900    919     1
    901    916     1
    901    910     1
    901   1918     1
    904    913     1
    904    910     1
    904   1888     1
    907    913     1
    907    916     1
    907    928     1
    913   1909     1
    916   1879     1
    922   1870     1
    925   1900     1
    930    955     1
    930    952     1
    930    949     1
    931    946     1
    931    940     1
    931   1978     1
    934    943     1
    934    940     1
    934   1948     1
    937    943     1
    937    946     1
    937    958     1
    943   1969     1
    946   1939     1
    952   1930     1
    955   1960     1
    960    985     1
    960    982     1
    960    979     1
    961    976     1
    961    970     1
    961   2038     1
    964    973     1
    964    970     1
    964   2008     1
    967    973     1
    967    976     1
    967    988     1
    973   2029     1
    976   1999     1
    982   1990     1
    985   2020     1
    990   1015     1
    990   1012     1
    990   1009     1
    991   1006     1
    991   1000     1
    991   2098     1
    994   1003     1
    994   1000     1
    994   2068     1
    997   1003     1
    997   1006     1
    997   1018     1
   1003   2089     1
   1006   2059     1
   1012   2050     1
   1015   2080     1
   1020   1045     1
   1020   1042     1
   1020   1039     1
   1021   1036     1
   1021   1030     1
   1021   2158     1
   1024   1033     1
   1024   1030     1
   1024   2128     1
   1027   1033     1
   1027   1036     1
   1027   1048     1
   1033   2149     1
   1036   2119     1
   1042   2110     1
   1045   2140     1
   1050   1075     1
   1050   1072     1
   1050   1069     1
   1051   1066     1
   1051   1060     1
   1051   2218     1
   1054   1063     1
   1054   1060     1
   1054   2188     1
   1057   1063     1
   1057   1066     1
   1057   1078     1
   1063   2209     1
   1066   2179     1
   1072   2170     1
   1075   2200     1
   1080   1105     1
   1080   1102     1
   1080   1099     1
   1081   1096     1
   1081   1090     1
   1081   2278     1
   1084   1093     1
   1084   1090     1
   1084   2248     1
   1087   1093     1
   1087   1096     1
   1087   1108     1
   1093   2269     1
   1096   2239     1
   1102   2230     1
   1105   2260     1
   1110   1135     1
   1110   1132     1
   1110   1129     1
   1111   1126     1
   1111   1120     1
   1111   2338     1
   1114   1123     1
   1114   1120     1
   1114   2308     1
   1117   1123     1
   1117   1126     1
   1117   1138     1
   1123   2329     1
   1126   2299     1
   1132   2290     1
   1135   2320     1
   1140   1165     1
   1140   1162     1
   1140   1159     1
   1141   1156     1
   1141   1150     1
   1141   2398     1
   1144   1153     1
   1144   1150     1
   1144   2368     1
   1147   1153     1
   1147   1156     1
   1147   1168     1
   1153   2389     1
   1156   2359     1
   1162   2350     1
   1165   2380     1
   1170   1195     1
   1170   1192     1
   1170   1189     1
   1171   1186     1
   1171   1180     1
   1171   2458     1
   1174   1183     1
   1174   1180     1
   1174   2428     1
   1177   1183     1
   1177   1186     1
   1177   1198     1
   1183   2449     1
   1186   2419     1
   1192   2410     1
   1195   2440     1
   1200   1225     1
   1200   1222     1
   1200   1219     1
   1201   1216     1
   1201   1210     1
   1201   2518     1
   1204   1213     1
   1204   1210     1
   1204   2488     1
   1207   1213     1
   1207   1216     1
   1207   1228     1
   1213   2509     1
   1216   2479     1
   1222   2470     1
   1225   2500     1
   1230   1255     1
   1230   1252     1
   1230   1249     1
   1231   1246     1
   1231   1240     1
   1231   2578     1
   1234   1243     1
   1234   1240     1
   1234   2548     1
   1237   1243     1
   1237   1246     1
   1237   1258     1
   1243   2569     1
   1246   2539     1
   1252   2530     1
   1255   2560     1
   1260   1285     1
   1260   1282     1
   1260   1279     1
   1261   1276     1
   1261   1270     1
   1261   2638     1
   1264   1273     1
   1264   1270     1
   1264   2608     1
   1267   1273     1
   1267   1276     1
   1267   1288     1
   1273   2629     1
   1276   2599     1
   1282   2590     1
   1285   2620     1
   1290   1315     1
   1290   1312     1
   1290   1309     1
   1291   1306     1
   1291   1300     1
   1291   2698     1
   1294   1303     1
   1294   1300     1
   1294   2668     1
   1297   1303     1
   1297   1306     1
   1297   1318     1
   1303   2689     1
   1306   2659     1
   1312   2650     1
   1315   2680     1
   1320   1345     1
   1320   1342     1
   1320   1339     1
   1321   1336     1
   1321   1330     1
   1321   2758     1
   1324   1333     1
   1324   1330     1
   1324   2728     1
   1327   1333     1
   1327   1336     1
   1327   1348     1
   1333   2749     1
   1336   2719     1
   1342   2710     1
   1345   2740     1
   1350   1375     1
   1350   1372     1
   1350   1369     1
   1351   1366     1
   1351   1360     1
   1351   2818     1
   1354   1363     1
   1354   1360     1
   1354   2788     1
   1357   1363     1
   1357   1366     1
   1357   1378     1
   1363   2809     1
   1366   2779     1
   1372   2770     1
   1375   2800     1
   1380   1405     1
   1380   1402     1
   1380   1399     1
   1381   1396     1
   1381   1390     1
   1381   2882     1
   1384   1393     1
   1384   1390     1
   1384   2850     1
   1387   1393     1
   1387   1396     1
   1387   1408     1
   1393   2852     1
   1396   2820     1
   1402   2823     1
   1405   2855     1
   1410   1435     1
   1410   1432     1
   1410   1429     1
   1411   1426     1
   1411   1420     1
   1411   2946     1
   1414   1423     1
   1414   1420     1
   1414   2914     1
   1417   1423     1
   1417   1426     1
   1417   1438     1
   1423   2916     1
   1426   2884     1
   1432   2887     1
   1435   2919     1
   1440   1465     1
   1440   1462     1
   1440   1459     1
   1441   1456     1
   1441   1450     1
   1441   3010     1
   1444   1453     1
   1444   1450     1
   1444   2978     1
   1447   1453     1
   1447   1456     1
   1447   1468     1
   1453   2980     1
   1456   2948     1
   1462   2951     1
   1465   2983     1
   1470   1495     1
   1470   1492     1
   1470   1489     1
   1471   1486     1
   1471   1480     1
   1471   3074     1
   1474   1483     1
   1474   1480     1
   1474   3042     1
   1477   1483     1
   1477   1486     1
   1477   1498     1
   1483   3044     1
   1486   3012     1
   1492   3015     1
   1495   3047     1
   1500   1525     1
   1500   1522     1
   1500   1519     1
   1501   1516     1
   1501   1510     1
   1501   3138     1
   1504   1513     1
   1504   1510     1
   1504   3106     1
   1507   1513     1
   1507   1516     1
   1507   1528     1
   1513   3108     1
   1516   3076     1
   1522   3079     1
   1525   3111     1
   1530   1555     1
   1530   1552     1
   1530   1549     1
   1531   1546     1
   1531   1540     1
   1531   3202     1
   1534   1543     1
   1534   1540     1
   1534   3170     1
   1537   1543     1
   1537   1546     1
   1537   1558     1
   1543   3172     1
   1546   3140     1
   1552   3143     1
   1555   3175     1
   1560   1585     1
   1560   1582     1
   1560   1579     1
   1561   1576     1
   1561   1570     1
   1561   3266     1
   1564   1573     1
   1564   1570     1
   1564   3234     1
   1567   1573     1
   1567   1576     1
   1567   1588     1
   1573   3236     1
   1576   3204     1
   1582   3207     1
   1585   3239     1
   1590   1615     1
   1590   1612     1
   1590   1609     1
   1591   1606     1
   1591   1600     1
   1591   3330     1
   1594   1603     1
   1594   1600     1
   1594   3298     1
   1597   1603     1
   1597   1606     1
   1597   1618     1
   1603   3300     1
   1606   3268     1
   1612   3271     1
   1615   3303     1
   1620   1645     1
   1620   1642     1
   1620   1639     1
   1621   1636     1
   1621   1630     1
   1621   3394     1
   1624   1633     1
   1624   1630     1
   1624   3362     1
   1627   1633     1
   1627   1636     1
   1627   1648     1
   1633   3364     1
   1636   3332     1
   1642   3335     1
   1645   3367     1
   1650   1675     1
   1650   1672     1
   1650   1669     1
   1651   1666     1
   1651   1660     1
   1651   3458     1
   1654   1663     1
   1654   1660     1
   1654   3426     1
   1657   1663     1
   1657   1666     1
   1657   1678     1
   1663   3428     1
   1666   3396     1
   1672   3399     1
   1675   3431     1
   1680   1705     1
   1680   1702     1
   1680   1699     1
   1681   1696     1
   1681   1690     1
   1681   3522     1
   1684   1693     1
   1684   1690     1
   1684   3490     1
   1687   1693     1
   1687   1696     1
   1687   1708     1
   1693   3492     1
   1696   3460     1
   1702   3463     1
   1705   3495     1
   1710   1735     1
   1710   1732     1
   1710   1729     1
   1711   1726     1
   1711   1720     1
   1711   3586     1
   1714   1723     1
   1714   1720     1
   1714   3554     1
   1717   1723     1
   1717   1726     1
   1717   1738     1
   1723   3556     1
   1726   3524     1
   1732   3527     1
   1735   3559     1
   1740   1765     1
   1740   1762     1
   1740   1759     1
   1741   1756     1
   1741   1750     1
   1741   3650     1
   1744   1753     1
   1744   1750     1
   1744   3618     1
   1747   1753     1
   1747   1756     1
   1747   1768     1
   1753   3620     1
   1756   3588     1
   1762   3591     1
   1765   3623     1
   1770   1795     1
   1770   1792     1
   1770   1789     1
   1771   1786     1
   1771   1780     1
   1771   3714     1
   1774   1783     1
   1774   1780     1
   1774   3682     1
   1777   1783     1
   1777   1786     1
   1777   1798     1
   1783   3684     1
   1786   3652     1
   1792   3655     1
   1795   3687     1
   1800   1825     1
   1800   1822     1
   1800   1819     1
   1801   1816     1
   1801   1810     1
   1801   3778     1
   1804   1813     1
   1804   1810     1
   1804   3746     1
   1807   1813     1
   1807   1816     1
   1807   1828     1
   1813   3748     1
   1816   3716     1
   1822   3719     1
   1825   3751     1
   1830   1855     1
   1830   1852     1
   1830   1849     1
   1831   1846     1
   1831   1840     1
   1831   3842     1
   1834   1843     1
   1834   1840     1
   1834   3810     1
   1837   1843     1
   1837   1846     1
   1837   1858     1
   1843   3812     1
   1846   3780     1
   1852   3783     1
   1855   3815     1
   1860   1885     1
   1860   1882     1
   1860   1879     1
   1861   1876     1
   1861   1870     1
   1861   3906     1
   1864   1873     1
   1864   1870     1
   1864   3874     1
   1867   1873     1
   1867   1876     1
   1867   1888     1
   1873   3876     1
   1876   3844     1
   1882   3847     1
   1885   3879     1
   1890   1915     1
   1890   1912     1
   1890   1909     1
   1891   1906     1
   1891   1900     1
   1891   3970     1
   1894   1903     1
   1894   1900     1
   1894   3938     1
   1897   1903     1
   1897   1906     1
   1897   1918     1
   1903   3940     1
   1906   3908     1
   1912   3911     1
   1915   3943     1
   1920   1945     1
   1920   1942     1
   1920   1939     1
   1921   1936     1
   1921   1930     1
   1921   4034     1
   1924   1933     1
   1924   1930     1
   1924   4002     1
   1927   1933     1
   1927   1936     1
   1927   1948     1
   1933   4004     1
   1936   3972     1
   1942   3975     1
   1945   4007     1
   1950   1975     1
   1950   1972     1
   1950   1969     1
   1951   1966     1
   1951   1960     1
   1951   4098     1
   1954   1963     1
   1954   1960     1
   1954   4066     1
   1957   1963     1
   1957   1966     1
   1957   1978     1
   1963   4068     1
   1966   4036     1
   1972   4039     1
   1975   4071     1
   1980   2005     1
   1980   2002     1
   1980   1999     1
   1981   1996     1
   1981   1990     1
   1981   4162     1
   1984   1993     1
   1984   1990     1
   1984   4130     1
   1987   1993     1
   1987   1996     1
   1987   2008     1
   1993   4132     1
   1996   4100     1
   2002   4103     1
   2005   4135     1
   2010   2035     1
   2010   2032     1
   2010   2029     1
   2011   2026     1
   2011   2020     1
   2011   4226     1
   2014   2023     1
   2014   2020     1
   2014   4194     1
   2017   2023     1
   2017   2026     1
   2017   2038     1
   2023   4196     1
   2026   4164     1
   2032   4167     1
   2035   4199     1
   2040   2065     1
   2040   2062     1
   2040   2059     1
   2041   2056     1
   2041   2050     1
   2041   4290     1
   2044   2053     1
   2044   2050     1
   2044   4258     1
   2047   2053     1
   2047   2056     1
   2047   2068     1
   2053   4260     1
   2056   4228     1
   2062   4231     1
   2065   4263     1
   2070   2095     1
   2070   2092     1
   2070   2089     1
   2071   2086     1
   2071   2080     1
   2071   4354     1
   2074   2083     1
   2074   2080     1
   2074   4322     1
   2077   2083     1
   2077   2086     1
   2077   2098     1
   2083   4324     1
   2086   4292     1
   2092   4295     1
   2095   4327     1
   2100   2125     1
   2100   2122     1
   2100   2119     1
   2101   2116     1
   2101   2110     1
   2101   4418     1
   2104   2113     1
   2104   2110     1
   2104   4386     1
   2107   2113     1
   2107   2116     1
   2107   2128     1
   2113   4388     1
   2116   4356     1
   2122   4359     1
   2125   4391     1
   2130   2155     1
   2130   2152     1
   2130   2149     1
   2131   2146     1
   2131   2140     1
   2131   4482     1
   2134   2143     1
   2134   2140     1
   2134   4450     1
   2137   2143     1
   2137   2146     1
   2137   2158     1
   2143   4452     1
   2146   4420     1
   2152   4423     1
   2155   4455     1
   2160   2185     1
   2160   2182     1
   2160   2179     1
   2161   2176     1
   2161   2170     1
   2161   4546     1
   2164   2173     1
   2164   2170     1
   2164   4514     1
   2167   2173     1
   2167   2176     1
   2167   2188     1
   2173   4516     1
   2176   4484     1
   2182   4487     1
   2185   4519     1
   2190   2215     1
   2190   2212     1
   2190   2209     1
   2191   2206     1
   2191   2200     1
   2191   4610     1
   2194   2203     1
   2194   2200     1
   2194   4578     1
   2197   2203     1
   2197   2206     1
   2197   2218     1
   2203   4580     1
   2206   4548     1
   2212   4551     1
   2215   4583     1
   2220   2245     1
   2220   2242     1
   2220   2239     1
   2221   2236     1
   2221   2230     1
   2221   4674     1
   2224   2233     1
   2224   2230     1
   2224   4642     1
   2227   2233     1
   2227   2236     1
   2227   2248     1
   2233   4644     1
   2236   4612     1
   2242   4615     1
   2245   4647     1
   2250   2275     1
   2250   2272     1
   2250   2269     1
   2251   2266     1
   2251   2260     1
   2251   4738     1
   2254   2263     1
   2254   2260     1
   2254   4706     1
   2257   2263     1
   2257   2266     1
   2257   2278     1
   2263   4708     1
   2266   4676     1
   2272   4679     1
   2275   4711     1
   2280   2305     1
   2280   2302     1
   2280   2299     1
   2281   2296     1
   2281   2290     1
   2281   4802     1
   2284   2293     1
   2284   2290     1
   2284   4770     1
   2287   2293     1
   2287   2296     1
   2287   2308     1
   2293   4772     1
   2296   4740     1
   2302   4743     1
   2305   4775     1
   2310   2335     1
   2310   2332     1
   2310   2329     1
   2311   2326     1
   2311   2320     1
   2311   4866     1
   2314   2323     1
   2314   2320     1
   2314   4834     1
   2317   2323     1
   2317   2326     1
   2317   2338     1
   2323   4836     1
   2326   4804     1
   2332   4807     1
   2335   4839     1
   2340   2365     1
   2340   2362     1
   2340   2359     1
   2341   2356     1
   2341   2350     1
   2341   4930     1
   2344   2353     1
   2344   2350     1
   2344   4898     1
   2347   2353     1
   2347   2356     1
   2347   2368     1
   2353   4900     1
   2356   4868     1
   2362   4871     1
   2365   4903     1
   2370   2395     1
   2370   2392     1
   2370   2389     1
   2371   2386     1
   2371   2380     1
   2371   4994     1
   2374   2383     1
   2374   2380     1
   2374   4962     1
   2377   2383     1
   2377   2386     1
   2377   2398     1
   2383   4964     1
   2386   4932     1
   2392   4935     1
   2395   4967     1
   2400   2425     1
   2400   2422     1
   2400   2419     1
   2401   2416     1
   2401   2410     1
   2401   5058     1
   2404   2413     1
   2404   2410     1
   2404   5026     1
   2407   2413     1
   2407   2416     1
   2407   2428     1
   2413   5028     1
   2416   4996     1
   2422   4999     1
   2425   5031     1
   2430   2455     1
   2430   2452     1
   2430   2449     1
   2431   2446     1
   2431   2440     1
   2431   5122     1
   2434   2443     1
   2434   2440     1
   2434   5090     1
   2437   2443     1
   2437   2446     1
   2437   2458     1
   2443   5092     1
   2446   5060     1
   2452   5063     1
   2455   5095     1
   2460   2485     1
   2460   2482     1
   2460   2479     1
   2461   2476     1
   2461   2470     1
   2461   5186     1
   2464   2473     1
   2464   2470     1
   2464   5154     1
   2467   2473     1
   2467   2476     1
   2467   2488     1
   2473   5156     1
   2476   5124     1
   2482   5127     1
   2485   5159     1
   2490   2515     1
   2490   2512     1
   2490   2509     1
   2491   2506     1
   2491   2500     1
   2491   5250     1
   2494   2503     1
   2494   2500     1
   2494   5218     1
   2497   2503     1
   2497   2506     1
   2497   2518     1
   2503   5220     1
   2506   5188     1
   2512   5191     1
   2515   5223     1
   2520   2545     1
   2520   2542     1
   2520   2539     1
   2521   2536     1
   2521   2530     1
   2521   5314     1
   2524   2533     1
   2524   2530     1
   2524   5282     1
   2527   2533     1
   2527   2536     1
   2527   2548     1
   2533   5284     1
   2536   5252     1
   2542   5255     1
   2545   5287     1
   2550   2575     1
   2550   2572     1
   2550   2569     1
   2551   2566     1
   2551   2560     1
   2551   5378     1
   2554   2563     1
   2554   2560     1
   2554   5346     1
   2557   2563     1
   2557   2566     1
   2557   2578     1
   2563   5348     1
   2566   5316     1
   2572   5319     1
   2575   5351     1
   2580   2605     1
   2580   2602     1
   2580   2599     1
   2581   2596     1
   2581   2590     1
   2581   5442     1
   2584   2593     1
   2584   2590     1
   2584   5410     1
   2587   2593     1
   2587   2596     1
   2587   2608     1
   2593   5412     1
   2596   5380     1
   2602   5383     1
   2605   5415     1
   2610   2635     1
   2610   2632     1
   2610   2629     1
   2611   2626     1
   2611   2620     1
   2611   5506     1
   2614   2623     1
   2614   2620     1
   2614   5474     1
   2617   2623     1
   2617   2626     1
   2617   2638     1
   2623   5476     1
   2626   5444     1
   2632   5447     1
   2635   5479     1
   2640   2665     1
   2640   2662     1
   2640   2659     1
   2641   2656     1
   2641   2650     1
   2641   5570     1
   2644   2653     1
   2644   2650     1
   2644   5538     1
   2647   2653     1
   2647   2656     1
   2647   2668     1
   2653   5540     1
   2656   5508     1
   2662   5511     1
   2665   5543     1
   2670   2695     1
   2670   2692     1
   2670   2689     1
   2671   2686     1
   2671   2680     1
   2671   5634     1
   2674   2683     1
   2674   2680     1
   2674   5602     1
   2677   2683     1
   2677   2686     1
   2677   2698     1
   2683   5604     1
   2686   5572     1
   2692   5575     1
   2695   5607     1
   2700   2725     1
   2700   2722     1
   2700   2719     1
   2701   2716     1
   2701   2710     1
   2701   5698     1
   2704   2713     1
   2704   2710     1
   2704   5666     1
   2707   2713     1
   2707   2716     1
   2707   2728     1
   2713   5668     1
   2716   5636     1
   2722   5639     1
   2725   5671     1
   2730   2755     1
   2730   2752     1
   2730   2749     1
   2731   2746     1
   2731   2740     1
   2731   5762     1
   2734   2743     1
   2734   2740     1
   2734   5730     1
   2737   2743     1
   2737   2746     1
   2737   2758     1
   2743   5732     1
   2746   5700     1
   2752   5703     1
   2755   5735     1
   2760   2785     1
   2760   2782     1
   2760   2779     1
   2761   2776     1
   2761   2770     1
   2761   5826     1
   2764   2773     1
   2764   2770     1
   2764   5794     1
   2767   2773     1
   2767   2776     1
   2767   2788     1
   2773   5796     1
   2776   5764     1
   2782   5767     1
   2785   5799     1
   2790   2815     1
   2790   2812     1
   2790   2809     1
   2791   2806     1
   2791   2800     1
   2791   5890     1
   2794   2803     1
   2794   2800     1
   2794   5858     1
   2797   2803     1
   2797   2806     1
   2797   2818     1
   2803   5860     1
   2806   5828     1
   2812   5831     1
   2815   5863     1
   2820   2829     1
   2823   2830     1
   2823   2840     1
   2826   2850     1
   2826   2833     1
   2826   2843     1
   2829   2836     1
   2829   2846     1
   2830   2843     1
   2830   2837     1
   2830   2838     1
   2833   2840     1
   2840   2847     1
   2840   2848     1
   2852   2861     1
   2855   2862     1
   2855   2872     1
   2858   2865     1
   2858   2875     1
   2858   2882     1
   2861   2868     1
   2861   2878     1
   2862   2869     1
   2862   2870     1
   2862   2875     1
   2865   2872     1
   2872   2879     1
   2872   2880     1
   2884   2893     1
   2887   2894     1
   2887   2904     1
   2890   2914     1
   2890   2897     1
   2890   2907     1
   2893   2900     1
   2893   2910     1
   2894   2907     1
   2894   2901     1
   2894   2902     1
   2897   2904     1
   2904   2911     1
   2904   2912     1
   2916   2925     1
   2919   2926     1
   2919   2936     1
   2922   2929     1
   2922   2939     1
   2922   2946     1
   2925   2932     1
   2925   2942     1
   2926   2933     1
   2926   2934     1
   2926   2939     1
   2929   2936     1
   2936   2943     1
   2936   2944     1
   2948   2957     1
   2951   2958     1
   2951   2968     1
   2954   2978     1
   2954   2961     1
   2954   2971     1
   2957   2964     1
   2957   2974     1
   2958   2971     1
   2958   2965     1
   2958   2966     1
   2961   2968     1
   2968   2975     1
   2968   2976     1
   2980   2989     1
   2983   2990     1
   2983   3000     1
   2986   2993     1
   2986   3003     1
   2986   3010     1
   2989   2996     1
   2989   3006     1
   2990   2997     1
   2990   2998     1
   2990   3003     1
   2993   3000     1
   3000   3007     1
   3000   3008     1
   3012   3021     1
   3015   3022     1
   3015   3032     1
   3018   3042     1
   3018   3025     1
   3018   3035     1
   3021   3028     1
   3021   3038     1
   3022   3035     1
   3022   3029     1
   3022   3030     1
   3025   3032     1
   3032   3039     1
   3032   3040     1
   3044   3053     1
   3047   3054     1
   3047   3064     1
   3050   3057     1
   3050   3067     1
   3050   3074     1
   3053   3060     1
   3053   3070     1
   3054   3061     1
   3054   3062     1
   3054   3067     1
   3057   3064     1
   3064   3071     1
   3064   3072     1
   3076   3085     1
   3079   3086     1
   3079   3096     1
   3082   3106     1
   3082   3089     1
   3082   3099     1
   3085   3092     1
   3085   3102     1
   3086   3099     1
   3086   3093     1
   3086   3094     1
   3089   3096     1
   3096   3103     1
   3096   3104     1
   3108   3117     1
   3111   3118     1
   3111   3128     1
   3114   3121     1
   3114   3131     1
   3114   3138     1
   3117   3124     1
   3117   3134     1
   3118   3125     1
   3118   3126     1
   3118   3131     1
   3121   3128     1
   3128   3135     1
   3128   3136     1
   3140   3149     1
   3143   3150     1
   3143   3160     1
   3146   3170     1
   3146   3153     1
   3146   3163     1
   3149   3156     1
   3149   3166     1
   3150   3163     1
   3150   3157     1
   3150   3158     1
   3153   3160     1
   3160   3167     1
   3160   3168     1
   3172   3181     1
   3175   3182     1
   3175   3192     1
   3178   3185     1
   3178   3195     1
   3178   3202     1
   3181   3188     1
   3181   3198     1
   3182   3189     1
   3182   3190     1
   3182   3195     1
   3185   3192     1
   3192   3199     1
   3192   3200     1
   3204   3213     1
   3207   3214     1
   3207   3224     1
   3210   3234     1
   3210   3217     1
   3210   3227     1
   3213   3220     1
   3213   3230     1
   3214   3227     1
   3214   3221     1
   3214   3222     1
   3217   3224     1
   3224   3231     1
   3224   3232     1
   3236   3245     1
   3239   3246     1
   3239   3256     1
   3242   3249     1
   3242   3259     1
   3242   3266     1
   3245   3252     1
   3245   3262     1
   3246   3253     1
   3246   3254     1
   3246   3259     1
   3249   3256     1
   3256   3263     1
   3256   3264     1
   3268   3277     1
   3271   3278     1
   3271   3288     1
   3274   3298     1
   3274   3281     1
   3274   3291     1
   3277   3284     1
   3277   3294     1
   3278   3291     1
   3278   3285     1
   3278   3286     1
   3281   3288     1
   3288   3295     1
   3288   3296     1
   3300   3309     1
   3303   3310     1
   3303   3320     1
   3306   3313     1
   3306   3323     1
   3306   3330     1
   3309   3316     1
   3309   3326     1
   3310   3317     1
   3310   3318     1
   3310   3323     1
   3313   3320     1
   3320   3327     1
   3320   3328     1
   3332   3341     1
   3335   3342     1
   3335   3352     1
   3338   3362     1
   3338   3345     1
   3338   3355     1
   3341   3348     1
   3341   3358     1
   3342   3355     1
   3342   3349     1
   3342   3350     1
   3345   3352     1
   3352   3359     1
   3352   3360     1
   3364   3373     1
   3367   3374     1
   3367   3384     1
   3370   3377     1
   3370   3387     1
   3370   3394     1
   3373   3380     1
   3373   3390     1
   3374   3381     1
   3374   3382     1
   3374   3387     1
   3377   3384     1
   3384   3391     1
   3384   3392     1
   3396   3405     1
   3399   3406     1
   3399   3416     1
   3402   3426     1
   3402   3409     1
   3402   3419     1
   3405   3412     1
   3405   3422     1
   3406   3419     1
   3406   3413     1
   3406   3414     1
   3409   3416     1
   3416   3423     1
   3416   3424     1
   3428   3437     1
   3431   3438     1
   3431   3448     1
   3434   3441     1
   3434   3451     1
   3434   3458     1
   3437   3444     1
   3437   3454     1
   3438   3445     1
   3438   3446     1
   3438   3451     1
   3441   3448     1
   3448   3455     1
   3448   3456     1
   3460   3469     1
   3463   3470     1
   3463   3480     1
   3466   3490     1
   3466   3473     1
   3466   3483     1
   3469   3476     1
   3469   3486     1
   3470   3483     1
   3470   3477     1
   3470   3478     1
   3473   3480     1
   3480   3487     1
   3480   3488     1
   3492   3501     1
   3495   3502     1
   3495   3512     1
   3498   3505     1
   3498   3515     1
   3498   3522     1
   3501   3508     1
   3501   3518     1
   3502   3509     1
   3502   3510     1
   3502   3515     1
   3505   3512     1
   3512   3519     1
   3512   3520     1
   3524   3533     1
   3527   3534     1
   3527   3544     1
   3530   3554     1
   3530   3537     1
   3530   3547     1
   3533   3540     1
   3533   3550     1
   3534   3547     1
   3534   3541     1
   3534   3542     1
   3537   3544     1
   3544   3551     1
   3544   3552     1
   3556   3565     1
   3559   3566     1
   3559   3576     1
   3562   3569     1
   3562   3579     1
   3562   3586     1
   3565   3572     1
   3565   3582     1
   3566   3573     1
   3566   3574     1
   3566   3579     1
   3569   3576     1
   3576   3583     1
   3576   3584     1
   3588   3597     1
   3591   3598     1
   3591   3608     1
   3594   3618     1
   3594   3601     1
   3594   3611     1
   3597   3604     1
   3597   3614     1
   3598   3611     1
   3598   3605     1
   3598   3606     1
   3601   3608     1
   3608   3615     1
   3608   3616     1
   3620   3629     1
   3623   3630     1
   3623   3640     1
   3626   3633     1
   3626   3643     1
   3626   3650     1
   3629   3636     1
   3629   3646     1
   3630   3637     1
   3630   3638     1
   3630   3643     1
   3633   3640     1
   3640   3647     1
   3640   3648     1
   3652   3661     1
   3655   3662     1
   3655   3672     1
   3658   3682     1
   3658   3665     1
   3658   3675     1
   3661   3668     1
   3661   3678     1
   3662   3675     1
   3662   3669     1
   3662   3670     1
   3665   3672     1
   3672   3679     1
   3672   3680     1
   3684   3693     1
   3687   3694     1
   3687   3704     1
   3690   3697     1
   3690   3707     1
   3690   3714     1
   3693   3700     1
   3693   3710     1
   3694   3701     1
   3694   3702     1
   3694   3707     1
   3697   3704     1
   3704   3711     1
   3704   3712     1
   3716   3725     1
   3719   3726     1
   3719   3736     1
   3722   3746     1
   3722   3729     1
   3722   3739     1
   3725   3732     1
   3725   3742     1
   3726   3739     1
   3726   3733     1
   3726   3734     1
   3729   3736     1
   3736   3743     1
   3736   3744     1
   3748   3757     1
   3751   3758     1
   3751   3768     1
   3754   3761     1
   3754   3771     1
   3754   3778     1
   3757   3764     1
   3757   3774     1
   3758   3765     1
   3758   3766     1
   3758   3771     1
   3761   3768     1
   3768   3775     1
   3768   3776     1
   3780   3789     1
   3783   3790     1
   3783   3800     1
   3786   3810     1
   3786   3793     1
   3786   3803     1
   3789   3796     1
   3789   3806     1
   3790   3803     1
   3790   3797     1
   3790   3798     1
   3793   3800     1
   3800   3807     1
   3800   3808     1
   3812   3821     1
   3815   3822     1
   3815   3832     1
   3818   3825     1
   3818   3835     1
   3818   3842     1
   3821   3828     1
   3821   3838     1
   3822   3829     1
   3822   3830     1
   3822   3835     1
   3825   3832     1
   3832   3839     1
   3832   3840     1
   3844   3853     1
   3847   3854     1
   3847   3864     1
   3850   3874     1
   3850   3857     1
   3850   3867     1
   3853   3860     1
   3853   3870     1
   3854   3867     1
   3854   3861     1
   3854   3862     1
   3857   3864     1
   3864   3871     1
   3864   3872     1
   3876   3885     1
   3879   3886     1
   3879   3896     1
   3882   3889     1
   3882   3899     1
   3882   3906     1
   3885   3892     1
   3885   3902     1
   3886   3893     1
   3886   3894     1
   3886   3899     1
   3889   3896     1
   3896   3903     1
   3896   3904     1
   3908   3917     1
   3911   3918     1
   3911   3928     1
   3914   3938     1
   3914   3921     1
   3914   3931     1
   3917   3924     1
   3917   3934     1
   3918   3931     1
   3918   3925     1
   3918   3926     1
   3921   3928     1
   3928   3935     1
   3928   3936     1
   3940   3949     1
   3943   3950     1
   3943   3960     1
   3946   3953     1
   3946   3963     1
   3946   3970     1
   3949   3956     1
   3949   3966     1
   3950   3957     1
   3950   3958     1
   3950   3963     1
   3953   3960     1
   3960   3967     1
   3960   3968     1
   3972   3981     1
   3975   3982     1
   3975   3992     1
   3978   4002     1
   3978   3985     1
   3978   3995     1
   3981   3988     1
   3981   3998     1
   3982   3995     1
   3982   3989     1
   3982   3990     1
   3985   3992     1
   3992   3999     1
   3992   4000     1
   4004   4013     1
   4007   4014     1
   4007   4024     1
   4010   4017     1
   4010   4027     1
   4010   4034     1
   4013   4020     1
   4013   4030     1
   4014   4021     1
   4014   4022     1
   4014   4027     1
   4017   4024     1
   4024   4031     1
   4024   4032     1
   4036   4045     1
   4039   4046     1
   4039   4056     1
   4042   4066     1
   4042   4049     1
   4042   4059     1
   4045   4052     1
   4045   4062     1
   4046   4059     1
   4046   4053     1
   4046   4054     1
   4049   4056     1
   4056   4063     1
   4056   4064     1
   4068   4077     1
   4071   4078     1
   4071   4088     1
   4074   4081     1
   4074   4091     1
   4074   4098     1
   4077   4084     1
   4077   4094     1
   4078   4085     1
   4078   4086     1
   4078   4091     1
   4081   4088     1
   4088   4095     1
   4088   4096     1
   4100   4109     1
   4103   4110     1
   4103   4120     1
   4106   4130     1
   4106   4113     1
   4106   4123     1
   4109   4116     1
   4109   4126     1
   4110   4123     1
   4110   4117     1
   4110   4118     1
   4113   4120     1
   4120   4127     1
   4120   4128     1
   4132   4141     1
   4135   4142     1
   4135   4152     1
   4138   4145     1
   4138   4155     1
   4138   4162     1
   4141   4148     1
   4141   4158     1
   4142   4149     1
   4142   4150     1
   4142   4155     1
   4145   4152     1
   4152   4159     1
   4152   4160     1
   4164   4173     1
   4167   4174     1
   4167   4184     1
   4170   4194     1
   4170   4177     1
   4170   4187     1
   4173   4180     1
   4173   4190     1
   4174   4187     1
   4174   4181     1
   4174   4182     1
   4177   4184     1
   4184   4191     1
   4184   4192     1
   4196   4205     1
   4199   4206     1
   4199   4216     1
   4202   4209     1
   4202   4219     1
   4202   4226     1
   4205   4212     1
   4205   4222     1
   4206   4213     1
   4206   4214     1
   4206   4219     1
   4209   4216     1
   4216   4223     1
   4216   4224     1
   4228   4237     1
   4231   4238     1
   4231   4248     1
   4234   4258     1
   4234   4241     1
   4234   4251     1
   4237   4244     1
   4237   4254     1
   4238   4251     1
   4238   4245     1
   4238   4246     1
   4241   4248     1
   4248   4255     1
   4248   4256     1
   4260   4269     1
   4263   4270     1
   4263   4280     1
   4266   4273     1
   4266   4283     1
   4266   4290     1
   4269   4276     1
   4269   4286     1
   4270   4277     1
   4270   4278     1
   4270   4283     1
   4273   4280     1
   4280   4287     1
   4280   4288     1
   4292   4301     1
   4295   4302     1
   4295   4312     1
   4298   4322     1
   4298   4305     1
   4298   4315     1
   4301   4308     1
   4301   4318     1
   4302   4315     1
   4302   4309     1
   4302   4310     1
   4305   4312     1
   4312   4319     1
   4312   4320     1
   4324   4333     1
   4327   4334     1
   4327   4344     1
   4330   4337     1
   4330   4347     1
   4330   4354     1
   4333   4340     1
   4333   4350     1
   4334   4341     1
   4334   4342     1
   4334   4347     1
   4337   4344     1
   4344   4351     1
   4344   4352     1
   4356   4365     1
   4359   4366     1
   4359   4376     1
   4362   4386     1
   4362   4369     1
   4362   4379     1
   4365   4372     1
   4365   4382     1
   4366   4379     1
   4366   4373     1
   4366   4374     1
   4369   4376     1
   4376   4383     1
   4376   4384     1
   4388   4397     1
   4391   4398     1
   4391   4408     1
   4394   4401     1
   4394   4411     1
   4394   4418     1
   4397   4404     1
   4397   4414     1
   4398   4405     1
   4398   4406     1
   4398   4411     1
   4401   4408     1
   4408   4415     1
   4408   4416     1
   4420   4429     1
   4423   4430     1
   4423   4440     1
   4426   4450     1
   4426   4433     1
   4426   4443     1
   4429   4436     1
   4429   4446     1
   4430   4443     1
   4430   4437     1
   4430   4438     1
   4433   4440     1
   4440   4447     1
   4440   4448     1
   4452   4461     1
   4455   4462     1
   4455   4472     1
   4458   4465     1
   4458   4475     1
   4458   4482     1
   4461   4468     1
   4461   4478     1
   4462   4469     1
   4462   4470     1
   4462   4475     1
   4465   4472     1
   4472   4479     1
   4472   4480     1
   4484   4493     1
   4487   4494     1
   4487   4504     1
   4490   4514     1
   4490   4497     1
   4490   4507     1
   4493   4500     1
   4493   4510     1
   4494   4507     1
   4494   4501     1
   4494   4502     1
   4497   4504     1
   4504   4511     1
   4504   4512     1
   4516   4525     1
   4519   4526     1
   4519   4536     1
   4522   4529     1
   4522   4539     1
   4522   4546     1
   4525   4532     1
   4525   4542     1
   4526   4533     1
   4526   4534     1
   4526   4539     1
   4529   4536     1
   4536   4543     1
   4536   4544     1
   4548   4557     1
   4551   4558     1
   4551   4568     1
   4554   4578     1
   4554   4561     1
   4554   4571     1
   4557   4564     1
   4557   4574     1
   4558   4571     1
   4558   4565     1
   4558   4566     1
   4561   4568     1
   4568   4575     1
   4568   4576     1
   4580   4589     1
   4583   4590     1
   4583   4600     1
   4586   4593     1
   4586   4603     1
   4586   4610     1
   4589   4596     1
   4589   4606     1
   4590   4597     1
   4590   4598     1
   4590   4603     1
   4593   4600     1
   4600   4607     1
   4600   4608     1
   4612   4621     1
   4615   4622     1
   4615   4632     1
   4618   4642     1
   4618   4625     1
   4618   4635     1
   4621   4628     1
   4621   4638     1
   4622   4635     1
   4622   4629     1
   4622   4630     1
   4625   4632     1
   4632   4639     1
   4632   4640     1
   4644   4653     1
   4647   4654     1
   4647   4664     1
   4650   4657     1
   4650   4667     1
   4650   4674     1
   4653   4660     1
   4653   4670     1
   4654   4661     1
   4654   4662     1
   4654   4667     1
   4657   4664     1
   4664   4671     1
   4664   4672     1
   4676   4685     1
   4679   4686     1
   4679   4696     1
   4682   4706     1
   4682   4689     1
   4682   4699     1
   4685   4692     1
   4685   4702     1
   4686   4699     1
   4686   4693     1
   4686   4694     1
   4689   4696     1
   4696   4703     1
   4696   4704     1
   4708   4717     1
   4711   4718     1
   4711   4728     1
   4714   4721     1
   4714   4731     1
   4714   4738     1
   4717   4724     1
   4717   4734     1
   4718   4725     1
   4718   4726     1
   4718   4731     1
   4721   4728     1
   4728   4735     1
   4728   4736     1
   4740   4749     1
   4743   4750     1
   4743   4760     1
   4746   4770     1
   4746   4753     1
   4746   4763     1
   4749   4756     1
   4749   4766     1
   4750   4763     1
   4750   4757     1
   4750   4758     1
   4753   4760     1
   4760   4767     1
   4760   4768     1
   4772   4781     1
   4775   4782     1
   4775   4792     1
   4778   4785     1
   4778   4795     1
   4778   4802     1
   4781   4788     1
   4781   4798     1
   4782   4789     1
   4782   4790     1
   4782   4795     1
   4785   4792     1
   4792   4799     1
   4792   4800     1
   4804   4813     1
   4807   4814     1
   4807   4824     1
   4810   4834     1
   4810   4817     1
   4810   4827     1
   4813   4820     1
   4813   4830     1
   4814   4827     1
   4814   4821     1
   4814   4822     1
   4817   4824     1
   4824   4831     1
   4824   4832     1
   4836   4845     1
   4839   4846     1
   4839   4856     1
   4842   4849     1
   4842   4859     1
   4842   4866     1
   4845   4852     1
   4845   4862     1
   4846   4853     1
   4846   4854     1
   4846   4859     1
   4849   4856     1
   4856   4863     1
   4856   4864     1
   4868   4877     1
   4871   4878     1
   4871   4888     1
   4874   4898     1
   4874   4881     1
   4874   4891     1
   4877   4884     1
   4877   4894     1
   4878   4891     1
   4878   4885     1
   4878   4886     1
   4881   4888     1
   4888   4895     1
   4888   4896     1
   4900   4909     1
   4903   4910     1
   4903   4920     1
   4906   4913     1
   4906   4923     1
   4906   4930     1
   4909   4916     1
   4909   4926     1
   4910   4917     1
   4910   4918     1
   4910   4923     1
   4913   4920     1
   4920   4927     1
   4920   4928     1
   4932   4941     1
   4935   4942     1
   4935   4952     1
   4938   4962     1
   4938   4945     1
   4938   4955     1
   4941   4948     1
   4941   4958     1
   4942   4955     1
   4942   4949     1
   4942   4950     1
   4945   4952     1
   4952   4959     1
   4952   4960     1
   4964   4973     1
   4967   4974     1
   4967   4984     1
   4970   4977     1
   4970   4987     1
   4970   4994     1
   4973   4980     1
   4973   4990     1
   4974   4981     1
   4974   4982     1
   4974   4987     1
   4977   4984     1
   4984   4991     1
   4984   4992     1
   4996   5005     1
   4999   5006     1
   4999   5016     1
   5002   5026     1
   5002   5009     1
   5002   5019     1
   5005   5012     1
   5005   5022     1
   5006   5019     1
   5006   5013     1
   5006   5014     1
   5009   5016     1
   5016   5023     1
   5016   5024     1
   5028   5037     1
   5031   5038     1
   5031   5048     1
   5034   5041     1
   5034   5051     1
   5034   5058     1
   5037   5044     1
   5037   5054     1
   5038   5045     1
   5038   5046     1
   5038   5051     1
   5041   5048     1
   5048   5055     1
   5048   5056     1
   5060   5069     1
   5063   5070     1
   5063   5080     1
   5066   5090     1
   5066   5073     1
   5066   5083     1
   5069   5076     1
   5069   5086     1
   5070   5083     1
   5070   5077     1
   5070   5078     1
   5073   5080     1
   5080   5087     1
   5080   5088     1
   5092   5101     1
   5095   5102     1
   5095   5112     1
   5098   5105     1
   5098   5115     1
   5098   5122     1
   5101   5108     1
   5101   5118     1
   5102   5109     1
   5102   5110     1
   5102   5115     1
   5105   5112     1
   5112   5119     1
   5112   5120     1
   5124   5133     1
   5127   5134     1
   5127   5144     1
   5130   5154     1
   5130   5137     1
   5130   5147     1
   5133   5140     1
   5133   5150     1
   5134   5147     1
   5134   5141     1
   5134   5142     1
   5137   5144     1
   5144   5151     1
   5144   5152     1
   5156   5165     1
   5159   5166     1
   5159   5176     1
   5162   5169     1
   5162   5179     1
   5162   5186     1
   5165   5172     1
   5165   5182     1
   5166   5173     1
   5166   5174     1
   5166   5179     1
   5169   5176     1
   5176   5183     1
   5176   5184     1
   5188   5197     1
   5191   5198     1
   5191   5208     1
   5194   5218     1
   5194   5201     1
   5194   5211     1
   5197   5204     1
   5197   5214     1
   5198   5211     1
   5198   5205     1
   5198   5206     1
   5201   5208     1
   5208   5215     1
   5208   5216     1
   5220   5229     1
   5223   5230     1
   5223   5240     1
   5226   5233     1
   5226   5243     1
   5226   5250     1
   5229   5236     1
   5229   5246     1
   5230   5237     1
   5230   5238     1
   5230   5243     1
   5233   5240     1
   5240   5247     1
   5240   5248     1
   5252   5261     1
   5255   5262     1
   5255   5272     1
   5258   5282     1
   5258   5265     1
   5258   5275     1
   5261   5268     1
   5261   5278     1
   5262   5275     1
   5262   5269     1
   5262   5270     1
   5265   5272     1
   5272   5279     1
   5272   5280     1
   5284   5293     1
   5287   5294     1
   5287   5304     1
   5290   5297     1
   5290   5307     1
   5290   5314     1
   5293   5300     1
   5293   5310     1
   5294   5301     1
   5294   5302     1
   5294   5307     1
   5297   5304     1
   5304   5311     1
   5304   5312     1
   5316   5325     1
   5319   5326     1
   5319   5336     1
   5322   5346     1
   5322   5329     1
   5322   5339     1
   5325   5332     1
   5325   5342     1
   5326   5339     1
   5326   5333     1
   5326   5334     1
   5329   5336     1
   5336   5343     1
   5336   5344     1
   5348   5357     1
   5351   5358     1
   5351   5368     1
   5354   5361     1
   5354   5371     1
   5354   5378     1
   5357   5364     1
   5357   5374     1
   5358   5365     1
   5358   5366     1
   5358   5371     1
   5361   5368     1
   5368   5375     1
   5368   5376     1
   5380   5389     1
   5383   5390     1
   5383   5400     1
   5386   5410     1
   5386   5393     1
   5386   5403     1
   5389   5396     1
   5389   5406     1
   5390   5403     1
   5390   5397     1
   5390   5398     1
   5393   5400     1
   5400   5407     1
   5400   5408     1
   5412   5421     1
   5415   5422     1
   5415   5432     1
   5418   5425     1
   5418   5435     1
   5418   5442     1
   5421   5428     1
   5421   5438     1
   5422   5429     1
   5422   5430     1
   5422   5435     1
   5425   5432     1
   5432   5439     1
   5432   5440     1
   5444   5453     1
   5447   5454     1
   5447   5464     1
   5450   5474     1
   5450   5457     1
   5450   5467     1
   5453   5460     1
   5453   5470     1
   5454   5467     1
   5454   5461     1
   5454   5462     1
   5457   5464     1
   5464   5471     1
   5464   5472     1
   5476   5485     1
   5479   5486     1
   5479   5496     1
   5482   5489     1
   5482   5499     1
   5482   5506     1
   5485   5492     1
   5485   5502     1
   5486   5493     1
   5486   5494     1
   5486   5499     1
   5489   5496     1
   5496   5503     1
   5496   5504     1
   5508   5517     1
   5511   5518     1
   5511   5528     1
   5514   5538     1
   5514   5521     1
   5514   5531     1
   5517   5524     1
   5517   5534     1
   5518   5531     1
   5518   5525     1
   5518   5526     1
   5521   5528     1
   5528   5535     1
   5528   5536     1
   5540   5549     1
   5543   5550     1
   5543   5560     1
   5546   5553     1
   5546   5563     1
   5546   5570     1
   5549   5556     1
   5549   5566     1
   5550   5557     1
   5550   5558     1
   5550   5563     1
   5553   5560     1
   5560   5567     1
   5560   5568     1
   5572   5581     1
   5575   5582     1
   5575   5592     1
   5578   5602     1
   5578   5585     1
   5578   5595     1
   5581   5588     1
   5581   5598     1
   5582   5595     1
   5582   5589     1
   5582   5590     1
   5585   5592     1
   5592   5599     1
   5592   5600     1
   5604   5613     1
   5607   5614     1
   5607   5624     1
   5610   5617     1
   5610   5627     1
   5610   5634     1
   5613   5620     1
   5613   5630     1
   5614   5621     1
   5614   5622     1
   5614   5627     1
   5617   5624     1
   5624   5631     1
   5624   5632     1
   5636   5645     1
   5639   5646     1
   5639   5656     1
   5642   5666     1
   5642   5649     1
   5642   5659     1
   5645   5652     1
   5645   5662     1
   5646   5659     1
   5646   5653     1
   5646   5654     1
   5649   5656     1
   5656   5663     1
   5656   5664     1
   5668   5677     1
   5671   5678     1
   5671   5688     1
   5674   5681     1
   5674   5691     1
   5674   5698     1
   5677   5684     1
   5677   5694     1
   5678   5685     1
   5678   5686     1
   5678   5691     1
   5681   5688     1
   5688   5695     1
   5688   5696     1
   5700   5709     1
   5703   5710     1
   5703   5720     1
   5706   5730     1
   5706   5713     1
   5706   5723     1
   5709   5716     1
   5709   5726     1
   5710   5723     1
   5710   5717     1
   5710   5718     1
   5713   5720     1
   5720   5727     1
   5720   5728     1
   5732   5741     1
   5735   5742     1
   5735   5752     1
   5738   5745     1
   5738   5755     1
   5738   5762     1
   5741   5748     1
   5741   5758     1
   5742   5749     1
   5742   5750     1
   5742   5755     1
   5745   5752     1
   5752   5759     1
   5752   5760     1
   5764   5773     1
   5767   5774     1
   5767   5784     1
   5770   5794     1
   5770   5777     1
   5770   5787     1
   5773   5780     1
   5773   5790     1
   5774   5787     1
   5774   5781     1
   5774   5782     1
   5777   5784     1
   5784   5791     1
   5784   5792     1
   5796   5805     1
   5799   5806     1
   5799   5816     1
   5802   5809     1
   5802   5819     1
   5802   5826     1
   5805   5812     1
   5805   5822     1
   5806   5813     1
   5806   5814     1
   5806   5819     1
   5809   5816     1
   5816   5823     1
   5816   5824     1
   5828   5837     1
   5831   5838     1
   5831   5848     1
   5834   5858     1
   5834   5841     1
   5834   5851     1
   5837   5844     1
   5837   5854     1
   5838   5851     1
   5838   5845     1
   5838   5846     1
   5841   5848     1
   5848   5855     1
   5848   5856     1
   5860   5869     1
   5863   5870     1
   5863   5880     1
   5866   5873     1
   5866   5883     1
   5866   5890     1
   5869   5876     1
   5869   5886     1
   5870   5877     1
   5870   5878     1
   5870   5883     1
   5873   5880     1
   5880   5887     1
   5880   5888     1
      1     15     1
      1     16     1
      1     18     1
      1     19     1
      1     12     1
      1     13     1
      2      6     1
      2      7     1
      2      9     1
      2     10     1
      2     27     1
      2     28     1
      5      3     1
      8      3     1
     29      3     1
      3     26     1
      3     15     1
      3     16     1
      5      4     1
      8      4     1
     29      4     1
      4     26     1
      4     15     1
      4     16     1
      5      9     1
      5     10     1
      5     21     1
      5     22     1
      8      6     1
     29      6     1
      6     20     1
      6     18     1
      6     19     1
      8      7     1
     29      7     1
      7     20     1
      7     18     1
      7     19     1
      8     24     1
      8     25     1
     29      9     1
      9     23     1
      9     12     1
      9     13     1
     29     10     1
     10     23     1
     10     12     1
     10     13     1
     29     11     1
     12     88     1
     12     24     1
     12     25     1
     13     88     1
     13     24     1
     13     25     1
     29     14     1
     15    118     1
     15     27     1
     15     28     1
     16    118     1
     16     27     1
     16     28     1
     29     17     1
     18     58     1
     18     21     1
     18     22     1
     19     58     1
     19     21     1
     19     22     1
     20     50     1
     20     51     1
     21     49     1
     22     49     1
     23     80     1
     23     81     1
     24     79     1
     25     79     1
     26    110     1
     26    111     1
     27    109     1
     28    109     1
     30     44     1
     30     45     1
     30     47     1
     30     48     1
     30     41     1
     30     42     1
     31     35     1
     31     36     1
     31     38     1
     31     39     1
     31     56     1
     31     57     1
     32     34     1
     32     37     1
     32     59     1
     32     55     1
     32     44     1
     32     45     1
     33     34     1
     33     37     1
     33     59     1
     33     55     1
     33     44     1
     33     45     1
     34     38     1
     34     39     1
     34     53     1
     34     54     1
     35     37     1
     35     59     1
     35     52     1
     35     47     1
     35     48     1
     36     37     1
     36     59     1
     36     52     1
     36     47     1
     36     48     1
     37     50     1
     37     51     1
     38     59     1
     38     49     1
     38     41     1
     38     42     1
     39     59     1
     39     49     1
     39     41     1
     39     42     1
     40     59     1
     41     58     1
     41     50     1
     41     51     1
     42     58     1
     42     50     1
     42     51     1
     43     59     1
     44    178     1
     44     56     1
     44     57     1
     45    178     1
     45     56     1
     45     57     1
     46     59     1
     47    148     1
     47     53     1
     47     54     1
     48    148     1
     48     53     1
     48     54     1
     52    140     1
     52    141     1
     53    139     1
     54    139     1
     55    170     1
     55    171     1
     56    169     1
     57    169     1
     60     74     1
     60     75     1
     60     77     1
     60     78     1
     60     71     1
     60     72     1
     61     65     1
     61     66     1
     61     68     1
     61     69     1
     61     86     1
     61     87     1
     62     64     1
     62     67     1
     62     89     1
     62     85     1
     62     74     1
     62     75     1
     63     64     1
     63     67     1
     63     89     1
     63     85     1
     63     74     1
     63     75     1
     64     68     1
     64     69     1
     64     83     1
     64     84     1
     65     67     1
     65     89     1
     65     82     1
     65     77     1
     65     78     1
     66     67     1
     66     89     1
     66     82     1
     66     77     1
     66     78     1
     67     80     1
     67     81     1
     68     89     1
     68     79     1
     68     71     1
     68     72     1
     69     89     1
     69     79     1
     69     71     1
     69     72     1
     70     89     1
     71     88     1
     71     80     1
     71     81     1
     72     88     1
     72     80     1
     72     81     1
     73     89     1
     74    238     1
     74     86     1
     74     87     1
     75    238     1
     75     86     1
     75     87     1
     76     89     1
     77    208     1
     77     83     1
     77     84     1
     78    208     1
     78     83     1
     78     84     1
     82    200     1
     82    201     1
     83    199     1
     84    199     1
     85    230     1
     85    231     1
     86    229     1
     87    229     1
     90    104     1
     90    105     1
     90    107     1
     90    108     1
     90    101     1
     90    102     1
     91     95     1
     91     96     1
     91     98     1
     91     99     1
     91    116     1
     91    117     1
     92     94     1
     92     97     1
     92    119     1
     92    115     1
     92    104     1
     92    105     1
     93     94     1
     93     97     1
     93    119     1
     93    115     1
     93    104     1
     93    105     1
     94     98     1
     94     99     1
     94    113     1
     94    114     1
     95     97     1
     95    119     1
     95    112     1
     95    107     1
     95    108     1
     96     97     1
     96    119     1
     96    112     1
     96    107     1
     96    108     1
     97    110     1
     97    111     1
     98    119     1
     98    109     1
     98    101     1
     98    102     1
     99    119     1
     99    109     1
     99    101     1
     99    102     1
    100    119     1
    101    118     1
    101    110     1
    101    111     1
    102    118     1
    102    110     1
    102    111     1
    103    119     1
    104    298     1
    104    116     1
    104    117     1
    105    298     1
    105    116     1
    105    117     1
    106    119     1
    107    268     1
    107    113     1
    107    114     1
    108    268     1
    108    113     1
    108    114     1
    112    260     1
    112    261     1
    113    259     1
    114    259     1
    115    290     1
    115    291     1
    116    289     1
    117    289     1
    120    134     1
    120    135     1
    120    137     1
    120    138     1
    120    131     1
    120    132     1
    121    125     1
    121    126     1
    121    128     1
    121    129     1
    121    146     1
    121    147     1
    122    124     1
    122    127     1
    122    149     1
    122    145     1
    122    134     1
    122    135     1
    123    124     1
    123    127     1
    123    149     1
    123    145     1
    123    134     1
    123    135     1
    124    128     1
    124    129     1
    124    143     1
    124    144     1
    125    127     1
    125    149     1
    125    142     1
    125    137     1
    125    138     1
    126    127     1
    126    149     1
    126    142     1
    126    137     1
    126    138     1
    127    140     1
    127    141     1
    128    149     1
    128    139     1
    128    131     1
    128    132     1
    129    149     1
    129    139     1
    129    131     1
    129    132     1
    130    149     1
    131    148     1
    131    140     1
    131    141     1
    132    148     1
    132    140     1
    132    141     1
    133    149     1
    134    358     1
    134    146     1
    134    147     1
    135    358     1
    135    146     1
    135    147     1
    136    149     1
    137    328     1
    137    143     1
    137    144     1
    138    328     1
    138    143     1
    138    144     1
    142    320     1
    142    321     1
    143    319     1
    144    319     1
    145    350     1
    145    351     1
    146    349     1
    147    349     1
    150    164     1
    150    165     1
    150    167     1
    150    168     1
    150    161     1
    150    162     1
    151    155     1
    151    156     1
    151    158     1
    151    159     1
    151    176     1
    151    177     1
    152    154     1
    152    157     1
    152    179     1
    152    175     1
    152    164     1
    152    165     1
    153    154     1
    153    157     1
    153    179     1
    153    175     1
    153    164     1
    153    165     1
    154    158     1
    154    159     1
    154    173     1
    154    174     1
    155    157     1
    155    179     1
    155    172     1
    155    167     1
    155    168     1
    156    157     1
    156    179     1
    156    172     1
    156    167     1
    156    168     1
    157    170     1
    157    171     1
    158    179     1
    158    169     1
    158    161     1
    158    162     1
    159    179     1
    159    169     1
    159    161     1
    159    162     1
    160    179     1
    161    178     1
    161    170     1
    161    171     1
    162    178     1
    162    170     1
    162    171     1
    163    179     1
    164    418     1
    164    176     1
    164    177     1
    165    418     1
    165    176     1
    165    177     1
    166    179     1
    167    388     1
    167    173     1
    167    174     1
    168    388     1
    168    173     1
    168    174     1
    172    380     1
    172    381     1
    173    379     1
    174    379     1
    175    410     1
    175    411     1
    176    409     1
    177    409     1
    180    194     1
    180    195     1
    180    197     1
    180    198     1
    180    191     1
    180    192     1
    181    185     1
    181    186     1
    181    188     1
    181    189     1
    181    206     1
    181    207     1
    182    184     1
    182    187     1
    182    209     1
    182    205     1
    182    194     1
    182    195     1
    183    184     1
    183    187     1
    183    209     1
    183    205     1
    183    194     1
    183    195     1
    184    188     1
    184    189     1
    184    203     1
    184    204     1
    185    187     1
    185    209     1
    185    202     1
    185    197     1
    185    198     1
    186    187     1
    186    209     1
    186    202     1
    186    197     1
    186    198     1
    187    200     1
    187    201     1
    188    209     1
    188    199     1
    188    191     1
    188    192     1
    189    209     1
    189    199     1
    189    191     1
    189    192     1
    190    209     1
    191    208     1
    191    200     1
    191    201     1
    192    208     1
    192    200     1
    192    201     1
    193    209     1
    194    478     1
    194    206     1
    194    207     1
    195    478     1
    195    206     1
    195    207     1
    196    209     1
    197    448     1
    197    203     1
    197    204     1
    198    448     1
    198    203     1
    198    204     1
    202    440     1
    202    441     1
    203    439     1
    204    439     1
    205    470     1
    205    471     1
    206    469     1
    207    469     1
    210    224     1
    210    225     1
    210    227     1
    210    228     1
    210    221     1
    210    222     1
    211    215     1
    211    216     1
    211    218     1
    211    219     1
    211    236     1
    211    237     1
    212    214     1
    212    217     1
    212    239     1
    212    235     1
    212    224     1
    212    225     1
    213    214     1
    213    217     1
    213    239     1
    213    235     1
    213    224     1
    213    225     1
    214    218     1
    214    219     1
    214    233     1
    214    234     1
    215    217     1
    215    239     1
    215    232     1
    215    227     1
    215    228     1
    216    217     1
    216    239     1
    216    232     1
    216    227     1
    216    228     1
    217    230     1
    217    231     1
    218    239     1
    218    229     1
    218    221     1
    218    222     1
    219    239     1
    219    229     1
    219    221     1
    219    222     1
    220    239     1
    221    238     1
    221    230     1
    221    231     1
    222    238     1
    222    230     1
    222    231     1
    223    239     1
    224    538     1
    224    236     1
    224    237     1
    225    538     1
    225    236     1
    225    237     1
    226    239     1
    227    508     1
    227    233     1
    227    234     1
    228    508     1
    228    233     1
    228    234     1
    232    500     1
    232    501     1
    233    499     1
    234    499     1
    235    530     1
    235    531     1
    236    529     1
    237    529     1
    240    254     1
    240    255     1
    240    257     1
    240    258     1
    240    251     1
    240    252     1
    241    245     1
    241    246     1
    241    248     1
    241    249     1
    241    266     1
    241    267     1
    242    244     1
    242    247     1
    242    269     1
    242    265     1
    242    254     1
    242    255     1
    243    244     1
    243    247     1
    243    269     1
    243    265     1
    243    254     1
    243    255     1
    244    248     1
    244    249     1
    244    263     1
    244    264     1
    245    247     1
    245    269     1
    245    262     1
    245    257     1
    245    258     1
    246    247     1
    246    269     1
    246    262     1
    246    257     1
    246    258     1
    247    260     1
    247    261     1
    248    269     1
    248    259     1
    248    251     1
    248    252     1
    249    269     1
    249    259     1
    249    251     1
    249    252     1
    250    269     1
    251    268     1
    251    260     1
    251    261     1
    252    268     1
    252    260     1
    252    261     1
    253    269     1
    254    598     1
    254    266     1
    254    267     1
    255    598     1
    255    266     1
    255    267     1
    256    269     1
    257    568     1
    257    263     1
    257    264     1
    258    568     1
    258    263     1
    258    264     1
    262    560     1
    262    561     1
    263    559     1
    264    559     1
    265    590     1
    265    591     1
    266    589     1
    267    589     1
    270    284     1
    270    285     1
    270    287     1
    270    288     1
    270    281     1
    270    282     1
    271    275     1
    271    276     1
    271    278     1
    271    279     1
    271    296     1
    271    297     1
    272    274     1
    272    277     1
    272    299     1
    272    295     1
    272    284     1
    272    285     1
    273    274     1
    273    277     1
    273    299     1
    273    295     1
    273    284     1
    273    285     1
    274    278     1
    274    279     1
    274    293     1
    274    294     1
    275    277     1
    275    299     1
    275    292     1
    275    287     1
    275    288     1
    276    277     1
    276    299     1
    276    292     1
    276    287     1
    276    288     1
    277    290     1
    277    291     1
    278    299     1
    278    289     1
    278    281     1
    278    282     1
    279    299     1
    279    289     1
    279    281     1
    279    282     1
    280    299     1
    281    298     1
    281    290     1
    281    291     1
    282    298     1
    282    290     1
    282    291     1
    283    299     1
    284    658     1
    284    296     1
    284    297     1
    285    658     1
    285    296     1
    285    297     1
    286    299     1
    287    628     1
    287    293     1
    287    294     1
    288    628     1
    288    293     1
    288    294     1
    292    620     1
    292    621     1
    293    619     1
    294    619     1
    295    650     1
    295    651     1
    296    649     1
    297    649     1
    300    314     1
    300    315     1
    300    317     1
    300    318     1
    300    311     1
    300    312     1
    301    305     1
    301    306     1
    301    308     1
    301    309     1
    301    326     1
    301    327     1
    302    304     1
    302    307     1
    302    329     1
    302    325     1
    302    314     1
    302    315     1
    303    304     1
    303    307     1
    303    329     1
    303    325     1
    303    314     1
    303    315     1
    304    308     1
    304    309     1
    304    323     1
    304    324     1
    305    307     1
    305    329     1
    305    322     1
    305    317     1
    305    318     1
    306    307     1
    306    329     1
    306    322     1
    306    317     1
    306    318     1
    307    320     1
    307    321     1
    308    329     1
    308    319     1
    308    311     1
    308    312     1
    309    329     1
    309    319     1
    309    311     1
    309    312     1
    310    329     1
    311    328     1
    311    320     1
    311    321     1
    312    328     1
    312    320     1
    312    321     1
    313    329     1
    314    718     1
    314    326     1
    314    327     1
    315    718     1
    315    326     1
    315    327     1
    316    329     1
    317    688     1
    317    323     1
    317    324     1
    318    688     1
    318    323     1
    318    324     1
    322    680     1
    322    681     1
    323    679     1
    324    679     1
    325    710     1
    325    711     1
    326    709     1
    327    709     1
    330    344     1
    330    345     1
    330    347     1
    330    348     1
    330    341     1
    330    342     1
    331    335     1
    331    336     1
    331    338     1
    331    339     1
    331    356     1
    331    357     1
    332    334     1
    332    337     1
    332    359     1
    332    355     1
    332    344     1
    332    345     1
    333    334     1
    333    337     1
    333    359     1
    333    355     1
    333    344     1
    333    345     1
    334    338     1
    334    339     1
    334    353     1
    334    354     1
    335    337     1
    335    359     1
    335    352     1
    335    347     1
    335    348     1
    336    337     1
    336    359     1
    336    352     1
    336    347     1
    336    348     1
    337    350     1
    337    351     1
    338    359     1
    338    349     1
    338    341     1
    338    342     1
    339    359     1
    339    349     1
    339    341     1
    339    342     1
    340    359     1
    341    358     1
    341    350     1
    341    351     1
    342    358     1
    342    350     1
    342    351     1
    343    359     1
    344    778     1
    344    356     1
    344    357     1
    345    778     1
    345    356     1
    345    357     1
    346    359     1
    347    748     1
    347    353     1
    347    354     1
    348    748     1
    348    353     1
    348    354     1
    352    740     1
    352    741     1
    353    739     1
    354    739     1
    355    770     1
    355    771     1
    356    769     1
    357    769     1
    360    374     1
    360    375     1
    360    377     1
    360    378     1
    360    371     1
    360    372     1
    361    365     1
    361    366     1
    361    368     1
    361    369     1
    361    386     1
    361    387     1
    362    364     1
    362    367     1
    362    389     1
    362    385     1
    362    374     1
    362    375     1
    363    364     1
    363    367     1
    363    389     1
    363    385     1
    363    374     1
    363    375     1
    364    368     1
    364    369     1
    364    383     1
    364    384     1
    365    367     1
    365    389     1
    365    382     1
    365    377     1
    365    378     1
    366    367     1
    366    389     1
    366    382     1
    366    377     1
    366    378     1
    367    380     1
    367    381     1
    368    389     1
    368    379     1
    368    371     1
    368    372     1
    369    389     1
    369    379     1
    369    371     1
    369    372     1
    370    389     1
    371    388     1
    371    380     1
    371    381     1
    372    388     1
    372    380     1
    372    381     1
    373    389     1
    374    838     1
    374    386     1
    374    387     1
    375    838     1
    375    386     1
    375    387     1
    376    389     1
    377    808     1
    377    383     1
    377    384     1
    378    808     1
    378    383     1
    378    384     1
    382    800     1
    382    801     1
    383    799     1
    384    799     1
    385    830     1
    385    831     1
    386    829     1
    387    829     1
    390    404     1
    390    405     1
    390    407     1
    390    408     1
    390    401     1
    390    402     1
    391    395     1
    391    396     1
    391    398     1
    391    399     1
    391    416     1
    391    417     1
    392    394     1
    392    397     1
    392    419     1
    392    415     1
    392    404     1
    392    405     1
    393    394     1
    393    397     1
    393    419     1
    393    415     1
    393    404     1
    393    405     1
    394    398     1
    394    399     1
    394    413     1
    394    414     1
    395    397     1
    395    419     1
    395    412     1
    395    407     1
    395    408     1
    396    397     1
    396    419     1
    396    412     1
    396    407     1
    396    408     1
    397    410     1
    397    411     1
    398    419     1
    398    409     1
    398    401     1
    398    402     1
    399    419     1
    399    409     1
    399    401     1
    399    402     1
    400    419     1
    401    418     1
    401    410     1
    401    411     1
    402    418     1
    402    410     1
    402    411     1
    403    419     1
    404    898     1
    404    416     1
    404    417     1
    405    898     1
    405    416     1
    405    417     1
    406    419     1
    407    868     1
    407    413     1
    407    414     1
    408    868     1
    408    413     1
    408    414     1
    412    860     1
    412    861     1
    413    859     1
    414    859     1
    415    890     1
    415    891     1
    416    889     1
    417    889     1
    420    434     1
    420    435     1
    420    437     1
    420    438     1
    420    431     1
    420    432     1
    421    425     1
    421    426     1
    421    428     1
    421    429     1
    421    446     1
    421    447     1
    422    424     1
    422    427     1
    422    449     1
    422    445     1
    422    434     1
    422    435     1
    423    424     1
    423    427     1
    423    449     1
    423    445     1
    423    434     1
    423    435     1
    424    428     1
    424    429     1
    424    443     1
    424    444     1
    425    427     1
    425    449     1
    425    442     1
    425    437     1
    425    438     1
    426    427     1
    426    449     1
    426    442     1
    426    437     1
    426    438     1
    427    440     1
    427    441     1
    428    449     1
    428    439     1
    428    431     1
    428    432     1
    429    449     1
    429    439     1
    429    431     1
    429    432     1
    430    449     1
    431    448     1
    431    440     1
    431    441     1
    432    448     1
    432    440     1
    432    441     1
    433    449     1
    434    958     1
    434    446     1
    434    447     1
    435    958     1
    435    446     1
    435    447     1
    436    449     1
    437    928     1
    437    443     1
    437    444     1
    438    928     1
    438    443     1
    438    444     1
    442    920     1
    442    921     1
    443    919     1
    444    919     1
    445    950     1
    445    951     1
    446    949     1
    447    949     1
    450    464     1
    450    465     1
    450    467     1
    450    468     1
    450    461     1
    450    462     1
    451    455     1
    451    456     1
    451    458     1
    451    459     1
    451    476     1
    451    477     1
    452    454     1
    452    457     1
    452    479     1
    452    475     1
    452    464     1
    452    465     1
    453    454     1
    453    457     1
    453    479     1
    453    475     1
    453    464     1
    453    465     1
    454    458     1
    454    459     1
    454    473     1
    454    474     1
    455    457     1
    455    479     1
    455    472     1
    455    467     1
    455    468     1
    456    457     1
    456    479     1
    456    472     1
    456    467     1
    456    468     1
    457    470     1
    457    471     1
    458    479     1
    458    469     1
    458    461     1
    458    462     1
    459    479     1
    459    469     1
    459    461     1
    459    462     1
    460    479     1
    461    478     1
    461    470     1
    461    471     1
    462    478     1
    462    470     1
    462    471     1
    463    479     1
    464   1018     1
    464    476     1
    464    477     1
    465   1018     1
    465    476     1
    465    477     1
    466    479     1
    467    988     1
    467    473     1
    467    474     1
    468    988     1
    468    473     1
    468    474     1
    472    980     1
    472    981     1
    473    979     1
    474    979     1
    475   1010     1
    475   1011     1
    476   1009     1
    477   1009     1
    480    494     1
    480    495     1
    480    497     1
    480    498     1
    480    491     1
    480    492     1
    481    485     1
    481    486     1
    481    488     1
    481    489     1
    481    506     1
    481    507     1
    482    484     1
    482    487     1
    482    509     1
    482    505     1
    482    494     1
    482    495     1
    483    484     1
    483    487     1
    483    509     1
    483    505     1
    483    494     1
    483    495     1
    484    488     1
    484    489     1
    484    503     1
    484    504     1
    485    487     1
    485    509     1
    485    502     1
    485    497     1
    485    498     1
    486    487     1
    486    509     1
    486    502     1
    486    497     1
    486    498     1
    487    500     1
    487    501     1
    488    509     1
    488    499     1
    488    491     1
    488    492     1
    489    509     1
    489    499     1
    489    491     1
    489    492     1
    490    509     1
    491    508     1
    491    500     1
    491    501     1
    492    508     1
    492    500     1
    492    501     1
    493    509     1
    494   1078     1
    494    506     1
    494    507     1
    495   1078     1
    495    506     1
    495    507     1
    496    509     1
    497   1048     1
    497    503     1
    497    504     1
    498   1048     1
    498    503     1
    498    504     1
    502   1040     1
    502   1041     1
    503   1039     1
    504   1039     1
    505   1070     1
    505   1071     1
    506   1069     1
    507   1069     1
    510    524     1
    510    525     1
    510    527     1
    510    528     1
    510    521     1
    510    522     1
    511    515     1
    511    516     1
    511    518     1
    511    519     1
    511    536     1
    511    537     1
    512    514     1
    512    517     1
    512    539     1
    512    535     1
    512    524     1
    512    525     1
    513    514     1
    513    517     1
    513    539     1
    513    535     1
    513    524     1
    513    525     1
    514    518     1
    514    519     1
    514    533     1
    514    534     1
    515    517     1
    515    539     1
    515    532     1
    515    527     1
    515    528     1
    516    517     1
    516    539     1
    516    532     1
    516    527     1
    516    528     1
    517    530     1
    517    531     1
    518    539     1
    518    529     1
    518    521     1
    518    522     1
    519    539     1
    519    529     1
    519    521     1
    519    522     1
    520    539     1
    521    538     1
    521    530     1
    521    531     1
    522    538     1
    522    530     1
    522    531     1
    523    539     1
    524   1138     1
    524    536     1
    524    537     1
    525   1138     1
    525    536     1
    525    537     1
    526    539     1
    527   1108     1
    527    533     1
    527    534     1
    528   1108     1
    528    533     1
    528    534     1
    532   1100     1
    532   1101     1
    533   1099     1
    534   1099     1
    535   1130     1
    535   1131     1
    536   1129     1
    537   1129     1
    540    554     1
    540    555     1
    540    557     1
    540    558     1
    540    551     1
    540    552     1
    541    545     1
    541    546     1
    541    548     1
    541    549     1
    541    566     1
    541    567     1
    542    544     1
    542    547     1
    542    569     1
    542    565     1
    542    554     1
    542    555     1
    543    544     1
    543    547     1
    543    569     1
    543    565     1
    543    554     1
    543    555     1
    544    548     1
    544    549     1
    544    563     1
    544    564     1
    545    547     1
    545    569     1
    545    562     1
    545    557     1
    545    558     1
    546    547     1
    546    569     1
    546    562     1
    546    557     1
    546    558     1
    547    560     1
    547    561     1
    548    569     1
    548    559     1
    548    551     1
    548    552     1
    549    569     1
    549    559     1
    549    551     1
    549    552     1
    550    569     1
    551    568     1
    551    560     1
    551    561     1
    552    568     1
    552    560     1
    552    561     1
    553    569     1
    554   1198     1
    554    566     1
    554    567     1
    555   1198     1
    555    566     1
    555    567     1
    556    569     1
    557   1168     1
    557    563     1
    557    564     1
    558   1168     1
    558    563     1
    558    564     1
    562   1160     1
    562   1161     1
    563   1159     1
    564   1159     1
    565   1190     1
    565   1191     1
    566   1189     1
    567   1189     1
    570    584     1
    570    585     1
    570    587     1
    570    588     1
    570    581     1
    570    582     1
    571    575     1
    571    576     1
    571    578     1
    571    579     1
    571    596     1
    571    597     1
    572    574     1
    572    577     1
    572    599     1
    572    595     1
    572    584     1
    572    585     1
    573    574     1
    573    577     1
    573    599     1
    573    595     1
    573    584     1
    573    585     1
    574    578     1
    574    579     1
    574    593     1
    574    594     1
    575    577     1
    575    599     1
    575    592     1
    575    587     1
    575    588     1
    576    577     1
    576    599     1
    576    592     1
    576    587     1
    576    588     1
    577    590     1
    577    591     1
    578    599     1
    578    589     1
    578    581     1
    578    582     1
    579    599     1
    579    589     1
    579    581     1
    579    582     1
    580    599     1
    581    598     1
    581    590     1
    581    591     1
    582    598     1
    582    590     1
    582    591     1
    583    599     1
    584   1258     1
    584    596     1
    584    597     1
    585   1258     1
    585    596     1
    585    597     1
    586    599     1
    587   1228     1
    587    593     1
    587    594     1
    588   1228     1
    588    593     1
    588    594     1
    592   1220     1
    592   1221     1
    593   1219     1
    594   1219     1
    595   1250     1
    595   1251     1
    596   1249     1
    597   1249     1
    600    614     1
    600    615     1
    600    617     1
    600    618     1
    600    611     1
    600    612     1
    601    605     1
    601    606     1
    601    608     1
    601    609     1
    601    626     1
    601    627     1
    602    604     1
    602    607     1
    602    629     1
    602    625     1
    602    614     1
    602    615     1
    603    604     1
    603    607     1
    603    629     1
    603    625     1
    603    614     1
    603    615     1
    604    608     1
    604    609     1
    604    623     1
    604    624     1
    605    607     1
    605    629     1
    605    622     1
    605    617     1
    605    618     1
    606    607     1
    606    629     1
    606    622     1
    606    617     1
    606    618     1
    607    620     1
    607    621     1
    608    629     1
    608    619     1
    608    611     1
    608    612     1
    609    629     1
    609    619     1
    609    611     1
    609    612     1
    610    629     1
    611    628     1
    611    620     1
    611    621     1
    612    628     1
    612    620     1
    612    621     1
    613    629     1
    614   1318     1
    614    626     1
    614    627     1
    615   1318     1
    615    626     1
    615    627     1
    616    629     1
    617   1288     1
    617    623     1
    617    624     1
    618   1288     1
    618    623     1
    618    624     1
    622   1280     1
    622   1281     1
    623   1279     1
    624   1279     1
    625   1310     1
    625   1311     1
    626   1309     1
    627   1309     1
    630    644     1
    630    645     1
    630    647     1
    630    648     1
    630    641     1
    630    642     1
    631    635     1
    631    636     1
    631    638     1
    631    639     1
    631    656     1
    631    657     1
    632    634     1
    632    637     1
    632    659     1
    632    655     1
    632    644     1
    632    645     1
    633    634     1
    633    637     1
    633    659     1
    633    655     1
    633    644     1
    633    645     1
    634    638     1
    634    639     1
    634    653     1
    634    654     1
    635    637     1
    635    659     1
    635    652     1
    635    647     1
    635    648     1
    636    637     1
    636    659     1
    636    652     1
    636    647     1
    636    648     1
    637    650     1
    637    651     1
    638    659     1
    638    649     1
    638    641     1
    638    642     1
    639    659     1
    639    649     1
    639    641     1
    639    642     1
    640    659     1
    641    658     1
    641    650     1
    641    651     1
    642    658     1
    642    650     1
    642    651     1
    643    659     1
    644   1378     1
    644    656     1
    644    657     1
    645   1378     1
    645    656     1
    645    657     1
    646    659     1
    647   1348     1
    647    653     1
    647    654     1
    648   1348     1
    648    653     1
    648    654     1
    652   1340     1
    652   1341     1
    653   1339     1
    654   1339     1
    655   1370     1
    655   1371     1
    656   1369     1
    657   1369     1
    660    674     1
    660    675     1
    660    677     1
    660    678     1
    660    671     1
    660    672     1
    661    665     1
    661    666     1
    661    668     1
    661    669     1
    661    686     1
    661    687     1
    662    664     1
    662    667     1
    662    689     1
    662    685     1
    662    674     1
    662    675     1
    663    664     1
    663    667     1
    663    689     1
    663    685     1
    663    674     1
    663    675     1
    664    668     1
    664    669     1
    664    683     1
    664    684     1
    665    667     1
    665    689     1
    665    682     1
    665    677     1
    665    678     1
    666    667     1
    666    689     1
    666    682     1
    666    677     1
    666    678     1
    667    680     1
    667    681     1
    668    689     1
    668    679     1
    668    671     1
    668    672     1
    669    689     1
    669    679     1
    669    671     1
    669    672     1
    670    689     1
    671    688     1
    671    680     1
    671    681     1
    672    688     1
    672    680     1
    672    681     1
    673    689     1
    674   1438     1
    674    686     1
    674    687     1
    675   1438     1
    675    686     1
    675    687     1
    676    689     1
    677   1408     1
    677    683     1
    677    684     1
    678   1408     1
    678    683     1
    678    684     1
    682   1400     1
    682   1401     1
    683   1399     1
    684   1399     1
    685   1430     1
    685   1431     1
    686   1429     1
    687   1429     1
    690    704     1
    690    705     1
    690    707     1
    690    708     1
    690    701     1
    690    702     1
    691    695     1
    691    696     1
    691    698     1
    691    699     1
    691    716     1
    691    717     1
    692    694     1
    692    697     1
    692    719     1
    692    715     1
    692    704     1
    692    705     1
    693    694     1
    693    697     1
    693    719     1
    693    715     1
    693    704     1
    693    705     1
    694    698     1
    694    699     1
    694    713     1
    694    714     1
    695    697     1
    695    719     1
    695    712     1
    695    707     1
    695    708     1
    696    697     1
    696    719     1
    696    712     1
    696    707     1
    696    708     1
    697    710     1
    697    711     1
    698    719     1
    698    709     1
    698    701     1
    698    702     1
    699    719     1
    699    709     1
    699    701     1
    699    702     1
    700    719     1
    701    718     1
    701    710     1
    701    711     1
    702    718     1
    702    710     1
    702    711     1
    703    719     1
    704   1498     1
    704    716     1
    704    717     1
    705   1498     1
    705    716     1
    705    717     1
    706    719     1
    707   1468     1
    707    713     1
    707    714     1
    708   1468     1
    708    713     1
    708    714     1
    712   1460     1
    712   1461     1
    713   1459     1
    714   1459     1
    715   1490     1
    715   1491     1
    716   1489     1
    717   1489     1
    720    734     1
    720    735     1
    720    737     1
    720    738     1
    720    731     1
    720    732     1
    721    725     1
    721    726     1
    721    728     1
    721    729     1
    721    746     1
    721    747     1
    722    724     1
    722    727     1
    722    749     1
    722    745     1
    722    734     1
    722    735     1
    723    724     1
    723    727     1
    723    749     1
    723    745     1
    723    734     1
    723    735     1
    724    728     1
    724    729     1
    724    743     1
    724    744     1
    725    727     1
    725    749     1
    725    742     1
    725    737     1
    725    738     1
    726    727     1
    726    749     1
    726    742     1
    726    737     1
    726    738     1
    727    740     1
    727    741     1
    728    749     1
    728    739     1
    728    731     1
    728    732     1
    729    749     1
    729    739     1
    729    731     1
    729    732     1
    730    749     1
    731    748     1
    731    740     1
    731    741     1
    732    748     1
    732    740     1
    732    741     1
    733    749     1
    734   1558     1
    734    746     1
    734    747     1
    735   1558     1
    735    746     1
    735    747     1
    736    749     1
    737   1528     1
    737    743     1
    737    744     1
    738   1528     1
    738    743     1
    738    744     1
    742   1520     1
    742   1521     1
    743   1519     1
    744   1519     1
    745   1550     1
    745   1551     1
    746   1549     1
    747   1549     1
    750    764     1
    750    765     1
    750    767     1
    750    768     1
    750    761     1
    750    762     1
    751    755     1
    751    756     1
    751    758     1
    751    759     1
    751    776     1
    751    777     1
    752    754     1
    752    757     1
    752    779     1
    752    775     1
    752    764     1
    752    765     1
    753    754     1
    753    757     1
    753    779     1
    753    775     1
    753    764     1
    753    765     1
    754    758     1
    754    759     1
    754    773     1
    754    774     1
    755    757     1
    755    779     1
    755    772     1
    755    767     1
    755    768     1
    756    757     1
    756    779     1
    756    772     1
    756    767     1
    756    768     1
    757    770     1
    757    771     1
    758    779     1
    758    769     1
    758    761     1
    758    762     1
    759    779     1
    759    769     1
    759    761     1
    759    762     1
    760    779     1
    761    778     1
    761    770     1
    761    771     1
    762    778     1
    762    770     1
    762    771     1
    763    779     1
    764   1618     1
    764    776     1
    764    777     1
    765   1618     1
    765    776     1
    765    777     1
    766    779     1
    767   1588     1
    767    773     1
    767    774     1
    768   1588     1
    768    773     1
    768    774     1
    772   1580     1
    772   1581     1
    773   1579     1
    774   1579     1
    775   1610     1
    775   1611     1
    776   1609     1
    777   1609     1
    780    794     1
    780    795     1
    780    797     1
    780    798     1
    780    791     1
    780    792     1
    781    785     1
    781    786     1
    781    788     1
    781    789     1
    781    806     1
    781    807     1
    782    784     1
    782    787     1
    782    809     1
    782    805     1
    782    794     1
    782    795     1
    783    784     1
    783    787     1
    783    809     1
    783    805     1
    783    794     1
    783    795     1
    784    788     1
    784    789     1
    784    803     1
    784    804     1
    785    787     1
    785    809     1
    785    802     1
    785    797     1
    785    798     1
    786    787     1
    786    809     1
    786    802     1
    786    797     1
    786    798     1
    787    800     1
    787    801     1
    788    809     1
    788    799     1
    788    791     1
    788    792     1
    789    809     1
    789    799     1
    789    791     1
    789    792     1
    790    809     1
    791    808     1
    791    800     1
    791    801     1
    792    808     1
    792    800     1
    792    801     1
    793    809     1
    794   1678     1
    794    806     1
    794    807     1
    795   1678     1
    795    806     1
    795    807     1
    796    809     1
    797   1648     1
    797    803     1
    797    804     1
    798   1648     1
    798    803     1
    798    804     1
    802   1640     1
    802   1641     1
    803   1639     1
    804   1639     1
    805   1670     1
    805   1671     1
    806   1669     1
    807   1669     1
    810    824     1
    810    825     1
    810    827     1
    810    828     1
    810    821     1
    810    822     1
    811    815     1
    811    816     1
    811    818     1
    811    819     1
    811    836     1
    811    837     1
    812    814     1
    812    817     1
    812    839     1
    812    835     1
    812    824     1
    812    825     1
    813    814     1
    813    817     1
    813    839     1
    813    835     1
    813    824     1
    813    825     1
    814    818     1
    814    819     1
    814    833     1
    814    834     1
    815    817     1
    815    839     1
    815    832     1
    815    827     1
    815    828     1
    816    817     1
    816    839     1
    816    832     1
    816    827     1
    816    828     1
    817    830     1
    817    831     1
    818    839     1
    818    829     1
    818    821     1
    818    822     1
    819    839     1
    819    829     1
    819    821     1
    819    822     1
    820    839     1
    821    838     1
    821    830     1
    821    831     1
    822    838     1
    822    830     1
    822    831     1
    823    839     1
    824   1738     1
    824    836     1
    824    837     1
    825   1738     1
    825    836     1
    825    837     1
    826    839     1
    827   1708     1
    827    833     1
    827    834     1
    828   1708     1
    828    833     1
    828    834     1
    832   1700     1
    832   1701     1
    833   1699     1
    834   1699     1
    835   1730     1
    835   1731     1
    836   1729     1
    837   1729     1
    840    854     1
    840    855     1
    840    857     1
    840    858     1
    840    851     1
    840    852     1
    841    845     1
    841    846     1
    841    848     1
    841    849     1
    841    866     1
    841    867     1
    842    844     1
    842    847     1
    842    869     1
    842    865     1
    842    854     1
    842    855     1
    843    844     1
    843    847     1
    843    869     1
    843    865     1
    843    854     1
    843    855     1
    844    848     1
    844    849     1
    844    863     1
    844    864     1
    845    847     1
    845    869     1
    845    862     1
    845    857     1
    845    858     1
    846    847     1
    846    869     1
    846    862     1
    846    857     1
    846    858     1
    847    860     1
    847    861     1
    848    869     1
    848    859     1
    848    851     1
    848    852     1
    849    869     1
    849    859     1
    849    851     1
    849    852     1
    850    869     1
    851    868     1
    851    860     1
    851    861     1
    852    868     1
    852    860     1
    852    861     1
    853    869     1
    854   1798     1
    854    866     1
    854    867     1
    855   1798     1
    855    866     1
    855    867     1
    856    869     1
    857   1768     1
    857    863     1
    857    864     1
    858   1768     1
    858    863     1
    858    864     1
    862   1760     1
    862   1761     1
    863   1759     1
    864   1759     1
    865   1790     1
    865   1791     1
    866   1789     1
    867   1789     1
    870    884     1
    870    885     1
    870    887     1
    870    888     1
    870    881     1
    870    882     1
    871    875     1
    871    876     1
    871    878     1
    871    879     1
    871    896     1
    871    897     1
    872    874     1
    872    877     1
    872    899     1
    872    895     1
    872    884     1
    872    885     1
    873    874     1
    873    877     1
    873    899     1
    873    895     1
    873    884     1
    873    885     1
    874    878     1
    874    879     1
    874    893     1
    874    894     1
    875    877     1
    875    899     1
    875    892     1
    875    887     1
    875    888     1
    876    877     1
    876    899     1
    876    892     1
    876    887     1
    876    888     1
    877    890     1
    877    891     1
    878    899     1
    878    889     1
    878    881     1
    878    882     1
    879    899     1
    879    889     1
    879    881     1
    879    882     1
    880    899     1
    881    898     1
    881    890     1
    881    891     1
    882    898     1
    882    890     1
    882    891     1
    883    899     1
    884   1858     1
    884    896     1
    884    897     1
    885   1858     1
    885    896     1
    885    897     1
    886    899     1
    887   1828     1
    887    893     1
    887    894     1
    888   1828     1
    888    893     1
    888    894     1
    892   1820     1
    892   1821     1
    893   1819     1
    894   1819     1
    895   1850     1
    895   1851     1
    896   1849     1
    897   1849     1
    900    914     1
    900    915     1
    900    917     1
    900    918     1
    900    911     1
    900    912     1
    901    905     1
    901    906     1
    901    908     1
    901    909     1
    901    926     1
    901    927     1
    902    904     1
    902    907     1
    902    929     1
    902    925     1
    902    914     1
    902    915     1
    903    904     1
    903    907     1
    903    929     1
    903    925     1
    903    914     1
    903    915     1
    904    908     1
    904    909     1
    904    923     1
    904    924     1
    905    907     1
    905    929     1
    905    922     1
    905    917     1
    905    918     1
    906    907     1
    906    929     1
    906    922     1
    906    917     1
    906    918     1
    907    920     1
    907    921     1
    908    929     1
    908    919     1
    908    911     1
    908    912     1
    909    929     1
    909    919     1
    909    911     1
    909    912     1
    910    929     1
    911    928     1
    911    920     1
    911    921     1
    912    928     1
    912    920     1
    912    921     1
    913    929     1
    914   1918     1
    914    926     1
    914    927     1
    915   1918     1
    915    926     1
    915    927     1
    916    929     1
    917   1888     1
    917    923     1
    917    924     1
    918   1888     1
    918    923     1
    918    924     1
    922   1880     1
    922   1881     1
    923   1879     1
    924   1879     1
    925   1910     1
    925   1911     1
    926   1909     1
    927   1909     1
    930    944     1
    930    945     1
    930    947     1
    930    948     1
    930    941     1
    930    942     1
    931    935     1
    931    936     1
    931    938     1
    931    939     1
    931    956     1
    931    957     1
    932    934     1
    932    937     1
    932    959     1
    932    955     1
    932    944     1
    932    945     1
    933    934     1
    933    937     1
    933    959     1
    933    955     1
    933    944     1
    933    945     1
    934    938     1
    934    939     1
    934    953     1
    934    954     1
    935    937     1
    935    959     1
    935    952     1
    935    947     1
    935    948     1
    936    937     1
    936    959     1
    936    952     1
    936    947     1
    936    948     1
    937    950     1
    937    951     1
    938    959     1
    938    949     1
    938    941     1
    938    942     1
    939    959     1
    939    949     1
    939    941     1
    939    942     1
    940    959     1
    941    958     1
    941    950     1
    941    951     1
    942    958     1
    942    950     1
    942    951     1
    943    959     1
    944   1978     1
    944    956     1
    944    957     1
    945   1978     1
    945    956     1
    945    957     1
    946    959     1
    947   1948     1
    947    953     1
    947    954     1
    948   1948     1
    948    953     1
    948    954     1
    952   1940     1
    952   1941     1
    953   1939     1
    954   1939     1
    955   1970     1
    955   1971     1
    956   1969     1
    957   1969     1
    960    974     1
    960    975     1
    960    977     1
    960    978     1
    960    971     1
    960    972     1
    961    965     1
    961    966     1
    961    968     1
    961    969     1
    961    986     1
    961    987     1
    962    964     1
    962    967     1
    962    989     1
    962    985     1
    962    974     1
    962    975     1
    963    964     1
    963    967     1
    963    989     1
    963    985     1
    963    974     1
    963    975     1
    964    968     1
    964    969     1
    964    983     1
    964    984     1
    965    967     1
    965    989     1
    965    982     1
    965    977     1
    965    978     1
    966    967     1
    966    989     1
    966    982     1
    966    977     1
    966    978     1
    967    980     1
    967    981     1
    968    989     1
    968    979     1
    968    971     1
    968    972     1
    969    989     1
    969    979     1
    969    971     1
    969    972     1
    970    989     1
    971    988     1
    971    980     1
    971    981     1
    972    988     1
    972    980     1
    972    981     1
    973    989     1
    974   2038     1
    974    986     1
    974    987     1
    975   2038     1
    975    986     1
    975    987     1
    976    989     1
    977   2008     1
    977    983     1
    977    984     1
    978   2008     1
    978    983     1
    978    984     1
    982   2000     1
    982   2001     1
    983   1999     1
    984   1999     1
    985   2030     1
    985   2031     1
    986   2029     1
    987   2029     1
    990   1004     1
    990   1005     1
    990   1007     1
    990   1008     1
    990   1001     1
    990   1002     1
    991    995     1
    991    996     1
    991    998     1
    991    999     1
    991   1016     1
    991   1017     1
    992    994     1
    992    997     1
    992   1019     1
    992   1015     1
    992   1004     1
    992   1005     1
    993    994     1
    993    997     1
    993   1019     1
    993   1015     1
    993   1004     1
    993   1005     1
    994    998     1
    994    999     1
    994   1013     1
    994   1014     1
    995    997     1
    995   1019     1
    995   1012     1
    995   1007     1
    995   1008     1
    996    997     1
    996   1019     1
    996   1012     1
    996   1007     1
    996   1008     1
    997   1010     1
    997   1011     1
    998   1019     1
    998   1009     1
    998   1001     1
    998   1002     1
    999   1019     1
    999   1009     1
    999   1001     1
    999   1002     1
   1000   1019     1
   1001   1018     1
   1001   1010     1
   1001   1011     1
   1002   1018     1
   1002   1010     1
   1002   1011     1
   1003   1019     1
   1004   2098     1
   1004   1016     1
   1004   1017     1
   1005   2098     1
   1005   1016     1
   1005   1017     1
   1006   1019     1
   1007   2068     1
   1007   1013     1
   1007   1014     1
   1008   2068     1
   1008   1013     1
   1008   1014     1
   1012   2060     1
   1012   2061     1
   1013   2059     1
   1014   2059     1
   1015   2090     1
   1015   2091     1
   1016   2089     1
   1017   2089     1
   1020   1034     1
   1020   1035     1
   1020   1037     1
   1020   1038     1
   1020   1031     1
   1020   1032     1
   1021   1025     1
   1021   1026     1
   1021   1028     1
   1021   1029     1
   1021   1046     1
   1021   1047     1
   1022   1024     1
   1022   1027     1
   1022   1049     1
   1022   1045     1
   1022   1034     1
   1022   1035     1
   1023   1024     1
   1023   1027     1
   1023   1049     1
   1023   1045     1
   1023   1034     1
   1023   1035     1
   1024   1028     1
   1024   1029     1
   1024   1043     1
   1024   1044     1
   1025   1027     1
   1025   1049     1
   1025   1042     1
   1025   1037     1
   1025   1038     1
   1026   1027     1
   1026   1049     1
   1026   1042     1
   1026   1037     1
   1026   1038     1
   1027   1040     1
   1027   1041     1
   1028   1049     1
   1028   1039     1
   1028   1031     1
   1028   1032     1
   1029   1049     1
   1029   1039     1
   1029   1031     1
   1029   1032     1
   1030   1049     1
   1031   1048     1
   1031   1040     1
   1031   1041     1
   1032   1048     1
   1032   1040     1
   1032   1041     1
   1033   1049     1
   1034   2158     1
   1034   1046     1
   1034   1047     1
   1035   2158     1
   1035   1046     1
   1035   1047     1
   1036   1049     1
   1037   2128     1
   1037   1043     1
   1037   1044     1
   1038   2128     1
   1038   1043     1
   1038   1044     1
   1042   2120     1
   1042   2121     1
   1043   2119     1
   1044   2119     1
   1045   2150     1
   1045   2151     1
   1046   2149     1
   1047   2149     1
   1050   1064     1
   1050   1065     1
   1050   1067     1
   1050   1068     1
   1050   1061     1
   1050   1062     1
   1051   1055     1
   1051   1056     1
   1051   1058     1
   1051   1059     1
   1051   1076     1
   1051   1077     1
   1052   1054     1
   1052   1057     1
   1052   1079     1
   1052   1075     1
   1052   1064     1
   1052   1065     1
   1053   1054     1
   1053   1057     1
   1053   1079     1
   1053   1075     1
   1053   1064     1
   1053   1065     1
   1054   1058     1
   1054   1059     1
   1054   1073     1
   1054   1074     1
   1055   1057     1
   1055   1079     1
   1055   1072     1
   1055   1067     1
   1055   1068     1
   1056   1057     1
   1056   1079     1
   1056   1072     1
   1056   1067     1
   1056   1068     1
   1057   1070     1
   1057   1071     1
   1058   1079     1
   1058   1069     1
   1058   1061     1
   1058   1062     1
   1059   1079     1
   1059   1069     1
   1059   1061     1
   1059   1062     1
   1060   1079     1
   1061   1078     1
   1061   1070     1
   1061   1071     1
   1062   1078     1
   1062   1070     1
   1062   1071     1
   1063   1079     1
   1064   2218     1
   1064   1076     1
   1064   1077     1
   1065   2218     1
   1065   1076     1
   1065   1077     1
   1066   1079     1
   1067   2188     1
   1067   1073     1
   1067   1074     1
   1068   2188     1
   1068   1073     1
   1068   1074     1
   1072   2180     1
   1072   2181     1
   1073   2179     1
   1074   2179     1
   1075   2210     1
   1075   2211     1
   1076   2209     1
   1077   2209     1
   1080   1094     1
   1080   1095     1
   1080   1097     1
   1080   1098     1
   1080   1091     1
   1080   1092     1
   1081   1085     1
   1081   1086     1
   1081   1088     1
   1081   1089     1
   1081   1106     1
   1081   1107     1
   1082   1084     1
   1082   1087     1
   1082   1109     1
   1082   1105     1
   1082   1094     1
   1082   1095     1
   1083   1084     1
   1083   1087     1
   1083   1109     1
   1083   1105     1
   1083   1094     1
   1083   1095     1
   1084   1088     1
   1084   1089     1
   1084   1103     1
   1084   1104     1
   1085   1087     1
   1085   1109     1
   1085   1102     1
   1085   1097     1
   1085   1098     1
   1086   1087     1
   1086   1109     1
   1086   1102     1
   1086   1097     1
   1086   1098     1
   1087   1100     1
   1087   1101     1
   1088   1109     1
   1088   1099     1
   1088   1091     1
   1088   1092     1
   1089   1109     1
   1089   1099     1
   1089   1091     1
   1089   1092     1
   1090   1109     1
   1091   1108     1
   1091   1100     1
   1091   1101     1
   1092   1108     1
   1092   1100     1
   1092   1101     1
   1093   1109     1
   1094   2278     1
   1094   1106     1
   1094   1107     1
   1095   2278     1
   1095   1106     1
   1095   1107     1
   1096   1109     1
   1097   2248     1
   1097   1103     1
   1097   1104     1
   1098   2248     1
   1098   1103     1
   1098   1104     1
   1102   2240     1
   1102   2241     1
   1103   2239     1
   1104   2239     1
   1105   2270     1
   1105   2271     1
   1106   2269     1
   1107   2269     1
   1110   1124     1
   1110   1125     1
   1110   1127     1
   1110   1128     1
   1110   1121     1
   1110   1122     1
   1111   1115     1
   1111   1116     1
   1111   1118     1
   1111   1119     1
   1111   1136     1
   1111   1137     1
   1112   1114     1
   1112   1117     1
   1112   1139     1
   1112   1135     1
   1112   1124     1
   1112   1125     1
   1113   1114     1
   1113   1117     1
   1113   1139     1
   1113   1135     1
   1113   1124     1
   1113   1125     1
   1114   1118     1
   1114   1119     1
   1114   1133     1
   1114   1134     1
   1115   1117     1
   1115   1139     1
   1115   1132     1
   1115   1127     1
   1115   1128     1
   1116   1117     1
   1116   1139     1
   1116   1132     1
   1116   1127     1
   1116   1128     1
   1117   1130     1
   1117   1131     1
   1118   1139     1
   1118   1129     1
   1118   1121     1
   1118   1122     1
   1119   1139     1
   1119   1129     1
   1119   1121     1
   1119   1122     1
   1120   1139     1
   1121   1138     1
   1121   1130     1
   1121   1131     1
   1122   1138     1
   1122   1130     1
   1122   1131     1
   1123   1139     1
   1124   2338     1
   1124   1136     1
   1124   1137     1
   1125   2338     1
   1125   1136     1
   1125   1137     1
   1126   1139     1
   1127   2308     1
   1127   1133     1
   1127   1134     1
   1128   2308     1
   1128   1133     1
   1128   1134     1
   1132   2300     1
   1132   2301     1
   1133   2299     1
   1134   2299     1
   1135   2330     1
   1135   2331     1
   1136   2329     1
   1137   2329     1
   1140   1154     1
   1140   1155     1
   1140   1157     1
   1140   1158     1
   1140   1151     1
   1140   1152     1
   1141   1145     1
   1141   1146     1
   1141   1148     1
   1141   1149     1
   1141   1166     1
   1141   1167     1
   1142   1144     1
   1142   1147     1
   1142   1169     1
   1142   1165     1
   1142   1154     1
   1142   1155     1
   1143   1144     1
   1143   1147     1
   1143   1169     1
   1143   1165     1
   1143   1154     1
   1143   1155     1
   1144   1148     1
   1144   1149     1
   1144   1163     1
   1144   1164     1
   1145   1147     1
   1145   1169     1
   1145   1162     1
   1145   1157     1
   1145   1158     1
   1146   1147     1
   1146   1169     1
   1146   1162     1
   1146   1157     1
   1146   1158     1
   1147   1160     1
   1147   1161     1
   1148   1169     1
   1148   1159     1
   1148   1151     1
   1148   1152     1
   1149   1169     1
   1149   1159     1
   1149   1151     1
   1149   1152     1
   1150   1169     1
   1151   1168     1
   1151   1160     1
   1151   1161     1
   1152   1168     1
   1152   1160     1
   1152   1161     1
   1153   1169     1
   1154   2398     1
   1154   1166     1
   1154   1167     1
   1155   2398     1
   1155   1166     1
   1155   1167     1
   1156   1169     1
   1157   2368     1
   1157   1163     1
   1157   1164     1
   1158   2368     1
   1158   1163     1
   1158   1164     1
   1162   2360     1
   1162   2361     1
   1163   2359     1
   1164   2359     1
   1165   2390     1
   1165   2391     1
   1166   2389     1
   1167   2389     1
   1170   1184     1
   1170   1185     1
   1170   1187     1
   1170   1188     1
   1170   1181     1
   1170   1182     1
   1171   1175     1
   1171   1176     1
   1171   1178     1
   1171   1179     1
   1171   1196     1
   1171   1197     1
   1172   1174     1
   1172   1177     1
   1172   1199     1
   1172   1195     1
   1172   1184     1
   1172   1185     1
   1173   1174     1
   1173   1177     1
   1173   1199     1
   1173   1195     1
   1173   1184     1
   1173   1185     1
   1174   1178     1
   1174   1179     1
   1174   1193     1
   1174   1194     1
   1175   1177     1
   1175   1199     1
   1175   1192     1
   1175   1187     1
   1175   1188     1
   1176   1177     1
   1176   1199     1
   1176   1192     1
   1176   1187     1
   1176   1188     1
   1177   1190     1
   1177   1191     1
   1178   1199     1
   1178   1189     1
   1178   1181     1
   1178   1182     1
   1179   1199     1
   1179   1189     1
   1179   1181     1
   1179   1182     1
   1180   1199     1
   1181   1198     1
   1181   1190     1
   1181   1191     1
   1182   1198     1
   1182   1190     1
   1182   1191     1
   1183   1199     1
   1184   2458     1
   1184   1196     1
   1184   1197     1
   1185   2458     1
   1185   1196     1
   1185   1197     1
   1186   1199     1
   1187   2428     1
   1187   1193     1
   1187   1194     1
   1188   2428     1
   1188   1193     1
   1188   1194     1
   1192   2420     1
   1192   2421     1
   1193   2419     1
   1194   2419     1
   1195   2450     1
   1195   2451     1
   1196   2449     1
   1197   2449     1
   1200   1214     1
   1200   1215     1
   1200   1217     1
   1200   1218     1
   1200   1211     1
   1200   1212     1
   1201   1205     1
   1201   1206     1
   1201   1208     1
   1201   1209     1
   1201   1226     1
   1201   1227     1
   1202   1204     1
   1202   1207     1
   1202   1229     1
   1202   1225     1
   1202   1214     1
   1202   1215     1
   1203   1204     1
   1203   1207     1
   1203   1229     1
   1203   1225     1
   1203   1214     1
   1203   1215     1
   1204   1208     1
   1204   1209     1
   1204   1223     1
   1204   1224     1
   1205   1207     1
   1205   1229     1
   1205   1222     1
   1205   1217     1
   1205   1218     1
   1206   1207     1
   1206   1229     1
   1206   1222     1
   1206   1217     1
   1206   1218     1
   1207   1220     1
   1207   1221     1
   1208   1229     1
   1208   1219     1
   1208   1211     1
   1208   1212     1
   1209   1229     1
   1209   1219     1
   1209   1211     1
   1209   1212     1
   1210   1229     1
   1211   1228     1
   1211   1220     1
   1211   1221     1
   1212   1228     1
   1212   1220     1
   1212   1221     1
   1213   1229     1
   1214   2518     1
   1214   1226     1
   1214   1227     1
   1215   2518     1
   1215   1226     1
   1215   1227     1
   1216   1229     1
   1217   2488     1
   1217   1223     1
   1217   1224     1
   1218   2488     1
   1218   1223     1
   1218   1224     1
   1222   2480     1
   1222   2481     1
   1223   2479     1
   1224   2479     1
   1225   2510     1
   1225   2511     1
   1226   2509     1
   1227   2509     1
   1230   1244     1
   1230   1245     1
   1230   1247     1
   1230   1248     1
   1230   1241     1
   1230   1242     1
   1231   1235     1
   1231   1236     1
   1231   1238     1
   1231   1239     1
   1231   1256     1
   1231   1257     1
   1232   1234     1
   1232   1237     1
   1232   1259     1
   1232   1255     1
   1232   1244     1
   1232   1245     1
   1233   1234     1
   1233   1237     1
   1233   1259     1
   1233   1255     1
   1233   1244     1
   1233   1245     1
   1234   1238     1
   1234   1239     1
   1234   1253     1
   1234   1254     1
   1235   1237     1
   1235   1259     1
   1235   1252     1
   1235   1247     1
   1235   1248     1
   1236   1237     1
   1236   1259     1
   1236   1252     1
   1236   1247     1
   1236   1248     1
   1237   1250     1
   1237   1251     1
   1238   1259     1
   1238   1249     1
   1238   1241     1
   1238   1242     1
   1239   1259     1
   1239   1249     1
   1239   1241     1
   1239   1242     1
   1240   1259     1
   1241   1258     1
   1241   1250     1
   1241   1251     1
   1242   1258     1
   1242   1250     1
   1242   1251     1
   1243   1259     1
   1244   2578     1
   1244   1256     1
   1244   1257     1
   1245   2578     1
   1245   1256     1
   1245   1257     1
   1246   1259     1
   1247   2548     1
   1247   1253     1
   1247   1254     1
   1248   2548     1
   1248   1253     1
   1248   1254     1
   1252   2540     1
   1252   2541     1
   1253   2539     1
   1254   2539     1
   1255   2570     1
   1255   2571     1
   1256   2569     1
   1257   2569     1
   1260   1274     1
   1260   1275     1
   1260   1277     1
   1260   1278     1
   1260   1271     1
   1260   1272     1
   1261   1265     1
   1261   1266     1
   1261   1268     1
   1261   1269     1
   1261   1286     1
   1261   1287     1
   1262   1264     1
   1262   1267     1
   1262   1289     1
   1262   1285     1
   1262   1274     1
   1262   1275     1
   1263   1264     1
   1263   1267     1
   1263   1289     1
   1263   1285     1
   1263   1274     1
   1263   1275     1
   1264   1268     1
   1264   1269     1
   1264   1283     1
   1264   1284     1
   1265   1267     1
   1265   1289     1
   1265   1282     1
   1265   1277     1
   1265   1278     1
   1266   1267     1
   1266   1289     1
   1266   1282     1
   1266   1277     1
   1266   1278     1
   1267   1280     1
   1267   1281     1
   1268   1289     1
   1268   1279     1
   1268   1271     1
   1268   1272     1
   1269   1289     1
   1269   1279     1
   1269   1271     1
   1269   1272     1
   1270   1289     1
   1271   1288     1
   1271   1280     1
   1271   1281     1
   1272   1288     1
   1272   1280     1
   1272   1281     1
   1273   1289     1
   1274   2638     1
   1274   1286     1
   1274   1287     1
   1275   2638     1
   1275   1286     1
   1275   1287     1
   1276   1289     1
   1277   2608     1
   1277   1283     1
   1277   1284     1
   1278   2608     1
   1278   1283     1
   1278   1284     1
   1282   2600     1
   1282   2601     1
   1283   2599     1
   1284   2599     1
   1285   2630     1
   1285   2631     1
   1286   2629     1
   1287   2629     1
   1290   1304     1
   1290   1305     1
   1290   1307     1
   1290   1308     1
   1290   1301     1
   1290   1302     1
   1291   1295     1
   1291   1296     1
   1291   1298     1
   1291   1299     1
   1291   1316     1
   1291   1317     1
   1292   1294     1
   1292   1297     1
   1292   1319     1
   1292   1315     1
   1292   1304     1
   1292   1305     1
   1293   1294     1
   1293   1297     1
   1293   1319     1
   1293   1315     1
   1293   1304     1
   1293   1305     1
   1294   1298     1
   1294   1299     1
   1294   1313     1
   1294   1314     1
   1295   1297     1
   1295   1319     1
   1295   1312     1
   1295   1307     1
   1295   1308     1
   1296   1297     1
   1296   1319     1
   1296   1312     1
   1296   1307     1
   1296   1308     1
   1297   1310     1
   1297   1311     1
   1298   1319     1
   1298   1309     1
   1298   1301     1
   1298   1302     1
   1299   1319     1
   1299   1309     1
   1299   1301     1
   1299   1302     1
   1300   1319     1
   1301   1318     1
   1301   1310     1
   1301   1311     1
   1302   1318     1
   1302   1310     1
   1302   1311     1
   1303   1319     1
   1304   2698     1
   1304   1316     1
   1304   1317     1
   1305   2698     1
   1305   1316     1
   1305   1317     1
   1306   1319     1
   1307   2668     1
   1307   1313     1
   1307   1314     1
   1308   2668     1
   1308   1313     1
   1308   1314     1
   1312   2660     1
   1312   2661     1
   1313   2659     1
   1314   2659     1
   1315   2690     1
   1315   2691     1
   1316   2689     1
   1317   2689     1
   1320   1334     1
   1320   1335     1
   1320   1337     1
   1320   1338     1
   1320   1331     1
   1320   1332     1
   1321   1325     1
   1321   1326     1
   1321   1328     1
   1321   1329     1
   1321   1346     1
   1321   1347     1
   1322   1324     1
   1322   1327     1
   1322   1349     1
   1322   1345     1
   1322   1334     1
   1322   1335     1
   1323   1324     1
   1323   1327     1
   1323   1349     1
   1323   1345     1
   1323   1334     1
   1323   1335     1
   1324   1328     1
   1324   1329     1
   1324   1343     1
   1324   1344     1
   1325   1327     1
   1325   1349     1
   1325   1342     1
   1325   1337     1
   1325   1338     1
   1326   1327     1
   1326   1349     1
   1326   1342     1
   1326   1337     1
   1326   1338     1
   1327   1340     1
   1327   1341     1
   1328   1349     1
   1328   1339     1
   1328   1331     1
   1328   1332     1
   1329   1349     1
   1329   1339     1
   1329   1331     1
   1329   1332     1
   1330   1349     1
   1331   1348     1
   1331   1340     1
   1331   1341     1
   1332   1348     1
   1332   1340     1
   1332   1341     1
   1333   1349     1
   1334   2758     1
   1334   1346     1
   1334   1347     1
   1335   2758     1
   1335   1346     1
   1335   1347     1
   1336   1349     1
   1337   2728     1
   1337   1343     1
   1337   1344     1
   1338   2728     1
   1338   1343     1
   1338   1344     1
   1342   2720     1
   1342   2721     1
   1343   2719     1
   1344   2719     1
   1345   2750     1
   1345   2751     1
   1346   2749     1
   1347   2749     1
   1350   1364     1
   1350   1365     1
   1350   1367     1
   1350   1368     1
   1350   1361     1
   1350   1362     1
   1351   1355     1
   1351   1356     1
   1351   1358     1
   1351   1359     1
   1351   1376     1
   1351   1377     1
   1352   1354     1
   1352   1357     1
   1352   1379     1
   1352   1375     1
   1352   1364     1
   1352   1365     1
   1353   1354     1
   1353   1357     1
   1353   1379     1
   1353   1375     1
   1353   1364     1
   1353   1365     1
   1354   1358     1
   1354   1359     1
   1354   1373     1
   1354   1374     1
   1355   1357     1
   1355   1379     1
   1355   1372     1
   1355   1367     1
   1355   1368     1
   1356   1357     1
   1356   1379     1
   1356   1372     1
   1356   1367     1
   1356   1368     1
   1357   1370     1
   1357   1371     1
   1358   1379     1
   1358   1369     1
   1358   1361     1
   1358   1362     1
   1359   1379     1
   1359   1369     1
   1359   1361     1
   1359   1362     1
   1360   1379     1
   1361   1378     1
   1361   1370     1
   1361   1371     1
   1362   1378     1
   1362   1370     1
   1362   1371     1
   1363   1379     1
   1364   2818     1
   1364   1376     1
   1364   1377     1
   1365   2818     1
   1365   1376     1
   1365   1377     1
   1366   1379     1
   1367   2788     1
   1367   1373     1
   1367   1374     1
   1368   2788     1
   1368   1373     1
   1368   1374     1
   1372   2780     1
   1372   2781     1
   1373   2779     1
   1374   2779     1
   1375   2810     1
   1375   2811     1
   1376   2809     1
   1377   2809     1
   1380   1394     1
   1380   1395     1
   1380   1397     1
   1380   1398     1
   1380   1391     1
   1380   1392     1
   1381   1385     1
   1381   1386     1
   1381   1388     1
   1381   1389     1
   1381   1406     1
   1381   1407     1
   1382   1384     1
   1382   1387     1
   1382   1409     1
   1382   1405     1
   1382   1394     1
   1382   1395     1
   1383   1384     1
   1383   1387     1
   1383   1409     1
   1383   1405     1
   1383   1394     1
   1383   1395     1
   1384   1388     1
   1384   1389     1
   1384   1403     1
   1384   1404     1
   1385   1387     1
   1385   1409     1
   1385   1402     1
   1385   1397     1
   1385   1398     1
   1386   1387     1
   1386   1409     1
   1386   1402     1
   1386   1397     1
   1386   1398     1
   1387   1400     1
   1387   1401     1
   1388   1409     1
   1388   1399     1
   1388   1391     1
   1388   1392     1
   1389   1409     1
   1389   1399     1
   1389   1391     1
   1389   1392     1
   1390   1409     1
   1391   1408     1
   1391   1400     1
   1391   1401     1
   1392   1408     1
   1392   1400     1
   1392   1401     1
   1393   1409     1
   1394   2882     1
   1394   1406     1
   1394   1407     1
   1395   2882     1
   1395   1406     1
   1395   1407     1
   1396   1409     1
   1397   2850     1
   1397   1403     1
   1397   1404     1
   1398   2850     1
   1398   1403     1
   1398   1404     1
   1402   2821     1
   1402   2822     1
   1403   2820     1
   1404   2820     1
   1405   2853     1
   1405   2854     1
   1406   2852     1
   1407   2852     1
   1410   1424     1
   1410   1425     1
   1410   1427     1
   1410   1428     1
   1410   1421     1
   1410   1422     1
   1411   1415     1
   1411   1416     1
   1411   1418     1
   1411   1419     1
   1411   1436     1
   1411   1437     1
   1412   1414     1
   1412   1417     1
   1412   1439     1
   1412   1435     1
   1412   1424     1
   1412   1425     1
   1413   1414     1
   1413   1417     1
   1413   1439     1
   1413   1435     1
   1413   1424     1
   1413   1425     1
   1414   1418     1
   1414   1419     1
   1414   1433     1
   1414   1434     1
   1415   1417     1
   1415   1439     1
   1415   1432     1
   1415   1427     1
   1415   1428     1
   1416   1417     1
   1416   1439     1
   1416   1432     1
   1416   1427     1
   1416   1428     1
   1417   1430     1
   1417   1431     1
   1418   1439     1
   1418   1429     1
   1418   1421     1
   1418   1422     1
   1419   1439     1
   1419   1429     1
   1419   1421     1
   1419   1422     1
   1420   1439     1
   1421   1438     1
   1421   1430     1
   1421   1431     1
   1422   1438     1
   1422   1430     1
   1422   1431     1
   1423   1439     1
   1424   2946     1
   1424   1436     1
   1424   1437     1
   1425   2946     1
   1425   1436     1
   1425   1437     1
   1426   1439     1
   1427   2914     1
   1427   1433     1
   1427   1434     1
   1428   2914     1
   1428   1433     1
   1428   1434     1
   1432   2885     1
   1432   2886     1
   1433   2884     1
   1434   2884     1
   1435   2917     1
   1435   2918     1
   1436   2916     1
   1437   2916     1
   1440   1454     1
   1440   1455     1
   1440   1457     1
   1440   1458     1
   1440   1451     1
   1440   1452     1
   1441   1445     1
   1441   1446     1
   1441   1448     1
   1441   1449     1
   1441   1466     1
   1441   1467     1
   1442   1444     1
   1442   1447     1
   1442   1469     1
   1442   1465     1
   1442   1454     1
   1442   1455     1
   1443   1444     1
   1443   1447     1
   1443   1469     1
   1443   1465     1
   1443   1454     1
   1443   1455     1
   1444   1448     1
   1444   1449     1
   1444   1463     1
   1444   1464     1
   1445   1447     1
   1445   1469     1
   1445   1462     1
   1445   1457     1
   1445   1458     1
   1446   1447     1
   1446   1469     1
   1446   1462     1
   1446   1457     1
   1446   1458     1
   1447   1460     1
   1447   1461     1
   1448   1469     1
   1448   1459     1
   1448   1451     1
   1448   1452     1
   1449   1469     1
   1449   1459     1
   1449   1451     1
   1449   1452     1
   1450   1469     1
   1451   1468     1
   1451   1460     1
   1451   1461     1
   1452   1468     1
   1452   1460     1
   1452   1461     1
   1453   1469     1
   1454   3010     1
   1454   1466     1
   1454   1467     1
   1455   3010     1
   1455   1466     1
   1455   1467     1
   1456   1469     1
   1457   2978     1
   1457   1463     1
   1457   1464     1
   1458   2978     1
   1458   1463     1
   1458   1464     1
   1462   2949     1
   1462   2950     1
   1463   2948     1
   1464   2948     1
   1465   2981     1
   1465   2982     1
   1466   2980     1
   1467   2980     1
   1470   1484     1
   1470   1485     1
   1470   1487     1
   1470   1488     1
   1470   1481     1
   1470   1482     1
   1471   1475     1
   1471   1476     1
   1471   1478     1
   1471   1479     1
   1471   1496     1
   1471   1497     1
   1472   1474     1
   1472   1477     1
   1472   1499     1
   1472   1495     1
   1472   1484     1
   1472   1485     1
   1473   1474     1
   1473   1477     1
   1473   1499     1
   1473   1495     1
   1473   1484     1
   1473   1485     1
   1474   1478     1
   1474   1479     1
   1474   1493     1
   1474   1494     1
   1475   1477     1
   1475   1499     1
   1475   1492     1
   1475   1487     1
   1475   1488     1
   1476   1477     1
   1476   1499     1
   1476   1492     1
   1476   1487     1
   1476   1488     1
   1477   1490     1
   1477   1491     1
   1478   1499     1
   1478   1489     1
   1478   1481     1
   1478   1482     1
   1479   1499     1
   1479   1489     1
   1479   1481     1
   1479   1482     1
   1480   1499     1
   1481   1498     1
   1481   1490     1
   1481   1491     1
   1482   1498     1
   1482   1490     1
   1482   1491     1
   1483   1499     1
   1484   3074     1
   1484   1496     1
   1484   1497     1
   1485   3074     1
   1485   1496     1
   1485   1497     1
   1486   1499     1
   1487   3042     1
   1487   1493     1
   1487   1494     1
   1488   3042     1
   1488   1493     1
   1488   1494     1
   1492   3013     1
   1492   3014     1
   1493   3012     1
   1494   3012     1
   1495   3045     1
   1495   3046     1
   1496   3044     1
   1497   3044     1
   1500   1514     1
   1500   1515     1
   1500   1517     1
   1500   1518     1
   1500   1511     1
   1500   1512     1
   1501   1505     1
   1501   1506     1
   1501   1508     1
   1501   1509     1
   1501   1526     1
   1501   1527     1
   1502   1504     1
   1502   1507     1
   1502   1529     1
   1502   1525     1
   1502   1514     1
   1502   1515     1
   1503   1504     1
   1503   1507     1
   1503   1529     1
   1503   1525     1
   1503   1514     1
   1503   1515     1
   1504   1508     1
   1504   1509     1
   1504   1523     1
   1504   1524     1
   1505   1507     1
   1505   1529     1
   1505   1522     1
   1505   1517     1
   1505   1518     1
   1506   1507     1
   1506   1529     1
   1506   1522     1
   1506   1517     1
   1506   1518     1
   1507   1520     1
   1507   1521     1
   1508   1529     1
   1508   1519     1
   1508   1511     1
   1508   1512     1
   1509   1529     1
   1509   1519     1
   1509   1511     1
   1509   1512     1
   1510   1529     1
   1511   1528     1
   1511   1520     1
   1511   1521     1
   1512   1528     1
   1512   1520     1
   1512   1521     1
   1513   1529     1
   1514   3138     1
   1514   1526     1
   1514   1527     1
   1515   3138     1
   1515   1526     1
   1515   1527     1
   1516   1529     1
   1517   3106     1
   1517   1523     1
   1517   1524     1
   1518   3106     1
   1518   1523     1
   1518   1524     1
   1522   3077     1
   1522   3078     1
   1523   3076     1
   1524   3076     1
   1525   3109     1
   1525   3110     1
   1526   3108     1
   1527   3108     1
   1530   1544     1
   1530   1545     1
   1530   1547     1
   1530   1548     1
   1530   1541     1
   1530   1542     1
   1531   1535     1
   1531   1536     1
   1531   1538     1
   1531   1539     1
   1531   1556     1
   1531   1557     1
   1532   1534     1
   1532   1537     1
   1532   1559     1
   1532   1555     1
   1532   1544     1
   1532   1545     1
   1533   1534     1
   1533   1537     1
   1533   1559     1
   1533   1555     1
   1533   1544     1
   1533   1545     1
   1534   1538     1
   1534   1539     1
   1534   1553     1
   1534   1554     1
   1535   1537     1
   1535   1559     1
   1535   1552     1
   1535   1547     1
   1535   1548     1
   1536   1537     1
   1536   1559     1
   1536   1552     1
   1536   1547     1
   1536   1548     1
   1537   1550     1
   1537   1551     1
   1538   1559     1
   1538   1549     1
   1538   1541     1
   1538   1542     1
   1539   1559     1
   1539   1549     1
   1539   1541     1
   1539   1542     1
   1540   1559     1
   1541   1558     1
   1541   1550     1
   1541   1551     1
   1542   1558     1
   1542   1550     1
   1542   1551     1
   1543   1559     1
   1544   3202     1
   1544   1556     1
   1544   1557     1
   1545   3202     1
   1545   1556     1
   1545   1557     1
   1546   1559     1
   1547   3170     1
   1547   1553     1
   1547   1554     1
   1548   3170     1
   1548   1553     1
   1548   1554     1
   1552   3141     1
   1552   3142     1
   1553   3140     1
   1554   3140     1
   1555   3173     1
   1555   3174     1
   1556   3172     1
   1557   3172     1
   1560   1574     1
   1560   1575     1
   1560   1577     1
   1560   1578     1
   1560   1571     1
   1560   1572     1
   1561   1565     1
   1561   1566     1
   1561   1568     1
   1561   1569     1
   1561   1586     1
   1561   1587     1
   1562   1564     1
   1562   1567     1
   1562   1589     1
   1562   1585     1
   1562   1574     1
   1562   1575     1
   1563   1564     1
   1563   1567     1
   1563   1589     1
   1563   1585     1
   1563   1574     1
   1563   1575     1
   1564   1568     1
   1564   1569     1
   1564   1583     1
   1564   1584     1
   1565   1567     1
   1565   1589     1
   1565   1582     1
   1565   1577     1
   1565   1578     1
   1566   1567     1
   1566   1589     1
   1566   1582     1
   1566   1577     1
   1566   1578     1
   1567   1580     1
   1567   1581     1
   1568   1589     1
   1568   1579     1
   1568   1571     1
   1568   1572     1
   1569   1589     1
   1569   1579     1
   1569   1571     1
   1569   1572     1
   1570   1589     1
   1571   1588     1
   1571   1580     1
   1571   1581     1
   1572   1588     1
   1572   1580     1
   1572   1581     1
   1573   1589     1
   1574   3266     1
   1574   1586     1
   1574   1587     1
   1575   3266     1
   1575   1586     1
   1575   1587     1
   1576   1589     1
   1577   3234     1
   1577   1583     1
   1577   1584     1
   1578   3234     1
   1578   1583     1
   1578   1584     1
   1582   3205     1
   1582   3206     1
   1583   3204     1
   1584   3204     1
   1585   3237     1
   1585   3238     1
   1586   3236     1
   1587   3236     1
   1590   1604     1
   1590   1605     1
   1590   1607     1
   1590   1608     1
   1590   1601     1
   1590   1602     1
   1591   1595     1
   1591   1596     1
   1591   1598     1
   1591   1599     1
   1591   1616     1
   1591   1617     1
   1592   1594     1
   1592   1597     1
   1592   1619     1
   1592   1615     1
   1592   1604     1
   1592   1605     1
   1593   1594     1
   1593   1597     1
   1593   1619     1
   1593   1615     1
   1593   1604     1
   1593   1605     1
   1594   1598     1
   1594   1599     1
   1594   1613     1
   1594   1614     1
   1595   1597     1
   1595   1619     1
   1595   1612     1
   1595   1607     1
   1595   1608     1
   1596   1597     1
   1596   1619     1
   1596   1612     1
   1596   1607     1
   1596   1608     1
   1597   1610     1
   1597   1611     1
   1598   1619     1
   1598   1609     1
   1598   1601     1
   1598   1602     1
   1599   1619     1
   1599   1609     1
   1599   1601     1
   1599   1602     1
   1600   1619     1
   1601   1618     1
   1601   1610     1
   1601   1611     1
   1602   1618     1
   1602   1610     1
   1602   1611     1
   1603   1619     1
   1604   3330     1
   1604   1616     1
   1604   1617     1
   1605   3330     1
   1605   1616     1
   1605   1617     1
   1606   1619     1
   1607   3298     1
   1607   1613     1
   1607   1614     1
   1608   3298     1
   1608   1613     1
   1608   1614     1
   1612   3269     1
   1612   3270     1
   1613   3268     1
   1614   3268     1
   1615   3301     1
   1615   3302     1
   1616   3300     1
   1617   3300     1
   1620   1634     1
   1620   1635     1
   1620   1637     1
   1620   1638     1
   1620   1631     1
   1620   1632     1
   1621   1625     1
   1621   1626     1
   1621   1628     1
   1621   1629     1
   1621   1646     1
   1621   1647     1
   1622   1624     1
   1622   1627     1
   1622   1649     1
   1622   1645     1
   1622   1634     1
   1622   1635     1
   1623   1624     1
   1623   1627     1
   1623   1649     1
   1623   1645     1
   1623   1634     1
   1623   1635     1
   1624   1628     1
   1624   1629     1
   1624   1643     1
   1624   1644     1
   1625   1627     1
   1625   1649     1
   1625   1642     1
   1625   1637     1
   1625   1638     1
   1626   1627     1
   1626   1649     1
   1626   1642     1
   1626   1637     1
   1626   1638     1
   1627   1640     1
   1627   1641     1
   1628   1649     1
   1628   1639     1
   1628   1631     1
   1628   1632     1
   1629   1649     1
   1629   1639     1
   1629   1631     1
   1629   1632     1
   1630   1649     1
   1631   1648     1
   1631   1640     1
   1631   1641     1
   1632   1648     1
   1632   1640     1
   1632   1641     1
   1633   1649     1
   1634   3394     1
   1634   1646     1
   1634   1647     1
   1635   3394     1
   1635   1646     1
   1635   1647     1
   1636   1649     1
   1637   3362     1
   1637   1643     1
   1637   1644     1
   1638   3362     1
   1638   1643     1
   1638   1644     1
   1642   3333     1
   1642   3334     1
   1643   3332     1
   1644   3332     1
   1645   3365     1
   1645   3366     1
   1646   3364     1
   1647   3364     1
   1650   1664     1
   1650   1665     1
   1650   1667     1
   1650   1668     1
   1650   1661     1
   1650   1662     1
   1651   1655     1
   1651   1656     1
   1651   1658     1
   1651   1659     1
   1651   1676     1
   1651   1677     1
   1652   1654     1
   1652   1657     1
   1652   1679     1
   1652   1675     1
   1652   1664     1
   1652   1665     1
   1653   1654     1
   1653   1657     1
   1653   1679     1
   1653   1675     1
   1653   1664     1
   1653   1665     1
   1654   1658     1
   1654   1659     1
   1654   1673     1
   1654   1674     1
   1655   1657     1
   1655   1679     1
   1655   1672     1
   1655   1667     1
   1655   1668     1
   1656   1657     1
   1656   1679     1
   1656   1672     1
   1656   1667     1
   1656   1668     1
   1657   1670     1
   1657   1671     1
   1658   1679     1
   1658   1669     1
   1658   1661     1
   1658   1662     1
   1659   1679     1
   1659   1669     1
   1659   1661     1
   1659   1662     1
   1660   1679     1
   1661   1678     1
   1661   1670     1
   1661   1671     1
   1662   1678     1
   1662   1670     1
   1662   1671     1
   1663   1679     1
   1664   3458     1
   1664   1676     1
   1664   1677     1
   1665   3458     1
   1665   1676     1
   1665   1677     1
   1666   1679     1
   1667   3426     1
   1667   1673     1
   1667   1674     1
   1668   3426     1
   1668   1673     1
   1668   1674     1
   1672   3397     1
   1672   3398     1
   1673   3396     1
   1674   3396     1
   1675   3429     1
   1675   3430     1
   1676   3428     1
   1677   3428     1
   1680   1694     1
   1680   1695     1
   1680   1697     1
   1680   1698     1
   1680   1691     1
   1680   1692     1
   1681   1685     1
   1681   1686     1
   1681   1688     1
   1681   1689     1
   1681   1706     1
   1681   1707     1
   1682   1684     1
   1682   1687     1
   1682   1709     1
   1682   1705     1
   1682   1694     1
   1682   1695     1
   1683   1684     1
   1683   1687     1
   1683   1709     1
   1683   1705     1
   1683   1694     1
   1683   1695     1
   1684   1688     1
   1684   1689     1
   1684   1703     1
   1684   1704     1
   1685   1687     1
   1685   1709     1
   1685   1702     1
   1685   1697     1
   1685   1698     1
   1686   1687     1
   1686   1709     1
   1686   1702     1
   1686   1697     1
   1686   1698     1
   1687   1700     1
   1687   1701     1
   1688   1709     1
   1688   1699     1
   1688   1691     1
   1688   1692     1
   1689   1709     1
   1689   1699     1
   1689   1691     1
   1689   1692     1
   1690   1709     1
   1691   1708     1
   1691   1700     1
   1691   1701     1
   1692   1708     1
   1692   1700     1
   1692   1701     1
   1693   1709     1
   1694   3522     1
   1694   1706     1
   1694   1707     1
   1695   3522     1
   1695   1706     1
   1695   1707     1
   1696   1709     1
   1697   3490     1
   1697   1703     1
   1697   1704     1
   1698   3490     1
   1698   1703     1
   1698   1704     1
   1702   3461     1
   1702   3462     1
   1703   3460     1
   1704   3460     1
   1705   3493     1
   1705   3494     1
   1706   3492     1
   1707   3492     1
   1710   1724     1
   1710   1725     1
   1710   1727     1
   1710   1728     1
   1710   1721     1
   1710   1722     1
   1711   1715     1
   1711   1716     1
   1711   1718     1
   1711   1719     1
   1711   1736     1
   1711   1737     1
   1712   1714     1
   1712   1717     1
   1712   1739     1
   1712   1735     1
   1712   1724     1
   1712   1725     1
   1713   1714     1
   1713   1717     1
   1713   1739     1
   1713   1735     1
   1713   1724     1
   1713   1725     1
   1714   1718     1
   1714   1719     1
   1714   1733     1
   1714   1734     1
   1715   1717     1
   1715   1739     1
   1715   1732     1
   1715   1727     1
   1715   1728     1
   1716   1717     1
   1716   1739     1
   1716   1732     1
   1716   1727     1
   1716   1728     1
   1717   1730     1
   1717   1731     1
   1718   1739     1
   1718   1729     1
   1718   1721     1
   1718   1722     1
   1719   1739     1
   1719   1729     1
   1719   1721     1
   1719   1722     1
   1720   1739     1
   1721   1738     1
   1721   1730     1
   1721   1731     1
   1722   1738     1
   1722   1730     1
   1722   1731     1
   1723   1739     1
   1724   3586     1
   1724   1736     1
   1724   1737     1
   1725   3586     1
   1725   1736     1
   1725   1737     1
   1726   1739     1
   1727   3554     1
   1727   1733     1
   1727   1734     1
   1728   3554     1
   1728   1733     1
   1728   1734     1
   1732   3525     1
   1732   3526     1
   1733   3524     1
   1734   3524     1
   1735   3557     1
   1735   3558     1
   1736   3556     1
   1737   3556     1
   1740   1754     1
   1740   1755     1
   1740   1757     1
   1740   1758     1
   1740   1751     1
   1740   1752     1
   1741   1745     1
   1741   1746     1
   1741   1748     1
   1741   1749     1
   1741   1766     1
   1741   1767     1
   1742   1744     1
   1742   1747     1
   1742   1769     1
   1742   1765     1
   1742   1754     1
   1742   1755     1
   1743   1744     1
   1743   1747     1
   1743   1769     1
   1743   1765     1
   1743   1754     1
   1743   1755     1
   1744   1748     1
   1744   1749     1
   1744   1763     1
   1744   1764     1
   1745   1747     1
   1745   1769     1
   1745   1762     1
   1745   1757     1
   1745   1758     1
   1746   1747     1
   1746   1769     1
   1746   1762     1
   1746   1757     1
   1746   1758     1
   1747   1760     1
   1747   1761     1
   1748   1769     1
   1748   1759     1
   1748   1751     1
   1748   1752     1
   1749   1769     1
   1749   1759     1
   1749   1751     1
   1749   1752     1
   1750   1769     1
   1751   1768     1
   1751   1760     1
   1751   1761     1
   1752   1768     1
   1752   1760     1
   1752   1761     1
   1753   1769     1
   1754   3650     1
   1754   1766     1
   1754   1767     1
   1755   3650     1
   1755   1766     1
   1755   1767     1
   1756   1769     1
   1757   3618     1
   1757   1763     1
   1757   1764     1
   1758   3618     1
   1758   1763     1
   1758   1764     1
   1762   3589     1
   1762   3590     1
   1763   3588     1
   1764   3588     1
   1765   3621     1
   1765   3622     1
   1766   3620     1
   1767   3620     1
   1770   1784     1
   1770   1785     1
   1770   1787     1
   1770   1788     1
   1770   1781     1
   1770   1782     1
   1771   1775     1
   1771   1776     1
   1771   1778     1
   1771   1779     1
   1771   1796     1
   1771   1797     1
   1772   1774     1
   1772   1777     1
   1772   1799     1
   1772   1795     1
   1772   1784     1
   1772   1785     1
   1773   1774     1
   1773   1777     1
   1773   1799     1
   1773   1795     1
   1773   1784     1
   1773   1785     1
   1774   1778     1
   1774   1779     1
   1774   1793     1
   1774   1794     1
   1775   1777     1
   1775   1799     1
   1775   1792     1
   1775   1787     1
   1775   1788     1
   1776   1777     1
   1776   1799     1
   1776   1792     1
   1776   1787     1
   1776   1788     1
   1777   1790     1
   1777   1791     1
   1778   1799     1
   1778   1789     1
   1778   1781     1
   1778   1782     1
   1779   1799     1
   1779   1789     1
   1779   1781     1
   1779   1782     1
   1780   1799     1
   1781   1798     1
   1781   1790     1
   1781   1791     1
   1782   1798     1
   1782   1790     1
   1782   1791     1
   1783   1799     1
   1784   3714     1
   1784   1796     1
   1784   1797     1
   1785   3714     1
   1785   1796     1
   1785   1797     1
   1786   1799     1
   1787   3682     1
   1787   1793     1
   1787   1794     1
   1788   3682     1
   1788   1793     1
   1788   1794     1
   1792   3653     1
   1792   3654     1
   1793   3652     1
   1794   3652     1
   1795   3685     1
   1795   3686     1
   1796   3684     1
   1797   3684     1
   1800   1814     1
   1800   1815     1
   1800   1817     1
   1800   1818     1
   1800   1811     1
   1800   1812     1
   1801   1805     1
   1801   1806     1
   1801   1808     1
   1801   1809     1
   1801   1826     1
   1801   1827     1
   1802   1804     1
   1802   1807     1
   1802   1829     1
   1802   1825     1
   1802   1814     1
   1802   1815     1
   1803   1804     1
   1803   1807     1
   1803   1829     1
   1803   1825     1
   1803   1814     1
   1803   1815     1
   1804   1808     1
   1804   1809     1
   1804   1823     1
   1804   1824     1
   1805   1807     1
   1805   1829     1
   1805   1822     1
   1805   1817     1
   1805   1818     1
   1806   1807     1
   1806   1829     1
   1806   1822     1
   1806   1817     1
   1806   1818     1
   1807   1820     1
   1807   1821     1
   1808   1829     1
   1808   1819     1
   1808   1811     1
   1808   1812     1
   1809   1829     1
   1809   1819     1
   1809   1811     1
   1809   1812     1
   1810   1829     1
   1811   1828     1
   1811   1820     1
   1811   1821     1
   1812   1828     1
   1812   1820     1
   1812   1821     1
   1813   1829     1
   1814   3778     1
   1814   1826     1
   1814   1827     1
   1815   3778     1
   1815   1826     1
   1815   1827     1
   1816   1829     1
   1817   3746     1
   1817   1823     1
   1817   1824     1
   1818   3746     1
   1818   1823     1
   1818   1824     1
   1822   3717     1
   1822   3718     1
   1823   3716     1
   1824   3716     1
   1825   3749     1
   1825   3750     1
   1826   3748     1
   1827   3748     1
   1830   1844     1
   1830   1845     1
   1830   1847     1
   1830   1848     1
   1830   1841     1
   1830   1842     1
   1831   1835     1
   1831   1836     1
   1831   1838     1
   1831   1839     1
   1831   1856     1
   1831   1857     1
   1832   1834     1
   1832   1837     1
   1832   1859     1
   1832   1855     1
   1832   1844     1
   1832   1845     1
   1833   1834     1
   1833   1837     1
   1833   1859     1
   1833   1855     1
   1833   1844     1
   1833   1845     1
   1834   1838     1
   1834   1839     1
   1834   1853     1
   1834   1854     1
   1835   1837     1
   1835   1859     1
   1835   1852     1
   1835   1847     1
   1835   1848     1
   1836   1837     1
   1836   1859     1
   1836   1852     1
   1836   1847     1
   1836   1848     1
   1837   1850     1
   1837   1851     1
   1838   1859     1
   1838   1849     1
   1838   1841     1
   1838   1842     1
   1839   1859     1
   1839   1849     1
   1839   1841     1
   1839   1842     1
   1840   1859     1
   1841   1858     1
   1841   1850     1
   1841   1851     1
   1842   1858     1
   1842   1850     1
   1842   1851     1
   1843   1859     1
   1844   3842     1
   1844   1856     1
   1844   1857     1
   1845   3842     1
   1845   1856     1
   1845   1857     1
   1846   1859     1
   1847   3810     1
   1847   1853     1
   1847   1854     1
   1848   3810     1
   1848   1853     1
   1848   1854     1
   1852   3781     1
   1852   3782     1
   1853   3780     1
   1854   3780     1
   1855   3813     1
   1855   3814     1
   1856   3812     1
   1857   3812     1
   1860   1874     1
   1860   1875     1
   1860   1877     1
   1860   1878     1
   1860   1871     1
   1860   1872     1
   1861   1865     1
   1861   1866     1
   1861   1868     1
   1861   1869     1
   1861   1886     1
   1861   1887     1
   1862   1864     1
   1862   1867     1
   1862   1889     1
   1862   1885     1
   1862   1874     1
   1862   1875     1
   1863   1864     1
   1863   1867     1
   1863   1889     1
   1863   1885     1
   1863   1874     1
   1863   1875     1
   1864   1868     1
   1864   1869     1
   1864   1883     1
   1864   1884     1
   1865   1867     1
   1865   1889     1
   1865   1882     1
   1865   1877     1
   1865   1878     1
   1866   1867     1
   1866   1889     1
   1866   1882     1
   1866   1877     1
   1866   1878     1
   1867   1880     1
   1867   1881     1
   1868   1889     1
   1868   1879     1
   1868   1871     1
   1868   1872     1
   1869   1889     1
   1869   1879     1
   1869   1871     1
   1869   1872     1
   1870   1889     1
   1871   1888     1
   1871   1880     1
   1871   1881     1
   1872   1888     1
   1872   1880     1
   1872   1881     1
   1873   1889     1
   1874   3906     1
   1874   1886     1
   1874   1887     1
   1875   3906     1
   1875   1886     1
   1875   1887     1
   1876   1889     1
   1877   3874     1
   1877   1883     1
   1877   1884     1
   1878   3874     1
   1878   1883     1
   1878   1884     1
   1882   3845     1
   1882   3846     1
   1883   3844     1
   1884   3844     1
   1885   3877     1
   1885   3878     1
   1886   3876     1
   1887   3876     1
   1890   1904     1
   1890   1905     1
   1890   1907     1
   1890   1908     1
   1890   1901     1
   1890   1902     1
   1891   1895     1
   1891   1896     1
   1891   1898     1
   1891   1899     1
   1891   1916     1
   1891   1917     1
   1892   1894     1
   1892   1897     1
   1892   1919     1
   1892   1915     1
   1892   1904     1
   1892   1905     1
   1893   1894     1
   1893   1897     1
   1893   1919     1
   1893   1915     1
   1893   1904     1
   1893   1905     1
   1894   1898     1
   1894   1899     1
   1894   1913     1
   1894   1914     1
   1895   1897     1
   1895   1919     1
   1895   1912     1
   1895   1907     1
   1895   1908     1
   1896   1897     1
   1896   1919     1
   1896   1912     1
   1896   1907     1
   1896   1908     1
   1897   1910     1
   1897   1911     1
   1898   1919     1
   1898   1909     1
   1898   1901     1
   1898   1902     1
   1899   1919     1
   1899   1909     1
   1899   1901     1
   1899   1902     1
   1900   1919     1
   1901   1918     1
   1901   1910     1
   1901   1911     1
   1902   1918     1
   1902   1910     1
   1902   1911     1
   1903   1919     1
   1904   3970     1
   1904   1916     1
   1904   1917     1
   1905   3970     1
   1905   1916     1
   1905   1917     1
   1906   1919     1
   1907   3938     1
   1907   1913     1
   1907   1914     1
   1908   3938     1
   1908   1913     1
   1908   1914     1
   1912   3909     1
   1912   3910     1
   1913   3908     1
   1914   3908     1
   1915   3941     1
   1915   3942     1
   1916   3940     1
   1917   3940     1
   1920   1934     1
   1920   1935     1
   1920   1937     1
   1920   1938     1
   1920   1931     1
   1920   1932     1
   1921   1925     1
   1921   1926     1
   1921   1928     1
   1921   1929     1
   1921   1946     1
   1921   1947     1
   1922   1924     1
   1922   1927     1
   1922   1949     1
   1922   1945     1
   1922   1934     1
   1922   1935     1
   1923   1924     1
   1923   1927     1
   1923   1949     1
   1923   1945     1
   1923   1934     1
   1923   1935     1
   1924   1928     1
   1924   1929     1
   1924   1943     1
   1924   1944     1
   1925   1927     1
   1925   1949     1
   1925   1942     1
   1925   1937     1
   1925   1938     1
   1926   1927     1
   1926   1949     1
   1926   1942     1
   1926   1937     1
   1926   1938     1
   1927   1940     1
   1927   1941     1
   1928   1949     1
   1928   1939     1
   1928   1931     1
   1928   1932     1
   1929   1949     1
   1929   1939     1
   1929   1931     1
   1929   1932     1
   1930   1949     1
   1931   1948     1
   1931   1940     1
   1931   1941     1
   1932   1948     1
   1932   1940     1
   1932   1941     1
   1933   1949     1
   1934   4034     1
   1934   1946     1
   1934   1947     1
   1935   4034     1
   1935   1946     1
   1935   1947     1
   1936   1949     1
   1937   4002     1
   1937   1943     1
   1937   1944     1
   1938   4002     1
   1938   1943     1
   1938   1944     1
   1942   3973     1
   1942   3974     1
   1943   3972     1
   1944   3972     1
   1945   4005     1
   1945   4006     1
   1946   4004     1
   1947   4004     1
   1950   1964     1
   1950   1965     1
   1950   1967     1
   1950   1968     1
   1950   1961     1
   1950   1962     1
   1951   1955     1
   1951   1956     1
   1951   1958     1
   1951   1959     1
   1951   1976     1
   1951   1977     1
   1952   1954     1
   1952   1957     1
   1952   1979     1
   1952   1975     1
   1952   1964     1
   1952   1965     1
   1953   1954     1
   1953   1957     1
   1953   1979     1
   1953   1975     1
   1953   1964     1
   1953   1965     1
   1954   1958     1
   1954   1959     1
   1954   1973     1
   1954   1974     1
   1955   1957     1
   1955   1979     1
   1955   1972     1
   1955   1967     1
   1955   1968     1
   1956   1957     1
   1956   1979     1
   1956   1972     1
   1956   1967     1
   1956   1968     1
   1957   1970     1
   1957   1971     1
   1958   1979     1
   1958   1969     1
   1958   1961     1
   1958   1962     1
   1959   1979     1
   1959   1969     1
   1959   1961     1
   1959   1962     1
   1960   1979     1
   1961   1978     1
   1961   1970     1
   1961   1971     1
   1962   1978     1
   1962   1970     1
   1962   1971     1
   1963   1979     1
   1964   4098     1
   1964   1976     1
   1964   1977     1
   1965   4098     1
   1965   1976     1
   1965   1977     1
   1966   1979     1
   1967   4066     1
   1967   1973     1
   1967   1974     1
   1968   4066     1
   1968   1973     1
   1968   1974     1
   1972   4037     1
   1972   4038     1
   1973   4036     1
   1974   4036     1
   1975   4069     1
   1975   4070     1
   1976   4068     1
   1977   4068     1
   1980   1994     1
   1980   1995     1
   1980   1997     1
   1980   1998     1
   1980   1991     1
   1980   1992     1
   1981   1985     1
   1981   1986     1
   1981   1988     1
   1981   1989     1
   1981   2006     1
   1981   2007     1
   1982   1984     1
   1982   1987     1
   1982   2009     1
   1982   2005     1
   1982   1994     1
   1982   1995     1
   1983   1984     1
   1983   1987     1
   1983   2009     1
   1983   2005     1
   1983   1994     1
   1983   1995     1
   1984   1988     1
   1984   1989     1
   1984   2003     1
   1984   2004     1
   1985   1987     1
   1985   2009     1
   1985   2002     1
   1985   1997     1
   1985   1998     1
   1986   1987     1
   1986   2009     1
   1986   2002     1
   1986   1997     1
   1986   1998     1
   1987   2000     1
   1987   2001     1
   1988   2009     1
   1988   1999     1
   1988   1991     1
   1988   1992     1
   1989   2009     1
   1989   1999     1
   1989   1991     1
   1989   1992     1
   1990   2009     1
   1991   2008     1
   1991   2000     1
   1991   2001     1
   1992   2008     1
   1992   2000     1
   1992   2001     1
   1993   2009     1
   1994   4162     1
   1994   2006     1
   1994   2007     1
   1995   4162     1
   1995   2006     1
   1995   2007     1
   1996   2009     1
   1997   4130     1
   1997   2003     1
   1997   2004     1
   1998   4130     1
   1998   2003     1
   1998   2004     1
   2002   4101     1
   2002   4102     1
   2003   4100     1
   2004   4100     1
   2005   4133     1
   2005   4134     1
   2006   4132     1
   2007   4132     1
   2010   2024     1
   2010   2025     1
   2010   2027     1
   2010   2028     1
   2010   2021     1
   2010   2022     1
   2011   2015     1
   2011   2016     1
   2011   2018     1
   2011   2019     1
   2011   2036     1
   2011   2037     1
   2012   2014     1
   2012   2017     1
   2012   2039     1
   2012   2035     1
   2012   2024     1
   2012   2025     1
   2013   2014     1
   2013   2017     1
   2013   2039     1
   2013   2035     1
   2013   2024     1
   2013   2025     1
   2014   2018     1
   2014   2019     1
   2014   2033     1
   2014   2034     1
   2015   2017     1
   2015   2039     1
   2015   2032     1
   2015   2027     1
   2015   2028     1
   2016   2017     1
   2016   2039     1
   2016   2032     1
   2016   2027     1
   2016   2028     1
   2017   2030     1
   2017   2031     1
   2018   2039     1
   2018   2029     1
   2018   2021     1
   2018   2022     1
   2019   2039     1
   2019   2029     1
   2019   2021     1
   2019   2022     1
   2020   2039     1
   2021   2038     1
   2021   2030     1
   2021   2031     1
   2022   2038     1
   2022   2030     1
   2022   2031     1
   2023   2039     1
   2024   4226     1
   2024   2036     1
   2024   2037     1
   2025   4226     1
   2025   2036     1
   2025   2037     1
   2026   2039     1
   2027   4194     1
   2027   2033     1
   2027   2034     1
   2028   4194     1
   2028   2033     1
   2028   2034     1
   2032   4165     1
   2032   4166     1
   2033   4164     1
   2034   4164     1
   2035   4197     1
   2035   4198     1
   2036   4196     1
   2037   4196     1
   2040   2054     1
   2040   2055     1
   2040   2057     1
   2040   2058     1
   2040   2051     1
   2040   2052     1
   2041   2045     1
   2041   2046     1
   2041   2048     1
   2041   2049     1
   2041   2066     1
   2041   2067     1
   2042   2044     1
   2042   2047     1
   2042   2069     1
   2042   2065     1
   2042   2054     1
   2042   2055     1
   2043   2044     1
   2043   2047     1
   2043   2069     1
   2043   2065     1
   2043   2054     1
   2043   2055     1
   2044   2048     1
   2044   2049     1
   2044   2063     1
   2044   2064     1
   2045   2047     1
   2045   2069     1
   2045   2062     1
   2045   2057     1
   2045   2058     1
   2046   2047     1
   2046   2069     1
   2046   2062     1
   2046   2057     1
   2046   2058     1
   2047   2060     1
   2047   2061     1
   2048   2069     1
   2048   2059     1
   2048   2051     1
   2048   2052     1
   2049   2069     1
   2049   2059     1
   2049   2051     1
   2049   2052     1
   2050   2069     1
   2051   2068     1
   2051   2060     1
   2051   2061     1
   2052   2068     1
   2052   2060     1
   2052   2061     1
   2053   2069     1
   2054   4290     1
   2054   2066     1
   2054   2067     1
   2055   4290     1
   2055   2066     1
   2055   2067     1
   2056   2069     1
   2057   4258     1
   2057   2063     1
   2057   2064     1
   2058   4258     1
   2058   2063     1
   2058   2064     1
   2062   4229     1
   2062   4230     1
   2063   4228     1
   2064   4228     1
   2065   4261     1
   2065   4262     1
   2066   4260     1
   2067   4260     1
   2070   2084     1
   2070   2085     1
   2070   2087     1
   2070   2088     1
   2070   2081     1
   2070   2082     1
   2071   2075     1
   2071   2076     1
   2071   2078     1
   2071   2079     1
   2071   2096     1
   2071   2097     1
   2072   2074     1
   2072   2077     1
   2072   2099     1
   2072   2095     1
   2072   2084     1
   2072   2085     1
   2073   2074     1
   2073   2077     1
   2073   2099     1
   2073   2095     1
   2073   2084     1
   2073   2085     1
   2074   2078     1
   2074   2079     1
   2074   2093     1
   2074   2094     1
   2075   2077     1
   2075   2099     1
   2075   2092     1
   2075   2087     1
   2075   2088     1
   2076   2077     1
   2076   2099     1
   2076   2092     1
   2076   2087     1
   2076   2088     1
   2077   2090     1
   2077   2091     1
   2078   2099     1
   2078   2089     1
   2078   2081     1
   2078   2082     1
   2079   2099     1
   2079   2089     1
   2079   2081     1
   2079   2082     1
   2080   2099     1
   2081   2098     1
   2081   2090     1
   2081   2091     1
   2082   2098     1
   2082   2090     1
   2082   2091     1
   2083   2099     1
   2084   4354     1
   2084   2096     1
   2084   2097     1
   2085   4354     1
   2085   2096     1
   2085   2097     1
   2086   2099     1
   2087   4322     1
   2087   2093     1
   2087   2094     1
   2088   4322     1
   2088   2093     1
   2088   2094     1
   2092   4293     1
   2092   4294     1
   2093   4292     1
   2094   4292     1
   2095   4325     1
   2095   4326     1
   2096   4324     1
   2097   4324     1
   2100   2114     1
   2100   2115     1
   2100   2117     1
   2100   2118     1
   2100   2111     1
   2100   2112     1
   2101   2105     1
   2101   2106     1
   2101   2108     1
   2101   2109     1
   2101   2126     1
   2101   2127     1
   2102   2104     1
   2102   2107     1
   2102   2129     1
   2102   2125     1
   2102   2114     1
   2102   2115     1
   2103   2104     1
   2103   2107     1
   2103   2129     1
   2103   2125     1
   2103   2114     1
   2103   2115     1
   2104   2108     1
   2104   2109     1
   2104   2123     1
   2104   2124     1
   2105   2107     1
   2105   2129     1
   2105   2122     1
   2105   2117     1
   2105   2118     1
   2106   2107     1
   2106   2129     1
   2106   2122     1
   2106   2117     1
   2106   2118     1
   2107   2120     1
   2107   2121     1
   2108   2129     1
   2108   2119     1
   2108   2111     1
   2108   2112     1
   2109   2129     1
   2109   2119     1
   2109   2111     1
   2109   2112     1
   2110   2129     1
   2111   2128     1
   2111   2120     1
   2111   2121     1
   2112   2128     1
   2112   2120     1
   2112   2121     1
   2113   2129     1
   2114   4418     1
   2114   2126     1
   2114   2127     1
   2115   4418     1
   2115   2126     1
   2115   2127     1
   2116   2129     1
   2117   4386     1
   2117   2123     1
   2117   2124     1
   2118   4386     1
   2118   2123     1
   2118   2124     1
   2122   4357     1
   2122   4358     1
   2123   4356     1
   2124   4356     1
   2125   4389     1
   2125   4390     1
   2126   4388     1
   2127   4388     1
   2130   2144     1
   2130   2145     1
   2130   2147     1
   2130   2148     1
   2130   2141     1
   2130   2142     1
   2131   2135     1
   2131   2136     1
   2131   2138     1
   2131   2139     1
   2131   2156     1
   2131   2157     1
   2132   2134     1
   2132   2137     1
   2132   2159     1
   2132   2155     1
   2132   2144     1
   2132   2145     1
   2133   2134     1
   2133   2137     1
   2133   2159     1
   2133   2155     1
   2133   2144     1
   2133   2145     1
   2134   2138     1
   2134   2139     1
   2134   2153     1
   2134   2154     1
   2135   2137     1
   2135   2159     1
   2135   2152     1
   2135   2147     1
   2135   2148     1
   2136   2137     1
   2136   2159     1
   2136   2152     1
   2136   2147     1
   2136   2148     1
   2137   2150     1
   2137   2151     1
   2138   2159     1
   2138   2149     1
   2138   2141     1
   2138   2142     1
   2139   2159     1
   2139   2149     1
   2139   2141     1
   2139   2142     1
   2140   2159     1
   2141   2158     1
   2141   2150     1
   2141   2151     1
   2142   2158     1
   2142   2150     1
   2142   2151     1
   2143   2159     1
   2144   4482     1
   2144   2156     1
   2144   2157     1
   2145   4482     1
   2145   2156     1
   2145   2157     1
   2146   2159     1
   2147   4450     1
   2147   2153     1
   2147   2154     1
   2148   4450     1
   2148   2153     1
   2148   2154     1
   2152   4421     1
   2152   4422     1
   2153   4420     1
   2154   4420     1
   2155   4453     1
   2155   4454     1
   2156   4452     1
   2157   4452     1
   2160   2174     1
   2160   2175     1
   2160   2177     1
   2160   2178     1
   2160   2171     1
   2160   2172     1
   2161   2165     1
   2161   2166     1
   2161   2168     1
   2161   2169     1
   2161   2186     1
   2161   2187     1
   2162   2164     1
   2162   2167     1
   2162   2189     1
   2162   2185     1
   2162   2174     1
   2162   2175     1
   2163   2164     1
   2163   2167     1
   2163   2189     1
   2163   2185     1
   2163   2174     1
   2163   2175     1
   2164   2168     1
   2164   2169     1
   2164   2183     1
   2164   2184     1
   2165   2167     1
   2165   2189     1
   2165   2182     1
   2165   2177     1
   2165   2178     1
   2166   2167     1
   2166   2189     1
   2166   2182     1
   2166   2177     1
   2166   2178     1
   2167   2180     1
   2167   2181     1
   2168   2189     1
   2168   2179     1
   2168   2171     1
   2168   2172     1
   2169   2189     1
   2169   2179     1
   2169   2171     1
   2169   2172     1
   2170   2189     1
   2171   2188     1
   2171   2180     1
   2171   2181     1
   2172   2188     1
   2172   2180     1
   2172   2181     1
   2173   2189     1
   2174   4546     1
   2174   2186     1
   2174   2187     1
   2175   4546     1
   2175   2186     1
   2175   2187     1
   2176   2189     1
   2177   4514     1
   2177   2183     1
   2177   2184     1
   2178   4514     1
   2178   2183     1
   2178   2184     1
   2182   4485     1
   2182   4486     1
   2183   4484     1
   2184   4484     1
   2185   4517     1
   2185   4518     1
   2186   4516     1
   2187   4516     1
   2190   2204     1
   2190   2205     1
   2190   2207     1
   2190   2208     1
   2190   2201     1
   2190   2202     1
   2191   2195     1
   2191   2196     1
   2191   2198     1
   2191   2199     1
   2191   2216     1
   2191   2217     1
   2192   2194     1
   2192   2197     1
   2192   2219     1
   2192   2215     1
   2192   2204     1
   2192   2205     1
   2193   2194     1
   2193   2197     1
   2193   2219     1
   2193   2215     1
   2193   2204     1
   2193   2205     1
   2194   2198     1
   2194   2199     1
   2194   2213     1
   2194   2214     1
   2195   2197     1
   2195   2219     1
   2195   2212     1
   2195   2207     1
   2195   2208     1
   2196   2197     1
   2196   2219     1
   2196   2212     1
   2196   2207     1
   2196   2208     1
   2197   2210     1
   2197   2211     1
   2198   2219     1
   2198   2209     1
   2198   2201     1
   2198   2202     1
   2199   2219     1
   2199   2209     1
   2199   2201     1
   2199   2202     1
   2200   2219     1
   2201   2218     1
   2201   2210     1
   2201   2211     1
   2202   2218     1
   2202   2210     1
   2202   2211     1
   2203   2219     1
   2204   4610     1
   2204   2216     1
   2204   2217     1
   2205   4610     1
   2205   2216     1
   2205   2217     1
   2206   2219     1
   2207   4578     1
   2207   2213     1
   2207   2214     1
   2208   4578     1
   2208   2213     1
   2208   2214     1
   2212   4549     1
   2212   4550     1
   2213   4548     1
   2214   4548     1
   2215   4581     1
   2215   4582     1
   2216   4580     1
   2217   4580     1
   2220   2234     1
   2220   2235     1
   2220   2237     1
   2220   2238     1
   2220   2231     1
   2220   2232     1
   2221   2225     1
   2221   2226     1
   2221   2228     1
   2221   2229     1
   2221   2246     1
   2221   2247     1
   2222   2224     1
   2222   2227     1
   2222   2249     1
   2222   2245     1
   2222   2234     1
   2222   2235     1
   2223   2224     1
   2223   2227     1
   2223   2249     1
   2223   2245     1
   2223   2234     1
   2223   2235     1
   2224   2228     1
   2224   2229     1
   2224   2243     1
   2224   2244     1
   2225   2227     1
   2225   2249     1
   2225   2242     1
   2225   2237     1
   2225   2238     1
   2226   2227     1
   2226   2249     1
   2226   2242     1
   2226   2237     1
   2226   2238     1
   2227   2240     1
   2227   2241     1
   2228   2249     1
   2228   2239     1
   2228   2231     1
   2228   2232     1
   2229   2249     1
   2229   2239     1
   2229   2231     1
   2229   2232     1
   2230   2249     1
   2231   2248     1
   2231   2240     1
   2231   2241     1
   2232   2248     1
   2232   2240     1
   2232   2241     1
   2233   2249     1
   2234   4674     1
   2234   2246     1
   2234   2247     1
   2235   4674     1
   2235   2246     1
   2235   2247     1
   2236   2249     1
   2237   4642     1
   2237   2243     1
   2237   2244     1
   2238   4642     1
   2238   2243     1
   2238   2244     1
   2242   4613     1
   2242   4614     1
   2243   4612     1
   2244   4612     1
   2245   4645     1
   2245   4646     1
   2246   4644     1
   2247   4644     1
   2250   2264     1
   2250   2265     1
   2250   2267     1
   2250   2268     1
   2250   2261     1
   2250   2262     1
   2251   2255     1
   2251   2256     1
   2251   2258     1
   2251   2259     1
   2251   2276     1
   2251   2277     1
   2252   2254     1
   2252   2257     1
   2252   2279     1
   2252   2275     1
   2252   2264     1
   2252   2265     1
   2253   2254     1
   2253   2257     1
   2253   2279     1
   2253   2275     1
   2253   2264     1
   2253   2265     1
   2254   2258     1
   2254   2259     1
   2254   2273     1
   2254   2274     1
   2255   2257     1
   2255   2279     1
   2255   2272     1
   2255   2267     1
   2255   2268     1
   2256   2257     1
   2256   2279     1
   2256   2272     1
   2256   2267     1
   2256   2268     1
   2257   2270     1
   2257   2271     1
   2258   2279     1
   2258   2269     1
   2258   2261     1
   2258   2262     1
   2259   2279     1
   2259   2269     1
   2259   2261     1
   2259   2262     1
   2260   2279     1
   2261   2278     1
   2261   2270     1
   2261   2271     1
   2262   2278     1
   2262   2270     1
   2262   2271     1
   2263   2279     1
   2264   4738     1
   2264   2276     1
   2264   2277     1
   2265   4738     1
   2265   2276     1
   2265   2277     1
   2266   2279     1
   2267   4706     1
   2267   2273     1
   2267   2274     1
   2268   4706     1
   2268   2273     1
   2268   2274     1
   2272   4677     1
   2272   4678     1
   2273   4676     1
   2274   4676     1
   2275   4709     1
   2275   4710     1
   2276   4708     1
   2277   4708     1
   2280   2294     1
   2280   2295     1
   2280   2297     1
   2280   2298     1
   2280   2291     1
   2280   2292     1
   2281   2285     1
   2281   2286     1
   2281   2288     1
   2281   2289     1
   2281   2306     1
   2281   2307     1
   2282   2284     1
   2282   2287     1
   2282   2309     1
   2282   2305     1
   2282   2294     1
   2282   2295     1
   2283   2284     1
   2283   2287     1
   2283   2309     1
   2283   2305     1
   2283   2294     1
   2283   2295     1
   2284   2288     1
   2284   2289     1
   2284   2303     1
   2284   2304     1
   2285   2287     1
   2285   2309     1
   2285   2302     1
   2285   2297     1
   2285   2298     1
   2286   2287     1
   2286   2309     1
   2286   2302     1
   2286   2297     1
   2286   2298     1
   2287   2300     1
   2287   2301     1
   2288   2309     1
   2288   2299     1
   2288   2291     1
   2288   2292     1
   2289   2309     1
   2289   2299     1
   2289   2291     1
   2289   2292     1
   2290   2309     1
   2291   2308     1
   2291   2300     1
   2291   2301     1
   2292   2308     1
   2292   2300     1
   2292   2301     1
   2293   2309     1
   2294   4802     1
   2294   2306     1
   2294   2307     1
   2295   4802     1
   2295   2306     1
   2295   2307     1
   2296   2309     1
   2297   4770     1
   2297   2303     1
   2297   2304     1
   2298   4770     1
   2298   2303     1
   2298   2304     1
   2302   4741     1
   2302   4742     1
   2303   4740     1
   2304   4740     1
   2305   4773     1
   2305   4774     1
   2306   4772     1
   2307   4772     1
   2310   2324     1
   2310   2325     1
   2310   2327     1
   2310   2328     1
   2310   2321     1
   2310   2322     1
   2311   2315     1
   2311   2316     1
   2311   2318     1
   2311   2319     1
   2311   2336     1
   2311   2337     1
   2312   2314     1
   2312   2317     1
   2312   2339     1
   2312   2335     1
   2312   2324     1
   2312   2325     1
   2313   2314     1
   2313   2317     1
   2313   2339     1
   2313   2335     1
   2313   2324     1
   2313   2325     1
   2314   2318     1
   2314   2319     1
   2314   2333     1
   2314   2334     1
   2315   2317     1
   2315   2339     1
   2315   2332     1
   2315   2327     1
   2315   2328     1
   2316   2317     1
   2316   2339     1
   2316   2332     1
   2316   2327     1
   2316   2328     1
   2317   2330     1
   2317   2331     1
   2318   2339     1
   2318   2329     1
   2318   2321     1
   2318   2322     1
   2319   2339     1
   2319   2329     1
   2319   2321     1
   2319   2322     1
   2320   2339     1
   2321   2338     1
   2321   2330     1
   2321   2331     1
   2322   2338     1
   2322   2330     1
   2322   2331     1
   2323   2339     1
   2324   4866     1
   2324   2336     1
   2324   2337     1
   2325   4866     1
   2325   2336     1
   2325   2337     1
   2326   2339     1
   2327   4834     1
   2327   2333     1
   2327   2334     1
   2328   4834     1
   2328   2333     1
   2328   2334     1
   2332   4805     1
   2332   4806     1
   2333   4804     1
   2334   4804     1
   2335   4837     1
   2335   4838     1
   2336   4836     1
   2337   4836     1
   2340   2354     1
   2340   2355     1
   2340   2357     1
   2340   2358     1
   2340   2351     1
   2340   2352     1
   2341   2345     1
   2341   2346     1
   2341   2348     1
   2341   2349     1
   2341   2366     1
   2341   2367     1
   2342   2344     1
   2342   2347     1
   2342   2369     1
   2342   2365     1
   2342   2354     1
   2342   2355     1
   2343   2344     1
   2343   2347     1
   2343   2369     1
   2343   2365     1
   2343   2354     1
   2343   2355     1
   2344   2348     1
   2344   2349     1
   2344   2363     1
   2344   2364     1
   2345   2347     1
   2345   2369     1
   2345   2362     1
   2345   2357     1
   2345   2358     1
   2346   2347     1
   2346   2369     1
   2346   2362     1
   2346   2357     1
   2346   2358     1
   2347   2360     1
   2347   2361     1
   2348   2369     1
   2348   2359     1
   2348   2351     1
   2348   2352     1
   2349   2369     1
   2349   2359     1
   2349   2351     1
   2349   2352     1
   2350   2369     1
   2351   2368     1
   2351   2360     1
   2351   2361     1
   2352   2368     1
   2352   2360     1
   2352   2361     1
   2353   2369     1
   2354   4930     1
   2354   2366     1
   2354   2367     1
   2355   4930     1
   2355   2366     1
   2355   2367     1
   2356   2369     1
   2357   4898     1
   2357   2363     1
   2357   2364     1
   2358   4898     1
   2358   2363     1
   2358   2364     1
   2362   4869     1
   2362   4870     1
   2363   4868     1
   2364   4868     1
   2365   4901     1
   2365   4902     1
   2366   4900     1
   2367   4900     1
   2370   2384     1
   2370   2385     1
   2370   2387     1
   2370   2388     1
   2370   2381     1
   2370   2382     1
   2371   2375     1
   2371   2376     1
   2371   2378     1
   2371   2379     1
   2371   2396     1
   2371   2397     1
   2372   2374     1
   2372   2377     1
   2372   2399     1
   2372   2395     1
   2372   2384     1
   2372   2385     1
   2373   2374     1
   2373   2377     1
   2373   2399     1
   2373   2395     1
   2373   2384     1
   2373   2385     1
   2374   2378     1
   2374   2379     1
   2374   2393     1
   2374   2394     1
   2375   2377     1
   2375   2399     1
   2375   2392     1
   2375   2387     1
   2375   2388     1
   2376   2377     1
   2376   2399     1
   2376   2392     1
   2376   2387     1
   2376   2388     1
   2377   2390     1
   2377   2391     1
   2378   2399     1
   2378   2389     1
   2378   2381     1
   2378   2382     1
   2379   2399     1
   2379   2389     1
   2379   2381     1
   2379   2382     1
   2380   2399     1
   2381   2398     1
   2381   2390     1
   2381   2391     1
   2382   2398     1
   2382   2390     1
   2382   2391     1
   2383   2399     1
   2384   4994     1
   2384   2396     1
   2384   2397     1
   2385   4994     1
   2385   2396     1
   2385   2397     1
   2386   2399     1
   2387   4962     1
   2387   2393     1
   2387   2394     1
   2388   4962     1
   2388   2393     1
   2388   2394     1
   2392   4933     1
   2392   4934     1
   2393   4932     1
   2394   4932     1
   2395   4965     1
   2395   4966     1
   2396   4964     1
   2397   4964     1
   2400   2414     1
   2400   2415     1
   2400   2417     1
   2400   2418     1
   2400   2411     1
   2400   2412     1
   2401   2405     1
   2401   2406     1
   2401   2408     1
   2401   2409     1
   2401   2426     1
   2401   2427     1
   2402   2404     1
   2402   2407     1
   2402   2429     1
   2402   2425     1
   2402   2414     1
   2402   2415     1
   2403   2404     1
   2403   2407     1
   2403   2429     1
   2403   2425     1
   2403   2414     1
   2403   2415     1
   2404   2408     1
   2404   2409     1
   2404   2423     1
   2404   2424     1
   2405   2407     1
   2405   2429     1
   2405   2422     1
   2405   2417     1
   2405   2418     1
   2406   2407     1
   2406   2429     1
   2406   2422     1
   2406   2417     1
   2406   2418     1
   2407   2420     1
   2407   2421     1
   2408   2429     1
   2408   2419     1
   2408   2411     1
   2408   2412     1
   2409   2429     1
   2409   2419     1
   2409   2411     1
   2409   2412     1
   2410   2429     1
   2411   2428     1
   2411   2420     1
   2411   2421     1
   2412   2428     1
   2412   2420     1
   2412   2421     1
   2413   2429     1
   2414   5058     1
   2414   2426     1
   2414   2427     1
   2415   5058     1
   2415   2426     1
   2415   2427     1
   2416   2429     1
   2417   5026     1
   2417   2423     1
   2417   2424     1
   2418   5026     1
   2418   2423     1
   2418   2424     1
   2422   4997     1
   2422   4998     1
   2423   4996     1
   2424   4996     1
   2425   5029     1
   2425   5030     1
   2426   5028     1
   2427   5028     1
   2430   2444     1
   2430   2445     1
   2430   2447     1
   2430   2448     1
   2430   2441     1
   2430   2442     1
   2431   2435     1
   2431   2436     1
   2431   2438     1
   2431   2439     1
   2431   2456     1
   2431   2457     1
   2432   2434     1
   2432   2437     1
   2432   2459     1
   2432   2455     1
   2432   2444     1
   2432   2445     1
   2433   2434     1
   2433   2437     1
   2433   2459     1
   2433   2455     1
   2433   2444     1
   2433   2445     1
   2434   2438     1
   2434   2439     1
   2434   2453     1
   2434   2454     1
   2435   2437     1
   2435   2459     1
   2435   2452     1
   2435   2447     1
   2435   2448     1
   2436   2437     1
   2436   2459     1
   2436   2452     1
   2436   2447     1
   2436   2448     1
   2437   2450     1
   2437   2451     1
   2438   2459     1
   2438   2449     1
   2438   2441     1
   2438   2442     1
   2439   2459     1
   2439   2449     1
   2439   2441     1
   2439   2442     1
   2440   2459     1
   2441   2458     1
   2441   2450     1
   2441   2451     1
   2442   2458     1
   2442   2450     1
   2442   2451     1
   2443   2459     1
   2444   5122     1
   2444   2456     1
   2444   2457     1
   2445   5122     1
   2445   2456     1
   2445   2457     1
   2446   2459     1
   2447   5090     1
   2447   2453     1
   2447   2454     1
   2448   5090     1
   2448   2453     1
   2448   2454     1
   2452   5061     1
   2452   5062     1
   2453   5060     1
   2454   5060     1
   2455   5093     1
   2455   5094     1
   2456   5092     1
   2457   5092     1
   2460   2474     1
   2460   2475     1
   2460   2477     1
   2460   2478     1
   2460   2471     1
   2460   2472     1
   2461   2465     1
   2461   2466     1
   2461   2468     1
   2461   2469     1
   2461   2486     1
   2461   2487     1
   2462   2464     1
   2462   2467     1
   2462   2489     1
   2462   2485     1
   2462   2474     1
   2462   2475     1
   2463   2464     1
   2463   2467     1
   2463   2489     1
   2463   2485     1
   2463   2474     1
   2463   2475     1
   2464   2468     1
   2464   2469     1
   2464   2483     1
   2464   2484     1
   2465   2467     1
   2465   2489     1
   2465   2482     1
   2465   2477     1
   2465   2478     1
   2466   2467     1
   2466   2489     1
   2466   2482     1
   2466   2477     1
   2466   2478     1
   2467   2480     1
   2467   2481     1
   2468   2489     1
   2468   2479     1
   2468   2471     1
   2468   2472     1
   2469   2489     1
   2469   2479     1
   2469   2471     1
   2469   2472     1
   2470   2489     1
   2471   2488     1
   2471   2480     1
   2471   2481     1
   2472   2488     1
   2472   2480     1
   2472   2481     1
   2473   2489     1
   2474   5186     1
   2474   2486     1
   2474   2487     1
   2475   5186     1
   2475   2486     1
   2475   2487     1
   2476   2489     1
   2477   5154     1
   2477   2483     1
   2477   2484     1
   2478   5154     1
   2478   2483     1
   2478   2484     1
   2482   5125     1
   2482   5126     1
   2483   5124     1
   2484   5124     1
   2485   5157     1
   2485   5158     1
   2486   5156     1
   2487   5156     1
   2490   2504     1
   2490   2505     1
   2490   2507     1
   2490   2508     1
   2490   2501     1
   2490   2502     1
   2491   2495     1
   2491   2496     1
   2491   2498     1
   2491   2499     1
   2491   2516     1
   2491   2517     1
   2492   2494     1
   2492   2497     1
   2492   2519     1
   2492   2515     1
   2492   2504     1
   2492   2505     1
   2493   2494     1
   2493   2497     1
   2493   2519     1
   2493   2515     1
   2493   2504     1
   2493   2505     1
   2494   2498     1
   2494   2499     1
   2494   2513     1
   2494   2514     1
   2495   2497     1
   2495   2519     1
   2495   2512     1
   2495   2507     1
   2495   2508     1
   2496   2497     1
   2496   2519     1
   2496   2512     1
   2496   2507     1
   2496   2508     1
   2497   2510     1
   2497   2511     1
   2498   2519     1
   2498   2509     1
   2498   2501     1
   2498   2502     1
   2499   2519     1
   2499   2509     1
   2499   2501     1
   2499   2502     1
   2500   2519     1
   2501   2518     1
   2501   2510     1
   2501   2511     1
   2502   2518     1
   2502   2510     1
   2502   2511     1
   2503   2519     1
   2504   5250     1
   2504   2516     1
   2504   2517     1
   2505   5250     1
   2505   2516     1
   2505   2517     1
   2506   2519     1
   2507   5218     1
   2507   2513     1
   2507   2514     1
   2508   5218     1
   2508   2513     1
   2508   2514     1
   2512   5189     1
   2512   5190     1
   2513   5188     1
   2514   5188     1
   2515   5221     1
   2515   5222     1
   2516   5220     1
   2517   5220     1
   2520   2534     1
   2520   2535     1
   2520   2537     1
   2520   2538     1
   2520   2531     1
   2520   2532     1
   2521   2525     1
   2521   2526     1
   2521   2528     1
   2521   2529     1
   2521   2546     1
   2521   2547     1
   2522   2524     1
   2522   2527     1
   2522   2549     1
   2522   2545     1
   2522   2534     1
   2522   2535     1
   2523   2524     1
   2523   2527     1
   2523   2549     1
   2523   2545     1
   2523   2534     1
   2523   2535     1
   2524   2528     1
   2524   2529     1
   2524   2543     1
   2524   2544     1
   2525   2527     1
   2525   2549     1
   2525   2542     1
   2525   2537     1
   2525   2538     1
   2526   2527     1
   2526   2549     1
   2526   2542     1
   2526   2537     1
   2526   2538     1
   2527   2540     1
   2527   2541     1
   2528   2549     1
   2528   2539     1
   2528   2531     1
   2528   2532     1
   2529   2549     1
   2529   2539     1
   2529   2531     1
   2529   2532     1
   2530   2549     1
   2531   2548     1
   2531   2540     1
   2531   2541     1
   2532   2548     1
   2532   2540     1
   2532   2541     1
   2533   2549     1
   2534   5314     1
   2534   2546     1
   2534   2547     1
   2535   5314     1
   2535   2546     1
   2535   2547     1
   2536   2549     1
   2537   5282     1
   2537   2543     1
   2537   2544     1
   2538   5282     1
   2538   2543     1
   2538   2544     1
   2542   5253     1
   2542   5254     1
   2543   5252     1
   2544   5252     1
   2545   5285     1
   2545   5286     1
   2546   5284     1
   2547   5284     1
   2550   2564     1
   2550   2565     1
   2550   2567     1
   2550   2568     1
   2550   2561     1
   2550   2562     1
   2551   2555     1
   2551   2556     1
   2551   2558     1
   2551   2559     1
   2551   2576     1
   2551   2577     1
   2552   2554     1
   2552   2557     1
   2552   2579     1
   2552   2575     1
   2552   2564     1
   2552   2565     1
   2553   2554     1
   2553   2557     1
   2553   2579     1
   2553   2575     1
   2553   2564     1
   2553   2565     1
   2554   2558     1
   2554   2559     1
   2554   2573     1
   2554   2574     1
   2555   2557     1
   2555   2579     1
   2555   2572     1
   2555   2567     1
   2555   2568     1
   2556   2557     1
   2556   2579     1
   2556   2572     1
   2556   2567     1
   2556   2568     1
   2557   2570     1
   2557   2571     1
   2558   2579     1
   2558   2569     1
   2558   2561     1
   2558   2562     1
   2559   2579     1
   2559   2569     1
   2559   2561     1
   2559   2562     1
   2560   2579     1
   2561   2578     1
   2561   2570     1
   2561   2571     1
   2562   2578     1
   2562   2570     1
   2562   2571     1
   2563   2579     1
   2564   5378     1
   2564   2576     1
   2564   2577     1
   2565   5378     1
   2565   2576     1
   2565   2577     1
   2566   2579     1
   2567   5346     1
   2567   2573     1
   2567   2574     1
   2568   5346     1
   2568   2573     1
   2568   2574     1
   2572   5317     1
   2572   5318     1
   2573   5316     1
   2574   5316     1
   2575   5349     1
   2575   5350     1
   2576   5348     1
   2577   5348     1
   2580   2594     1
   2580   2595     1
   2580   2597     1
   2580   2598     1
   2580   2591     1
   2580   2592     1
   2581   2585     1
   2581   2586     1
   2581   2588     1
   2581   2589     1
   2581   2606     1
   2581   2607     1
   2582   2584     1
   2582   2587     1
   2582   2609     1
   2582   2605     1
   2582   2594     1
   2582   2595     1
   2583   2584     1
   2583   2587     1
   2583   2609     1
   2583   2605     1
   2583   2594     1
   2583   2595     1
   2584   2588     1
   2584   2589     1
   2584   2603     1
   2584   2604     1
   2585   2587     1
   2585   2609     1
   2585   2602     1
   2585   2597     1
   2585   2598     1
   2586   2587     1
   2586   2609     1
   2586   2602     1
   2586   2597     1
   2586   2598     1
   2587   2600     1
   2587   2601     1
   2588   2609     1
   2588   2599     1
   2588   2591     1
   2588   2592     1
   2589   2609     1
   2589   2599     1
   2589   2591     1
   2589   2592     1
   2590   2609     1
   2591   2608     1
   2591   2600     1
   2591   2601     1
   2592   2608     1
   2592   2600     1
   2592   2601     1
   2593   2609     1
   2594   5442     1
   2594   2606     1
   2594   2607     1
   2595   5442     1
   2595   2606     1
   2595   2607     1
   2596   2609     1
   2597   5410     1
   2597   2603     1
   2597   2604     1
   2598   5410     1
   2598   2603     1
   2598   2604     1
   2602   5381     1
   2602   5382     1
   2603   5380     1
   2604   5380     1
   2605   5413     1
   2605   5414     1
   2606   5412     1
   2607   5412     1
   2610   2624     1
   2610   2625     1
   2610   2627     1
   2610   2628     1
   2610   2621     1
   2610   2622     1
   2611   2615     1
   2611   2616     1
   2611   2618     1
   2611   2619     1
   2611   2636     1
   2611   2637     1
   2612   2614     1
   2612   2617     1
   2612   2639     1
   2612   2635     1
   2612   2624     1
   2612   2625     1
   2613   2614     1
   2613   2617     1
   2613   2639     1
   2613   2635     1
   2613   2624     1
   2613   2625     1
   2614   2618     1
   2614   2619     1
   2614   2633     1
   2614   2634     1
   2615   2617     1
   2615   2639     1
   2615   2632     1
   2615   2627     1
   2615   2628     1
   2616   2617     1
   2616   2639     1
   2616   2632     1
   2616   2627     1
   2616   2628     1
   2617   2630     1
   2617   2631     1
   2618   2639     1
   2618   2629     1
   2618   2621     1
   2618   2622     1
   2619   2639     1
   2619   2629     1
   2619   2621     1
   2619   2622     1
   2620   2639     1
   2621   2638     1
   2621   2630     1
   2621   2631     1
   2622   2638     1
   2622   2630     1
   2622   2631     1
   2623   2639     1
   2624   5506     1
   2624   2636     1
   2624   2637     1
   2625   5506     1
   2625   2636     1
   2625   2637     1
   2626   2639     1
   2627   5474     1
   2627   2633     1
   2627   2634     1
   2628   5474     1
   2628   2633     1
   2628   2634     1
   2632   5445     1
   2632   5446     1
   2633   5444     1
   2634   5444     1
   2635   5477     1
   2635   5478     1
   2636   5476     1
   2637   5476     1
   2640   2654     1
   2640   2655     1
   2640   2657     1
   2640   2658     1
   2640   2651     1
   2640   2652     1
   2641   2645     1
   2641   2646     1
   2641   2648     1
   2641   2649     1
   2641   2666     1
   2641   2667     1
   2642   2644     1
   2642   2647     1
   2642   2669     1
   2642   2665     1
   2642   2654     1
   2642   2655     1
   2643   2644     1
   2643   2647     1
   2643   2669     1
   2643   2665     1
   2643   2654     1
   2643   2655     1
   2644   2648     1
   2644   2649     1
   2644   2663     1
   2644   2664     1
   2645   2647     1
   2645   2669     1
   2645   2662     1
   2645   2657     1
   2645   2658     1
   2646   2647     1
   2646   2669     1
   2646   2662     1
   2646   2657     1
   2646   2658     1
   2647   2660     1
   2647   2661     1
   2648   2669     1
   2648   2659     1
   2648   2651     1
   2648   2652     1
   2649   2669     1
   2649   2659     1
   2649   2651     1
   2649   2652     1
   2650   2669     1
   2651   2668     1
   2651   2660     1
   2651   2661     1
   2652   2668     1
   2652   2660     1
   2652   2661     1
   2653   2669     1
   2654   5570     1
   2654   2666     1
   2654   2667     1
   2655   5570     1
   2655   2666     1
   2655   2667     1
   2656   2669     1
   2657   5538     1
   2657   2663     1
   2657   2664     1
   2658   5538     1
   2658   2663     1
   2658   2664     1
   2662   5509     1
   2662   5510     1
   2663   5508     1
   2664   5508     1
   2665   5541     1
   2665   5542     1
   2666   5540     1
   2667   5540     1
   2670   2684     1
   2670   2685     1
   2670   2687     1
   2670   2688     1
   2670   2681     1
   2670   2682     1
   2671   2675     1
   2671   2676     1
   2671   2678     1
   2671   2679     1
   2671   2696     1
   2671   2697     1
   2672   2674     1
   2672   2677     1
   2672   2699     1
   2672   2695     1
   2672   2684     1
   2672   2685     1
   2673   2674     1
   2673   2677     1
   2673   2699     1
   2673   2695     1
   2673   2684     1
   2673   2685     1
   2674   2678     1
   2674   2679     1
   2674   2693     1
   2674   2694     1
   2675   2677     1
   2675   2699     1
   2675   2692     1
   2675   2687     1
   2675   2688     1
   2676   2677     1
   2676   2699     1
   2676   2692     1
   2676   2687     1
   2676   2688     1
   2677   2690     1
   2677   2691     1
   2678   2699     1
   2678   2689     1
   2678   2681     1
   2678   2682     1
   2679   2699     1
   2679   2689     1
   2679   2681     1
   2679   2682     1
   2680   2699     1
   2681   2698     1
   2681   2690     1
   2681   2691     1
   2682   2698     1
   2682   2690     1
   2682   2691     1
   2683   2699     1
   2684   5634     1
   2684   2696     1
   2684   2697     1
   2685   5634     1
   2685   2696     1
   2685   2697     1
   2686   2699     1
   2687   5602     1
   2687   2693     1
   2687   2694     1
   2688   5602     1
   2688   2693     1
   2688   2694     1
   2692   5573     1
   2692   5574     1
   2693   5572     1
   2694   5572     1
   2695   5605     1
   2695   5606     1
   2696   5604     1
   2697   5604     1
   2700   2714     1
   2700   2715     1
   2700   2717     1
   2700   2718     1
   2700   2711     1
   2700   2712     1
   2701   2705     1
   2701   2706     1
   2701   2708     1
   2701   2709     1
   2701   2726     1
   2701   2727     1
   2702   2704     1
   2702   2707     1
   2702   2729     1
   2702   2725     1
   2702   2714     1
   2702   2715     1
   2703   2704     1
   2703   2707     1
   2703   2729     1
   2703   2725     1
   2703   2714     1
   2703   2715     1
   2704   2708     1
   2704   2709     1
   2704   2723     1
   2704   2724     1
   2705   2707     1
   2705   2729     1
   2705   2722     1
   2705   2717     1
   2705   2718     1
   2706   2707     1
   2706   2729     1
   2706   2722     1
   2706   2717     1
   2706   2718     1
   2707   2720     1
   2707   2721     1
   2708   2729     1
   2708   2719     1
   2708   2711     1
   2708   2712     1
   2709   2729     1
   2709   2719     1
   2709   2711     1
   2709   2712     1
   2710   2729     1
   2711   2728     1
   2711   2720     1
   2711   2721     1
   2712   2728     1
   2712   2720     1
   2712   2721     1
   2713   2729     1
   2714   5698     1
   2714   2726     1
   2714   2727     1
   2715   5698     1
   2715   2726     1
   2715   2727     1
   2716   2729     1
   2717   5666     1
   2717   2723     1
   2717   2724     1
   2718   5666     1
   2718   2723     1
   2718   2724     1
   2722   5637     1
   2722   5638     1
   2723   5636     1
   2724   5636     1
   2725   5669     1
   2725   5670     1
   2726   5668     1
   2727   5668     1
   2730   2744     1
   2730   2745     1
   2730   2747     1
   2730   2748     1
   2730   2741     1
   2730   2742     1
   2731   2735     1
   2731   2736     1
   2731   2738     1
   2731   2739     1
   2731   2756     1
   2731   2757     1
   2732   2734     1
   2732   2737     1
   2732   2759     1
   2732   2755     1
   2732   2744     1
   2732   2745     1
   2733   2734     1
   2733   2737     1
   2733   2759     1
   2733   2755     1
   2733   2744     1
   2733   2745     1
   2734   2738     1
   2734   2739     1
   2734   2753     1
   2734   2754     1
   2735   2737     1
   2735   2759     1
   2735   2752     1
   2735   2747     1
   2735   2748     1
   2736   2737     1
   2736   2759     1
   2736   2752     1
   2736   2747     1
   2736   2748     1
   2737   2750     1
   2737   2751     1
   2738   2759     1
   2738   2749     1
   2738   2741     1
   2738   2742     1
   2739   2759     1
   2739   2749     1
   2739   2741     1
   2739   2742     1
   2740   2759     1
   2741   2758     1
   2741   2750     1
   2741   2751     1
   2742   2758     1
   2742   2750     1
   2742   2751     1
   2743   2759     1
   2744   5762     1
   2744   2756     1
   2744   2757     1
   2745   5762     1
   2745   2756     1
   2745   2757     1
   2746   2759     1
   2747   5730     1
   2747   2753     1
   2747   2754     1
   2748   5730     1
   2748   2753     1
   2748   2754     1
   2752   5701     1
   2752   5702     1
   2753   5700     1
   2754   5700     1
   2755   5733     1
   2755   5734     1
   2756   5732     1
   2757   5732     1
   2760   2774     1
   2760   2775     1
   2760   2777     1
   2760   2778     1
   2760   2771     1
   2760   2772     1
   2761   2765     1
   2761   2766     1
   2761   2768     1
   2761   2769     1
   2761   2786     1
   2761   2787     1
   2762   2764     1
   2762   2767     1
   2762   2789     1
   2762   2785     1
   2762   2774     1
   2762   2775     1
   2763   2764     1
   2763   2767     1
   2763   2789     1
   2763   2785     1
   2763   2774     1
   2763   2775     1
   2764   2768     1
   2764   2769     1
   2764   2783     1
   2764   2784     1
   2765   2767     1
   2765   2789     1
   2765   2782     1
   2765   2777     1
   2765   2778     1
   2766   2767     1
   2766   2789     1
   2766   2782     1
   2766   2777     1
   2766   2778     1
   2767   2780     1
   2767   2781     1
   2768   2789     1
   2768   2779     1
   2768   2771     1
   2768   2772     1
   2769   2789     1
   2769   2779     1
   2769   2771     1
   2769   2772     1
   2770   2789     1
   2771   2788     1
   2771   2780     1
   2771   2781     1
   2772   2788     1
   2772   2780     1
   2772   2781     1
   2773   2789     1
   2774   5826     1
   2774   2786     1
   2774   2787     1
   2775   5826     1
   2775   2786     1
   2775   2787     1
   2776   2789     1
   2777   5794     1
   2777   2783     1
   2777   2784     1
   2778   5794     1
   2778   2783     1
   2778   2784     1
   2782   5765     1
   2782   5766     1
   2783   5764     1
   2784   5764     1
   2785   5797     1
   2785   5798     1
   2786   5796     1
   2787   5796     1
   2790   2804     1
   2790   2805     1
   2790   2807     1
   2790   2808     1
   2790   2801     1
   2790   2802     1
   2791   2795     1
   2791   2796     1
   2791   2798     1
   2791   2799     1
   2791   2816     1
   2791   2817     1
   2792   2794     1
   2792   2797     1
   2792   2819     1
   2792   2815     1
   2792   2804     1
   2792   2805     1
   2793   2794     1
   2793   2797     1
   2793   2819     1
   2793   2815     1
   2793   2804     1
   2793   2805     1
   2794   2798     1
   2794   2799     1
   2794   2813     1
   2794   2814     1
   2795   2797     1
   2795   2819     1
   2795   2812     1
   2795   2807     1
   2795   2808     1
   2796   2797     1
   2796   2819     1
   2796   2812     1
   2796   2807     1
   2796   2808     1
   2797   2810     1
   2797   2811     1
   2798   2819     1
   2798   2809     1
   2798   2801     1
   2798   2802     1
   2799   2819     1
   2799   2809     1
   2799   2801     1
   2799   2802     1
   2800   2819     1
   2801   2818     1
   2801   2810     1
   2801   2811     1
   2802   2818     1
   2802   2810     1
   2802   2811     1
   2803   2819     1
   2804   5890     1
   2804   2816     1
   2804   2817     1
   2805   5890     1
   2805   2816     1
   2805   2817     1
   2806   2819     1
   2807   5858     1
   2807   2813     1
   2807   2814     1
   2808   5858     1
   2808   2813     1
   2808   2814     1
   2812   5829     1
   2812   5830     1
   2813   5828     1
   2814   5828     1
   2815   5861     1
   2815   5862     1
   2816   5860     1
   2817   5860     1
   2820   2827     1
   2820   2828     1
   2821   2826     1
   2821   2824     1
   2821   2825     1
   2822   2826     1
   2822   2824     1
   2822   2825     1
   2823   2851     1
   2824   2850     1
   2824   2829     1
   2824   2827     1
   2824   2828     1
   2825   2850     1
   2825   2829     1
   2825   2827     1
   2825   2828     1
   2826   2831     1
   2826   2832     1
   2826   2841     1
   2826   2842     1
   2827   2830     1
   2827   2840     1
   2827   2851     1
   2828   2830     1
   2828   2840     1
   2828   2851     1
   2829   2834     1
   2829   2835     1
   2829   2844     1
   2829   2845     1
   2830   2841     1
   2830   2842     1
   2831   2840     1
   2831   2851     1
   2831   2836     1
   2831   2834     1
   2831   2835     1
   2832   2840     1
   2832   2851     1
   2832   2836     1
   2832   2834     1
   2832   2835     1
   2833   2851     1
   2833   2839     1
   2834   2837     1
   2834   2838     1
   2835   2837     1
   2835   2838     1
   2837   2839     1
   2841   2851     1
   2841   2846     1
   2841   2844     1
   2841   2845     1
   2842   2851     1
   2842   2846     1
   2842   2844     1
   2842   2845     1
   2843   2851     1
   2843   2849     1
   2844   2847     1
   2844   2848     1
   2845   2847     1
   2845   2848     1
   2847   2849     1
   2852   2859     1
   2852   2860     1
   2853   2858     1
   2853   2856     1
   2853   2857     1
   2854   2858     1
   2854   2856     1
   2854   2857     1
   2855   2883     1
   2856   2861     1
   2856   2859     1
   2856   2860     1
   2856   2882     1
   2857   2861     1
   2857   2859     1
   2857   2860     1
   2857   2882     1
   2858   2863     1
   2858   2864     1
   2858   2873     1
   2858   2874     1
   2859   2862     1
   2859   2872     1
   2859   2883     1
   2860   2862     1
   2860   2872     1
   2860   2883     1
   2861   2866     1
   2861   2867     1
   2861   2876     1
   2861   2877     1
   2862   2873     1
   2862   2874     1
   2863   2868     1
   2863   2866     1
   2863   2867     1
   2863   2872     1
   2863   2883     1
   2864   2868     1
   2864   2866     1
   2864   2867     1
   2864   2872     1
   2864   2883     1
   2865   2871     1
   2865   2883     1
   2866   2869     1
   2866   2870     1
   2867   2869     1
   2867   2870     1
   2869   2871     1
   2873   2878     1
   2873   2876     1
   2873   2877     1
   2873   2883     1
   2874   2878     1
   2874   2876     1
   2874   2877     1
   2874   2883     1
   2875   2881     1
   2875   2883     1
   2876   2879     1
   2876   2880     1
   2877   2879     1
   2877   2880     1
   2879   2881     1
   2884   2891     1
   2884   2892     1
   2885   2890     1
   2885   2888     1
   2885   2889     1
   2886   2890     1
   2886   2888     1
   2886   2889     1
   2887   2915     1
   2888   2914     1
   2888   2893     1
   2888   2891     1
   2888   2892     1
   2889   2914     1
   2889   2893     1
   2889   2891     1
   2889   2892     1
   2890   2895     1
   2890   2896     1
   2890   2905     1
   2890   2906     1
   2891   2894     1
   2891   2904     1
   2891   2915     1
   2892   2894     1
   2892   2904     1
   2892   2915     1
   2893   2898     1
   2893   2899     1
   2893   2908     1
   2893   2909     1
   2894   2905     1
   2894   2906     1
   2895   2904     1
   2895   2915     1
   2895   2900     1
   2895   2898     1
   2895   2899     1
   2896   2904     1
   2896   2915     1
   2896   2900     1
   2896   2898     1
   2896   2899     1
   2897   2915     1
   2897   2903     1
   2898   2901     1
   2898   2902     1
   2899   2901     1
   2899   2902     1
   2901   2903     1
   2905   2915     1
   2905   2910     1
   2905   2908     1
   2905   2909     1
   2906   2915     1
   2906   2910     1
   2906   2908     1
   2906   2909     1
   2907   2915     1
   2907   2913     1
   2908   2911     1
   2908   2912     1
   2909   2911     1
   2909   2912     1
   2911   2913     1
   2916   2923     1
   2916   2924     1
   2917   2922     1
   2917   2920     1
   2917   2921     1
   2918   2922     1
   2918   2920     1
   2918   2921     1
   2919   2947     1
   2920   2925     1
   2920   2923     1
   2920   2924     1
   2920   2946     1
   2921   2925     1
   2921   2923     1
   2921   2924     1
   2921   2946     1
   2922   2927     1
   2922   2928     1
   2922   2937     1
   2922   2938     1
   2923   2926     1
   2923   2936     1
   2923   2947     1
   2924   2926     1
   2924   2936     1
   2924   2947     1
   2925   2930     1
   2925   2931     1
   2925   2940     1
   2925   2941     1
   2926   2937     1
   2926   2938     1
   2927   2932     1
   2927   2930     1
   2927   2931     1
   2927   2936     1
   2927   2947     1
   2928   2932     1
   2928   2930     1
   2928   2931     1
   2928   2936     1
   2928   2947     1
   2929   2935     1
   2929   2947     1
   2930   2933     1
   2930   2934     1
   2931   2933     1
   2931   2934     1
   2933   2935     1
   2937   2942     1
   2937   2940     1
   2937   2941     1
   2937   2947     1
   2938   2942     1
   2938   2940     1
   2938   2941     1
   2938   2947     1
   2939   2945     1
   2939   2947     1
   2940   2943     1
   2940   2944     1
   2941   2943     1
   2941   2944     1
   2943   2945     1
   2948   2955     1
   2948   2956     1
   2949   2954     1
   2949   2952     1
   2949   2953     1
   2950   2954     1
   2950   2952     1
   2950   2953     1
   2951   2979     1
   2952   2978     1
   2952   2957     1
   2952   2955     1
   2952   2956     1
   2953   2978     1
   2953   2957     1
   2953   2955     1
   2953   2956     1
   2954   2959     1
   2954   2960     1
   2954   2969     1
   2954   2970     1
   2955   2958     1
   2955   2968     1
   2955   2979     1
   2956   2958     1
   2956   2968     1
   2956   2979     1
   2957   2962     1
   2957   2963     1
   2957   2972     1
   2957   2973     1
   2958   2969     1
   2958   2970     1
   2959   2968     1
   2959   2979     1
   2959   2964     1
   2959   2962     1
   2959   2963     1
   2960   2968     1
   2960   2979     1
   2960   2964     1
   2960   2962     1
   2960   2963     1
   2961   2979     1
   2961   2967     1
   2962   2965     1
   2962   2966     1
   2963   2965     1
   2963   2966     1
   2965   2967     1
   2969   2979     1
   2969   2974     1
   2969   2972     1
   2969   2973     1
   2970   2979     1
   2970   2974     1
   2970   2972     1
   2970   2973     1
   2971   2979     1
   2971   2977     1
   2972   2975     1
   2972   2976     1
   2973   2975     1
   2973   2976     1
   2975   2977     1
   2980   2987     1
   2980   2988     1
   2981   2986     1
   2981   2984     1
   2981   2985     1
   2982   2986     1
   2982   2984     1
   2982   2985     1
   2983   3011     1
   2984   2989     1
   2984   2987     1
   2984   2988     1
   2984   3010     1
   2985   2989     1
   2985   2987     1
   2985   2988     1
   2985   3010     1
   2986   2991     1
   2986   2992     1
   2986   3001     1
   2986   3002     1
   2987   2990     1
   2987   3000     1
   2987   3011     1
   2988   2990     1
   2988   3000     1
   2988   3011     1
   2989   2994     1
   2989   2995     1
   2989   3004     1
   2989   3005     1
   2990   3001     1
   2990   3002     1
   2991   2996     1
   2991   2994     1
   2991   2995     1
   2991   3000     1
   2991   3011     1
   2992   2996     1
   2992   2994     1
   2992   2995     1
   2992   3000     1
   2992   3011     1
   2993   2999     1
   2993   3011     1
   2994   2997     1
   2994   2998     1
   2995   2997     1
   2995   2998     1
   2997   2999     1
   3001   3006     1
   3001   3004     1
   3001   3005     1
   3001   3011     1
   3002   3006     1
   3002   3004     1
   3002   3005     1
   3002   3011     1
   3003   3009     1
   3003   3011     1
   3004   3007     1
   3004   3008     1
   3005   3007     1
   3005   3008     1
   3007   3009     1
   3012   3019     1
   3012   3020     1
   3013   3018     1
   3013   3016     1
   3013   3017     1
   3014   3018     1
   3014   3016     1
   3014   3017     1
   3015   3043     1
   3016   3042     1
   3016   3021     1
   3016   3019     1
   3016   3020     1
   3017   3042     1
   3017   3021     1
   3017   3019     1
   3017   3020     1
   3018   3023     1
   3018   3024     1
   3018   3033     1
   3018   3034     1
   3019   3022     1
   3019   3032     1
   3019   3043     1
   3020   3022     1
   3020   3032     1
   3020   3043     1
   3021   3026     1
   3021   3027     1
   3021   3036     1
   3021   3037     1
   3022   3033     1
   3022   3034     1
   3023   3032     1
   3023   3043     1
   3023   3028     1
   3023   3026     1
   3023   3027     1
   3024   3032     1
   3024   3043     1
   3024   3028     1
   3024   3026     1
   3024   3027     1
   3025   3043     1
   3025   3031     1
   3026   3029     1
   3026   3030     1
   3027   3029     1
   3027   3030     1
   3029   3031     1
   3033   3043     1
   3033   3038     1
   3033   3036     1
   3033   3037     1
   3034   3043     1
   3034   3038     1
   3034   3036     1
   3034   3037     1
   3035   3043     1
   3035   3041     1
   3036   3039     1
   3036   3040     1
   3037   3039     1
   3037   3040     1
   3039   3041     1
   3044   3051     1
   3044   3052     1
   3045   3050     1
   3045   3048     1
   3045   3049     1
   3046   3050     1
   3046   3048     1
   3046   3049     1
   3047   3075     1
   3048   3053     1
   3048   3051     1
   3048   3052     1
   3048   3074     1
   3049   3053     1
   3049   3051     1
   3049   3052     1
   3049   3074     1
   3050   3055     1
   3050   3056     1
   3050   3065     1
   3050   3066     1
   3051   3054     1
   3051   3064     1
   3051   3075     1
   3052   3054     1
   3052   3064     1
   3052   3075     1
   3053   3058     1
   3053   3059     1
   3053   3068     1
   3053   3069     1
   3054   3065     1
   3054   3066     1
   3055   3060     1
   3055   3058     1
   3055   3059     1
   3055   3064     1
   3055   3075     1
   3056   3060     1
   3056   3058     1
   3056   3059     1
   3056   3064     1
   3056   3075     1
   3057   3063     1
   3057   3075     1
   3058   3061     1
   3058   3062     1
   3059   3061     1
   3059   3062     1
   3061   3063     1
   3065   3070     1
   3065   3068     1
   3065   3069     1
   3065   3075     1
   3066   3070     1
   3066   3068     1
   3066   3069     1
   3066   3075     1
   3067   3073     1
   3067   3075     1
   3068   3071     1
   3068   3072     1
   3069   3071     1
   3069   3072     1
   3071   3073     1
   3076   3083     1
   3076   3084     1
   3077   3082     1
   3077   3080     1
   3077   3081     1
   3078   3082     1
   3078   3080     1
   3078   3081     1
   3079   3107     1
   3080   3106     1
   3080   3085     1
   3080   3083     1
   3080   3084     1
   3081   3106     1
   3081   3085     1
   3081   3083     1
   3081   3084     1
   3082   3087     1
   3082   3088     1
   3082   3097     1
   3082   3098     1
   3083   3086     1
   3083   3096     1
   3083   3107     1
   3084   3086     1
   3084   3096     1
   3084   3107     1
   3085   3090     1
   3085   3091     1
   3085   3100     1
   3085   3101     1
   3086   3097     1
   3086   3098     1
   3087   3096     1
   3087   3107     1
   3087   3092     1
   3087   3090     1
   3087   3091     1
   3088   3096     1
   3088   3107     1
   3088   3092     1
   3088   3090     1
   3088   3091     1
   3089   3107     1
   3089   3095     1
   3090   3093     1
   3090   3094     1
   3091   3093     1
   3091   3094     1
   3093   3095     1
   3097   3107     1
   3097   3102     1
   3097   3100     1
   3097   3101     1
   3098   3107     1
   3098   3102     1
   3098   3100     1
   3098   3101     1
   3099   3107     1
   3099   3105     1
   3100   3103     1
   3100   3104     1
   3101   3103     1
   3101   3104     1
   3103   3105     1
   3108   3115     1
   3108   3116     1
   3109   3114     1
   3109   3112     1
   3109   3113     1
   3110   3114     1
   3110   3112     1
   3110   3113     1
   3111   3139     1
   3112   3117     1
   3112   3115     1
   3112   3116     1
   3112   3138     1
   3113   3117     1
   3113   3115     1
   3113   3116     1
   3113   3138     1
   3114   3119     1
   3114   3120     1
   3114   3129     1
   3114   3130     1
   3115   3118     1
   3115   3128     1
   3115   3139     1
   3116   3118     1
   3116   3128     1
   3116   3139     1
   3117   3122     1
   3117   3123     1
   3117   3132     1
   3117   3133     1
   3118   3129     1
   3118   3130     1
   3119   3124     1
   3119   3122     1
   3119   3123     1
   3119   3128     1
   3119   3139     1
   3120   3124     1
   3120   3122     1
   3120   3123     1
   3120   3128     1
   3120   3139     1
   3121   3127     1
   3121   3139     1
   3122   3125     1
   3122   3126     1
   3123   3125     1
   3123   3126     1
   3125   3127     1
   3129   3134     1
   3129   3132     1
   3129   3133     1
   3129   3139     1
   3130   3134     1
   3130   3132     1
   3130   3133     1
   3130   3139     1
   3131   3137     1
   3131   3139     1
   3132   3135     1
   3132   3136     1
   3133   3135     1
   3133   3136     1
   3135   3137     1
   3140   3147     1
   3140   3148     1
   3141   3146     1
   3141   3144     1
   3141   3145     1
   3142   3146     1
   3142   3144     1
   3142   3145     1
   3143   3171     1
   3144   3170     1
   3144   3149     1
   3144   3147     1
   3144   3148     1
   3145   3170     1
   3145   3149     1
   3145   3147     1
   3145   3148     1
   3146   3151     1
   3146   3152     1
   3146   3161     1
   3146   3162     1
   3147   3150     1
   3147   3160     1
   3147   3171     1
   3148   3150     1
   3148   3160     1
   3148   3171     1
   3149   3154     1
   3149   3155     1
   3149   3164     1
   3149   3165     1
   3150   3161     1
   3150   3162     1
   3151   3160     1
   3151   3171     1
   3151   3156     1
   3151   3154     1
   3151   3155     1
   3152   3160     1
   3152   3171     1
   3152   3156     1
   3152   3154     1
   3152   3155     1
   3153   3171     1
   3153   3159     1
   3154   3157     1
   3154   3158     1
   3155   3157     1
   3155   3158     1
   3157   3159     1
   3161   3171     1
   3161   3166     1
   3161   3164     1
   3161   3165     1
   3162   3171     1
   3162   3166     1
   3162   3164     1
   3162   3165     1
   3163   3171     1
   3163   3169     1
   3164   3167     1
   3164   3168     1
   3165   3167     1
   3165   3168     1
   3167   3169     1
   3172   3179     1
   3172   3180     1
   3173   3178     1
   3173   3176     1
   3173   3177     1
   3174   3178     1
   3174   3176     1
   3174   3177     1
   3175   3203     1
   3176   3181     1
   3176   3179     1
   3176   3180     1
   3176   3202     1
   3177   3181     1
   3177   3179     1
   3177   3180     1
   3177   3202     1
   3178   3183     1
   3178   3184     1
   3178   3193     1
   3178   3194     1
   3179   3182     1
   3179   3192     1
   3179   3203     1
   3180   3182     1
   3180   3192     1
   3180   3203     1
   3181   3186     1
   3181   3187     1
   3181   3196     1
   3181   3197     1
   3182   3193     1
   3182   3194     1
   3183   3188     1
   3183   3186     1
   3183   3187     1
   3183   3192     1
   3183   3203     1
   3184   3188     1
   3184   3186     1
   3184   3187     1
   3184   3192     1
   3184   3203     1
   3185   3191     1
   3185   3203     1
   3186   3189     1
   3186   3190     1
   3187   3189     1
   3187   3190     1
   3189   3191     1
   3193   3198     1
   3193   3196     1
   3193   3197     1
   3193   3203     1
   3194   3198     1
   3194   3196     1
   3194   3197     1
   3194   3203     1
   3195   3201     1
   3195   3203     1
   3196   3199     1
   3196   3200     1
   3197   3199     1
   3197   3200     1
   3199   3201     1
   3204   3211     1
   3204   3212     1
   3205   3210     1
   3205   3208     1
   3205   3209     1
   3206   3210     1
   3206   3208     1
   3206   3209     1
   3207   3235     1
   3208   3234     1
   3208   3213     1
   3208   3211     1
   3208   3212     1
   3209   3234     1
   3209   3213     1
   3209   3211     1
   3209   3212     1
   3210   3215     1
   3210   3216     1
   3210   3225     1
   3210   3226     1
   3211   3214     1
   3211   3224     1
   3211   3235     1
   3212   3214     1
   3212   3224     1
   3212   3235     1
   3213   3218     1
   3213   3219     1
   3213   3228     1
   3213   3229     1
   3214   3225     1
   3214   3226     1
   3215   3224     1
   3215   3235     1
   3215   3220     1
   3215   3218     1
   3215   3219     1
   3216   3224     1
   3216   3235     1
   3216   3220     1
   3216   3218     1
   3216   3219     1
   3217   3235     1
   3217   3223     1
   3218   3221     1
   3218   3222     1
   3219   3221     1
   3219   3222     1
   3221   3223     1
   3225   3235     1
   3225   3230     1
   3225   3228     1
   3225   3229     1
   3226   3235     1
   3226   3230     1
   3226   3228     1
   3226   3229     1
   3227   3235     1
   3227   3233     1
   3228   3231     1
   3228   3232     1
   3229   3231     1
   3229   3232     1
   3231   3233     1
   3236   3243     1
   3236   3244     1
   3237   3242     1
   3237   3240     1
   3237   3241     1
   3238   3242     1
   3238   3240     1
   3238   3241     1
   3239   3267     1
   3240   3245     1
   3240   3243     1
   3240   3244     1
   3240   3266     1
   3241   3245     1
   3241   3243     1
   3241   3244     1
   3241   3266     1
   3242   3247     1
   3242   3248     1
   3242   3257     1
   3242   3258     1
   3243   3246     1
   3243   3256     1
   3243   3267     1
   3244   3246     1
   3244   3256     1
   3244   3267     1
   3245   3250     1
   3245   3251     1
   3245   3260     1
   3245   3261     1
   3246   3257     1
   3246   3258     1
   3247   3252     1
   3247   3250     1
   3247   3251     1
   3247   3256     1
   3247   3267     1
   3248   3252     1
   3248   3250     1
   3248   3251     1
   3248   3256     1
   3248   3267     1
   3249   3255     1
   3249   3267     1
   3250   3253     1
   3250   3254     1
   3251   3253     1
   3251   3254     1
   3253   3255     1
   3257   3262     1
   3257   3260     1
   3257   3261     1
   3257   3267     1
   3258   3262     1
   3258   3260     1
   3258   3261     1
   3258   3267     1
   3259   3265     1
   3259   3267     1
   3260   3263     1
   3260   3264     1
   3261   3263     1
   3261   3264     1
   3263   3265     1
   3268   3275     1
   3268   3276     1
   3269   3274     1
   3269   3272     1
   3269   3273     1
   3270   3274     1
   3270   3272     1
   3270   3273     1
   3271   3299     1
   3272   3298     1
   3272   3277     1
   3272   3275     1
   3272   3276     1
   3273   3298     1
   3273   3277     1
   3273   3275     1
   3273   3276     1
   3274   3279     1
   3274   3280     1
   3274   3289     1
   3274   3290     1
   3275   3278     1
   3275   3288     1
   3275   3299     1
   3276   3278     1
   3276   3288     1
   3276   3299     1
   3277   3282     1
   3277   3283     1
   3277   3292     1
   3277   3293     1
   3278   3289     1
   3278   3290     1
   3279   3288     1
   3279   3299     1
   3279   3284     1
   3279   3282     1
   3279   3283     1
   3280   3288     1
   3280   3299     1
   3280   3284     1
   3280   3282     1
   3280   3283     1
   3281   3299     1
   3281   3287     1
   3282   3285     1
   3282   3286     1
   3283   3285     1
   3283   3286     1
   3285   3287     1
   3289   3299     1
   3289   3294     1
   3289   3292     1
   3289   3293     1
   3290   3299     1
   3290   3294     1
   3290   3292     1
   3290   3293     1
   3291   3299     1
   3291   3297     1
   3292   3295     1
   3292   3296     1
   3293   3295     1
   3293   3296     1
   3295   3297     1
   3300   3307     1
   3300   3308     1
   3301   3306     1
   3301   3304     1
   3301   3305     1
   3302   3306     1
   3302   3304     1
   3302   3305     1
   3303   3331     1
   3304   3309     1
   3304   3307     1
   3304   3308     1
   3304   3330     1
   3305   3309     1
   3305   3307     1
   3305   3308     1
   3305   3330     1
   3306   3311     1
   3306   3312     1
   3306   3321     1
   3306   3322     1
   3307   3310     1
   3307   3320     1
   3307   3331     1
   3308   3310     1
   3308   3320     1
   3308   3331     1
   3309   3314     1
   3309   3315     1
   3309   3324     1
   3309   3325     1
   3310   3321     1
   3310   3322     1
   3311   3316     1
   3311   3314     1
   3311   3315     1
   3311   3320     1
   3311   3331     1
   3312   3316     1
   3312   3314     1
   3312   3315     1
   3312   3320     1
   3312   3331     1
   3313   3319     1
   3313   3331     1
   3314   3317     1
   3314   3318     1
   3315   3317     1
   3315   3318     1
   3317   3319     1
   3321   3326     1
   3321   3324     1
   3321   3325     1
   3321   3331     1
   3322   3326     1
   3322   3324     1
   3322   3325     1
   3322   3331     1
   3323   3329     1
   3323   3331     1
   3324   3327     1
   3324   3328     1
   3325   3327     1
   3325   3328     1
   3327   3329     1
   3332   3339     1
   3332   3340     1
   3333   3338     1
   3333   3336     1
   3333   3337     1
   3334   3338     1
   3334   3336     1
   3334   3337     1
   3335   3363     1
   3336   3362     1
   3336   3341     1
   3336   3339     1
   3336   3340     1
   3337   3362     1
   3337   3341     1
   3337   3339     1
   3337   3340     1
   3338   3343     1
   3338   3344     1
   3338   3353     1
   3338   3354     1
   3339   3342     1
   3339   3352     1
   3339   3363     1
   3340   3342     1
   3340   3352     1
   3340   3363     1
   3341   3346     1
   3341   3347     1
   3341   3356     1
   3341   3357     1
   3342   3353     1
   3342   3354     1
   3343   3352     1
   3343   3363     1
   3343   3348     1
   3343   3346     1
   3343   3347     1
   3344   3352     1
   3344   3363     1
   3344   3348     1
   3344   3346     1
   3344   3347     1
   3345   3363     1
   3345   3351     1
   3346   3349     1
   3346   3350     1
   3347   3349     1
   3347   3350     1
   3349   3351     1
   3353   3363     1
   3353   3358     1
   3353   3356     1
   3353   3357     1
   3354   3363     1
   3354   3358     1
   3354   3356     1
   3354   3357     1
   3355   3363     1
   3355   3361     1
   3356   3359     1
   3356   3360     1
   3357   3359     1
   3357   3360     1
   3359   3361     1
   3364   3371     1
   3364   3372     1
   3365   3370     1
   3365   3368     1
   3365   3369     1
   3366   3370     1
   3366   3368     1
   3366   3369     1
   3367   3395     1
   3368   3373     1
   3368   3371     1
   3368   3372     1
   3368   3394     1
   3369   3373     1
   3369   3371     1
   3369   3372     1
   3369   3394     1
   3370   3375     1
   3370   3376     1
   3370   3385     1
   3370   3386     1
   3371   3374     1
   3371   3384     1
   3371   3395     1
   3372   3374     1
   3372   3384     1
   3372   3395     1
   3373   3378     1
   3373   3379     1
   3373   3388     1
   3373   3389     1
   3374   3385     1
   3374   3386     1
   3375   3380     1
   3375   3378     1
   3375   3379     1
   3375   3384     1
   3375   3395     1
   3376   3380     1
   3376   3378     1
   3376   3379     1
   3376   3384     1
   3376   3395     1
   3377   3383     1
   3377   3395     1
   3378   3381     1
   3378   3382     1
   3379   3381     1
   3379   3382     1
   3381   3383     1
   3385   3390     1
   3385   3388     1
   3385   3389     1
   3385   3395     1
   3386   3390     1
   3386   3388     1
   3386   3389     1
   3386   3395     1
   3387   3393     1
   3387   3395     1
   3388   3391     1
   3388   3392     1
   3389   3391     1
   3389   3392     1
   3391   3393     1
   3396   3403     1
   3396   3404     1
   3397   3402     1
   3397   3400     1
   3397   3401     1
   3398   3402     1
   3398   3400     1
   3398   3401     1
   3399   3427     1
   3400   3426     1
   3400   3405     1
   3400   3403     1
   3400   3404     1
   3401   3426     1
   3401   3405     1
   3401   3403     1
   3401   3404     1
   3402   3407     1
   3402   3408     1
   3402   3417     1
   3402   3418     1
   3403   3406     1
   3403   3416     1
   3403   3427     1
   3404   3406     1
   3404   3416     1
   3404   3427     1
   3405   3410     1
   3405   3411     1
   3405   3420     1
   3405   3421     1
   3406   3417     1
   3406   3418     1
   3407   3416     1
   3407   3427     1
   3407   3412     1
   3407   3410     1
   3407   3411     1
   3408   3416     1
   3408   3427     1
   3408   3412     1
   3408   3410     1
   3408   3411     1
   3409   3427     1
   3409   3415     1
   3410   3413     1
   3410   3414     1
   3411   3413     1
   3411   3414     1
   3413   3415     1
   3417   3427     1
   3417   3422     1
   3417   3420     1
   3417   3421     1
   3418   3427     1
   3418   3422     1
   3418   3420     1
   3418   3421     1
   3419   3427     1
   3419   3425     1
   3420   3423     1
   3420   3424     1
   3421   3423     1
   3421   3424     1
   3423   3425     1
   3428   3435     1
   3428   3436     1
   3429   3434     1
   3429   3432     1
   3429   3433     1
   3430   3434     1
   3430   3432     1
   3430   3433     1
   3431   3459     1
   3432   3437     1
   3432   3435     1
   3432   3436     1
   3432   3458     1
   3433   3437     1
   3433   3435     1
   3433   3436     1
   3433   3458     1
   3434   3439     1
   3434   3440     1
   3434   3449     1
   3434   3450     1
   3435   3438     1
   3435   3448     1
   3435   3459     1
   3436   3438     1
   3436   3448     1
   3436   3459     1
   3437   3442     1
   3437   3443     1
   3437   3452     1
   3437   3453     1
   3438   3449     1
   3438   3450     1
   3439   3444     1
   3439   3442     1
   3439   3443     1
   3439   3448     1
   3439   3459     1
   3440   3444     1
   3440   3442     1
   3440   3443     1
   3440   3448     1
   3440   3459     1
   3441   3447     1
   3441   3459     1
   3442   3445     1
   3442   3446     1
   3443   3445     1
   3443   3446     1
   3445   3447     1
   3449   3454     1
   3449   3452     1
   3449   3453     1
   3449   3459     1
   3450   3454     1
   3450   3452     1
   3450   3453     1
   3450   3459     1
   3451   3457     1
   3451   3459     1
   3452   3455     1
   3452   3456     1
   3453   3455     1
   3453   3456     1
   3455   3457     1
   3460   3467     1
   3460   3468     1
   3461   3466     1
   3461   3464     1
   3461   3465     1
   3462   3466     1
   3462   3464     1
   3462   3465     1
   3463   3491     1
   3464   3490     1
   3464   3469     1
   3464   3467     1
   3464   3468     1
   3465   3490     1
   3465   3469     1
   3465   3467     1
   3465   3468     1
   3466   3471     1
   3466   3472     1
   3466   3481     1
   3466   3482     1
   3467   3470     1
   3467   3480     1
   3467   3491     1
   3468   3470     1
   3468   3480     1
   3468   3491     1
   3469   3474     1
   3469   3475     1
   3469   3484     1
   3469   3485     1
   3470   3481     1
   3470   3482     1
   3471   3480     1
   3471   3491     1
   3471   3476     1
   3471   3474     1
   3471   3475     1
   3472   3480     1
   3472   3491     1
   3472   3476     1
   3472   3474     1
   3472   3475     1
   3473   3491     1
   3473   3479     1
   3474   3477     1
   3474   3478     1
   3475   3477     1
   3475   3478     1
   3477   3479     1
   3481   3491     1
   3481   3486     1
   3481   3484     1
   3481   3485     1
   3482   3491     1
   3482   3486     1
   3482   3484     1
   3482   3485     1
   3483   3491     1
   3483   3489     1
   3484   3487     1
   3484   3488     1
   3485   3487     1
   3485   3488     1
   3487   3489     1
   3492   3499     1
   3492   3500     1
   3493   3498     1
   3493   3496     1
   3493   3497     1
   3494   3498     1
   3494   3496     1
   3494   3497     1
   3495   3523     1
   3496   3501     1
   3496   3499     1
   3496   3500     1
   3496   3522     1
   3497   3501     1
   3497   3499     1
   3497   3500     1
   3497   3522     1
   3498   3503     1
   3498   3504     1
   3498   3513     1
   3498   3514     1
   3499   3502     1
   3499   3512     1
   3499   3523     1
   3500   3502     1
   3500   3512     1
   3500   3523     1
   3501   3506     1
   3501   3507     1
   3501   3516     1
   3501   3517     1
   3502   3513     1
   3502   3514     1
   3503   3508     1
   3503   3506     1
   3503   3507     1
   3503   3512     1
   3503   3523     1
   3504   3508     1
   3504   3506     1
   3504   3507     1
   3504   3512     1
   3504   3523     1
   3505   3511     1
   3505   3523     1
   3506   3509     1
   3506   3510     1
   3507   3509     1
   3507   3510     1
   3509   3511     1
   3513   3518     1
   3513   3516     1
   3513   3517     1
   3513   3523     1
   3514   3518     1
   3514   3516     1
   3514   3517     1
   3514   3523     1
   3515   3521     1
   3515   3523     1
   3516   3519     1
   3516   3520     1
   3517   3519     1
   3517   3520     1
   3519   3521     1
   3524   3531     1
   3524   3532     1
   3525   3530     1
   3525   3528     1
   3525   3529     1
   3526   3530     1
   3526   3528     1
   3526   3529     1
   3527   3555     1
   3528   3554     1
   3528   3533     1
   3528   3531     1
   3528   3532     1
   3529   3554     1
   3529   3533     1
   3529   3531     1
   3529   3532     1
   3530   3535     1
   3530   3536     1
   3530   3545     1
   3530   3546     1
   3531   3534     1
   3531   3544     1
   3531   3555     1
   3532   3534     1
   3532   3544     1
   3532   3555     1
   3533   3538     1
   3533   3539     1
   3533   3548     1
   3533   3549     1
   3534   3545     1
   3534   3546     1
   3535   3544     1
   3535   3555     1
   3535   3540     1
   3535   3538     1
   3535   3539     1
   3536   3544     1
   3536   3555     1
   3536   3540     1
   3536   3538     1
   3536   3539     1
   3537   3555     1
   3537   3543     1
   3538   3541     1
   3538   3542     1
   3539   3541     1
   3539   3542     1
   3541   3543     1
   3545   3555     1
   3545   3550     1
   3545   3548     1
   3545   3549     1
   3546   3555     1
   3546   3550     1
   3546   3548     1
   3546   3549     1
   3547   3555     1
   3547   3553     1
   3548   3551     1
   3548   3552     1
   3549   3551     1
   3549   3552     1
   3551   3553     1
   3556   3563     1
   3556   3564     1
   3557   3562     1
   3557   3560     1
   3557   3561     1
   3558   3562     1
   3558   3560     1
   3558   3561     1
   3559   3587     1
   3560   3565     1
   3560   3563     1
   3560   3564     1
   3560   3586     1
   3561   3565     1
   3561   3563     1
   3561   3564     1
   3561   3586     1
   3562   3567     1
   3562   3568     1
   3562   3577     1
   3562   3578     1
   3563   3566     1
   3563   3576     1
   3563   3587     1
   3564   3566     1
   3564   3576     1
   3564   3587     1
   3565   3570     1
   3565   3571     1
   3565   3580     1
   3565   3581     1
   3566   3577     1
   3566   3578     1
   3567   3572     1
   3567   3570     1
   3567   3571     1
   3567   3576     1
   3567   3587     1
   3568   3572     1
   3568   3570     1
   3568   3571     1
   3568   3576     1
   3568   3587     1
   3569   3575     1
   3569   3587     1
   3570   3573     1
   3570   3574     1
   3571   3573     1
   3571   3574     1
   3573   3575     1
   3577   3582     1
   3577   3580     1
   3577   3581     1
   3577   3587     1
   3578   3582     1
   3578   3580     1
   3578   3581     1
   3578   3587     1
   3579   3585     1
   3579   3587     1
   3580   3583     1
   3580   3584     1
   3581   3583     1
   3581   3584     1
   3583   3585     1
   3588   3595     1
   3588   3596     1
   3589   3594     1
   3589   3592     1
   3589   3593     1
   3590   3594     1
   3590   3592     1
   3590   3593     1
   3591   3619     1
   3592   3618     1
   3592   3597     1
   3592   3595     1
   3592   3596     1
   3593   3618     1
   3593   3597     1
   3593   3595     1
   3593   3596     1
   3594   3599     1
   3594   3600     1
   3594   3609     1
   3594   3610     1
   3595   3598     1
   3595   3608     1
   3595   3619     1
   3596   3598     1
   3596   3608     1
   3596   3619     1
   3597   3602     1
   3597   3603     1
   3597   3612     1
   3597   3613     1
   3598   3609     1
   3598   3610     1
   3599   3608     1
   3599   3619     1
   3599   3604     1
   3599   3602     1
   3599   3603     1
   3600   3608     1
   3600   3619     1
   3600   3604     1
   3600   3602     1
   3600   3603     1
   3601   3619     1
   3601   3607     1
   3602   3605     1
   3602   3606     1
   3603   3605     1
   3603   3606     1
   3605   3607     1
   3609   3619     1
   3609   3614     1
   3609   3612     1
   3609   3613     1
   3610   3619     1
   3610   3614     1
   3610   3612     1
   3610   3613     1
   3611   3619     1
   3611   3617     1
   3612   3615     1
   3612   3616     1
   3613   3615     1
   3613   3616     1
   3615   3617     1
   3620   3627     1
   3620   3628     1
   3621   3626     1
   3621   3624     1
   3621   3625     1
   3622   3626     1
   3622   3624     1
   3622   3625     1
   3623   3651     1
   3624   3629     1
   3624   3627     1
   3624   3628     1
   3624   3650     1
   3625   3629     1
   3625   3627     1
   3625   3628     1
   3625   3650     1
   3626   3631     1
   3626   3632     1
   3626   3641     1
   3626   3642     1
   3627   3630     1
   3627   3640     1
   3627   3651     1
   3628   3630     1
   3628   3640     1
   3628   3651     1
   3629   3634     1
   3629   3635     1
   3629   3644     1
   3629   3645     1
   3630   3641     1
   3630   3642     1
   3631   3636     1
   3631   3634     1
   3631   3635     1
   3631   3640     1
   3631   3651     1
   3632   3636     1
   3632   3634     1
   3632   3635     1
   3632   3640     1
   3632   3651     1
   3633   3639     1
   3633   3651     1
   3634   3637     1
   3634   3638     1
   3635   3637     1
   3635   3638     1
   3637   3639     1
   3641   3646     1
   3641   3644     1
   3641   3645     1
   3641   3651     1
   3642   3646     1
   3642   3644     1
   3642   3645     1
   3642   3651     1
   3643   3649     1
   3643   3651     1
   3644   3647     1
   3644   3648     1
   3645   3647     1
   3645   3648     1
   3647   3649     1
   3652   3659     1
   3652   3660     1
   3653   3658     1
   3653   3656     1
   3653   3657     1
   3654   3658     1
   3654   3656     1
   3654   3657     1
   3655   3683     1
   3656   3682     1
   3656   3661     1
   3656   3659     1
   3656   3660     1
   3657   3682     1
   3657   3661     1
   3657   3659     1
   3657   3660     1
   3658   3663     1
   3658   3664     1
   3658   3673     1
   3658   3674     1
   3659   3662     1
   3659   3672     1
   3659   3683     1
   3660   3662     1
   3660   3672     1
   3660   3683     1
   3661   3666     1
   3661   3667     1
   3661   3676     1
   3661   3677     1
   3662   3673     1
   3662   3674     1
   3663   3672     1
   3663   3683     1
   3663   3668     1
   3663   3666     1
   3663   3667     1
   3664   3672     1
   3664   3683     1
   3664   3668     1
   3664   3666     1
   3664   3667     1
   3665   3683     1
   3665   3671     1
   3666   3669     1
   3666   3670     1
   3667   3669     1
   3667   3670     1
   3669   3671     1
   3673   3683     1
   3673   3678     1
   3673   3676     1
   3673   3677     1
   3674   3683     1
   3674   3678     1
   3674   3676     1
   3674   3677     1
   3675   3683     1
   3675   3681     1
   3676   3679     1
   3676   3680     1
   3677   3679     1
   3677   3680     1
   3679   3681     1
   3684   3691     1
   3684   3692     1
   3685   3690     1
   3685   3688     1
   3685   3689     1
   3686   3690     1
   3686   3688     1
   3686   3689     1
   3687   3715     1
   3688   3693     1
   3688   3691     1
   3688   3692     1
   3688   3714     1
   3689   3693     1
   3689   3691     1
   3689   3692     1
   3689   3714     1
   3690   3695     1
   3690   3696     1
   3690   3705     1
   3690   3706     1
   3691   3694     1
   3691   3704     1
   3691   3715     1
   3692   3694     1
   3692   3704     1
   3692   3715     1
   3693   3698     1
   3693   3699     1
   3693   3708     1
   3693   3709     1
   3694   3705     1
   3694   3706     1
   3695   3700     1
   3695   3698     1
   3695   3699     1
   3695   3704     1
   3695   3715     1
   3696   3700     1
   3696   3698     1
   3696   3699     1
   3696   3704     1
   3696   3715     1
   3697   3703     1
   3697   3715     1
   3698   3701     1
   3698   3702     1
   3699   3701     1
   3699   3702     1
   3701   3703     1
   3705   3710     1
   3705   3708     1
   3705   3709     1
   3705   3715     1
   3706   3710     1
   3706   3708     1
   3706   3709     1
   3706   3715     1
   3707   3713     1
   3707   3715     1
   3708   3711     1
   3708   3712     1
   3709   3711     1
   3709   3712     1
   3711   3713     1
   3716   3723     1
   3716   3724     1
   3717   3722     1
   3717   3720     1
   3717   3721     1
   3718   3722     1
   3718   3720     1
   3718   3721     1
   3719   3747     1
   3720   3746     1
   3720   3725     1
   3720   3723     1
   3720   3724     1
   3721   3746     1
   3721   3725     1
   3721   3723     1
   3721   3724     1
   3722   3727     1
   3722   3728     1
   3722   3737     1
   3722   3738     1
   3723   3726     1
   3723   3736     1
   3723   3747     1
   3724   3726     1
   3724   3736     1
   3724   3747     1
   3725   3730     1
   3725   3731     1
   3725   3740     1
   3725   3741     1
   3726   3737     1
   3726   3738     1
   3727   3736     1
   3727   3747     1
   3727   3732     1
   3727   3730     1
   3727   3731     1
   3728   3736     1
   3728   3747     1
   3728   3732     1
   3728   3730     1
   3728   3731     1
   3729   3747     1
   3729   3735     1
   3730   3733     1
   3730   3734     1
   3731   3733     1
   3731   3734     1
   3733   3735     1
   3737   3747     1
   3737   3742     1
   3737   3740     1
   3737   3741     1
   3738   3747     1
   3738   3742     1
   3738   3740     1
   3738   3741     1
   3739   3747     1
   3739   3745     1
   3740   3743     1
   3740   3744     1
   3741   3743     1
   3741   3744     1
   3743   3745     1
   3748   3755     1
   3748   3756     1
   3749   3754     1
   3749   3752     1
   3749   3753     1
   3750   3754     1
   3750   3752     1
   3750   3753     1
   3751   3779     1
   3752   3757     1
   3752   3755     1
   3752   3756     1
   3752   3778     1
   3753   3757     1
   3753   3755     1
   3753   3756     1
   3753   3778     1
   3754   3759     1
   3754   3760     1
   3754   3769     1
   3754   3770     1
   3755   3758     1
   3755   3768     1
   3755   3779     1
   3756   3758     1
   3756   3768     1
   3756   3779     1
   3757   3762     1
   3757   3763     1
   3757   3772     1
   3757   3773     1
   3758   3769     1
   3758   3770     1
   3759   3764     1
   3759   3762     1
   3759   3763     1
   3759   3768     1
   3759   3779     1
   3760   3764     1
   3760   3762     1
   3760   3763     1
   3760   3768     1
   3760   3779     1
   3761   3767     1
   3761   3779     1
   3762   3765     1
   3762   3766     1
   3763   3765     1
   3763   3766     1
   3765   3767     1
   3769   3774     1
   3769   3772     1
   3769   3773     1
   3769   3779     1
   3770   3774     1
   3770   3772     1
   3770   3773     1
   3770   3779     1
   3771   3777     1
   3771   3779     1
   3772   3775     1
   3772   3776     1
   3773   3775     1
   3773   3776     1
   3775   3777     1
   3780   3787     1
   3780   3788     1
   3781   3786     1
   3781   3784     1
   3781   3785     1
   3782   3786     1
   3782   3784     1
   3782   3785     1
   3783   3811     1
   3784   3810     1
   3784   3789     1
   3784   3787     1
   3784   3788     1
   3785   3810     1
   3785   3789     1
   3785   3787     1
   3785   3788     1
   3786   3791     1
   3786   3792     1
   3786   3801     1
   3786   3802     1
   3787   3790     1
   3787   3800     1
   3787   3811     1
   3788   3790     1
   3788   3800     1
   3788   3811     1
   3789   3794     1
   3789   3795     1
   3789   3804     1
   3789   3805     1
   3790   3801     1
   3790   3802     1
   3791   3800     1
   3791   3811     1
   3791   3796     1
   3791   3794     1
   3791   3795     1
   3792   3800     1
   3792   3811     1
   3792   3796     1
   3792   3794     1
   3792   3795     1
   3793   3811     1
   3793   3799     1
   3794   3797     1
   3794   3798     1
   3795   3797     1
   3795   3798     1
   3797   3799     1
   3801   3811     1
   3801   3806     1
   3801   3804     1
   3801   3805     1
   3802   3811     1
   3802   3806     1
   3802   3804     1
   3802   3805     1
   3803   3811     1
   3803   3809     1
   3804   3807     1
   3804   3808     1
   3805   3807     1
   3805   3808     1
   3807   3809     1
   3812   3819     1
   3812   3820     1
   3813   3818     1
   3813   3816     1
   3813   3817     1
   3814   3818     1
   3814   3816     1
   3814   3817     1
   3815   3843     1
   3816   3821     1
   3816   3819     1
   3816   3820     1
   3816   3842     1
   3817   3821     1
   3817   3819     1
   3817   3820     1
   3817   3842     1
   3818   3823     1
   3818   3824     1
   3818   3833     1
   3818   3834     1
   3819   3822     1
   3819   3832     1
   3819   3843     1
   3820   3822     1
   3820   3832     1
   3820   3843     1
   3821   3826     1
   3821   3827     1
   3821   3836     1
   3821   3837     1
   3822   3833     1
   3822   3834     1
   3823   3828     1
   3823   3826     1
   3823   3827     1
   3823   3832     1
   3823   3843     1
   3824   3828     1
   3824   3826     1
   3824   3827     1
   3824   3832     1
   3824   3843     1
   3825   3831     1
   3825   3843     1
   3826   3829     1
   3826   3830     1
   3827   3829     1
   3827   3830     1
   3829   3831     1
   3833   3838     1
   3833   3836     1
   3833   3837     1
   3833   3843     1
   3834   3838     1
   3834   3836     1
   3834   3837     1
   3834   3843     1
   3835   3841     1
   3835   3843     1
   3836   3839     1
   3836   3840     1
   3837   3839     1
   3837   3840     1
   3839   3841     1
   3844   3851     1
   3844   3852     1
   3845   3850     1
   3845   3848     1
   3845   3849     1
   3846   3850     1
   3846   3848     1
   3846   3849     1
   3847   3875     1
   3848   3874     1
   3848   3853     1
   3848   3851     1
   3848   3852     1
   3849   3874     1
   3849   3853     1
   3849   3851     1
   3849   3852     1
   3850   3855     1
   3850   3856     1
   3850   3865     1
   3850   3866     1
   3851   3854     1
   3851   3864     1
   3851   3875     1
   3852   3854     1
   3852   3864     1
   3852   3875     1
   3853   3858     1
   3853   3859     1
   3853   3868     1
   3853   3869     1
   3854   3865     1
   3854   3866     1
   3855   3864     1
   3855   3875     1
   3855   3860     1
   3855   3858     1
   3855   3859     1
   3856   3864     1
   3856   3875     1
   3856   3860     1
   3856   3858     1
   3856   3859     1
   3857   3875     1
   3857   3863     1
   3858   3861     1
   3858   3862     1
   3859   3861     1
   3859   3862     1
   3861   3863     1
   3865   3875     1
   3865   3870     1
   3865   3868     1
   3865   3869     1
   3866   3875     1
   3866   3870     1
   3866   3868     1
   3866   3869     1
   3867   3875     1
   3867   3873     1
   3868   3871     1
   3868   3872     1
   3869   3871     1
   3869   3872     1
   3871   3873     1
   3876   3883     1
   3876   3884     1
   3877   3882     1
   3877   3880     1
   3877   3881     1
   3878   3882     1
   3878   3880     1
   3878   3881     1
   3879   3907     1
   3880   3885     1
   3880   3883     1
   3880   3884     1
   3880   3906     1
   3881   3885     1
   3881   3883     1
   3881   3884     1
   3881   3906     1
   3882   3887     1
   3882   3888     1
   3882   3897     1
   3882   3898     1
   3883   3886     1
   3883   3896     1
   3883   3907     1
   3884   3886     1
   3884   3896     1
   3884   3907     1
   3885   3890     1
   3885   3891     1
   3885   3900     1
   3885   3901     1
   3886   3897     1
   3886   3898     1
   3887   3892     1
   3887   3890     1
   3887   3891     1
   3887   3896     1
   3887   3907     1
   3888   3892     1
   3888   3890     1
   3888   3891     1
   3888   3896     1
   3888   3907     1
   3889   3895     1
   3889   3907     1
   3890   3893     1
   3890   3894     1
   3891   3893     1
   3891   3894     1
   3893   3895     1
   3897   3902     1
   3897   3900     1
   3897   3901     1
   3897   3907     1
   3898   3902     1
   3898   3900     1
   3898   3901     1
   3898   3907     1
   3899   3905     1
   3899   3907     1
   3900   3903     1
   3900   3904     1
   3901   3903     1
   3901   3904     1
   3903   3905     1
   3908   3915     1
   3908   3916     1
   3909   3914     1
   3909   3912     1
   3909   3913     1
   3910   3914     1
   3910   3912     1
   3910   3913     1
   3911   3939     1
   3912   3938     1
   3912   3917     1
   3912   3915     1
   3912   3916     1
   3913   3938     1
   3913   3917     1
   3913   3915     1
   3913   3916     1
   3914   3919     1
   3914   3920     1
   3914   3929     1
   3914   3930     1
   3915   3918     1
   3915   3928     1
   3915   3939     1
   3916   3918     1
   3916   3928     1
   3916   3939     1
   3917   3922     1
   3917   3923     1
   3917   3932     1
   3917   3933     1
   3918   3929     1
   3918   3930     1
   3919   3928     1
   3919   3939     1
   3919   3924     1
   3919   3922     1
   3919   3923     1
   3920   3928     1
   3920   3939     1
   3920   3924     1
   3920   3922     1
   3920   3923     1
   3921   3939     1
   3921   3927     1
   3922   3925     1
   3922   3926     1
   3923   3925     1
   3923   3926     1
   3925   3927     1
   3929   3939     1
   3929   3934     1
   3929   3932     1
   3929   3933     1
   3930   3939     1
   3930   3934     1
   3930   3932     1
   3930   3933     1
   3931   3939     1
   3931   3937     1
   3932   3935     1
   3932   3936     1
   3933   3935     1
   3933   3936     1
   3935   3937     1
   3940   3947     1
   3940   3948     1
   3941   3946     1
   3941   3944     1
   3941   3945     1
   3942   3946     1
   3942   3944     1
   3942   3945     1
   3943   3971     1
   3944   3949     1
   3944   3947     1
   3944   3948     1
   3944   3970     1
   3945   3949     1
   3945   3947     1
   3945   3948     1
   3945   3970     1
   3946   3951     1
   3946   3952     1
   3946   3961     1
   3946   3962     1
   3947   3950     1
   3947   3960     1
   3947   3971     1
   3948   3950     1
   3948   3960     1
   3948   3971     1
   3949   3954     1
   3949   3955     1
   3949   3964     1
   3949   3965     1
   3950   3961     1
   3950   3962     1
   3951   3956     1
   3951   3954     1
   3951   3955     1
   3951   3960     1
   3951   3971     1
   3952   3956     1
   3952   3954     1
   3952   3955     1
   3952   3960     1
   3952   3971     1
   3953   3959     1
   3953   3971     1
   3954   3957     1
   3954   3958     1
   3955   3957     1
   3955   3958     1
   3957   3959     1
   3961   3966     1
   3961   3964     1
   3961   3965     1
   3961   3971     1
   3962   3966     1
   3962   3964     1
   3962   3965     1
   3962   3971     1
   3963   3969     1
   3963   3971     1
   3964   3967     1
   3964   3968     1
   3965   3967     1
   3965   3968     1
   3967   3969     1
   3972   3979     1
   3972   3980     1
   3973   3978     1
   3973   3976     1
   3973   3977     1
   3974   3978     1
   3974   3976     1
   3974   3977     1
   3975   4003     1
   3976   4002     1
   3976   3981     1
   3976   3979     1
   3976   3980     1
   3977   4002     1
   3977   3981     1
   3977   3979     1
   3977   3980     1
   3978   3983     1
   3978   3984     1
   3978   3993     1
   3978   3994     1
   3979   3982     1
   3979   3992     1
   3979   4003     1
   3980   3982     1
   3980   3992     1
   3980   4003     1
   3981   3986     1
   3981   3987     1
   3981   3996     1
   3981   3997     1
   3982   3993     1
   3982   3994     1
   3983   3992     1
   3983   4003     1
   3983   3988     1
   3983   3986     1
   3983   3987     1
   3984   3992     1
   3984   4003     1
   3984   3988     1
   3984   3986     1
   3984   3987     1
   3985   4003     1
   3985   3991     1
   3986   3989     1
   3986   3990     1
   3987   3989     1
   3987   3990     1
   3989   3991     1
   3993   4003     1
   3993   3998     1
   3993   3996     1
   3993   3997     1
   3994   4003     1
   3994   3998     1
   3994   3996     1
   3994   3997     1
   3995   4003     1
   3995   4001     1
   3996   3999     1
   3996   4000     1
   3997   3999     1
   3997   4000     1
   3999   4001     1
   4004   4011     1
   4004   4012     1
   4005   4010     1
   4005   4008     1
   4005   4009     1
   4006   4010     1
   4006   4008     1
   4006   4009     1
   4007   4035     1
   4008   4013     1
   4008   4011     1
   4008   4012     1
   4008   4034     1
   4009   4013     1
   4009   4011     1
   4009   4012     1
   4009   4034     1
   4010   4015     1
   4010   4016     1
   4010   4025     1
   4010   4026     1
   4011   4014     1
   4011   4024     1
   4011   4035     1
   4012   4014     1
   4012   4024     1
   4012   4035     1
   4013   4018     1
   4013   4019     1
   4013   4028     1
   4013   4029     1
   4014   4025     1
   4014   4026     1
   4015   4020     1
   4015   4018     1
   4015   4019     1
   4015   4024     1
   4015   4035     1
   4016   4020     1
   4016   4018     1
   4016   4019     1
   4016   4024     1
   4016   4035     1
   4017   4023     1
   4017   4035     1
   4018   4021     1
   4018   4022     1
   4019   4021     1
   4019   4022     1
   4021   4023     1
   4025   4030     1
   4025   4028     1
   4025   4029     1
   4025   4035     1
   4026   4030     1
   4026   4028     1
   4026   4029     1
   4026   4035     1
   4027   4033     1
   4027   4035     1
   4028   4031     1
   4028   4032     1
   4029   4031     1
   4029   4032     1
   4031   4033     1
   4036   4043     1
   4036   4044     1
   4037   4042     1
   4037   4040     1
   4037   4041     1
   4038   4042     1
   4038   4040     1
   4038   4041     1
   4039   4067     1
   4040   4066     1
   4040   4045     1
   4040   4043     1
   4040   4044     1
   4041   4066     1
   4041   4045     1
   4041   4043     1
   4041   4044     1
   4042   4047     1
   4042   4048     1
   4042   4057     1
   4042   4058     1
   4043   4046     1
   4043   4056     1
   4043   4067     1
   4044   4046     1
   4044   4056     1
   4044   4067     1
   4045   4050     1
   4045   4051     1
   4045   4060     1
   4045   4061     1
   4046   4057     1
   4046   4058     1
   4047   4056     1
   4047   4067     1
   4047   4052     1
   4047   4050     1
   4047   4051     1
   4048   4056     1
   4048   4067     1
   4048   4052     1
   4048   4050     1
   4048   4051     1
   4049   4067     1
   4049   4055     1
   4050   4053     1
   4050   4054     1
   4051   4053     1
   4051   4054     1
   4053   4055     1
   4057   4067     1
   4057   4062     1
   4057   4060     1
   4057   4061     1
   4058   4067     1
   4058   4062     1
   4058   4060     1
   4058   4061     1
   4059   4067     1
   4059   4065     1
   4060   4063     1
   4060   4064     1
   4061   4063     1
   4061   4064     1
   4063   4065     1
   4068   4075     1
   4068   4076     1
   4069   4074     1
   4069   4072     1
   4069   4073     1
   4070   4074     1
   4070   4072     1
   4070   4073     1
   4071   4099     1
   4072   4077     1
   4072   4075     1
   4072   4076     1
   4072   4098     1
   4073   4077     1
   4073   4075     1
   4073   4076     1
   4073   4098     1
   4074   4079     1
   4074   4080     1
   4074   4089     1
   4074   4090     1
   4075   4078     1
   4075   4088     1
   4075   4099     1
   4076   4078     1
   4076   4088     1
   4076   4099     1
   4077   4082     1
   4077   4083     1
   4077   4092     1
   4077   4093     1
   4078   4089     1
   4078   4090     1
   4079   4084     1
   4079   4082     1
   4079   4083     1
   4079   4088     1
   4079   4099     1
   4080   4084     1
   4080   4082     1
   4080   4083     1
   4080   4088     1
   4080   4099     1
   4081   4087     1
   4081   4099     1
   4082   4085     1
   4082   4086     1
   4083   4085     1
   4083   4086     1
   4085   4087     1
   4089   4094     1
   4089   4092     1
   4089   4093     1
   4089   4099     1
   4090   4094     1
   4090   4092     1
   4090   4093     1
   4090   4099     1
   4091   4097     1
   4091   4099     1
   4092   4095     1
   4092   4096     1
   4093   4095     1
   4093   4096     1
   4095   4097     1
   4100   4107     1
   4100   4108     1
   4101   4106     1
   4101   4104     1
   4101   4105     1
   4102   4106     1
   4102   4104     1
   4102   4105     1
   4103   4131     1
   4104   4130     1
   4104   4109     1
   4104   4107     1
   4104   4108     1
   4105   4130     1
   4105   4109     1
   4105   4107     1
   4105   4108     1
   4106   4111     1
   4106   4112     1
   4106   4121     1
   4106   4122     1
   4107   4110     1
   4107   4120     1
   4107   4131     1
   4108   4110     1
   4108   4120     1
   4108   4131     1
   4109   4114     1
   4109   4115     1
   4109   4124     1
   4109   4125     1
   4110   4121     1
   4110   4122     1
   4111   4120     1
   4111   4131     1
   4111   4116     1
   4111   4114     1
   4111   4115     1
   4112   4120     1
   4112   4131     1
   4112   4116     1
   4112   4114     1
   4112   4115     1
   4113   4131     1
   4113   4119     1
   4114   4117     1
   4114   4118     1
   4115   4117     1
   4115   4118     1
   4117   4119     1
   4121   4131     1
   4121   4126     1
   4121   4124     1
   4121   4125     1
   4122   4131     1
   4122   4126     1
   4122   4124     1
   4122   4125     1
   4123   4131     1
   4123   4129     1
   4124   4127     1
   4124   4128     1
   4125   4127     1
   4125   4128     1
   4127   4129     1
   4132   4139     1
   4132   4140     1
   4133   4138     1
   4133   4136     1
   4133   4137     1
   4134   4138     1
   4134   4136     1
   4134   4137     1
   4135   4163     1
   4136   4141     1
   4136   4139     1
   4136   4140     1
   4136   4162     1
   4137   4141     1
   4137   4139     1
   4137   4140     1
   4137   4162     1
   4138   4143     1
   4138   4144     1
   4138   4153     1
   4138   4154     1
   4139   4142     1
   4139   4152     1
   4139   4163     1
   4140   4142     1
   4140   4152     1
   4140   4163     1
   4141   4146     1
   4141   4147     1
   4141   4156     1
   4141   4157     1
   4142   4153     1
   4142   4154     1
   4143   4148     1
   4143   4146     1
   4143   4147     1
   4143   4152     1
   4143   4163     1
   4144   4148     1
   4144   4146     1
   4144   4147     1
   4144   4152     1
   4144   4163     1
   4145   4151     1
   4145   4163     1
   4146   4149     1
   4146   4150     1
   4147   4149     1
   4147   4150     1
   4149   4151     1
   4153   4158     1
   4153   4156     1
   4153   4157     1
   4153   4163     1
   4154   4158     1
   4154   4156     1
   4154   4157     1
   4154   4163     1
   4155   4161     1
   4155   4163     1
   4156   4159     1
   4156   4160     1
   4157   4159     1
   4157   4160     1
   4159   4161     1
   4164   4171     1
   4164   4172     1
   4165   4170     1
   4165   4168     1
   4165   4169     1
   4166   4170     1
   4166   4168     1
   4166   4169     1
   4167   4195     1
   4168   4194     1
   4168   4173     1
   4168   4171     1
   4168   4172     1
   4169   4194     1
   4169   4173     1
   4169   4171     1
   4169   4172     1
   4170   4175     1
   4170   4176     1
   4170   4185     1
   4170   4186     1
   4171   4174     1
   4171   4184     1
   4171   4195     1
   4172   4174     1
   4172   4184     1
   4172   4195     1
   4173   4178     1
   4173   4179     1
   4173   4188     1
   4173   4189     1
   4174   4185     1
   4174   4186     1
   4175   4184     1
   4175   4195     1
   4175   4180     1
   4175   4178     1
   4175   4179     1
   4176   4184     1
   4176   4195     1
   4176   4180     1
   4176   4178     1
   4176   4179     1
   4177   4195     1
   4177   4183     1
   4178   4181     1
   4178   4182     1
   4179   4181     1
   4179   4182     1
   4181   4183     1
   4185   4195     1
   4185   4190     1
   4185   4188     1
   4185   4189     1
   4186   4195     1
   4186   4190     1
   4186   4188     1
   4186   4189     1
   4187   4195     1
   4187   4193     1
   4188   4191     1
   4188   4192     1
   4189   4191     1
   4189   4192     1
   4191   4193     1
   4196   4203     1
   4196   4204     1
   4197   4202     1
   4197   4200     1
   4197   4201     1
   4198   4202     1
   4198   4200     1
   4198   4201     1
   4199   4227     1
   4200   4205     1
   4200   4203     1
   4200   4204     1
   4200   4226     1
   4201   4205     1
   4201   4203     1
   4201   4204     1
   4201   4226     1
   4202   4207     1
   4202   4208     1
   4202   4217     1
   4202   4218     1
   4203   4206     1
   4203   4216     1
   4203   4227     1
   4204   4206     1
   4204   4216     1
   4204   4227     1
   4205   4210     1
   4205   4211     1
   4205   4220     1
   4205   4221     1
   4206   4217     1
   4206   4218     1
   4207   4212     1
   4207   4210     1
   4207   4211     1
   4207   4216     1
   4207   4227     1
   4208   4212     1
   4208   4210     1
   4208   4211     1
   4208   4216     1
   4208   4227     1
   4209   4215     1
   4209   4227     1
   4210   4213     1
   4210   4214     1
   4211   4213     1
   4211   4214     1
   4213   4215     1
   4217   4222     1
   4217   4220     1
   4217   4221     1
   4217   4227     1
   4218   4222     1
   4218   4220     1
   4218   4221     1
   4218   4227     1
   4219   4225     1
   4219   4227     1
   4220   4223     1
   4220   4224     1
   4221   4223     1
   4221   4224     1
   4223   4225     1
   4228   4235     1
   4228   4236     1
   4229   4234     1
   4229   4232     1
   4229   4233     1
   4230   4234     1
   4230   4232     1
   4230   4233     1
   4231   4259     1
   4232   4258     1
   4232   4237     1
   4232   4235     1
   4232   4236     1
   4233   4258     1
   4233   4237     1
   4233   4235     1
   4233   4236     1
   4234   4239     1
   4234   4240     1
   4234   4249     1
   4234   4250     1
   4235   4238     1
   4235   4248     1
   4235   4259     1
   4236   4238     1
   4236   4248     1
   4236   4259     1
   4237   4242     1
   4237   4243     1
   4237   4252     1
   4237   4253     1
   4238   4249     1
   4238   4250     1
   4239   4248     1
   4239   4259     1
   4239   4244     1
   4239   4242     1
   4239   4243     1
   4240   4248     1
   4240   4259     1
   4240   4244     1
   4240   4242     1
   4240   4243     1
   4241   4259     1
   4241   4247     1
   4242   4245     1
   4242   4246     1
   4243   4245     1
   4243   4246     1
   4245   4247     1
   4249   4259     1
   4249   4254     1
   4249   4252     1
   4249   4253     1
   4250   4259     1
   4250   4254     1
   4250   4252     1
   4250   4253     1
   4251   4259     1
   4251   4257     1
   4252   4255     1
   4252   4256     1
   4253   4255     1
   4253   4256     1
   4255   4257     1
   4260   4267     1
   4260   4268     1
   4261   4266     1
   4261   4264     1
   4261   4265     1
   4262   4266     1
   4262   4264     1
   4262   4265     1
   4263   4291     1
   4264   4269     1
   4264   4267     1
   4264   4268     1
   4264   4290     1
   4265   4269     1
   4265   4267     1
   4265   4268     1
   4265   4290     1
   4266   4271     1
   4266   4272     1
   4266   4281     1
   4266   4282     1
   4267   4270     1
   4267   4280     1
   4267   4291     1
   4268   4270     1
   4268   4280     1
   4268   4291     1
   4269   4274     1
   4269   4275     1
   4269   4284     1
   4269   4285     1
   4270   4281     1
   4270   4282     1
   4271   4276     1
   4271   4274     1
   4271   4275     1
   4271   4280     1
   4271   4291     1
   4272   4276     1
   4272   4274     1
   4272   4275     1
   4272   4280     1
   4272   4291     1
   4273   4279     1
   4273   4291     1
   4274   4277     1
   4274   4278     1
   4275   4277     1
   4275   4278     1
   4277   4279     1
   4281   4286     1
   4281   4284     1
   4281   4285     1
   4281   4291     1
   4282   4286     1
   4282   4284     1
   4282   4285     1
   4282   4291     1
   4283   4289     1
   4283   4291     1
   4284   4287     1
   4284   4288     1
   4285   4287     1
   4285   4288     1
   4287   4289     1
   4292   4299     1
   4292   4300     1
   4293   4298     1
   4293   4296     1
   4293   4297     1
   4294   4298     1
   4294   4296     1
   4294   4297     1
   4295   4323     1
   4296   4322     1
   4296   4301     1
   4296   4299     1
   4296   4300     1
   4297   4322     1
   4297   4301     1
   4297   4299     1
   4297   4300     1
   4298   4303     1
   4298   4304     1
   4298   4313     1
   4298   4314     1
   4299   4302     1
   4299   4312     1
   4299   4323     1
   4300   4302     1
   4300   4312     1
   4300   4323     1
   4301   4306     1
   4301   4307     1
   4301   4316     1
   4301   4317     1
   4302   4313     1
   4302   4314     1
   4303   4312     1
   4303   4323     1
   4303   4308     1
   4303   4306     1
   4303   4307     1
   4304   4312     1
   4304   4323     1
   4304   4308     1
   4304   4306     1
   4304   4307     1
   4305   4323     1
   4305   4311     1
   4306   4309     1
   4306   4310     1
   4307   4309     1
   4307   4310     1
   4309   4311     1
   4313   4323     1
   4313   4318     1
   4313   4316     1
   4313   4317     1
   4314   4323     1
   4314   4318     1
   4314   4316     1
   4314   4317     1
   4315   4323     1
   4315   4321     1
   4316   4319     1
   4316   4320     1
   4317   4319     1
   4317   4320     1
   4319   4321     1
   4324   4331     1
   4324   4332     1
   4325   4330     1
   4325   4328     1
   4325   4329     1
   4326   4330     1
   4326   4328     1
   4326   4329     1
   4327   4355     1
   4328   4333     1
   4328   4331     1
   4328   4332     1
   4328   4354     1
   4329   4333     1
   4329   4331     1
   4329   4332     1
   4329   4354     1
   4330   4335     1
   4330   4336     1
   4330   4345     1
   4330   4346     1
   4331   4334     1
   4331   4344     1
   4331   4355     1
   4332   4334     1
   4332   4344     1
   4332   4355     1
   4333   4338     1
   4333   4339     1
   4333   4348     1
   4333   4349     1
   4334   4345     1
   4334   4346     1
   4335   4340     1
   4335   4338     1
   4335   4339     1
   4335   4344     1
   4335   4355     1
   4336   4340     1
   4336   4338     1
   4336   4339     1
   4336   4344     1
   4336   4355     1
   4337   4343     1
   4337   4355     1
   4338   4341     1
   4338   4342     1
   4339   4341     1
   4339   4342     1
   4341   4343     1
   4345   4350     1
   4345   4348     1
   4345   4349     1
   4345   4355     1
   4346   4350     1
   4346   4348     1
   4346   4349     1
   4346   4355     1
   4347   4353     1
   4347   4355     1
   4348   4351     1
   4348   4352     1
   4349   4351     1
   4349   4352     1
   4351   4353     1
   4356   4363     1
   4356   4364     1
   4357   4362     1
   4357   4360     1
   4357   4361     1
   4358   4362     1
   4358   4360     1
   4358   4361     1
   4359   4387     1
   4360   4386     1
   4360   4365     1
   4360   4363     1
   4360   4364     1
   4361   4386     1
   4361   4365     1
   4361   4363     1
   4361   4364     1
   4362   4367     1
   4362   4368     1
   4362   4377     1
   4362   4378     1
   4363   4366     1
   4363   4376     1
   4363   4387     1
   4364   4366     1
   4364   4376     1
   4364   4387     1
   4365   4370     1
   4365   4371     1
   4365   4380     1
   4365   4381     1
   4366   4377     1
   4366   4378     1
   4367   4376     1
   4367   4387     1
   4367   4372     1
   4367   4370     1
   4367   4371     1
   4368   4376     1
   4368   4387     1
   4368   4372     1
   4368   4370     1
   4368   4371     1
   4369   4387     1
   4369   4375     1
   4370   4373     1
   4370   4374     1
   4371   4373     1
   4371   4374     1
   4373   4375     1
   4377   4387     1
   4377   4382     1
   4377   4380     1
   4377   4381     1
   4378   4387     1
   4378   4382     1
   4378   4380     1
   4378   4381     1
   4379   4387     1
   4379   4385     1
   4380   4383     1
   4380   4384     1
   4381   4383     1
   4381   4384     1
   4383   4385     1
   4388   4395     1
   4388   4396     1
   4389   4394     1
   4389   4392     1
   4389   4393     1
   4390   4394     1
   4390   4392     1
   4390   4393     1
   4391   4419     1
   4392   4397     1
   4392   4395     1
   4392   4396     1
   4392   4418     1
   4393   4397     1
   4393   4395     1
   4393   4396     1
   4393   4418     1
   4394   4399     1
   4394   4400     1
   4394   4409     1
   4394   4410     1
   4395   4398     1
   4395   4408     1
   4395   4419     1
   4396   4398     1
   4396   4408     1
   4396   4419     1
   4397   4402     1
   4397   4403     1
   4397   4412     1
   4397   4413     1
   4398   4409     1
   4398   4410     1
   4399   4404     1
   4399   4402     1
   4399   4403     1
   4399   4408     1
   4399   4419     1
   4400   4404     1
   4400   4402     1
   4400   4403     1
   4400   4408     1
   4400   4419     1
   4401   4407     1
   4401   4419     1
   4402   4405     1
   4402   4406     1
   4403   4405     1
   4403   4406     1
   4405   4407     1
   4409   4414     1
   4409   4412     1
   4409   4413     1
   4409   4419     1
   4410   4414     1
   4410   4412     1
   4410   4413     1
   4410   4419     1
   4411   4417     1
   4411   4419     1
   4412   4415     1
   4412   4416     1
   4413   4415     1
   4413   4416     1
   4415   4417     1
   4420   4427     1
   4420   4428     1
   4421   4426     1
   4421   4424     1
   4421   4425     1
   4422   4426     1
   4422   4424     1
   4422   4425     1
   4423   4451     1
   4424   4450     1
   4424   4429     1
   4424   4427     1
   4424   4428     1
   4425   4450     1
   4425   4429     1
   4425   4427     1
   4425   4428     1
   4426   4431     1
   4426   4432     1
   4426   4441     1
   4426   4442     1
   4427   4430     1
   4427   4440     1
   4427   4451     1
   4428   4430     1
   4428   4440     1
   4428   4451     1
   4429   4434     1
   4429   4435     1
   4429   4444     1
   4429   4445     1
   4430   4441     1
   4430   4442     1
   4431   4440     1
   4431   4451     1
   4431   4436     1
   4431   4434     1
   4431   4435     1
   4432   4440     1
   4432   4451     1
   4432   4436     1
   4432   4434     1
   4432   4435     1
   4433   4451     1
   4433   4439     1
   4434   4437     1
   4434   4438     1
   4435   4437     1
   4435   4438     1
   4437   4439     1
   4441   4451     1
   4441   4446     1
   4441   4444     1
   4441   4445     1
   4442   4451     1
   4442   4446     1
   4442   4444     1
   4442   4445     1
   4443   4451     1
   4443   4449     1
   4444   4447     1
   4444   4448     1
   4445   4447     1
   4445   4448     1
   4447   4449     1
   4452   4459     1
   4452   4460     1
   4453   4458     1
   4453   4456     1
   4453   4457     1
   4454   4458     1
   4454   4456     1
   4454   4457     1
   4455   4483     1
   4456   4461     1
   4456   4459     1
   4456   4460     1
   4456   4482     1
   4457   4461     1
   4457   4459     1
   4457   4460     1
   4457   4482     1
   4458   4463     1
   4458   4464     1
   4458   4473     1
   4458   4474     1
   4459   4462     1
   4459   4472     1
   4459   4483     1
   4460   4462     1
   4460   4472     1
   4460   4483     1
   4461   4466     1
   4461   4467     1
   4461   4476     1
   4461   4477     1
   4462   4473     1
   4462   4474     1
   4463   4468     1
   4463   4466     1
   4463   4467     1
   4463   4472     1
   4463   4483     1
   4464   4468     1
   4464   4466     1
   4464   4467     1
   4464   4472     1
   4464   4483     1
   4465   4471     1
   4465   4483     1
   4466   4469     1
   4466   4470     1
   4467   4469     1
   4467   4470     1
   4469   4471     1
   4473   4478     1
   4473   4476     1
   4473   4477     1
   4473   4483     1
   4474   4478     1
   4474   4476     1
   4474   4477     1
   4474   4483     1
   4475   4481     1
   4475   4483     1
   4476   4479     1
   4476   4480     1
   4477   4479     1
   4477   4480     1
   4479   4481     1
   4484   4491     1
   4484   4492     1
   4485   4490     1
   4485   4488     1
   4485   4489     1
   4486   4490     1
   4486   4488     1
   4486   4489     1
   4487   4515     1
   4488   4514     1
   4488   4493     1
   4488   4491     1
   4488   4492     1
   4489   4514     1
   4489   4493     1
   4489   4491     1
   4489   4492     1
   4490   4495     1
   4490   4496     1
   4490   4505     1
   4490   4506     1
   4491   4494     1
   4491   4504     1
   4491   4515     1
   4492   4494     1
   4492   4504     1
   4492   4515     1
   4493   4498     1
   4493   4499     1
   4493   4508     1
   4493   4509     1
   4494   4505     1
   4494   4506     1
   4495   4504     1
   4495   4515     1
   4495   4500     1
   4495   4498     1
   4495   4499     1
   4496   4504     1
   4496   4515     1
   4496   4500     1
   4496   4498     1
   4496   4499     1
   4497   4515     1
   4497   4503     1
   4498   4501     1
   4498   4502     1
   4499   4501     1
   4499   4502     1
   4501   4503     1
   4505   4515     1
   4505   4510     1
   4505   4508     1
   4505   4509     1
   4506   4515     1
   4506   4510     1
   4506   4508     1
   4506   4509     1
   4507   4515     1
   4507   4513     1
   4508   4511     1
   4508   4512     1
   4509   4511     1
   4509   4512     1
   4511   4513     1
   4516   4523     1
   4516   4524     1
   4517   4522     1
   4517   4520     1
   4517   4521     1
   4518   4522     1
   4518   4520     1
   4518   4521     1
   4519   4547     1
   4520   4525     1
   4520   4523     1
   4520   4524     1
   4520   4546     1
   4521   4525     1
   4521   4523     1
   4521   4524     1
   4521   4546     1
   4522   4527     1
   4522   4528     1
   4522   4537     1
   4522   4538     1
   4523   4526     1
   4523   4536     1
   4523   4547     1
   4524   4526     1
   4524   4536     1
   4524   4547     1
   4525   4530     1
   4525   4531     1
   4525   4540     1
   4525   4541     1
   4526   4537     1
   4526   4538     1
   4527   4532     1
   4527   4530     1
   4527   4531     1
   4527   4536     1
   4527   4547     1
   4528   4532     1
   4528   4530     1
   4528   4531     1
   4528   4536     1
   4528   4547     1
   4529   4535     1
   4529   4547     1
   4530   4533     1
   4530   4534     1
   4531   4533     1
   4531   4534     1
   4533   4535     1
   4537   4542     1
   4537   4540     1
   4537   4541     1
   4537   4547     1
   4538   4542     1
   4538   4540     1
   4538   4541     1
   4538   4547     1
   4539   4545     1
   4539   4547     1
   4540   4543     1
   4540   4544     1
   4541   4543     1
   4541   4544     1
   4543   4545     1
   4548   4555     1
   4548   4556     1
   4549   4554     1
   4549   4552     1
   4549   4553     1
   4550   4554     1
   4550   4552     1
   4550   4553     1
   4551   4579     1
   4552   4578     1
   4552   4557     1
   4552   4555     1
   4552   4556     1
   4553   4578     1
   4553   4557     1
   4553   4555     1
   4553   4556     1
   4554   4559     1
   4554   4560     1
   4554   4569     1
   4554   4570     1
   4555   4558     1
   4555   4568     1
   4555   4579     1
   4556   4558     1
   4556   4568     1
   4556   4579     1
   4557   4562     1
   4557   4563     1
   4557   4572     1
   4557   4573     1
   4558   4569     1
   4558   4570     1
   4559   4568     1
   4559   4579     1
   4559   4564     1
   4559   4562     1
   4559   4563     1
   4560   4568     1
   4560   4579     1
   4560   4564     1
   4560   4562     1
   4560   4563     1
   4561   4579     1
   4561   4567     1
   4562   4565     1
   4562   4566     1
   4563   4565     1
   4563   4566     1
   4565   4567     1
   4569   4579     1
   4569   4574     1
   4569   4572     1
   4569   4573     1
   4570   4579     1
   4570   4574     1
   4570   4572     1
   4570   4573     1
   4571   4579     1
   4571   4577     1
   4572   4575     1
   4572   4576     1
   4573   4575     1
   4573   4576     1
   4575   4577     1
   4580   4587     1
   4580   4588     1
   4581   4586     1
   4581   4584     1
   4581   4585     1
   4582   4586     1
   4582   4584     1
   4582   4585     1
   4583   4611     1
   4584   4589     1
   4584   4587     1
   4584   4588     1
   4584   4610     1
   4585   4589     1
   4585   4587     1
   4585   4588     1
   4585   4610     1
   4586   4591     1
   4586   4592     1
   4586   4601     1
   4586   4602     1
   4587   4590     1
   4587   4600     1
   4587   4611     1
   4588   4590     1
   4588   4600     1
   4588   4611     1
   4589   4594     1
   4589   4595     1
   4589   4604     1
   4589   4605     1
   4590   4601     1
   4590   4602     1
   4591   4596     1
   4591   4594     1
   4591   4595     1
   4591   4600     1
   4591   4611     1
   4592   4596     1
   4592   4594     1
   4592   4595     1
   4592   4600     1
   4592   4611     1
   4593   4599     1
   4593   4611     1
   4594   4597     1
   4594   4598     1
   4595   4597     1
   4595   4598     1
   4597   4599     1
   4601   4606     1
   4601   4604     1
   4601   4605     1
   4601   4611     1
   4602   4606     1
   4602   4604     1
   4602   4605     1
   4602   4611     1
   4603   4609     1
   4603   4611     1
   4604   4607     1
   4604   4608     1
   4605   4607     1
   4605   4608     1
   4607   4609     1
   4612   4619     1
   4612   4620     1
   4613   4618     1
   4613   4616     1
   4613   4617     1
   4614   4618     1
   4614   4616     1
   4614   4617     1
   4615   4643     1
   4616   4642     1
   4616   4621     1
   4616   4619     1
   4616   4620     1
   4617   4642     1
   4617   4621     1
   4617   4619     1
   4617   4620     1
   4618   4623     1
   4618   4624     1
   4618   4633     1
   4618   4634     1
   4619   4622     1
   4619   4632     1
   4619   4643     1
   4620   4622     1
   4620   4632     1
   4620   4643     1
   4621   4626     1
   4621   4627     1
   4621   4636     1
   4621   4637     1
   4622   4633     1
   4622   4634     1
   4623   4632     1
   4623   4643     1
   4623   4628     1
   4623   4626     1
   4623   4627     1
   4624   4632     1
   4624   4643     1
   4624   4628     1
   4624   4626     1
   4624   4627     1
   4625   4643     1
   4625   4631     1
   4626   4629     1
   4626   4630     1
   4627   4629     1
   4627   4630     1
   4629   4631     1
   4633   4643     1
   4633   4638     1
   4633   4636     1
   4633   4637     1
   4634   4643     1
   4634   4638     1
   4634   4636     1
   4634   4637     1
   4635   4643     1
   4635   4641     1
   4636   4639     1
   4636   4640     1
   4637   4639     1
   4637   4640     1
   4639   4641     1
   4644   4651     1
   4644   4652     1
   4645   4650     1
   4645   4648     1
   4645   4649     1
   4646   4650     1
   4646   4648     1
   4646   4649     1
   4647   4675     1
   4648   4653     1
   4648   4651     1
   4648   4652     1
   4648   4674     1
   4649   4653     1
   4649   4651     1
   4649   4652     1
   4649   4674     1
   4650   4655     1
   4650   4656     1
   4650   4665     1
   4650   4666     1
   4651   4654     1
   4651   4664     1
   4651   4675     1
   4652   4654     1
   4652   4664     1
   4652   4675     1
   4653   4658     1
   4653   4659     1
   4653   4668     1
   4653   4669     1
   4654   4665     1
   4654   4666     1
   4655   4660     1
   4655   4658     1
   4655   4659     1
   4655   4664     1
   4655   4675     1
   4656   4660     1
   4656   4658     1
   4656   4659     1
   4656   4664     1
   4656   4675     1
   4657   4663     1
   4657   4675     1
   4658   4661     1
   4658   4662     1
   4659   4661     1
   4659   4662     1
   4661   4663     1
   4665   4670     1
   4665   4668     1
   4665   4669     1
   4665   4675     1
   4666   4670     1
   4666   4668     1
   4666   4669     1
   4666   4675     1
   4667   4673     1
   4667   4675     1
   4668   4671     1
   4668   4672     1
   4669   4671     1
   4669   4672     1
   4671   4673     1
   4676   4683     1
   4676   4684     1
   4677   4682     1
   4677   4680     1
   4677   4681     1
   4678   4682     1
   4678   4680     1
   4678   4681     1
   4679   4707     1
   4680   4706     1
   4680   4685     1
   4680   4683     1
   4680   4684     1
   4681   4706     1
   4681   4685     1
   4681   4683     1
   4681   4684     1
   4682   4687     1
   4682   4688     1
   4682   4697     1
   4682   4698     1
   4683   4686     1
   4683   4696     1
   4683   4707     1
   4684   4686     1
   4684   4696     1
   4684   4707     1
   4685   4690     1
   4685   4691     1
   4685   4700     1
   4685   4701     1
   4686   4697     1
   4686   4698     1
   4687   4696     1
   4687   4707     1
   4687   4692     1
   4687   4690     1
   4687   4691     1
   4688   4696     1
   4688   4707     1
   4688   4692     1
   4688   4690     1
   4688   4691     1
   4689   4707     1
   4689   4695     1
   4690   4693     1
   4690   4694     1
   4691   4693     1
   4691   4694     1
   4693   4695     1
   4697   4707     1
   4697   4702     1
   4697   4700     1
   4697   4701     1
   4698   4707     1
   4698   4702     1
   4698   4700     1
   4698   4701     1
   4699   4707     1
   4699   4705     1
   4700   4703     1
   4700   4704     1
   4701   4703     1
   4701   4704     1
   4703   4705     1
   4708   4715     1
   4708   4716     1
   4709   4714     1
   4709   4712     1
   4709   4713     1
   4710   4714     1
   4710   4712     1
   4710   4713     1
   4711   4739     1
   4712   4717     1
   4712   4715     1
   4712   4716     1
   4712   4738     1
   4713   4717     1
   4713   4715     1
   4713   4716     1
   4713   4738     1
   4714   4719     1
   4714   4720     1
   4714   4729     1
   4714   4730     1
   4715   4718     1
   4715   4728     1
   4715   4739     1
   4716   4718     1
   4716   4728     1
   4716   4739     1
   4717   4722     1
   4717   4723     1
   4717   4732     1
   4717   4733     1
   4718   4729     1
   4718   4730     1
   4719   4724     1
   4719   4722     1
   4719   4723     1
   4719   4728     1
   4719   4739     1
   4720   4724     1
   4720   4722     1
   4720   4723     1
   4720   4728     1
   4720   4739     1
   4721   4727     1
   4721   4739     1
   4722   4725     1
   4722   4726     1
   4723   4725     1
   4723   4726     1
   4725   4727     1
   4729   4734     1
   4729   4732     1
   4729   4733     1
   4729   4739     1
   4730   4734     1
   4730   4732     1
   4730   4733     1
   4730   4739     1
   4731   4737     1
   4731   4739     1
   4732   4735     1
   4732   4736     1
   4733   4735     1
   4733   4736     1
   4735   4737     1
   4740   4747     1
   4740   4748     1
   4741   4746     1
   4741   4744     1
   4741   4745     1
   4742   4746     1
   4742   4744     1
   4742   4745     1
   4743   4771     1
   4744   4770     1
   4744   4749     1
   4744   4747     1
   4744   4748     1
   4745   4770     1
   4745   4749     1
   4745   4747     1
   4745   4748     1
   4746   4751     1
   4746   4752     1
   4746   4761     1
   4746   4762     1
   4747   4750     1
   4747   4760     1
   4747   4771     1
   4748   4750     1
   4748   4760     1
   4748   4771     1
   4749   4754     1
   4749   4755     1
   4749   4764     1
   4749   4765     1
   4750   4761     1
   4750   4762     1
   4751   4760     1
   4751   4771     1
   4751   4756     1
   4751   4754     1
   4751   4755     1
   4752   4760     1
   4752   4771     1
   4752   4756     1
   4752   4754     1
   4752   4755     1
   4753   4771     1
   4753   4759     1
   4754   4757     1
   4754   4758     1
   4755   4757     1
   4755   4758     1
   4757   4759     1
   4761   4771     1
   4761   4766     1
   4761   4764     1
   4761   4765     1
   4762   4771     1
   4762   4766     1
   4762   4764     1
   4762   4765     1
   4763   4771     1
   4763   4769     1
   4764   4767     1
   4764   4768     1
   4765   4767     1
   4765   4768     1
   4767   4769     1
   4772   4779     1
   4772   4780     1
   4773   4778     1
   4773   4776     1
   4773   4777     1
   4774   4778     1
   4774   4776     1
   4774   4777     1
   4775   4803     1
   4776   4781     1
   4776   4779     1
   4776   4780     1
   4776   4802     1
   4777   4781     1
   4777   4779     1
   4777   4780     1
   4777   4802     1
   4778   4783     1
   4778   4784     1
   4778   4793     1
   4778   4794     1
   4779   4782     1
   4779   4792     1
   4779   4803     1
   4780   4782     1
   4780   4792     1
   4780   4803     1
   4781   4786     1
   4781   4787     1
   4781   4796     1
   4781   4797     1
   4782   4793     1
   4782   4794     1
   4783   4788     1
   4783   4786     1
   4783   4787     1
   4783   4792     1
   4783   4803     1
   4784   4788     1
   4784   4786     1
   4784   4787     1
   4784   4792     1
   4784   4803     1
   4785   4791     1
   4785   4803     1
   4786   4789     1
   4786   4790     1
   4787   4789     1
   4787   4790     1
   4789   4791     1
   4793   4798     1
   4793   4796     1
   4793   4797     1
   4793   4803     1
   4794   4798     1
   4794   4796     1
   4794   4797     1
   4794   4803     1
   4795   4801     1
   4795   4803     1
   4796   4799     1
   4796   4800     1
   4797   4799     1
   4797   4800     1
   4799   4801     1
   4804   4811     1
   4804   4812     1
   4805   4810     1
   4805   4808     1
   4805   4809     1
   4806   4810     1
   4806   4808     1
   4806   4809     1
   4807   4835     1
   4808   4834     1
   4808   4813     1
   4808   4811     1
   4808   4812     1
   4809   4834     1
   4809   4813     1
   4809   4811     1
   4809   4812     1
   4810   4815     1
   4810   4816     1
   4810   4825     1
   4810   4826     1
   4811   4814     1
   4811   4824     1
   4811   4835     1
   4812   4814     1
   4812   4824     1
   4812   4835     1
   4813   4818     1
   4813   4819     1
   4813   4828     1
   4813   4829     1
   4814   4825     1
   4814   4826     1
   4815   4824     1
   4815   4835     1
   4815   4820     1
   4815   4818     1
   4815   4819     1
   4816   4824     1
   4816   4835     1
   4816   4820     1
   4816   4818     1
   4816   4819     1
   4817   4835     1
   4817   4823     1
   4818   4821     1
   4818   4822     1
   4819   4821     1
   4819   4822     1
   4821   4823     1
   4825   4835     1
   4825   4830     1
   4825   4828     1
   4825   4829     1
   4826   4835     1
   4826   4830     1
   4826   4828     1
   4826   4829     1
   4827   4835     1
   4827   4833     1
   4828   4831     1
   4828   4832     1
   4829   4831     1
   4829   4832     1
   4831   4833     1
   4836   4843     1
   4836   4844     1
   4837   4842     1
   4837   4840     1
   4837   4841     1
   4838   4842     1
   4838   4840     1
   4838   4841     1
   4839   4867     1
   4840   4845     1
   4840   4843     1
   4840   4844     1
   4840   4866     1
   4841   4845     1
   4841   4843     1
   4841   4844     1
   4841   4866     1
   4842   4847     1
   4842   4848     1
   4842   4857     1
   4842   4858     1
   4843   4846     1
   4843   4856     1
   4843   4867     1
   4844   4846     1
   4844   4856     1
   4844   4867     1
   4845   4850     1
   4845   4851     1
   4845   4860     1
   4845   4861     1
   4846   4857     1
   4846   4858     1
   4847   4852     1
   4847   4850     1
   4847   4851     1
   4847   4856     1
   4847   4867     1
   4848   4852     1
   4848   4850     1
   4848   4851     1
   4848   4856     1
   4848   4867     1
   4849   4855     1
   4849   4867     1
   4850   4853     1
   4850   4854     1
   4851   4853     1
   4851   4854     1
   4853   4855     1
   4857   4862     1
   4857   4860     1
   4857   4861     1
   4857   4867     1
   4858   4862     1
   4858   4860     1
   4858   4861     1
   4858   4867     1
   4859   4865     1
   4859   4867     1
   4860   4863     1
   4860   4864     1
   4861   4863     1
   4861   4864     1
   4863   4865     1
   4868   4875     1
   4868   4876     1
   4869   4874     1
   4869   4872     1
   4869   4873     1
   4870   4874     1
   4870   4872     1
   4870   4873     1
   4871   4899     1
   4872   4898     1
   4872   4877     1
   4872   4875     1
   4872   4876     1
   4873   4898     1
   4873   4877     1
   4873   4875     1
   4873   4876     1
   4874   4879     1
   4874   4880     1
   4874   4889     1
   4874   4890     1
   4875   4878     1
   4875   4888     1
   4875   4899     1
   4876   4878     1
   4876   4888     1
   4876   4899     1
   4877   4882     1
   4877   4883     1
   4877   4892     1
   4877   4893     1
   4878   4889     1
   4878   4890     1
   4879   4888     1
   4879   4899     1
   4879   4884     1
   4879   4882     1
   4879   4883     1
   4880   4888     1
   4880   4899     1
   4880   4884     1
   4880   4882     1
   4880   4883     1
   4881   4899     1
   4881   4887     1
   4882   4885     1
   4882   4886     1
   4883   4885     1
   4883   4886     1
   4885   4887     1
   4889   4899     1
   4889   4894     1
   4889   4892     1
   4889   4893     1
   4890   4899     1
   4890   4894     1
   4890   4892     1
   4890   4893     1
   4891   4899     1
   4891   4897     1
   4892   4895     1
   4892   4896     1
   4893   4895     1
   4893   4896     1
   4895   4897     1
   4900   4907     1
   4900   4908     1
   4901   4906     1
   4901   4904     1
   4901   4905     1
   4902   4906     1
   4902   4904     1
   4902   4905     1
   4903   4931     1
   4904   4909     1
   4904   4907     1
   4904   4908     1
   4904   4930     1
   4905   4909     1
   4905   4907     1
   4905   4908     1
   4905   4930     1
   4906   4911     1
   4906   4912     1
   4906   4921     1
   4906   4922     1
   4907   4910     1
   4907   4920     1
   4907   4931     1
   4908   4910     1
   4908   4920     1
   4908   4931     1
   4909   4914     1
   4909   4915     1
   4909   4924     1
   4909   4925     1
   4910   4921     1
   4910   4922     1
   4911   4916     1
   4911   4914     1
   4911   4915     1
   4911   4920     1
   4911   4931     1
   4912   4916     1
   4912   4914     1
   4912   4915     1
   4912   4920     1
   4912   4931     1
   4913   4919     1
   4913   4931     1
   4914   4917     1
   4914   4918     1
   4915   4917     1
   4915   4918     1
   4917   4919     1
   4921   4926     1
   4921   4924     1
   4921   4925     1
   4921   4931     1
   4922   4926     1
   4922   4924     1
   4922   4925     1
   4922   4931     1
   4923   4929     1
   4923   4931     1
   4924   4927     1
   4924   4928     1
   4925   4927     1
   4925   4928     1
   4927   4929     1
   4932   4939     1
   4932   4940     1
   4933   4938     1
   4933   4936     1
   4933   4937     1
   4934   4938     1
   4934   4936     1
   4934   4937     1
   4935   4963     1
   4936   4962     1
   4936   4941     1
   4936   4939     1
   4936   4940     1
   4937   4962     1
   4937   4941     1
   4937   4939     1
   4937   4940     1
   4938   4943     1
   4938   4944     1
   4938   4953     1
   4938   4954     1
   4939   4942     1
   4939   4952     1
   4939   4963     1
   4940   4942     1
   4940   4952     1
   4940   4963     1
   4941   4946     1
   4941   4947     1
   4941   4956     1
   4941   4957     1
   4942   4953     1
   4942   4954     1
   4943   4952     1
   4943   4963     1
   4943   4948     1
   4943   4946     1
   4943   4947     1
   4944   4952     1
   4944   4963     1
   4944   4948     1
   4944   4946     1
   4944   4947     1
   4945   4963     1
   4945   4951     1
   4946   4949     1
   4946   4950     1
   4947   4949     1
   4947   4950     1
   4949   4951     1
   4953   4963     1
   4953   4958     1
   4953   4956     1
   4953   4957     1
   4954   4963     1
   4954   4958     1
   4954   4956     1
   4954   4957     1
   4955   4963     1
   4955   4961     1
   4956   4959     1
   4956   4960     1
   4957   4959     1
   4957   4960     1
   4959   4961     1
   4964   4971     1
   4964   4972     1
   4965   4970     1
   4965   4968     1
   4965   4969     1
   4966   4970     1
   4966   4968     1
   4966   4969     1
   4967   4995     1
   4968   4973     1
   4968   4971     1
   4968   4972     1
   4968   4994     1
   4969   4973     1
   4969   4971     1
   4969   4972     1
   4969   4994     1
   4970   4975     1
   4970   4976     1
   4970   4985     1
   4970   4986     1
   4971   4974     1
   4971   4984     1
   4971   4995     1
   4972   4974     1
   4972   4984     1
   4972   4995     1
   4973   4978     1
   4973   4979     1
   4973   4988     1
   4973   4989     1
   4974   4985     1
   4974   4986     1
   4975   4980     1
   4975   4978     1
   4975   4979     1
   4975   4984     1
   4975   4995     1
   4976   4980     1
   4976   4978     1
   4976   4979     1
   4976   4984     1
   4976   4995     1
   4977   4983     1
   4977   4995     1
   4978   4981     1
   4978   4982     1
   4979   4981     1
   4979   4982     1
   4981   4983     1
   4985   4990     1
   4985   4988     1
   4985   4989     1
   4985   4995     1
   4986   4990     1
   4986   4988     1
   4986   4989     1
   4986   4995     1
   4987   4993     1
   4987   4995     1
   4988   4991     1
   4988   4992     1
   4989   4991     1
   4989   4992     1
   4991   4993     1
   4996   5003     1
   4996   5004     1
   4997   5002     1
   4997   5000     1
   4997   5001     1
   4998   5002     1
   4998   5000     1
   4998   5001     1
   4999   5027     1
   5000   5026     1
   5000   5005     1
   5000   5003     1
   5000   5004     1
   5001   5026     1
   5001   5005     1
   5001   5003     1
   5001   5004     1
   5002   5007     1
   5002   5008     1
   5002   5017     1
   5002   5018     1
   5003   5006     1
   5003   5016     1
   5003   5027     1
   5004   5006     1
   5004   5016     1
   5004   5027     1
   5005   5010     1
   5005   5011     1
   5005   5020     1
   5005   5021     1
   5006   5017     1
   5006   5018     1
   5007   5016     1
   5007   5027     1
   5007   5012     1
   5007   5010     1
   5007   5011     1
   5008   5016     1
   5008   5027     1
   5008   5012     1
   5008   5010     1
   5008   5011     1
   5009   5027     1
   5009   5015     1
   5010   5013     1
   5010   5014     1
   5011   5013     1
   5011   5014     1
   5013   5015     1
   5017   5027     1
   5017   5022     1
   5017   5020     1
   5017   5021     1
   5018   5027     1
   5018   5022     1
   5018   5020     1
   5018   5021     1
   5019   5027     1
   5019   5025     1
   5020   5023     1
   5020   5024     1
   5021   5023     1
   5021   5024     1
   5023   5025     1
   5028   5035     1
   5028   5036     1
   5029   5034     1
   5029   5032     1
   5029   5033     1
   5030   5034     1
   5030   5032     1
   5030   5033     1
   5031   5059     1
   5032   5037     1
   5032   5035     1
   5032   5036     1
   5032   5058     1
   5033   5037     1
   5033   5035     1
   5033   5036     1
   5033   5058     1
   5034   5039     1
   5034   5040     1
   5034   5049     1
   5034   5050     1
   5035   5038     1
   5035   5048     1
   5035   5059     1
   5036   5038     1
   5036   5048     1
   5036   5059     1
   5037   5042     1
   5037   5043     1
   5037   5052     1
   5037   5053     1
   5038   5049     1
   5038   5050     1
   5039   5044     1
   5039   5042     1
   5039   5043     1
   5039   5048     1
   5039   5059     1
   5040   5044     1
   5040   5042     1
   5040   5043     1
   5040   5048     1
   5040   5059     1
   5041   5047     1
   5041   5059     1
   5042   5045     1
   5042   5046     1
   5043   5045     1
   5043   5046     1
   5045   5047     1
   5049   5054     1
   5049   5052     1
   5049   5053     1
   5049   5059     1
   5050   5054     1
   5050   5052     1
   5050   5053     1
   5050   5059     1
   5051   5057     1
   5051   5059     1
   5052   5055     1
   5052   5056     1
   5053   5055     1
   5053   5056     1
   5055   5057     1
   5060   5067     1
   5060   5068     1
   5061   5066     1
   5061   5064     1
   5061   5065     1
   5062   5066     1
   5062   5064     1
   5062   5065     1
   5063   5091     1
   5064   5090     1
   5064   5069     1
   5064   5067     1
   5064   5068     1
   5065   5090     1
   5065   5069     1
   5065   5067     1
   5065   5068     1
   5066   5071     1
   5066   5072     1
   5066   5081     1
   5066   5082     1
   5067   5070     1
   5067   5080     1
   5067   5091     1
   5068   5070     1
   5068   5080     1
   5068   5091     1
   5069   5074     1
   5069   5075     1
   5069   5084     1
   5069   5085     1
   5070   5081     1
   5070   5082     1
   5071   5080     1
   5071   5091     1
   5071   5076     1
   5071   5074     1
   5071   5075     1
   5072   5080     1
   5072   5091     1
   5072   5076     1
   5072   5074     1
   5072   5075     1
   5073   5091     1
   5073   5079     1
   5074   5077     1
   5074   5078     1
   5075   5077     1
   5075   5078     1
   5077   5079     1
   5081   5091     1
   5081   5086     1
   5081   5084     1
   5081   5085     1
   5082   5091     1
   5082   5086     1
   5082   5084     1
   5082   5085     1
   5083   5091     1
   5083   5089     1
   5084   5087     1
   5084   5088     1
   5085   5087     1
   5085   5088     1
   5087   5089     1
   5092   5099     1
   5092   5100     1
   5093   5098     1
   5093   5096     1
   5093   5097     1
   5094   5098     1
   5094   5096     1
   5094   5097     1
   5095   5123     1
   5096   5101     1
   5096   5099     1
   5096   5100     1
   5096   5122     1
   5097   5101     1
   5097   5099     1
   5097   5100     1
   5097   5122     1
   5098   5103     1
   5098   5104     1
   5098   5113     1
   5098   5114     1
   5099   5102     1
   5099   5112     1
   5099   5123     1
   5100   5102     1
   5100   5112     1
   5100   5123     1
   5101   5106     1
   5101   5107     1
   5101   5116     1
   5101   5117     1
   5102   5113     1
   5102   5114     1
   5103   5108     1
   5103   5106     1
   5103   5107     1
   5103   5112     1
   5103   5123     1
   5104   5108     1
   5104   5106     1
   5104   5107     1
   5104   5112     1
   5104   5123     1
   5105   5111     1
   5105   5123     1
   5106   5109     1
   5106   5110     1
   5107   5109     1
   5107   5110     1
   5109   5111     1
   5113   5118     1
   5113   5116     1
   5113   5117     1
   5113   5123     1
   5114   5118     1
   5114   5116     1
   5114   5117     1
   5114   5123     1
   5115   5121     1
   5115   5123     1
   5116   5119     1
   5116   5120     1
   5117   5119     1
   5117   5120     1
   5119   5121     1
   5124   5131     1
   5124   5132     1
   5125   5130     1
   5125   5128     1
   5125   5129     1
   5126   5130     1
   5126   5128     1
   5126   5129     1
   5127   5155     1
   5128   5154     1
   5128   5133     1
   5128   5131     1
   5128   5132     1
   5129   5154     1
   5129   5133     1
   5129   5131     1
   5129   5132     1
   5130   5135     1
   5130   5136     1
   5130   5145     1
   5130   5146     1
   5131   5134     1
   5131   5144     1
   5131   5155     1
   5132   5134     1
   5132   5144     1
   5132   5155     1
   5133   5138     1
   5133   5139     1
   5133   5148     1
   5133   5149     1
   5134   5145     1
   5134   5146     1
   5135   5144     1
   5135   5155     1
   5135   5140     1
   5135   5138     1
   5135   5139     1
   5136   5144     1
   5136   5155     1
   5136   5140     1
   5136   5138     1
   5136   5139     1
   5137   5155     1
   5137   5143     1
   5138   5141     1
   5138   5142     1
   5139   5141     1
   5139   5142     1
   5141   5143     1
   5145   5155     1
   5145   5150     1
   5145   5148     1
   5145   5149     1
   5146   5155     1
   5146   5150     1
   5146   5148     1
   5146   5149     1
   5147   5155     1
   5147   5153     1
   5148   5151     1
   5148   5152     1
   5149   5151     1
   5149   5152     1
   5151   5153     1
   5156   5163     1
   5156   5164     1
   5157   5162     1
   5157   5160     1
   5157   5161     1
   5158   5162     1
   5158   5160     1
   5158   5161     1
   5159   5187     1
   5160   5165     1
   5160   5163     1
   5160   5164     1
   5160   5186     1
   5161   5165     1
   5161   5163     1
   5161   5164     1
   5161   5186     1
   5162   5167     1
   5162   5168     1
   5162   5177     1
   5162   5178     1
   5163   5166     1
   5163   5176     1
   5163   5187     1
   5164   5166     1
   5164   5176     1
   5164   5187     1
   5165   5170     1
   5165   5171     1
   5165   5180     1
   5165   5181     1
   5166   5177     1
   5166   5178     1
   5167   5172     1
   5167   5170     1
   5167   5171     1
   5167   5176     1
   5167   5187     1
   5168   5172     1
   5168   5170     1
   5168   5171     1
   5168   5176     1
   5168   5187     1
   5169   5175     1
   5169   5187     1
   5170   5173     1
   5170   5174     1
   5171   5173     1
   5171   5174     1
   5173   5175     1
   5177   5182     1
   5177   5180     1
   5177   5181     1
   5177   5187     1
   5178   5182     1
   5178   5180     1
   5178   5181     1
   5178   5187     1
   5179   5185     1
   5179   5187     1
   5180   5183     1
   5180   5184     1
   5181   5183     1
   5181   5184     1
   5183   5185     1
   5188   5195     1
   5188   5196     1
   5189   5194     1
   5189   5192     1
   5189   5193     1
   5190   5194     1
   5190   5192     1
   5190   5193     1
   5191   5219     1
   5192   5218     1
   5192   5197     1
   5192   5195     1
   5192   5196     1
   5193   5218     1
   5193   5197     1
   5193   5195     1
   5193   5196     1
   5194   5199     1
   5194   5200     1
   5194   5209     1
   5194   5210     1
   5195   5198     1
   5195   5208     1
   5195   5219     1
   5196   5198     1
   5196   5208     1
   5196   5219     1
   5197   5202     1
   5197   5203     1
   5197   5212     1
   5197   5213     1
   5198   5209     1
   5198   5210     1
   5199   5208     1
   5199   5219     1
   5199   5204     1
   5199   5202     1
   5199   5203     1
   5200   5208     1
   5200   5219     1
   5200   5204     1
   5200   5202     1
   5200   5203     1
   5201   5219     1
   5201   5207     1
   5202   5205     1
   5202   5206     1
   5203   5205     1
   5203   5206     1
   5205   5207     1
   5209   5219     1
   5209   5214     1
   5209   5212     1
   5209   5213     1
   5210   5219     1
   5210   5214     1
   5210   5212     1
   5210   5213     1
   5211   5219     1
   5211   5217     1
   5212   5215     1
   5212   5216     1
   5213   5215     1
   5213   5216     1
   5215   5217     1
   5220   5227     1
   5220   5228     1
   5221   5226     1
   5221   5224     1
   5221   5225     1
   5222   5226     1
   5222   5224     1
   5222   5225     1
   5223   5251     1
   5224   5229     1
   5224   5227     1
   5224   5228     1
   5224   5250     1
   5225   5229     1
   5225   5227     1
   5225   5228     1
   5225   5250     1
   5226   5231     1
   5226   5232     1
   5226   5241     1
   5226   5242     1
   5227   5230     1
   5227   5240     1
   5227   5251     1
   5228   5230     1
   5228   5240     1
   5228   5251     1
   5229   5234     1
   5229   5235     1
   5229   5244     1
   5229   5245     1
   5230   5241     1
   5230   5242     1
   5231   5236     1
   5231   5234     1
   5231   5235     1
   5231   5240     1
   5231   5251     1
   5232   5236     1
   5232   5234     1
   5232   5235     1
   5232   5240     1
   5232   5251     1
   5233   5239     1
   5233   5251     1
   5234   5237     1
   5234   5238     1
   5235   5237     1
   5235   5238     1
   5237   5239     1
   5241   5246     1
   5241   5244     1
   5241   5245     1
   5241   5251     1
   5242   5246     1
   5242   5244     1
   5242   5245     1
   5242   5251     1
   5243   5249     1
   5243   5251     1
   5244   5247     1
   5244   5248     1
   5245   5247     1
   5245   5248     1
   5247   5249     1
   5252   5259     1
   5252   5260     1
   5253   5258     1
   5253   5256     1
   5253   5257     1
   5254   5258     1
   5254   5256     1
   5254   5257     1
   5255   5283     1
   5256   5282     1
   5256   5261     1
   5256   5259     1
   5256   5260     1
   5257   5282     1
   5257   5261     1
   5257   5259     1
   5257   5260     1
   5258   5263     1
   5258   5264     1
   5258   5273     1
   5258   5274     1
   5259   5262     1
   5259   5272     1
   5259   5283     1
   5260   5262     1
   5260   5272     1
   5260   5283     1
   5261   5266     1
   5261   5267     1
   5261   5276     1
   5261   5277     1
   5262   5273     1
   5262   5274     1
   5263   5272     1
   5263   5283     1
   5263   5268     1
   5263   5266     1
   5263   5267     1
   5264   5272     1
   5264   5283     1
   5264   5268     1
   5264   5266     1
   5264   5267     1
   5265   5283     1
   5265   5271     1
   5266   5269     1
   5266   5270     1
   5267   5269     1
   5267   5270     1
   5269   5271     1
   5273   5283     1
   5273   5278     1
   5273   5276     1
   5273   5277     1
   5274   5283     1
   5274   5278     1
   5274   5276     1
   5274   5277     1
   5275   5283     1
   5275   5281     1
   5276   5279     1
   5276   5280     1
   5277   5279     1
   5277   5280     1
   5279   5281     1
   5284   5291     1
   5284   5292     1
   5285   5290     1
   5285   5288     1
   5285   5289     1
   5286   5290     1
   5286   5288     1
   5286   5289     1
   5287   5315     1
   5288   5293     1
   5288   5291     1
   5288   5292     1
   5288   5314     1
   5289   5293     1
   5289   5291     1
   5289   5292     1
   5289   5314     1
   5290   5295     1
   5290   5296     1
   5290   5305     1
   5290   5306     1
   5291   5294     1
   5291   5304     1
   5291   5315     1
   5292   5294     1
   5292   5304     1
   5292   5315     1
   5293   5298     1
   5293   5299     1
   5293   5308     1
   5293   5309     1
   5294   5305     1
   5294   5306     1
   5295   5300     1
   5295   5298     1
   5295   5299     1
   5295   5304     1
   5295   5315     1
   5296   5300     1
   5296   5298     1
   5296   5299     1
   5296   5304     1
   5296   5315     1
   5297   5303     1
   5297   5315     1
   5298   5301     1
   5298   5302     1
   5299   5301     1
   5299   5302     1
   5301   5303     1
   5305   5310     1
   5305   5308     1
   5305   5309     1
   5305   5315     1
   5306   5310     1
   5306   5308     1
   5306   5309     1
   5306   5315     1
   5307   5313     1
   5307   5315     1
   5308   5311     1
   5308   5312     1
   5309   5311     1
   5309   5312     1
   5311   5313     1
   5316   5323     1
   5316   5324     1
   5317   5322     1
   5317   5320     1
   5317   5321     1
   5318   5322     1
   5318   5320     1
   5318   5321     1
   5319   5347     1
   5320   5346     1
   5320   5325     1
   5320   5323     1
   5320   5324     1
   5321   5346     1
   5321   5325     1
   5321   5323     1
   5321   5324     1
   5322   5327     1
   5322   5328     1
   5322   5337     1
   5322   5338     1
   5323   5326     1
   5323   5336     1
   5323   5347     1
   5324   5326     1
   5324   5336     1
   5324   5347     1
   5325   5330     1
   5325   5331     1
   5325   5340     1
   5325   5341     1
   5326   5337     1
   5326   5338     1
   5327   5336     1
   5327   5347     1
   5327   5332     1
   5327   5330     1
   5327   5331     1
   5328   5336     1
   5328   5347     1
   5328   5332     1
   5328   5330     1
   5328   5331     1
   5329   5347     1
   5329   5335     1
   5330   5333     1
   5330   5334     1
   5331   5333     1
   5331   5334     1
   5333   5335     1
   5337   5347     1
   5337   5342     1
   5337   5340     1
   5337   5341     1
   5338   5347     1
   5338   5342     1
   5338   5340     1
   5338   5341     1
   5339   5347     1
   5339   5345     1
   5340   5343     1
   5340   5344     1
   5341   5343     1
   5341   5344     1
   5343   5345     1
   5348   5355     1
   5348   5356     1
   5349   5354     1
   5349   5352     1
   5349   5353     1
   5350   5354     1
   5350   5352     1
   5350   5353     1
   5351   5379     1
   5352   5357     1
   5352   5355     1
   5352   5356     1
   5352   5378     1
   5353   5357     1
   5353   5355     1
   5353   5356     1
   5353   5378     1
   5354   5359     1
   5354   5360     1
   5354   5369     1
   5354   5370     1
   5355   5358     1
   5355   5368     1
   5355   5379     1
   5356   5358     1
   5356   5368     1
   5356   5379     1
   5357   5362     1
   5357   5363     1
   5357   5372     1
   5357   5373     1
   5358   5369     1
   5358   5370     1
   5359   5364     1
   5359   5362     1
   5359   5363     1
   5359   5368     1
   5359   5379     1
   5360   5364     1
   5360   5362     1
   5360   5363     1
   5360   5368     1
   5360   5379     1
   5361   5367     1
   5361   5379     1
   5362   5365     1
   5362   5366     1
   5363   5365     1
   5363   5366     1
   5365   5367     1
   5369   5374     1
   5369   5372     1
   5369   5373     1
   5369   5379     1
   5370   5374     1
   5370   5372     1
   5370   5373     1
   5370   5379     1
   5371   5377     1
   5371   5379     1
   5372   5375     1
   5372   5376     1
   5373   5375     1
   5373   5376     1
   5375   5377     1
   5380   5387     1
   5380   5388     1
   5381   5386     1
   5381   5384     1
   5381   5385     1
   5382   5386     1
   5382   5384     1
   5382   5385     1
   5383   5411     1
   5384   5410     1
   5384   5389     1
   5384   5387     1
   5384   5388     1
   5385   5410     1
   5385   5389     1
   5385   5387     1
   5385   5388     1
   5386   5391     1
   5386   5392     1
   5386   5401     1
   5386   5402     1
   5387   5390     1
   5387   5400     1
   5387   5411     1
   5388   5390     1
   5388   5400     1
   5388   5411     1
   5389   5394     1
   5389   5395     1
   5389   5404     1
   5389   5405     1
   5390   5401     1
   5390   5402     1
   5391   5400     1
   5391   5411     1
   5391   5396     1
   5391   5394     1
   5391   5395     1
   5392   5400     1
   5392   5411     1
   5392   5396     1
   5392   5394     1
   5392   5395     1
   5393   5411     1
   5393   5399     1
   5394   5397     1
   5394   5398     1
   5395   5397     1
   5395   5398     1
   5397   5399     1
   5401   5411     1
   5401   5406     1
   5401   5404     1
   5401   5405     1
   5402   5411     1
   5402   5406     1
   5402   5404     1
   5402   5405     1
   5403   5411     1
   5403   5409     1
   5404   5407     1
   5404   5408     1
   5405   5407     1
   5405   5408     1
   5407   5409     1
   5412   5419     1
   5412   5420     1
   5413   5418     1
   5413   5416     1
   5413   5417     1
   5414   5418     1
   5414   5416     1
   5414   5417     1
   5415   5443     1
   5416   5421     1
   5416   5419     1
   5416   5420     1
   5416   5442     1
   5417   5421     1
   5417   5419     1
   5417   5420     1
   5417   5442     1
   5418   5423     1
   5418   5424     1
   5418   5433     1
   5418   5434     1
   5419   5422     1
   5419   5432     1
   5419   5443     1
   5420   5422     1
   5420   5432     1
   5420   5443     1
   5421   5426     1
   5421   5427     1
   5421   5436     1
   5421   5437     1
   5422   5433     1
   5422   5434     1
   5423   5428     1
   5423   5426     1
   5423   5427     1
   5423   5432     1
   5423   5443     1
   5424   5428     1
   5424   5426     1
   5424   5427     1
   5424   5432     1
   5424   5443     1
   5425   5431     1
   5425   5443     1
   5426   5429     1
   5426   5430     1
   5427   5429     1
   5427   5430     1
   5429   5431     1
   5433   5438     1
   5433   5436     1
   5433   5437     1
   5433   5443     1
   5434   5438     1
   5434   5436     1
   5434   5437     1
   5434   5443     1
   5435   5441     1
   5435   5443     1
   5436   5439     1
   5436   5440     1
   5437   5439     1
   5437   5440     1
   5439   5441     1
   5444   5451     1
   5444   5452     1
   5445   5450     1
   5445   5448     1
   5445   5449     1
   5446   5450     1
   5446   5448     1
   5446   5449     1
   5447   5475     1
   5448   5474     1
   5448   5453     1
   5448   5451     1
   5448   5452     1
   5449   5474     1
   5449   5453     1
   5449   5451     1
   5449   5452     1
   5450   5455     1
   5450   5456     1
   5450   5465     1
   5450   5466     1
   5451   5454     1
   5451   5464     1
   5451   5475     1
   5452   5454     1
   5452   5464     1
   5452   5475     1
   5453   5458     1
   5453   5459     1
   5453   5468     1
   5453   5469     1
   5454   5465     1
   5454   5466     1
   5455   5464     1
   5455   5475     1
   5455   5460     1
   5455   5458     1
   5455   5459     1
   5456   5464     1
   5456   5475     1
   5456   5460     1
   5456   5458     1
   5456   5459     1
   5457   5475     1
   5457   5463     1
   5458   5461     1
   5458   5462     1
   5459   5461     1
   5459   5462     1
   5461   5463     1
   5465   5475     1
   5465   5470     1
   5465   5468     1
   5465   5469     1
   5466   5475     1
   5466   5470     1
   5466   5468     1
   5466   5469     1
   5467   5475     1
   5467   5473     1
   5468   5471     1
   5468   5472     1
   5469   5471     1
   5469   5472     1
   5471   5473     1
   5476   5483     1
   5476   5484     1
   5477   5482     1
   5477   5480     1
   5477   5481     1
   5478   5482     1
   5478   5480     1
   5478   5481     1
   5479   5507     1
   5480   5485     1
   5480   5483     1
   5480   5484     1
   5480   5506     1
   5481   5485     1
   5481   5483     1
   5481   5484     1
   5481   5506     1
   5482   5487     1
   5482   5488     1
   5482   5497     1
   5482   5498     1
   5483   5486     1
   5483   5496     1
   5483   5507     1
   5484   5486     1
   5484   5496     1
   5484   5507     1
   5485   5490     1
   5485   5491     1
   5485   5500     1
   5485   5501     1
   5486   5497     1
   5486   5498     1
   5487   5492     1
   5487   5490     1
   5487   5491     1
   5487   5496     1
   5487   5507     1
   5488   5492     1
   5488   5490     1
   5488   5491     1
   5488   5496     1
   5488   5507     1
   5489   5495     1
   5489   5507     1
   5490   5493     1
   5490   5494     1
   5491   5493     1
   5491   5494     1
   5493   5495     1
   5497   5502     1
   5497   5500     1
   5497   5501     1
   5497   5507     1
   5498   5502     1
   5498   5500     1
   5498   5501     1
   5498   5507     1
   5499   5505     1
   5499   5507     1
   5500   5503     1
   5500   5504     1
   5501   5503     1
   5501   5504     1
   5503   5505     1
   5508   5515     1
   5508   5516     1
   5509   5514     1
   5509   5512     1
   5509   5513     1
   5510   5514     1
   5510   5512     1
   5510   5513     1
   5511   5539     1
   5512   5538     1
   5512   5517     1
   5512   5515     1
   5512   5516     1
   5513   5538     1
   5513   5517     1
   5513   5515     1
   5513   5516     1
   5514   5519     1
   5514   5520     1
   5514   5529     1
   5514   5530     1
   5515   5518     1
   5515   5528     1
   5515   5539     1
   5516   5518     1
   5516   5528     1
   5516   5539     1
   5517   5522     1
   5517   5523     1
   5517   5532     1
   5517   5533     1
   5518   5529     1
   5518   5530     1
   5519   5528     1
   5519   5539     1
   5519   5524     1
   5519   5522     1
   5519   5523     1
   5520   5528     1
   5520   5539     1
   5520   5524     1
   5520   5522     1
   5520   5523     1
   5521   5539     1
   5521   5527     1
   5522   5525     1
   5522   5526     1
   5523   5525     1
   5523   5526     1
   5525   5527     1
   5529   5539     1
   5529   5534     1
   5529   5532     1
   5529   5533     1
   5530   5539     1
   5530   5534     1
   5530   5532     1
   5530   5533     1
   5531   5539     1
   5531   5537     1
   5532   5535     1
   5532   5536     1
   5533   5535     1
   5533   5536     1
   5535   5537     1
   5540   5547     1
   5540   5548     1
   5541   5546     1
   5541   5544     1
   5541   5545     1
   5542   5546     1
   5542   5544     1
   5542   5545     1
   5543   5571     1
   5544   5549     1
   5544   5547     1
   5544   5548     1
   5544   5570     1
   5545   5549     1
   5545   5547     1
   5545   5548     1
   5545   5570     1
   5546   5551     1
   5546   5552     1
   5546   5561     1
   5546   5562     1
   5547   5550     1
   5547   5560     1
   5547   5571     1
   5548   5550     1
   5548   5560     1
   5548   5571     1
   5549   5554     1
   5549   5555     1
   5549   5564     1
   5549   5565     1
   5550   5561     1
   5550   5562     1
   5551   5556     1
   5551   5554     1
   5551   5555     1
   5551   5560     1
   5551   5571     1
   5552   5556     1
   5552   5554     1
   5552   5555     1
   5552   5560     1
   5552   5571     1
   5553   5559     1
   5553   5571     1
   5554   5557     1
   5554   5558     1
   5555   5557     1
   5555   5558     1
   5557   5559     1
   5561   5566     1
   5561   5564     1
   5561   5565     1
   5561   5571     1
   5562   5566     1
   5562   5564     1
   5562   5565     1
   5562   5571     1
   5563   5569     1
   5563   5571     1
   5564   5567     1
   5564   5568     1
   5565   5567     1
   5565   5568     1
   5567   5569     1
   5572   5579     1
   5572   5580     1
   5573   5578     1
   5573   5576     1
   5573   5577     1
   5574   5578     1
   5574   5576     1
   5574   5577     1
   5575   5603     1
   5576   5602     1
   5576   5581     1
   5576   5579     1
   5576   5580     1
   5577   5602     1
   5577   5581     1
   5577   5579     1
   5577   5580     1
   5578   5583     1
   5578   5584     1
   5578   5593     1
   5578   5594     1
   5579   5582     1
   5579   5592     1
   5579   5603     1
   5580   5582     1
   5580   5592     1
   5580   5603     1
   5581   5586     1
   5581   5587     1
   5581   5596     1
   5581   5597     1
   5582   5593     1
   5582   5594     1
   5583   5592     1
   5583   5603     1
   5583   5588     1
   5583   5586     1
   5583   5587     1
   5584   5592     1
   5584   5603     1
   5584   5588     1
   5584   5586     1
   5584   5587     1
   5585   5603     1
   5585   5591     1
   5586   5589     1
   5586   5590     1
   5587   5589     1
   5587   5590     1
   5589   5591     1
   5593   5603     1
   5593   5598     1
   5593   5596     1
   5593   5597     1
   5594   5603     1
   5594   5598     1
   5594   5596     1
   5594   5597     1
   5595   5603     1
   5595   5601     1
   5596   5599     1
   5596   5600     1
   5597   5599     1
   5597   5600     1
   5599   5601     1
   5604   5611     1
   5604   5612     1
   5605   5610     1
   5605   5608     1
   5605   5609     1
   5606   5610     1
   5606   5608     1
   5606   5609     1
   5607   5635     1
   5608   5613     1
   5608   5611     1
   5608   5612     1
   5608   5634     1
   5609   5613     1
   5609   5611     1
   5609   5612     1
   5609   5634     1
   5610   5615     1
   5610   5616     1
   5610   5625     1
   5610   5626     1
   5611   5614     1
   5611   5624     1
   5611   5635     1
   5612   5614     1
   5612   5624     1
   5612   5635     1
   5613   5618     1
   5613   5619     1
   5613   5628     1
   5613   5629     1
   5614   5625     1
   5614   5626     1
   5615   5620     1
   5615   5618     1
   5615   5619     1
   5615   5624     1
   5615   5635     1
   5616   5620     1
   5616   5618     1
   5616   5619     1
   5616   5624     1
   5616   5635     1
   5617   5623     1
   5617   5635     1
   5618   5621     1
   5618   5622     1
   5619   5621     1
   5619   5622     1
   5621   5623     1
   5625   5630     1
   5625   5628     1
   5625   5629     1
   5625   5635     1
   5626   5630     1
   5626   5628     1
   5626   5629     1
   5626   5635     1
   5627   5633     1
   5627   5635     1
   5628   5631     1
   5628   5632     1
   5629   5631     1
   5629   5632     1
   5631   5633     1
   5636   5643     1
   5636   5644     1
   5637   5642     1
   5637   5640     1
   5637   5641     1
   5638   5642     1
   5638   5640     1
   5638   5641     1
   5639   5667     1
   5640   5666     1
   5640   5645     1
   5640   5643     1
   5640   5644     1
   5641   5666     1
   5641   5645     1
   5641   5643     1
   5641   5644     1
   5642   5647     1
   5642   5648     1
   5642   5657     1
   5642   5658     1
   5643   5646     1
   5643   5656     1
   5643   5667     1
   5644   5646     1
   5644   5656     1
   5644   5667     1
   5645   5650     1
   5645   5651     1
   5645   5660     1
   5645   5661     1
   5646   5657     1
   5646   5658     1
   5647   5656     1
   5647   5667     1
   5647   5652     1
   5647   5650     1
   5647   5651     1
   5648   5656     1
   5648   5667     1
   5648   5652     1
   5648   5650     1
   5648   5651     1
   5649   5667     1
   5649   5655     1
   5650   5653     1
   5650   5654     1
   5651   5653     1
   5651   5654     1
   5653   5655     1
   5657   5667     1
   5657   5662     1
   5657   5660     1
   5657   5661     1
   5658   5667     1
   5658   5662     1
   5658   5660     1
   5658   5661     1
   5659   5667     1
   5659   5665     1
   5660   5663     1
   5660   5664     1
   5661   5663     1
   5661   5664     1
   5663   5665     1
   5668   5675     1
   5668   5676     1
   5669   5674     1
   5669   5672     1
   5669   5673     1
   5670   5674     1
   5670   5672     1
   5670   5673     1
   5671   5699     1
   5672   5677     1
   5672   5675     1
   5672   5676     1
   5672   5698     1
   5673   5677     1
   5673   5675     1
   5673   5676     1
   5673   5698     1
   5674   5679     1
   5674   5680     1
   5674   5689     1
   5674   5690     1
   5675   5678     1
   5675   5688     1
   5675   5699     1
   5676   5678     1
   5676   5688     1
   5676   5699     1
   5677   5682     1
   5677   5683     1
   5677   5692     1
   5677   5693     1
   5678   5689     1
   5678   5690     1
   5679   5684     1
   5679   5682     1
   5679   5683     1
   5679   5688     1
   5679   5699     1
   5680   5684     1
   5680   5682     1
   5680   5683     1
   5680   5688     1
   5680   5699     1
   5681   5687     1
   5681   5699     1
   5682   5685     1
   5682   5686     1
   5683   5685     1
   5683   5686     1
   5685   5687     1
   5689   5694     1
   5689   5692     1
   5689   5693     1
   5689   5699     1
   5690   5694     1
   5690   5692     1
   5690   5693     1
   5690   5699     1
   5691   5697     1
   5691   5699     1
   5692   5695     1
   5692   5696     1
   5693   5695     1
   5693   5696     1
   5695   5697     1
   5700   5707     1
   5700   5708     1
   5701   5706     1
   5701   5704     1
   5701   5705     1
   5702   5706     1
   5702   5704     1
   5702   5705     1
   5703   5731     1
   5704   5730     1
   5704   5709     1
   5704   5707     1
   5704   5708     1
   5705   5730     1
   5705   5709     1
   5705   5707     1
   5705   5708     1
   5706   5711     1
   5706   5712     1
   5706   5721     1
   5706   5722     1
   5707   5710     1
   5707   5720     1
   5707   5731     1
   5708   5710     1
   5708   5720     1
   5708   5731     1
   5709   5714     1
   5709   5715     1
   5709   5724     1
   5709   5725     1
   5710   5721     1
   5710   5722     1
   5711   5720     1
   5711   5731     1
   5711   5716     1
   5711   5714     1
   5711   5715     1
   5712   5720     1
   5712   5731     1
   5712   5716     1
   5712   5714     1
   5712   5715     1
   5713   5731     1
   5713   5719     1
   5714   5717     1
   5714   5718     1
   5715   5717     1
   5715   5718     1
   5717   5719     1
   5721   5731     1
   5721   5726     1
   5721   5724     1
   5721   5725     1
   5722   5731     1
   5722   5726     1
   5722   5724     1
   5722   5725     1
   5723   5731     1
   5723   5729     1
   5724   5727     1
   5724   5728     1
   5725   5727     1
   5725   5728     1
   5727   5729     1
   5732   5739     1
   5732   5740     1
   5733   5738     1
   5733   5736     1
   5733   5737     1
   5734   5738     1
   5734   5736     1
   5734   5737     1
   5735   5763     1
   5736   5741     1
   5736   5739     1
   5736   5740     1
   5736   5762     1
   5737   5741     1
   5737   5739     1
   5737   5740     1
   5737   5762     1
   5738   5743     1
   5738   5744     1
   5738   5753     1
   5738   5754     1
   5739   5742     1
   5739   5752     1
   5739   5763     1
   5740   5742     1
   5740   5752     1
   5740   5763     1
   5741   5746     1
   5741   5747     1
   5741   5756     1
   5741   5757     1
   5742   5753     1
   5742   5754     1
   5743   5748     1
   5743   5746     1
   5743   5747     1
   5743   5752     1
   5743   5763     1
   5744   5748     1
   5744   5746     1
   5744   5747     1
   5744   5752     1
   5744   5763     1
   5745   5751     1
   5745   5763     1
   5746   5749     1
   5746   5750     1
   5747   5749     1
   5747   5750     1
   5749   5751     1
   5753   5758     1
   5753   5756     1
   5753   5757     1
   5753   5763     1
   5754   5758     1
   5754   5756     1
   5754   5757     1
   5754   5763     1
   5755   5761     1
   5755   5763     1
   5756   5759     1
   5756   5760     1
   5757   5759     1
   5757   5760     1
   5759   5761     1
   5764   5771     1
   5764   5772     1
   5765   5770     1
   5765   5768     1
   5765   5769     1
   5766   5770     1
   5766   5768     1
   5766   5769     1
   5767   5795     1
   5768   5794     1
   5768   5773     1
   5768   5771     1
   5768   5772     1
   5769   5794     1
   5769   5773     1
   5769   5771     1
   5769   5772     1
   5770   5775     1
   5770   5776     1
   5770   5785     1
   5770   5786     1
   5771   5774     1
   5771   5784     1
   5771   5795     1
   5772   5774     1
   5772   5784     1
   5772   5795     1
   5773   5778     1
   5773   5779     1
   5773   5788     1
   5773   5789     1
   5774   5785     1
   5774   5786     1
   5775   5784     1
   5775   5795     1
   5775   5780     1
   5775   5778     1
   5775   5779     1
   5776   5784     1
   5776   5795     1
   5776   5780     1
   5776   5778     1
   5776   5779     1
   5777   5795     1
   5777   5783     1
   5778   5781     1
   5778   5782     1
   5779   5781     1
   5779   5782     1
   5781   5783     1
   5785   5795     1
   5785   5790     1
   5785   5788     1
   5785   5789     1
   5786   5795     1
   5786   5790     1
   5786   5788     1
   5786   5789     1
   5787   5795     1
   5787   5793     1
   5788   5791     1
   5788   5792     1
   5789   5791     1
   5789   5792     1
   5791   5793     1
   5796   5803     1
   5796   5804     1
   5797   5802     1
   5797   5800     1
   5797   5801     1
   5798   5802     1
   5798   5800     1
   5798   5801     1
   5799   5827     1
   5800   5805     1
   5800   5803     1
   5800   5804     1
   5800   5826     1
   5801   5805     1
   5801   5803     1
   5801   5804     1
   5801   5826     1
   5802   5807     1
   5802   5808     1
   5802   5817     1
   5802   5818     1
   5803   5806     1
   5803   5816     1
   5803   5827     1
   5804   5806     1
   5804   5816     1
   5804   5827     1
   5805   5810     1
   5805   5811     1
   5805   5820     1
   5805   5821     1
   5806   5817     1
   5806   5818     1
   5807   5812     1
   5807   5810     1
   5807   5811     1
   5807   5816     1
   5807   5827     1
   5808   5812     1
   5808   5810     1
   5808   5811     1
   5808   5816     1
   5808   5827     1
   5809   5815     1
   5809   5827     1
   5810   5813     1
   5810   5814     1
   5811   5813     1
   5811   5814     1
   5813   5815     1
   5817   5822     1
   5817   5820     1
   5817   5821     1
   5817   5827     1
   5818   5822     1
   5818   5820     1
   5818   5821     1
   5818   5827     1
   5819   5825     1
   5819   5827     1
   5820   5823     1
   5820   5824     1
   5821   5823     1
   5821   5824     1
   5823   5825     1
   5828   5835     1
   5828   5836     1
   5829   5834     1
   5829   5832     1
   5829   5833     1
   5830   5834     1
   5830   5832     1
   5830   5833     1
   5831   5859     1
   5832   5858     1
   5832   5837     1
   5832   5835     1
   5832   5836     1
   5833   5858     1
   5833   5837     1
   5833   5835     1
   5833   5836     1
   5834   5839     1
   5834   5840     1
   5834   5849     1
   5834   5850     1
   5835   5838     1
   5835   5848     1
   5835   5859     1
   5836   5838     1
   5836   5848     1
   5836   5859     1
   5837   5842     1
   5837   5843     1
   5837   5852     1
   5837   5853     1
   5838   5849     1
   5838   5850     1
   5839   5848     1
   5839   5859     1
   5839   5844     1
   5839   5842     1
   5839   5843     1
   5840   5848     1
   5840   5859     1
   5840   5844     1
   5840   5842     1
   5840   5843     1
   5841   5859     1
   5841   5847     1
   5842   5845     1
   5842   5846     1
   5843   5845     1
   5843   5846     1
   5845   5847     1
   5849   5859     1
   5849   5854     1
   5849   5852     1
   5849   5853     1
   5850   5859     1
   5850   5854     1
   5850   5852     1
   5850   5853     1
   5851   5859     1
   5851   5857     1
   5852   5855     1
   5852   5856     1
   5853   5855     1
   5853   5856     1
   5855   5857     1
   5860   5867     1
   5860   5868     1
   5861   5866     1
   5861   5864     1
   5861   5865     1
   5862   5866     1
   5862   5864     1
   5862   5865     1
   5863   5891     1
   5864   5869     1
   5864   5867     1
   5864   5868     1
   5864   5890     1
   5865   5869     1
   5865   5867     1
   5865   5868     1
   5865   5890     1
   5866   5871     1
   5866   5872     1
   5866   5881     1
   5866   5882     1
   5867   5870     1
   5867   5880     1
   5867   5891     1
   5868   5870     1
   5868   5880     1
   5868   5891     1
   5869   5874     1
   5869   5875     1
   5869   5884     1
   5869   5885     1
   5870   5881     1
   5870   5882     1
   5871   5876     1
   5871   5874     1
   5871   5875     1
   5871   5880     1
   5871   5891     1
   5872   5876     1
   5872   5874     1
   5872   5875     1
   5872   5880     1
   5872   5891     1
   5873   5879     1
   5873   5891     1
   5874   5877     1
   5874   5878     1
   5875   5877     1
   5875   5878     1
   5877   5879     1
   5881   5886     1
   5881   5884     1
   5881   5885     1
   5881   5891     1
   5882   5886     1
   5882   5884     1
   5882   5885     1
   5882   5891     1
   5883   5889     1
   5883   5891     1
   5884   5887     1
   5884   5888     1
   5885   5887     1
   5885   5888     1
   5887   5889     1

[ angles ]
;    ai     aj     ak funct         c0         c1         c2         c3
      1      2     14     1   114.2100488 537.225600
      1      5     17     1   114.2100488 537.225600
      1      8     11     1   114.2100488 537.225600
      2      1      5     1   109.6600471 523.836800
      2      1      8     1   109.6600471 523.836800
      2     14     26     1   111.5100476 526.347200
      5      1      8     1   109.6600471 523.836800
      5     17     20     1   111.5100476 526.347200
      8     11     23     1   111.5100476 526.347200
     11     23     88     1   107.9700462 569.024000
     14     26    118     1   107.9700462 569.024000
     17     20     58     1   107.9700462 569.024000
     20     58     49     1   112.4800480 524.673600
     23     88     79     1   112.4800480 524.673600
     26    118    109     1   112.4800480 524.673600
     30     31     43     1   114.2100488 537.225600
     30     34     46     1   114.2100488 537.225600
     30     37     40     1   114.2100488 537.225600
     31     30     34     1   109.6600471 523.836800
     31     30     37     1   109.6600471 523.836800
     31     43     55     1   111.5100476 526.347200
     34     30     37     1   109.6600471 523.836800
     34     46     52     1   111.5100476 526.347200
     37     40     49     1   111.5100476 526.347200
     40     49     58     1   107.9700462 569.024000
     43     55    178     1   107.9700462 569.024000
     46     52    148     1   107.9700462 569.024000
     52    148    139     1   112.4800480 524.673600
     55    178    169     1   112.4800480 524.673600
     60     61     73     1   114.2100488 537.225600
     60     64     76     1   114.2100488 537.225600
     60     67     70     1   114.2100488 537.225600
     61     60     64     1   109.6600471 523.836800
     61     60     67     1   109.6600471 523.836800
     61     73     85     1   111.5100476 526.347200
     64     60     67     1   109.6600471 523.836800
     64     76     82     1   111.5100476 526.347200
     67     70     79     1   111.5100476 526.347200
     70     79     88     1   107.9700462 569.024000
     73     85    238     1   107.9700462 569.024000
     76     82    208     1   107.9700462 569.024000
     82    208    199     1   112.4800480 524.673600
     85    238    229     1   112.4800480 524.673600
     90     91    103     1   114.2100488 537.225600
     90     94    106     1   114.2100488 537.225600
     90     97    100     1   114.2100488 537.225600
     91     90     94     1   109.6600471 523.836800
     91     90     97     1   109.6600471 523.836800
     91    103    115     1   111.5100476 526.347200
     94     90     97     1   109.6600471 523.836800
     94    106    112     1   111.5100476 526.347200
     97    100    109     1   111.5100476 526.347200
    100    109    118     1   107.9700462 569.024000
    103    115    298     1   107.9700462 569.024000
    106    112    268     1   107.9700462 569.024000
    112    268    259     1   112.4800480 524.673600
    115    298    289     1   112.4800480 524.673600
    120    121    133     1   114.2100488 537.225600
    120    124    136     1   114.2100488 537.225600
    120    127    130     1   114.2100488 537.225600
    121    120    124     1   109.6600471 523.836800
    121    120    127     1   109.6600471 523.836800
    121    133    145     1   111.5100476 526.347200
    124    120    127     1   109.6600471 523.836800
    124    136    142     1   111.5100476 526.347200
    127    130    139     1   111.5100476 526.347200
    130    139    148     1   107.9700462 569.024000
    133    145    358     1   107.9700462 569.024000
    136    142    328     1   107.9700462 569.024000
    142    328    319     1   112.4800480 524.673600
    145    358    349     1   112.4800480 524.673600
    150    151    163     1   114.2100488 537.225600
    150    154    166     1   114.2100488 537.225600
    150    157    160     1   114.2100488 537.225600
    151    150    154     1   109.6600471 523.836800
    151    150    157     1   109.6600471 523.836800
    151    163    175     1   111.5100476 526.347200
    154    150    157     1   109.6600471 523.836800
    154    166    172     1   111.5100476 526.347200
    157    160    169     1   111.5100476 526.347200
    160    169    178     1   107.9700462 569.024000
    163    175    418     1   107.9700462 569.024000
    166    172    388     1   107.9700462 569.024000
    172    388    379     1   112.4800480 524.673600
    175    418    409     1   112.4800480 524.673600
    180    181    193     1   114.2100488 537.225600
    180    184    196     1   114.2100488 537.225600
    180    187    190     1   114.2100488 537.225600
    181    180    184     1   109.6600471 523.836800
    181    180    187     1   109.6600471 523.836800
    181    193    205     1   111.5100476 526.347200
    184    180    187     1   109.6600471 523.836800
    184    196    202     1   111.5100476 526.347200
    187    190    199     1   111.5100476 526.347200
    190    199    208     1   107.9700462 569.024000
    193    205    478     1   107.9700462 569.024000
    196    202    448     1   107.9700462 569.024000
    202    448    439     1   112.4800480 524.673600
    205    478    469     1   112.4800480 524.673600
    210    211    223     1   114.2100488 537.225600
    210    214    226     1   114.2100488 537.225600
    210    217    220     1   114.2100488 537.225600
    211    210    214     1   109.6600471 523.836800
    211    210    217     1   109.6600471 523.836800
    211    223    235     1   111.5100476 526.347200
    214    210    217     1   109.6600471 523.836800
    214    226    232     1   111.5100476 526.347200
    217    220    229     1   111.5100476 526.347200
    220    229    238     1   107.9700462 569.024000
    223    235    538     1   107.9700462 569.024000
    226    232    508     1   107.9700462 569.024000
    232    508    499     1   112.4800480 524.673600
    235    538    529     1   112.4800480 524.673600
    240    241    253     1   114.2100488 537.225600
    240    244    256     1   114.2100488 537.225600
    240    247    250     1   114.2100488 537.225600
    241    240    244     1   109.6600471 523.836800
    241    240    247     1   109.6600471 523.836800
    241    253    265     1   111.5100476 526.347200
    244    240    247     1   109.6600471 523.836800
    244    256    262     1   111.5100476 526.347200
    247    250    259     1   111.5100476 526.347200
    250    259    268     1   107.9700462 569.024000
    253    265    598     1   107.9700462 569.024000
    256    262    568     1   107.9700462 569.024000
    262    568    559     1   112.4800480 524.673600
    265    598    589     1   112.4800480 524.673600
    270    271    283     1   114.2100488 537.225600
    270    274    286     1   114.2100488 537.225600
    270    277    280     1   114.2100488 537.225600
    271    270    274     1   109.6600471 523.836800
    271    270    277     1   109.6600471 523.836800
    271    283    295     1   111.5100476 526.347200
    274    270    277     1   109.6600471 523.836800
    274    286    292     1   111.5100476 526.347200
    277    280    289     1   111.5100476 526.347200
    280    289    298     1   107.9700462 569.024000
    283    295    658     1   107.9700462 569.024000
    286    292    628     1   107.9700462 569.024000
    292    628    619     1   112.4800480 524.673600
    295    658    649     1   112.4800480 524.673600
    300    301    313     1   114.2100488 537.225600
    300    304    316     1   114.2100488 537.225600
    300    307    310     1   114.2100488 537.225600
    301    300    304     1   109.6600471 523.836800
    301    300    307     1   109.6600471 523.836800
    301    313    325     1   111.5100476 526.347200
    304    300    307     1   109.6600471 523.836800
    304    316    322     1   111.5100476 526.347200
    307    310    319     1   111.5100476 526.347200
    310    319    328     1   107.9700462 569.024000
    313    325    718     1   107.9700462 569.024000
    316    322    688     1   107.9700462 569.024000
    322    688    679     1   112.4800480 524.673600
    325    718    709     1   112.4800480 524.673600
    330    331    343     1   114.2100488 537.225600
    330    334    346     1   114.2100488 537.225600
    330    337    340     1   114.2100488 537.225600
    331    330    334     1   109.6600471 523.836800
    331    330    337     1   109.6600471 523.836800
    331    343    355     1   111.5100476 526.347200
    334    330    337     1   109.6600471 523.836800
    334    346    352     1   111.5100476 526.347200
    337    340    349     1   111.5100476 526.347200
    340    349    358     1   107.9700462 569.024000
    343    355    778     1   107.9700462 569.024000
    346    352    748     1   107.9700462 569.024000
    352    748    739     1   112.4800480 524.673600
    355    778    769     1   112.4800480 524.673600
    360    361    373     1   114.2100488 537.225600
    360    364    376     1   114.2100488 537.225600
    360    367    370     1   114.2100488 537.225600
    361    360    364     1   109.6600471 523.836800
    361    360    367     1   109.6600471 523.836800
    361    373    385     1   111.5100476 526.347200
    364    360    367     1   109.6600471 523.836800
    364    376    382     1   111.5100476 526.347200
    367    370    379     1   111.5100476 526.347200
    370    379    388     1   107.9700462 569.024000
    373    385    838     1   107.9700462 569.024000
    376    382    808     1   107.9700462 569.024000
    382    808    799     1   112.4800480 524.673600
    385    838    829     1   112.4800480 524.673600
    390    391    403     1   114.2100488 537.225600
    390    394    406     1   114.2100488 537.225600
    390    397    400     1   114.2100488 537.225600
    391    390    394     1   109.6600471 523.836800
    391    390    397     1   109.6600471 523.836800
    391    403    415     1   111.5100476 526.347200
    394    390    397     1   109.6600471 523.836800
    394    406    412     1   111.5100476 526.347200
    397    400    409     1   111.5100476 526.347200
    400    409    418     1   107.9700462 569.024000
    403    415    898     1   107.9700462 569.024000
    406    412    868     1   107.9700462 569.024000
    412    868    859     1   112.4800480 524.673600
    415    898    889     1   112.4800480 524.673600
    420    421    433     1   114.2100488 537.225600
    420    424    436     1   114.2100488 537.225600
    420    427    430     1   114.2100488 537.225600
    421    420    424     1   109.6600471 523.836800
    421    420    427     1   109.6600471 523.836800
    421    433    445     1   111.5100476 526.347200
    424    420    427     1   109.6600471 523.836800
    424    436    442     1   111.5100476 526.347200
    427    430    439     1   111.5100476 526.347200
    430    439    448     1   107.9700462 569.024000
    433    445    958     1   107.9700462 569.024000
    436    442    928     1   107.9700462 569.024000
    442    928    919     1   112.4800480 524.673600
    445    958    949     1   112.4800480 524.673600
    450    451    463     1   114.2100488 537.225600
    450    454    466     1   114.2100488 537.225600
    450    457    460     1   114.2100488 537.225600
    451    450    454     1   109.6600471 523.836800
    451    450    457     1   109.6600471 523.836800
    451    463    475     1   111.5100476 526.347200
    454    450    457     1   109.6600471 523.836800
    454    466    472     1   111.5100476 526.347200
    457    460    469     1   111.5100476 526.347200
    460    469    478     1   107.9700462 569.024000
    463    475   1018     1   107.9700462 569.024000
    466    472    988     1   107.9700462 569.024000
    472    988    979     1   112.4800480 524.673600
    475   1018   1009     1   112.4800480 524.673600
    480    481    493     1   114.2100488 537.225600
    480    484    496     1   114.2100488 537.225600
    480    487    490     1   114.2100488 537.225600
    481    480    484     1   109.6600471 523.836800
    481    480    487     1   109.6600471 523.836800
    481    493    505     1   111.5100476 526.347200
    484    480    487     1   109.6600471 523.836800
    484    496    502     1   111.5100476 526.347200
    487    490    499     1   111.5100476 526.347200
    490    499    508     1   107.9700462 569.024000
    493    505   1078     1   107.9700462 569.024000
    496    502   1048     1   107.9700462 569.024000
    502   1048   1039     1   112.4800480 524.673600
    505   1078   1069     1   112.4800480 524.673600
    510    511    523     1   114.2100488 537.225600
    510    514    526     1   114.2100488 537.225600
    510    517    520     1   114.2100488 537.225600
    511    510    514     1   109.6600471 523.836800
    511    510    517     1   109.6600471 523.836800
    511    523    535     1   111.5100476 526.347200
    514    510    517     1   109.6600471 523.836800
    514    526    532     1   111.5100476 526.347200
    517    520    529     1   111.5100476 526.347200
    520    529    538     1   107.9700462 569.024000
    523    535   1138     1   107.9700462 569.024000
    526    532   1108     1   107.9700462 569.024000
    532   1108   1099     1   112.4800480 524.673600
    535   1138   1129     1   112.4800480 524.673600
    540    541    553     1   114.2100488 537.225600
    540    544    556     1   114.2100488 537.225600
    540    547    550     1   114.2100488 537.225600
    541    540    544     1   109.6600471 523.836800
    541    540    547     1   109.6600471 523.836800
    541    553    565     1   111.5100476 526.347200
    544    540    547     1   109.6600471 523.836800
    544    556    562     1   111.5100476 526.347200
    547    550    559     1   111.5100476 526.347200
    550    559    568     1   107.9700462 569.024000
    553    565   1198     1   107.9700462 569.024000
    556    562   1168     1   107.9700462 569.024000
    562   1168   1159     1   112.4800480 524.673600
    565   1198   1189     1   112.4800480 524.673600
    570    571    583     1   114.2100488 537.225600
    570    574    586     1   114.2100488 537.225600
    570    577    580     1   114.2100488 537.225600
    571    570    574     1   109.6600471 523.836800
    571    570    577     1   109.6600471 523.836800
    571    583    595     1   111.5100476 526.347200
    574    570    577     1   109.6600471 523.836800
    574    586    592     1   111.5100476 526.347200
    577    580    589     1   111.5100476 526.347200
    580    589    598     1   107.9700462 569.024000
    583    595   1258     1   107.9700462 569.024000
    586    592   1228     1   107.9700462 569.024000
    592   1228   1219     1   112.4800480 524.673600
    595   1258   1249     1   112.4800480 524.673600
    600    601    613     1   114.2100488 537.225600
    600    604    616     1   114.2100488 537.225600
    600    607    610     1   114.2100488 537.225600
    601    600    604     1   109.6600471 523.836800
    601    600    607     1   109.6600471 523.836800
    601    613    625     1   111.5100476 526.347200
    604    600    607     1   109.6600471 523.836800
    604    616    622     1   111.5100476 526.347200
    607    610    619     1   111.5100476 526.347200
    610    619    628     1   107.9700462 569.024000
    613    625   1318     1   107.9700462 569.024000
    616    622   1288     1   107.9700462 569.024000
    622   1288   1279     1   112.4800480 524.673600
    625   1318   1309     1   112.4800480 524.673600
    630    631    643     1   114.2100488 537.225600
    630    634    646     1   114.2100488 537.225600
    630    637    640     1   114.2100488 537.225600
    631    630    634     1   109.6600471 523.836800
    631    630    637     1   109.6600471 523.836800
    631    643    655     1   111.5100476 526.347200
    634    630    637     1   109.6600471 523.836800
    634    646    652     1   111.5100476 526.347200
    637    640    649     1   111.5100476 526.347200
    640    649    658     1   107.9700462 569.024000
    643    655   1378     1   107.9700462 569.024000
    646    652   1348     1   107.9700462 569.024000
    652   1348   1339     1   112.4800480 524.673600
    655   1378   1369     1   112.4800480 524.673600
    660    661    673     1   114.2100488 537.225600
    660    664    676     1   114.2100488 537.225600
    660    667    670     1   114.2100488 537.225600
    661    660    664     1   109.6600471 523.836800
    661    660    667     1   109.6600471 523.836800
    661    673    685     1   111.5100476 526.347200
    664    660    667     1   109.6600471 523.836800
    664    676    682     1   111.5100476 526.347200
    667    670    679     1   111.5100476 526.347200
    670    679    688     1   107.9700462 569.024000
    673    685   1438     1   107.9700462 569.024000
    676    682   1408     1   107.9700462 569.024000
    682   1408   1399     1   112.4800480 524.673600
    685   1438   1429     1   112.4800480 524.673600
    690    691    703     1   114.2100488 537.225600
    690    694    706     1   114.2100488 537.225600
    690    697    700     1   114.2100488 537.225600
    691    690    694     1   109.6600471 523.836800
    691    690    697     1   109.6600471 523.836800
    691    703    715     1   111.5100476 526.347200
    694    690    697     1   109.6600471 523.836800
    694    706    712     1   111.5100476 526.347200
    697    700    709     1   111.5100476 526.347200
    700    709    718     1   107.9700462 569.024000
    703    715   1498     1   107.9700462 569.024000
    706    712   1468     1   107.9700462 569.024000
    712   1468   1459     1   112.4800480 524.673600
    715   1498   1489     1   112.4800480 524.673600
    720    721    733     1   114.2100488 537.225600
    720    724    736     1   114.2100488 537.225600
    720    727    730     1   114.2100488 537.225600
    721    720    724     1   109.6600471 523.836800
    721    720    727     1   109.6600471 523.836800
    721    733    745     1   111.5100476 526.347200
    724    720    727     1   109.6600471 523.836800
    724    736    742     1   111.5100476 526.347200
    727    730    739     1   111.5100476 526.347200
    730    739    748     1   107.9700462 569.024000
    733    745   1558     1   107.9700462 569.024000
    736    742   1528     1   107.9700462 569.024000
    742   1528   1519     1   112.4800480 524.673600
    745   1558   1549     1   112.4800480 524.673600
    750    751    763     1   114.2100488 537.225600
    750    754    766     1   114.2100488 537.225600
    750    757    760     1   114.2100488 537.225600
    751    750    754     1   109.6600471 523.836800
    751    750    757     1   109.6600471 523.836800
    751    763    775     1   111.5100476 526.347200
    754    750    757     1   109.6600471 523.836800
    754    766    772     1   111.5100476 526.347200
    757    760    769     1   111.5100476 526.347200
    760    769    778     1   107.9700462 569.024000
    763    775   1618     1   107.9700462 569.024000
    766    772   1588     1   107.9700462 569.024000
    772   1588   1579     1   112.4800480 524.673600
    775   1618   1609     1   112.4800480 524.673600
    780    781    793     1   114.2100488 537.225600
    780    784    796     1   114.2100488 537.225600
    780    787    790     1   114.2100488 537.225600
    781    780    784     1   109.6600471 523.836800
    781    780    787     1   109.6600471 523.836800
    781    793    805     1   111.5100476 526.347200
    784    780    787     1   109.6600471 523.836800
    784    796    802     1   111.5100476 526.347200
    787    790    799     1   111.5100476 526.347200
    790    799    808     1   107.9700462 569.024000
    793    805   1678     1   107.9700462 569.024000
    796    802   1648     1   107.9700462 569.024000
    802   1648   1639     1   112.4800480 524.673600
    805   1678   1669     1   112.4800480 524.673600
    810    811    823     1   114.2100488 537.225600
    810    814    826     1   114.2100488 537.225600
    810    817    820     1   114.2100488 537.225600
    811    810    814     1   109.6600471 523.836800
    811    810    817     1   109.6600471 523.836800
    811    823    835     1   111.5100476 526.347200
    814    810    817     1   109.6600471 523.836800
    814    826    832     1   111.5100476 526.347200
    817    820    829     1   111.5100476 526.347200
    820    829    838     1   107.9700462 569.024000
    823    835   1738     1   107.9700462 569.024000
    826    832   1708     1   107.9700462 569.024000
    832   1708   1699     1   112.4800480 524.673600
    835   1738   1729     1   112.4800480 524.673600
    840    841    853     1   114.2100488 537.225600
    840    844    856     1   114.2100488 537.225600
    840    847    850     1   114.2100488 537.225600
    841    840    844     1   109.6600471 523.836800
    841    840    847     1   109.6600471 523.836800
    841    853    865     1   111.5100476 526.347200
    844    840    847     1   109.6600471 523.836800
    844    856    862     1   111.5100476 526.347200
    847    850    859     1   111.5100476 526.347200
    850    859    868     1   107.9700462 569.024000
    853    865   1798     1   107.9700462 569.024000
    856    862   1768     1   107.9700462 569.024000
    862   1768   1759     1   112.4800480 524.673600
    865   1798   1789     1   112.4800480 524.673600
    870    871    883     1   114.2100488 537.225600
    870    874    886     1   114.2100488 537.225600
    870    877    880     1   114.2100488 537.225600
    871    870    874     1   109.6600471 523.836800
    871    870    877     1   109.6600471 523.836800
    871    883    895     1   111.5100476 526.347200
    874    870    877     1   109.6600471 523.836800
    874    886    892     1   111.5100476 526.347200
    877    880    889     1   111.5100476 526.347200
    880    889    898     1   107.9700462 569.024000
    883    895   1858     1   107.9700462 569.024000
    886    892   1828     1   107.9700462 569.024000
    892   1828   1819     1   112.4800480 524.673600
    895   1858   1849     1   112.4800480 524.673600
    900    901    913     1   114.2100488 537.225600
    900    904    916     1   114.2100488 537.225600
    900    907    910     1   114.2100488 537.225600
    901    900    904     1   109.6600471 523.836800
    901    900    907     1   109.6600471 523.836800
    901    913    925     1   111.5100476 526.347200
    904    900    907     1   109.6600471 523.836800
    904    916    922     1   111.5100476 526.347200
    907    910    919     1   111.5100476 526.347200
    910    919    928     1   107.9700462 569.024000
    913    925   1918     1   107.9700462 569.024000
    916    922   1888     1   107.9700462 569.024000
    922   1888   1879     1   112.4800480 524.673600
    925   1918   1909     1   112.4800480 524.673600
    930    931    943     1   114.2100488 537.225600
    930    934    946     1   114.2100488 537.225600
    930    937    940     1   114.2100488 537.225600
    931    930    934     1   109.6600471 523.836800
    931    930    937     1   109.6600471 523.836800
    931    943    955     1   111.5100476 526.347200
    934    930    937     1   109.6600471 523.836800
    934    946    952     1   111.5100476 526.347200
    937    940    949     1   111.5100476 526.347200
    940    949    958     1   107.9700462 569.024000
    943    955   1978     1   107.9700462 569.024000
    946    952   1948     1   107.9700462 569.024000
    952   1948   1939     1   112.4800480 524.673600
    955   1978   1969     1   112.4800480 524.673600
    960    961    973     1   114.2100488 537.225600
    960    964    976     1   114.2100488 537.225600
    960    967    970     1   114.2100488 537.225600
    961    960    964     1   109.6600471 523.836800
    961    960    967     1   109.6600471 523.836800
    961    973    985     1   111.5100476 526.347200
    964    960    967     1   109.6600471 523.836800
    964    976    982     1   111.5100476 526.347200
    967    970    979     1   111.5100476 526.347200
    970    979    988     1   107.9700462 569.024000
    973    985   2038     1   107.9700462 569.024000
    976    982   2008     1   107.9700462 569.024000
    982   2008   1999     1   112.4800480 524.673600
    985   2038   2029     1   112.4800480 524.673600
    990    991   1003     1   114.2100488 537.225600
    990    994   1006     1   114.2100488 537.225600
    990    997   1000     1   114.2100488 537.225600
    991    990    994     1   109.6600471 523.836800
    991    990    997     1   109.6600471 523.836800
    991   1003   1015     1   111.5100476 526.347200
    994    990    997     1   109.6600471 523.836800
    994   1006   1012     1   111.5100476 526.347200
    997   1000   1009     1   111.5100476 526.347200
   1000   1009   1018     1   107.9700462 569.024000
   1003   1015   2098     1   107.9700462 569.024000
   1006   1012   2068     1   107.9700462 569.024000
   1012   2068   2059     1   112.4800480 524.673600
   1015   2098   2089     1   112.4800480 524.673600
   1020   1021   1033     1   114.2100488 537.225600
   1020   1024   1036     1   114.2100488 537.225600
   1020   1027   1030     1   114.2100488 537.225600
   1021   1020   1024     1   109.6600471 523.836800
   1021   1020   1027     1   109.6600471 523.836800
   1021   1033   1045     1   111.5100476 526.347200
   1024   1020   1027     1   109.6600471 523.836800
   1024   1036   1042     1   111.5100476 526.347200
   1027   1030   1039     1   111.5100476 526.347200
   1030   1039   1048     1   107.9700462 569.024000
   1033   1045   2158     1   107.9700462 569.024000
   1036   1042   2128     1   107.9700462 569.024000
   1042   2128   2119     1   112.4800480 524.673600
   1045   2158   2149     1   112.4800480 524.673600
   1050   1051   1063     1   114.2100488 537.225600
   1050   1054   1066     1   114.2100488 537.225600
   1050   1057   1060     1   114.2100488 537.225600
   1051   1050   1054     1   109.6600471 523.836800
   1051   1050   1057     1   109.6600471 523.836800
   1051   1063   1075     1   111.5100476 526.347200
   1054   1050   1057     1   109.6600471 523.836800
   1054   1066   1072     1   111.5100476 526.347200
   1057   1060   1069     1   111.5100476 526.347200
   1060   1069   1078     1   107.9700462 569.024000
   1063   1075   2218     1   107.9700462 569.024000
   1066   1072   2188     1   107.9700462 569.024000
   1072   2188   2179     1   112.4800480 524.673600
   1075   2218   2209     1   112.4800480 524.673600
   1080   1081   1093     1   114.2100488 537.225600
   1080   1084   1096     1   114.2100488 537.225600
   1080   1087   1090     1   114.2100488 537.225600
   1081   1080   1084     1   109.6600471 523.836800
   1081   1080   1087     1   109.6600471 523.836800
   1081   1093   1105     1   111.5100476 526.347200
   1084   1080   1087     1   109.6600471 523.836800
   1084   1096   1102     1   111.5100476 526.347200
   1087   1090   1099     1   111.5100476 526.347200
   1090   1099   1108     1   107.9700462 569.024000
   1093   1105   2278     1   107.9700462 569.024000
   1096   1102   2248     1   107.9700462 569.024000
   1102   2248   2239     1   112.4800480 524.673600
   1105   2278   2269     1   112.4800480 524.673600
   1110   1111   1123     1   114.2100488 537.225600
   1110   1114   1126     1   114.2100488 537.225600
   1110   1117   1120     1   114.2100488 537.225600
   1111   1110   1114     1   109.6600471 523.836800
   1111   1110   1117     1   109.6600471 523.836800
   1111   1123   1135     1   111.5100476 526.347200
   1114   1110   1117     1   109.6600471 523.836800
   1114   1126   1132     1   111.5100476 526.347200
   1117   1120   1129     1   111.5100476 526.347200
   1120   1129   1138     1   107.9700462 569.024000
   1123   1135   2338     1   107.9700462 569.024000
   1126   1132   2308     1   107.9700462 569.024000
   1132   2308   2299     1   112.4800480 524.673600
   1135   2338   2329     1   112.4800480 524.673600
   1140   1141   1153     1   114.2100488 537.225600
   1140   1144   1156     1   114.2100488 537.225600
   1140   1147   1150     1   114.2100488 537.225600
   1141   1140   1144     1   109.6600471 523.836800
   1141   1140   1147     1   109.6600471 523.836800
   1141   1153   1165     1   111.5100476 526.347200
   1144   1140   1147     1   109.6600471 523.836800
   1144   1156   1162     1   111.5100476 526.347200
   1147   1150   1159     1   111.5100476 526.347200
   1150   1159   1168     1   107.9700462 569.024000
   1153   1165   2398     1   107.9700462 569.024000
   1156   1162   2368     1   107.9700462 569.024000
   1162   2368   2359     1   112.4800480 524.673600
   1165   2398   2389     1   112.4800480 524.673600
   1170   1171   1183     1   114.2100488 537.225600
   1170   1174   1186     1   114.2100488 537.225600
   1170   1177   1180     1   114.2100488 537.225600
   1171   1170   1174     1   109.6600471 523.836800
   1171   1170   1177     1   109.6600471 523.836800
   1171   1183   1195     1   111.5100476 526.347200
   1174   1170   1177     1   109.6600471 523.836800
   1174   1186   1192     1   111.5100476 526.347200
   1177   1180   1189     1   111.5100476 526.347200
   1180   1189   1198     1   107.9700462 569.024000
   1183   1195   2458     1   107.9700462 569.024000
   1186   1192   2428     1   107.9700462 569.024000
   1192   2428   2419     1   112.4800480 524.673600
   1195   2458   2449     1   112.4800480 524.673600
   1200   1201   1213     1   114.2100488 537.225600
   1200   1204   1216     1   114.2100488 537.225600
   1200   1207   1210     1   114.2100488 537.225600
   1201   1200   1204     1   109.6600471 523.836800
   1201   1200   1207     1   109.6600471 523.836800
   1201   1213   1225     1   111.5100476 526.347200
   1204   1200   1207     1   109.6600471 523.836800
   1204   1216   1222     1   111.5100476 526.347200
   1207   1210   1219     1   111.5100476 526.347200
   1210   1219   1228     1   107.9700462 569.024000
   1213   1225   2518     1   107.9700462 569.024000
   1216   1222   2488     1   107.9700462 569.024000
   1222   2488   2479     1   112.4800480 524.673600
   1225   2518   2509     1   112.4800480 524.673600
   1230   1231   1243     1   114.2100488 537.225600
   1230   1234   1246     1   114.2100488 537.225600
   1230   1237   1240     1   114.2100488 537.225600
   1231   1230   1234     1   109.6600471 523.836800
   1231   1230   1237     1   109.6600471 523.836800
   1231   1243   1255     1   111.5100476 526.347200
   1234   1230   1237     1   109.6600471 523.836800
   1234   1246   1252     1   111.5100476 526.347200
   1237   1240   1249     1   111.5100476 526.347200
   1240   1249   1258     1   107.9700462 569.024000
   1243   1255   2578     1   107.9700462 569.024000
   1246   1252   2548     1   107.9700462 569.024000
   1252   2548   2539     1   112.4800480 524.673600
   1255   2578   2569     1   112.4800480 524.673600
   1260   1261   1273     1   114.2100488 537.225600
   1260   1264   1276     1   114.2100488 537.225600
   1260   1267   1270     1   114.2100488 537.225600
   1261   1260   1264     1   109.6600471 523.836800
   1261   1260   1267     1   109.6600471 523.836800
   1261   1273   1285     1   111.5100476 526.347200
   1264   1260   1267     1   109.6600471 523.836800
   1264   1276   1282     1   111.5100476 526.347200
   1267   1270   1279     1   111.5100476 526.347200
   1270   1279   1288     1   107.9700462 569.024000
   1273   1285   2638     1   107.9700462 569.024000
   1276   1282   2608     1   107.9700462 569.024000
   1282   2608   2599     1   112.4800480 524.673600
   1285   2638   2629     1   112.4800480 524.673600
   1290   1291   1303     1   114.2100488 537.225600
   1290   1294   1306     1   114.2100488 537.225600
   1290   1297   1300     1   114.2100488 537.225600
   1291   1290   1294     1   109.6600471 523.836800
   1291   1290   1297     1   109.6600471 523.836800
   1291   1303   1315     1   111.5100476 526.347200
   1294   1290   1297     1   109.6600471 523.836800
   1294   1306   1312     1   111.5100476 526.347200
   1297   1300   1309     1   111.5100476 526.347200
   1300   1309   1318     1   107.9700462 569.024000
   1303   1315   2698     1   107.9700462 569.024000
   1306   1312   2668     1   107.9700462 569.024000
   1312   2668   2659     1   112.4800480 524.673600
   1315   2698   2689     1   112.4800480 524.673600
   1320   1321   1333     1   114.2100488 537.225600
   1320   1324   1336     1   114.2100488 537.225600
   1320   1327   1330     1   114.2100488 537.225600
   1321   1320   1324     1   109.6600471 523.836800
   1321   1320   1327     1   109.6600471 523.836800
   1321   1333   1345     1   111.5100476 526.347200
   1324   1320   1327     1   109.6600471 523.836800
   1324   1336   1342     1   111.5100476 526.347200
   1327   1330   1339     1   111.5100476 526.347200
   1330   1339   1348     1   107.9700462 569.024000
   1333   1345   2758     1   107.9700462 569.024000
   1336   1342   2728     1   107.9700462 569.024000
   1342   2728   2719     1   112.4800480 524.673600
   1345   2758   2749     1   112.4800480 524.673600
   1350   1351   1363     1   114.2100488 537.225600
   1350   1354   1366     1   114.2100488 537.225600
   1350   1357   1360     1   114.2100488 537.225600
   1351   1350   1354     1   109.6600471 523.836800
   1351   1350   1357     1   109.6600471 523.836800
   1351   1363   1375     1   111.5100476 526.347200
   1354   1350   1357     1   109.6600471 523.836800
   1354   1366   1372     1   111.5100476 526.347200
   1357   1360   1369     1   111.5100476 526.347200
   1360   1369   1378     1   107.9700462 569.024000
   1363   1375   2818     1   107.9700462 569.024000
   1366   1372   2788     1   107.9700462 569.024000
   1372   2788   2779     1   112.4800480 524.673600
   1375   2818   2809     1   112.4800480 524.673600
   1380   1381   1393     1   114.2100488 537.225600
   1380   1384   1396     1   114.2100488 537.225600
   1380   1387   1390     1   114.2100488 537.225600
   1381   1380   1384     1   109.6600471 523.836800
   1381   1380   1387     1   109.6600471 523.836800
   1381   1393   1405     1   111.5100476 526.347200
   1384   1380   1387     1   109.6600471 523.836800
   1384   1396   1402     1   111.5100476 526.347200
   1387   1390   1399     1   111.5100476 526.347200
   1390   1399   1408     1   107.9700462 569.024000
   1393   1405   2882     1   107.9700462 569.024000
   1396   1402   2850     1   107.9700462 569.024000
   1402   2850   2820     1   112.4800480 524.673600
   1405   2882   2852     1   112.4800480 524.673600
   1410   1411   1423     1   114.2100488 537.225600
   1410   1414   1426     1   114.2100488 537.225600
   1410   1417   1420     1   114.2100488 537.225600
   1411   1410   1414     1   109.6600471 523.836800
   1411   1410   1417     1   109.6600471 523.836800
   1411   1423   1435     1   111.5100476 526.347200
   1414   1410   1417     1   109.6600471 523.836800
   1414   1426   1432     1   111.5100476 526.347200
   1417   1420   1429     1   111.5100476 526.347200
   1420   1429   1438     1   107.9700462 569.024000
   1423   1435   2946     1   107.9700462 569.024000
   1426   1432   2914     1   107.9700462 569.024000
   1432   2914   2884     1   112.4800480 524.673600
   1435   2946   2916     1   112.4800480 524.673600
   1440   1441   1453     1   114.2100488 537.225600
   1440   1444   1456     1   114.2100488 537.225600
   1440   1447   1450     1   114.2100488 537.225600
   1441   1440   1444     1   109.6600471 523.836800
   1441   1440   1447     1   109.6600471 523.836800
   1441   1453   1465     1   111.5100476 526.347200
   1444   1440   1447     1   109.6600471 523.836800
   1444   1456   1462     1   111.5100476 526.347200
   1447   1450   1459     1   111.5100476 526.347200
   1450   1459   1468     1   107.9700462 569.024000
   1453   1465   3010     1   107.9700462 569.024000
   1456   1462   2978     1   107.9700462 569.024000
   1462   2978   2948     1   112.4800480 524.673600
   1465   3010   2980     1   112.4800480 524.673600
   1470   1471   1483     1   114.2100488 537.225600
   1470   1474   1486     1   114.2100488 537.225600
   1470   1477   1480     1   114.2100488 537.225600
   1471   1470   1474     1   109.6600471 523.836800
   1471   1470   1477     1   109.6600471 523.836800
   1471   1483   1495     1   111.5100476 526.347200
   1474   1470   1477     1   109.6600471 523.836800
   1474   1486   1492     1   111.5100476 526.347200
   1477   1480   1489     1   111.5100476 526.347200
   1480   1489   1498     1   107.9700462 569.024000
   1483   1495   3074     1   107.9700462 569.024000
   1486   1492   3042     1   107.9700462 569.024000
   1492   3042   3012     1   112.4800480 524.673600
   1495   3074   3044     1   112.4800480 524.673600
   1500   1501   1513     1   114.2100488 537.225600
   1500   1504   1516     1   114.2100488 537.225600
   1500   1507   1510     1   114.2100488 537.225600
   1501   1500   1504     1   109.6600471 523.836800
   1501   1500   1507     1   109.6600471 523.836800
   1501   1513   1525     1   111.5100476 526.347200
   1504   1500   1507     1   109.6600471 523.836800
   1504   1516   1522     1   111.5100476 526.347200
   1507   1510   1519     1   111.5100476 526.347200
   1510   1519   1528     1   107.9700462 569.024000
   1513   1525   3138     1   107.9700462 569.024000
   1516   1522   3106     1   107.9700462 569.024000
   1522   3106   3076     1   112.4800480 524.673600
   1525   3138   3108     1   112.4800480 524.673600
   1530   1531   1543     1   114.2100488 537.225600
   1530   1534   1546     1   114.2100488 537.225600
   1530   1537   1540     1   114.2100488 537.225600
   1531   1530   1534     1   109.6600471 523.836800
   1531   1530   1537     1   109.6600471 523.836800
   1531   1543   1555     1   111.5100476 526.347200
   1534   1530   1537     1   109.6600471 523.836800
   1534   1546   1552     1   111.5100476 526.347200
   1537   1540   1549     1   111.5100476 526.347200
   1540   1549   1558     1   107.9700462 569.024000
   1543   1555   3202     1   107.9700462 569.024000
   1546   1552   3170     1   107.9700462 569.024000
   1552   3170   3140     1   112.4800480 524.673600
   1555   3202   3172     1   112.4800480 524.673600
   1560   1561   1573     1   114.2100488 537.225600
   1560   1564   1576     1   114.2100488 537.225600
   1560   1567   1570     1   114.2100488 537.225600
   1561   1560   1564     1   109.6600471 523.836800
   1561   1560   1567     1   109.6600471 523.836800
   1561   1573   1585     1   111.5100476 526.347200
   1564   1560   1567     1   109.6600471 523.836800
   1564   1576   1582     1   111.5100476 526.347200
   1567   1570   1579     1   111.5100476 526.347200
   1570   1579   1588     1   107.9700462 569.024000
   1573   1585   3266     1   107.9700462 569.024000
   1576   1582   3234     1   107.9700462 569.024000
   1582   3234   3204     1   112.4800480 524.673600
   1585   3266   3236     1   112.4800480 524.673600
   1590   1591   1603     1   114.2100488 537.225600
   1590   1594   1606     1   114.2100488 537.225600
   1590   1597   1600     1   114.2100488 537.225600
   1591   1590   1594     1   109.6600471 523.836800
   1591   1590   1597     1   109.6600471 523.836800
   1591   1603   1615     1   111.5100476 526.347200
   1594   1590   1597     1   109.6600471 523.836800
   1594   1606   1612     1   111.5100476 526.347200
   1597   1600   1609     1   111.5100476 526.347200
   1600   1609   1618     1   107.9700462 569.024000
   1603   1615   3330     1   107.9700462 569.024000
   1606   1612   3298     1   107.9700462 569.024000
   1612   3298   3268     1   112.4800480 524.673600
   1615   3330   3300     1   112.4800480 524.673600
   1620   1621   1633     1   114.2100488 537.225600
   1620   1624   1636     1   114.2100488 537.225600
   1620   1627   1630     1   114.2100488 537.225600
   1621   1620   1624     1   109.6600471 523.836800
   1621   1620   1627     1   109.6600471 523.836800
   1621   1633   1645     1   111.5100476 526.347200
   1624   1620   1627     1   109.6600471 523.836800
   1624   1636   1642     1   111.5100476 526.347200
   1627   1630   1639     1   111.5100476 526.347200
   1630   1639   1648     1   107.9700462 569.024000
   1633   1645   3394     1   107.9700462 569.024000
   1636   1642   3362     1   107.9700462 569.024000
   1642   3362   3332     1   112.4800480 524.673600
   1645   3394   3364     1   112.4800480 524.673600
   1650   1651   1663     1   114.2100488 537.225600
   1650   1654   1666     1   114.2100488 537.225600
   1650   1657   1660     1   114.2100488 537.225600
   1651   1650   1654     1   109.6600471 523.836800
   1651   1650   1657     1   109.6600471 523.836800
   1651   1663   1675     1   111.5100476 526.347200
   1654   1650   1657     1   109.6600471 523.836800
   1654   1666   1672     1   111.5100476 526.347200
   1657   1660   1669     1   111.5100476 526.347200
   1660   1669   1678     1   107.9700462 569.024000
   1663   1675   3458     1   107.9700462 569.024000
   1666   1672   3426     1   107.9700462 569.024000
   1672   3426   3396     1   112.4800480 524.673600
   1675   3458   3428     1   112.4800480 524.673600
   1680   1681   1693     1   114.2100488 537.225600
   1680   1684   1696     1   114.2100488 537.225600
   1680   1687   1690     1   114.2100488 537.225600
   1681   1680   1684     1   109.6600471 523.836800
   1681   1680   1687     1   109.6600471 523.836800
   1681   1693   1705     1   111.5100476 526.347200
   1684   1680   1687     1   109.6600471 523.836800
   1684   1696   1702     1   111.5100476 526.347200
   1687   1690   1699     1   111.5100476 526.347200
   1690   1699   1708     1   107.9700462 569.024000
   1693   1705   3522     1   107.9700462 569.024000
   1696   1702   3490     1   107.9700462 569.024000
   1702   3490   3460     1   112.4800480 524.673600
   1705   3522   3492     1   112.4800480 524.673600
   1710   1711   1723     1   114.2100488 537.225600
   1710   1714   1726     1   114.2100488 537.225600
   1710   1717   1720     1   114.2100488 537.225600
   1711   1710   1714     1   109.6600471 523.836800
   1711   1710   1717     1   109.6600471 523.836800
   1711   1723   1735     1   111.5100476 526.347200
   1714   1710   1717     1   109.6600471 523.836800
   1714   1726   1732     1   111.5100476 526.347200
   1717   1720   1729     1   111.5100476 526.347200
   1720   1729   1738     1   107.9700462 569.024000
   1723   1735   3586     1   107.9700462 569.024000
   1726   1732   3554     1   107.9700462 569.024000
   1732   3554   3524     1   112.4800480 524.673600
   1735   3586   3556     1   112.4800480 524.673600
   1740   1741   1753     1   114.2100488 537.225600
   1740   1744   1756     1   114.2100488 537.225600
   1740   1747   1750     1   114.2100488 537.225600
   1741   1740   1744     1   109.6600471 523.836800
   1741   1740   1747     1   109.6600471 523.836800
   1741   1753   1765     1   111.5100476 526.347200
   1744   1740   1747     1   109.6600471 523.836800
   1744   1756   1762     1   111.5100476 526.347200
   1747   1750   1759     1   111.5100476 526.347200
   1750   1759   1768     1   107.9700462 569.024000
   1753   1765   3650     1   107.9700462 569.024000
   1756   1762   3618     1   107.9700462 569.024000
   1762   3618   3588     1   112.4800480 524.673600
   1765   3650   3620     1   112.4800480 524.673600
   1770   1771   1783     1   114.2100488 537.225600
   1770   1774   1786     1   114.2100488 537.225600
   1770   1777   1780     1   114.2100488 537.225600
   1771   1770   1774     1   109.6600471 523.836800
   1771   1770   1777     1   109.6600471 523.836800
   1771   1783   1795     1   111.5100476 526.347200
   1774   1770   1777     1   109.6600471 523.836800
   1774   1786   1792     1   111.5100476 526.347200
   1777   1780   1789     1   111.5100476 526.347200
   1780   1789   1798     1   107.9700462 569.024000
   1783   1795   3714     1   107.9700462 569.024000
   1786   1792   3682     1   107.9700462 569.024000
   1792   3682   3652     1   112.4800480 524.673600
   1795   3714   3684     1   112.4800480 524.673600
   1800   1801   1813     1   114.2100488 537.225600
   1800   1804   1816     1   114.2100488 537.225600
   1800   1807   1810     1   114.2100488 537.225600
   1801   1800   1804     1   109.6600471 523.836800
   1801   1800   1807     1   109.6600471 523.836800
   1801   1813   1825     1   111.5100476 526.347200
   1804   1800   1807     1   109.6600471 523.836800
   1804   1816   1822     1   111.5100476 526.347200
   1807   1810   1819     1   111.5100476 526.347200
   1810   1819   1828     1   107.9700462 569.024000
   1813   1825   3778     1   107.9700462 569.024000
   1816   1822   3746     1   107.9700462 569.024000
   1822   3746   3716     1   112.4800480 524.673600
   1825   3778   3748     1   112.4800480 524.673600
   1830   1831   1843     1   114.2100488 537.225600
   1830   1834   1846     1   114.2100488 537.225600
   1830   1837   1840     1   114.2100488 537.225600
   1831   1830   1834     1   109.6600471 523.836800
   1831   1830   1837     1   109.6600471 523.836800
   1831   1843   1855     1   111.5100476 526.347200
   1834   1830   1837     1   109.6600471 523.836800
   1834   1846   1852     1   111.5100476 526.347200
   1837   1840   1849     1   111.5100476 526.347200
   1840   1849   1858     1   107.9700462 569.024000
   1843   1855   3842     1   107.9700462 569.024000
   1846   1852   3810     1   107.9700462 569.024000
   1852   3810   3780     1   112.4800480 524.673600
   1855   3842   3812     1   112.4800480 524.673600
   1860   1861   1873     1   114.2100488 537.225600
   1860   1864   1876     1   114.2100488 537.225600
   1860   1867   1870     1   114.2100488 537.225600
   1861   1860   1864     1   109.6600471 523.836800
   1861   1860   1867     1   109.6600471 523.836800
   1861   1873   1885     1   111.5100476 526.347200
   1864   1860   1867     1   109.6600471 523.836800
   1864   1876   1882     1   111.5100476 526.347200
   1867   1870   1879     1   111.5100476 526.347200
   1870   1879   1888     1   107.9700462 569.024000
   1873   1885   3906     1   107.9700462 569.024000
   1876   1882   3874     1   107.9700462 569.024000
   1882   3874   3844     1   112.4800480 524.673600
   1885   3906   3876     1   112.4800480 524.673600
   1890   1891   1903     1   114.2100488 537.225600
   1890   1894   1906     1   114.2100488 537.225600
   1890   1897   1900     1   114.2100488 537.225600
   1891   1890   1894     1   109.6600471 523.836800
   1891   1890   1897     1   109.6600471 523.836800
   1891   1903   1915     1   111.5100476 526.347200
   1894   1890   1897     1   109.6600471 523.836800
   1894   1906   1912     1   111.5100476 526.347200
   1897   1900   1909     1   111.5100476 526.347200
   1900   1909   1918     1   107.9700462 569.024000
   1903   1915   3970     1   107.9700462 569.024000
   1906   1912   3938     1   107.9700462 569.024000
   1912   3938   3908     1   112.4800480 524.673600
   1915   3970   3940     1   112.4800480 524.673600
   1920   1921   1933     1   114.2100488 537.225600
   1920   1924   1936     1   114.2100488 537.225600
   1920   1927   1930     1   114.2100488 537.225600
   1921   1920   1924     1   109.6600471 523.836800
   1921   1920   1927     1   109.6600471 523.836800
   1921   1933   1945     1   111.5100476 526.347200
   1924   1920   1927     1   109.6600471 523.836800
   1924   1936   1942     1   111.5100476 526.347200
   1927   1930   1939     1   111.5100476 526.347200
   1930   1939   1948     1   107.9700462 569.024000
   1933   1945   4034     1   107.9700462 569.024000
   1936   1942   4002     1   107.9700462 569.024000
   1942   4002   3972     1   112.4800480 524.673600
   1945   4034   4004     1   112.4800480 524.673600
   1950   1951   1963     1   114.2100488 537.225600
   1950   1954   1966     1   114.2100488 537.225600
   1950   1957   1960     1   114.2100488 537.225600
   1951   1950   1954     1   109.6600471 523.836800
   1951   1950   1957     1   109.6600471 523.836800
   1951   1963   1975     1   111.5100476 526.347200
   1954   1950   1957     1   109.6600471 523.836800
   1954   1966   1972     1   111.5100476 526.347200
   1957   1960   1969     1   111.5100476 526.347200
   1960   1969   1978     1   107.9700462 569.024000
   1963   1975   4098     1   107.9700462 569.024000
   1966   1972   4066     1   107.9700462 569.024000
   1972   4066   4036     1   112.4800480 524.673600
   1975   4098   4068     1   112.4800480 524.673600
   1980   1981   1993     1   114.2100488 537.225600
   1980   1984   1996     1   114.2100488 537.225600
   1980   1987   1990     1   114.2100488 537.225600
   1981   1980   1984     1   109.6600471 523.836800
   1981   1980   1987     1   109.6600471 523.836800
   1981   1993   2005     1   111.5100476 526.347200
   1984   1980   1987     1   109.6600471 523.836800
   1984   1996   2002     1   111.5100476 526.347200
   1987   1990   1999     1   111.5100476 526.347200
   1990   1999   2008     1   107.9700462 569.024000
   1993   2005   4162     1   107.9700462 569.024000
   1996   2002   4130     1   107.9700462 569.024000
   2002   4130   4100     1   112.4800480 524.673600
   2005   4162   4132     1   112.4800480 524.673600
   2010   2011   2023     1   114.2100488 537.225600
   2010   2014   2026     1   114.2100488 537.225600
   2010   2017   2020     1   114.2100488 537.225600
   2011   2010   2014     1   109.6600471 523.836800
   2011   2010   2017     1   109.6600471 523.836800
   2011   2023   2035     1   111.5100476 526.347200
   2014   2010   2017     1   109.6600471 523.836800
   2014   2026   2032     1   111.5100476 526.347200
   2017   2020   2029     1   111.5100476 526.347200
   2020   2029   2038     1   107.9700462 569.024000
   2023   2035   4226     1   107.9700462 569.024000
   2026   2032   4194     1   107.9700462 569.024000
   2032   4194   4164     1   112.4800480 524.673600
   2035   4226   4196     1   112.4800480 524.673600
   2040   2041   2053     1   114.2100488 537.225600
   2040   2044   2056     1   114.2100488 537.225600
   2040   2047   2050     1   114.2100488 537.225600
   2041   2040   2044     1   109.6600471 523.836800
   2041   2040   2047     1   109.6600471 523.836800
   2041   2053   2065     1   111.5100476 526.347200
   2044   2040   2047     1   109.6600471 523.836800
   2044   2056   2062     1   111.5100476 526.347200
   2047   2050   2059     1   111.5100476 526.347200
   2050   2059   2068     1   107.9700462 569.024000
   2053   2065   4290     1   107.9700462 569.024000
   2056   2062   4258     1   107.9700462 569.024000
   2062   4258   4228     1   112.4800480 524.673600
   2065   4290   4260     1   112.4800480 524.673600
   2070   2071   2083     1   114.2100488 537.225600
   2070   2074   2086     1   114.2100488 537.225600
   2070   2077   2080     1   114.2100488 537.225600
   2071   2070   2074     1   109.6600471 523.836800
   2071   2070   2077     1   109.6600471 523.836800
   2071   2083   2095     1   111.5100476 526.347200
   2074   2070   2077     1   109.6600471 523.836800
   2074   2086   2092     1   111.5100476 526.347200
   2077   2080   2089     1   111.5100476 526.347200
   2080   2089   2098     1   107.9700462 569.024000
   2083   2095   4354     1   107.9700462 569.024000
   2086   2092   4322     1   107.9700462 569.024000
   2092   4322   4292     1   112.4800480 524.673600
   2095   4354   4324     1   112.4800480 524.673600
   2100   2101   2113     1   114.2100488 537.225600
   2100   2104   2116     1   114.2100488 537.225600
   2100   2107   2110     1   114.2100488 537.225600
   2101   2100   2104     1   109.6600471 523.836800
   2101   2100   2107     1   109.6600471 523.836800
   2101   2113   2125     1   111.5100476 526.347200
   2104   2100   2107     1   109.6600471 523.836800
   2104   2116   2122     1   111.5100476 526.347200
   2107   2110   2119     1   111.5100476 526.347200
   2110   2119   2128     1   107.9700462 569.024000
   2113   2125   4418     1   107.9700462 569.024000
   2116   2122   4386     1   107.9700462 569.024000
   2122   4386   4356     1   112.4800480 524.673600
   2125   4418   4388     1   112.4800480 524.673600
   2130   2131   2143     1   114.2100488 537.225600
   2130   2134   2146     1   114.2100488 537.225600
   2130   2137   2140     1   114.2100488 537.225600
   2131   2130   2134     1   109.6600471 523.836800
   2131   2130   2137     1   109.6600471 523.836800
   2131   2143   2155     1   111.5100476 526.347200
   2134   2130   2137     1   109.6600471 523.836800
   2134   2146   2152     1   111.5100476 526.347200
   2137   2140   2149     1   111.5100476 526.347200
   2140   2149   2158     1   107.9700462 569.024000
   2143   2155   4482     1   107.9700462 569.024000
   2146   2152   4450     1   107.9700462 569.024000
   2152   4450   4420     1   112.4800480 524.673600
   2155   4482   4452     1   112.4800480 524.673600
   2160   2161   2173     1   114.2100488 537.225600
   2160   2164   2176     1   114.2100488 537.225600
   2160   2167   2170     1   114.2100488 537.225600
   2161   2160   2164     1   109.6600471 523.836800
   2161   2160   2167     1   109.6600471 523.836800
   2161   2173   2185     1   111.5100476 526.347200
   2164   2160   2167     1   109.6600471 523.836800
   2164   2176   2182     1   111.5100476 526.347200
   2167   2170   2179     1   111.5100476 526.347200
   2170   2179   2188     1   107.9700462 569.024000
   2173   2185   4546     1   107.9700462 569.024000
   2176   2182   4514     1   107.9700462 569.024000
   2182   4514   4484     1   112.4800480 524.673600
   2185   4546   4516     1   112.4800480 524.673600
   2190   2191   2203     1   114.2100488 537.225600
   2190   2194   2206     1   114.2100488 537.225600
   2190   2197   2200     1   114.2100488 537.225600
   2191   2190   2194     1   109.6600471 523.836800
   2191   2190   2197     1   109.6600471 523.836800
   2191   2203   2215     1   111.5100476 526.347200
   2194   2190   2197     1   109.6600471 523.836800
   2194   2206   2212     1   111.5100476 526.347200
   2197   2200   2209     1   111.5100476 526.347200
   2200   2209   2218     1   107.9700462 569.024000
   2203   2215   4610     1   107.9700462 569.024000
   2206   2212   4578     1   107.9700462 569.024000
   2212   4578   4548     1   112.4800480 524.673600
   2215   4610   4580     1   112.4800480 524.673600
   2220   2221   2233     1   114.2100488 537.225600
   2220   2224   2236     1   114.2100488 537.225600
   2220   2227   2230     1   114.2100488 537.225600
   2221   2220   2224     1   109.6600471 523.836800
   2221   2220   2227     1   109.6600471 523.836800
   2221   2233   2245     1   111.5100476 526.347200
   2224   2220   2227     1   109.6600471 523.836800
   2224   2236   2242     1   111.5100476 526.347200
   2227   2230   2239     1   111.5100476 526.347200
   2230   2239   2248     1   107.9700462 569.024000
   2233   2245   4674     1   107.9700462 569.024000
   2236   2242   4642     1   107.9700462 569.024000
   2242   4642   4612     1   112.4800480 524.673600
   2245   4674   4644     1   112.4800480 524.673600
   2250   2251   2263     1   114.2100488 537.225600
   2250   2254   2266     1   114.2100488 537.225600
   2250   2257   2260     1   114.2100488 537.225600
   2251   2250   2254     1   109.6600471 523.836800
   2251   2250   2257     1   109.6600471 523.836800
   2251   2263   2275     1   111.5100476 526.347200
   2254   2250   2257     1   109.6600471 523.836800
   2254   2266   2272     1   111.5100476 526.347200
   2257   2260   2269     1   111.5100476 526.347200
   2260   2269   2278     1   107.9700462 569.024000
   2263   2275   4738     1   107.9700462 569.024000
   2266   2272   4706     1   107.9700462 569.024000
   2272   4706   4676     1   112.4800480 524.673600
   2275   4738   4708     1   112.4800480 524.673600
   2280   2281   2293     1   114.2100488 537.225600
   2280   2284   2296     1   114.2100488 537.225600
   2280   2287   2290     1   114.2100488 537.225600
   2281   2280   2284     1   109.6600471 523.836800
   2281   2280   2287     1   109.6600471 523.836800
   2281   2293   2305     1   111.5100476 526.347200
   2284   2280   2287     1   109.6600471 523.836800
   2284   2296   2302     1   111.5100476 526.347200
   2287   2290   2299     1   111.5100476 526.347200
   2290   2299   2308     1   107.9700462 569.024000
   2293   2305   4802     1   107.9700462 569.024000
   2296   2302   4770     1   107.9700462 569.024000
   2302   4770   4740     1   112.4800480 524.673600
   2305   4802   4772     1   112.4800480 524.673600
   2310   2311   2323     1   114.2100488 537.225600
   2310   2314   2326     1   114.2100488 537.225600
   2310   2317   2320     1   114.2100488 537.225600
   2311   2310   2314     1   109.6600471 523.836800
   2311   2310   2317     1   109.6600471 523.836800
   2311   2323   2335     1   111.5100476 526.347200
   2314   2310   2317     1   109.6600471 523.836800
   2314   2326   2332     1   111.5100476 526.347200
   2317   2320   2329     1   111.5100476 526.347200
   2320   2329   2338     1   107.9700462 569.024000
   2323   2335   4866     1   107.9700462 569.024000
   2326   2332   4834     1   107.9700462 569.024000
   2332   4834   4804     1   112.4800480 524.673600
   2335   4866   4836     1   112.4800480 524.673600
   2340   2341   2353     1   114.2100488 537.225600
   2340   2344   2356     1   114.2100488 537.225600
   2340   2347   2350     1   114.2100488 537.225600
   2341   2340   2344     1   109.6600471 523.836800
   2341   2340   2347     1   109.6600471 523.836800
   2341   2353   2365     1   111.5100476 526.347200
   2344   2340   2347     1   109.6600471 523.836800
   2344   2356   2362     1   111.5100476 526.347200
   2347   2350   2359     1   111.5100476 526.347200
   2350   2359   2368     1   107.9700462 569.024000
   2353   2365   4930     1   107.9700462 569.024000
   2356   2362   4898     1   107.9700462 569.024000
   2362   4898   4868     1   112.4800480 524.673600
   2365   4930   4900     1   112.4800480 524.673600
   2370   2371   2383     1   114.2100488 537.225600
   2370   2374   2386     1   114.2100488 537.225600
   2370   2377   2380     1   114.2100488 537.225600
   2371   2370   2374     1   109.6600471 523.836800
   2371   2370   2377     1   109.6600471 523.836800
   2371   2383   2395     1   111.5100476 526.347200
   2374   2370   2377     1   109.6600471 523.836800
   2374   2386   2392     1   111.5100476 526.347200
   2377   2380   2389     1   111.5100476 526.347200
   2380   2389   2398     1   107.9700462 569.024000
   2383   2395   4994     1   107.9700462 569.024000
   2386   2392   4962     1   107.9700462 569.024000
   2392   4962   4932     1   112.4800480 524.673600
   2395   4994   4964     1   112.4800480 524.673600
   2400   2401   2413     1   114.2100488 537.225600
   2400   2404   2416     1   114.2100488 537.225600
   2400   2407   2410     1   114.2100488 537.225600
   2401   2400   2404     1   109.6600471 523.836800
   2401   2400   2407     1   109.6600471 523.836800
   2401   2413   2425     1   111.5100476 526.347200
   2404   2400   2407     1   109.6600471 523.836800
   2404   2416   2422     1   111.5100476 526.347200
   2407   2410   2419     1   111.5100476 526.347200
   2410   2419   2428     1   107.9700462 569.024000
   2413   2425   5058     1   107.9700462 569.024000
   2416   2422   5026     1   107.9700462 569.024000
   2422   5026   4996     1   112.4800480 524.673600
   2425   5058   5028     1   112.4800480 524.673600
   2430   2431   2443     1   114.2100488 537.225600
   2430   2434   2446     1   114.2100488 537.225600
   2430   2437   2440     1   114.2100488 537.225600
   2431   2430   2434     1   109.6600471 523.836800
   2431   2430   2437     1   109.6600471 523.836800
   2431   2443   2455     1   111.5100476 526.347200
   2434   2430   2437     1   109.6600471 523.836800
   2434   2446   2452     1   111.5100476 526.347200
   2437   2440   2449     1   111.5100476 526.347200
   2440   2449   2458     1   107.9700462 569.024000
   2443   2455   5122     1   107.9700462 569.024000
   2446   2452   5090     1   107.9700462 569.024000
   2452   5090   5060     1   112.4800480 524.673600
   2455   5122   5092     1   112.4800480 524.673600
   2460   2461   2473     1   114.2100488 537.225600
   2460   2464   2476     1   114.2100488 537.225600
   2460   2467   2470     1   114.2100488 537.225600
   2461   2460   2464     1   109.6600471 523.836800
   2461   2460   2467     1   109.6600471 523.836800
   2461   2473   2485     1   111.5100476 526.347200
   2464   2460   2467     1   109.6600471 523.836800
   2464   2476   2482     1   111.5100476 526.347200
   2467   2470   2479     1   111.5100476 526.347200
   2470   2479   2488     1   107.9700462 569.024000
   2473   2485   5186     1   107.9700462 569.024000
   2476   2482   5154     1   107.9700462 569.024000
   2482   5154   5124     1   112.4800480 524.673600
   2485   5186   5156     1   112.4800480 524.673600
   2490   2491   2503     1   114.2100488 537.225600
   2490   2494   2506     1   114.2100488 537.225600
   2490   2497   2500     1   114.2100488 537.225600
   2491   2490   2494     1   109.6600471 523.836800
   2491   2490   2497     1   109.6600471 523.836800
   2491   2503   2515     1   111.5100476 526.347200
   2494   2490   2497     1   109.6600471 523.836800
   2494   2506   2512     1   111.5100476 526.347200
   2497   2500   2509     1   111.5100476 526.347200
   2500   2509   2518     1   107.9700462 569.024000
   2503   2515   5250     1   107.9700462 569.024000
   2506   2512   5218     1   107.9700462 569.024000
   2512   5218   5188     1   112.4800480 524.673600
   2515   5250   5220     1   112.4800480 524.673600
   2520   2521   2533     1   114.2100488 537.225600
   2520   2524   2536     1   114.2100488 537.225600
   2520   2527   2530     1   114.2100488 537.225600
   2521   2520   2524     1   109.6600471 523.836800
   2521   2520   2527     1   109.6600471 523.836800
   2521   2533   2545     1   111.5100476 526.347200
   2524   2520   2527     1   109.6600471 523.836800
   2524   2536   2542     1   111.5100476 526.347200
   2527   2530   2539     1   111.5100476 526.347200
   2530   2539   2548     1   107.9700462 569.024000
   2533   2545   5314     1   107.9700462 569.024000
   2536   2542   5282     1   107.9700462 569.024000
   2542   5282   5252     1   112.4800480 524.673600
   2545   5314   5284     1   112.4800480 524.673600
   2550   2551   2563     1   114.2100488 537.225600
   2550   2554   2566     1   114.2100488 537.225600
   2550   2557   2560     1   114.2100488 537.225600
   2551   2550   2554     1   109.6600471 523.836800
   2551   2550   2557     1   109.6600471 523.836800
   2551   2563   2575     1   111.5100476 526.347200
   2554   2550   2557     1   109.6600471 523.836800
   2554   2566   2572     1   111.5100476 526.347200
   2557   2560   2569     1   111.5100476 526.347200
   2560   2569   2578     1   107.9700462 569.024000
   2563   2575   5378     1   107.9700462 569.024000
   2566   2572   5346     1   107.9700462 569.024000
   2572   5346   5316     1   112.4800480 524.673600
   2575   5378   5348     1   112.4800480 524.673600
   2580   2581   2593     1   114.2100488 537.225600
   2580   2584   2596     1   114.2100488 537.225600
   2580   2587   2590     1   114.2100488 537.225600
   2581   2580   2584     1   109.6600471 523.836800
   2581   2580   2587     1   109.6600471 523.836800
   2581   2593   2605     1   111.5100476 526.347200
   2584   2580   2587     1   109.6600471 523.836800
   2584   2596   2602     1   111.5100476 526.347200
   2587   2590   2599     1   111.5100476 526.347200
   2590   2599   2608     1   107.9700462 569.024000
   2593   2605   5442     1   107.9700462 569.024000
   2596   2602   5410     1   107.9700462 569.024000
   2602   5410   5380     1   112.4800480 524.673600
   2605   5442   5412     1   112.4800480 524.673600
   2610   2611   2623     1   114.2100488 537.225600
   2610   2614   2626     1   114.2100488 537.225600
   2610   2617   2620     1   114.2100488 537.225600
   2611   2610   2614     1   109.6600471 523.836800
   2611   2610   2617     1   109.6600471 523.836800
   2611   2623   2635     1   111.5100476 526.347200
   2614   2610   2617     1   109.6600471 523.836800
   2614   2626   2632     1   111.5100476 526.347200
   2617   2620   2629     1   111.5100476 526.347200
   2620   2629   2638     1   107.9700462 569.024000
   2623   2635   5506     1   107.9700462 569.024000
   2626   2632   5474     1   107.9700462 569.024000
   2632   5474   5444     1   112.4800480 524.673600
   2635   5506   5476     1   112.4800480 524.673600
   2640   2641   2653     1   114.2100488 537.225600
   2640   2644   2656     1   114.2100488 537.225600
   2640   2647   2650     1   114.2100488 537.225600
   2641   2640   2644     1   109.6600471 523.836800
   2641   2640   2647     1   109.6600471 523.836800
   2641   2653   2665     1   111.5100476 526.347200
   2644   2640   2647     1   109.6600471 523.836800
   2644   2656   2662     1   111.5100476 526.347200
   2647   2650   2659     1   111.5100476 526.347200
   2650   2659   2668     1   107.9700462 569.024000
   2653   2665   5570     1   107.9700462 569.024000
   2656   2662   5538     1   107.9700462 569.024000
   2662   5538   5508     1   112.4800480 524.673600
   2665   5570   5540     1   112.4800480 524.673600
   2670   2671   2683     1   114.2100488 537.225600
   2670   2674   2686     1   114.2100488 537.225600
   2670   2677   2680     1   114.2100488 537.225600
   2671   2670   2674     1   109.6600471 523.836800
   2671   2670   2677     1   109.6600471 523.836800
   2671   2683   2695     1   111.5100476 526.347200
   2674   2670   2677     1   109.6600471 523.836800
   2674   2686   2692     1   111.5100476 526.347200
   2677   2680   2689     1   111.5100476 526.347200
   2680   2689   2698     1   107.9700462 569.024000
   2683   2695   5634     1   107.9700462 569.024000
   2686   2692   5602     1   107.9700462 569.024000
   2692   5602   5572     1   112.4800480 524.673600
   2695   5634   5604     1   112.4800480 524.673600
   2700   2701   2713     1   114.2100488 537.225600
   2700   2704   2716     1   114.2100488 537.225600
   2700   2707   2710     1   114.2100488 537.225600
   2701   2700   2704     1   109.6600471 523.836800
   2701   2700   2707     1   109.6600471 523.836800
   2701   2713   2725     1   111.5100476 526.347200
   2704   2700   2707     1   109.6600471 523.836800
   2704   2716   2722     1   111.5100476 526.347200
   2707   2710   2719     1   111.5100476 526.347200
   2710   2719   2728     1   107.9700462 569.024000
   2713   2725   5698     1   107.9700462 569.024000
   2716   2722   5666     1   107.9700462 569.024000
   2722   5666   5636     1   112.4800480 524.673600
   2725   5698   5668     1   112.4800480 524.673600
   2730   2731   2743     1   114.2100488 537.225600
   2730   2734   2746     1   114.2100488 537.225600
   2730   2737   2740     1   114.2100488 537.225600
   2731   2730   2734     1   109.6600471 523.836800
   2731   2730   2737     1   109.6600471 523.836800
   2731   2743   2755     1   111.5100476 526.347200
   2734   2730   2737     1   109.6600471 523.836800
   2734   2746   2752     1   111.5100476 526.347200
   2737   2740   2749     1   111.5100476 526.347200
   2740   2749   2758     1   107.9700462 569.024000
   2743   2755   5762     1   107.9700462 569.024000
   2746   2752   5730     1   107.9700462 569.024000
   2752   5730   5700     1   112.4800480 524.673600
   2755   5762   5732     1   112.4800480 524.673600
   2760   2761   2773     1   114.2100488 537.225600
   2760   2764   2776     1   114.2100488 537.225600
   2760   2767   2770     1   114.2100488 537.225600
   2761   2760   2764     1   109.6600471 523.836800
   2761   2760   2767     1   109.6600471 523.836800
   2761   2773   2785     1   111.5100476 526.347200
   2764   2760   2767     1   109.6600471 523.836800
   2764   2776   2782     1   111.5100476 526.347200
   2767   2770   2779     1   111.5100476 526.347200
   2770   2779   2788     1   107.9700462 569.024000
   2773   2785   5826     1   107.9700462 569.024000
   2776   2782   5794     1   107.9700462 569.024000
   2782   5794   5764     1   112.4800480 524.673600
   2785   5826   5796     1   112.4800480 524.673600
   2790   2791   2803     1   114.2100488 537.225600
   2790   2794   2806     1   114.2100488 537.225600
   2790   2797   2800     1   114.2100488 537.225600
   2791   2790   2794     1   109.6600471 523.836800
   2791   2790   2797     1   109.6600471 523.836800
   2791   2803   2815     1   111.5100476 526.347200
   2794   2790   2797     1   109.6600471 523.836800
   2794   2806   2812     1   111.5100476 526.347200
   2797   2800   2809     1   111.5100476 526.347200
   2800   2809   2818     1   107.9700462 569.024000
   2803   2815   5890     1   107.9700462 569.024000
   2806   2812   5858     1   107.9700462 569.024000
   2812   5858   5828     1   112.4800480 524.673600
   2815   5890   5860     1   112.4800480 524.673600
   2820   2823   2826     1   111.5100476 526.347200
   2823   2820   2850     1   107.9700462 569.024000
   2823   2826   2829     1   114.2100488 537.225600
   2826   2829   2830     1   109.6600471 523.836800
   2826   2829   2840     1   109.6600471 523.836800
   2829   2830   2833     1   114.2100488 537.225600
   2829   2840   2843     1   114.2100488 537.225600
   2830   2829   2840     1   109.6600471 523.836800
   2830   2833   2836     1   111.0400475 529.694400
   2833   2836   2837     1   123.2000528 564.003200
   2833   2836   2838     1   112.7300484 572.371200
   2837   2836   2838     1   122.1000523 635.131200
   2840   2843   2846     1   111.0400475 529.694400
   2843   2846   2847     1   123.2000528 564.003200
   2843   2846   2848     1   112.7300484 572.371200
   2847   2846   2848     1   122.1000523 635.131200
   2852   2855   2858     1   111.5100476 526.347200
   2855   2858   2861     1   114.2100488 537.225600
   2855   2852   2882     1   107.9700462 569.024000
   2858   2861   2862     1   109.6600471 523.836800
   2858   2861   2872     1   109.6600471 523.836800
   2861   2862   2865     1   114.2100488 537.225600
   2861   2872   2875     1   114.2100488 537.225600
   2862   2865   2868     1   111.0400475 529.694400
   2862   2861   2872     1   109.6600471 523.836800
   2865   2868   2869     1   123.2000528 564.003200
   2865   2868   2870     1   112.7300484 572.371200
   2869   2868   2870     1   122.1000523 635.131200
   2872   2875   2878     1   111.0400475 529.694400
   2875   2878   2879     1   123.2000528 564.003200
   2875   2878   2880     1   112.7300484 572.371200
   2879   2878   2880     1   122.1000523 635.131200
   2884   2887   2890     1   111.5100476 526.347200
   2887   2884   2914     1   107.9700462 569.024000
   2887   2890   2893     1   114.2100488 537.225600
   2890   2893   2894     1   109.6600471 523.836800
   2890   2893   2904     1   109.6600471 523.836800
   2893   2894   2897     1   114.2100488 537.225600
   2893   2904   2907     1   114.2100488 537.225600
   2894   2893   2904     1   109.6600471 523.836800
   2894   2897   2900     1   111.0400475 529.694400
   2897   2900   2901     1   123.2000528 564.003200
   2897   2900   2902     1   112.7300484 572.371200
   2901   2900   2902     1   122.1000523 635.131200
   2904   2907   2910     1   111.0400475 529.694400
   2907   2910   2911     1   123.2000528 564.003200
   2907   2910   2912     1   112.7300484 572.371200
   2911   2910   2912     1   122.1000523 635.131200
   2916   2919   2922     1   111.5100476 526.347200
   2919   2922   2925     1   114.2100488 537.225600
   2919   2916   2946     1   107.9700462 569.024000
   2922   2925   2926     1   109.6600471 523.836800
   2922   2925   2936     1   109.6600471 523.836800
   2925   2926   2929     1   114.2100488 537.225600
   2925   2936   2939     1   114.2100488 537.225600
   2926   2929   2932     1   111.0400475 529.694400
   2926   2925   2936     1   109.6600471 523.836800
   2929   2932   2933     1   123.2000528 564.003200
   2929   2932   2934     1   112.7300484 572.371200
   2933   2932   2934     1   122.1000523 635.131200
   2936   2939   2942     1   111.0400475 529.694400
   2939   2942   2943     1   123.2000528 564.003200
   2939   2942   2944     1   112.7300484 572.371200
   2943   2942   2944     1   122.1000523 635.131200
   2948   2951   2954     1   111.5100476 526.347200
   2951   2948   2978     1   107.9700462 569.024000
   2951   2954   2957     1   114.2100488 537.225600
   2954   2957   2958     1   109.6600471 523.836800
   2954   2957   2968     1   109.6600471 523.836800
   2957   2958   2961     1   114.2100488 537.225600
   2957   2968   2971     1   114.2100488 537.225600
   2958   2957   2968     1   109.6600471 523.836800
   2958   2961   2964     1   111.0400475 529.694400
   2961   2964   2965     1   123.2000528 564.003200
   2961   2964   2966     1   112.7300484 572.371200
   2965   2964   2966     1   122.1000523 635.131200
   2968   2971   2974     1   111.0400475 529.694400
   2971   2974   2975     1   123.2000528 564.003200
   2971   2974   2976     1   112.7300484 572.371200
   2975   2974   2976     1   122.1000523 635.131200
   2980   2983   2986     1   111.5100476 526.347200
   2983   2986   2989     1   114.2100488 537.225600
   2983   2980   3010     1   107.9700462 569.024000
   2986   2989   2990     1   109.6600471 523.836800
   2986   2989   3000     1   109.6600471 523.836800
   2989   2990   2993     1   114.2100488 537.225600
   2989   3000   3003     1   114.2100488 537.225600
   2990   2993   2996     1   111.0400475 529.694400
   2990   2989   3000     1   109.6600471 523.836800
   2993   2996   2997     1   123.2000528 564.003200
   2993   2996   2998     1   112.7300484 572.371200
   2997   2996   2998     1   122.1000523 635.131200
   3000   3003   3006     1   111.0400475 529.694400
   3003   3006   3007     1   123.2000528 564.003200
   3003   3006   3008     1   112.7300484 572.371200
   3007   3006   3008     1   122.1000523 635.131200
   3012   3015   3018     1   111.5100476 526.347200
   3015   3012   3042     1   107.9700462 569.024000
   3015   3018   3021     1   114.2100488 537.225600
   3018   3021   3022     1   109.6600471 523.836800
   3018   3021   3032     1   109.6600471 523.836800
   3021   3022   3025     1   114.2100488 537.225600
   3021   3032   3035     1   114.2100488 537.225600
   3022   3021   3032     1   109.6600471 523.836800
   3022   3025   3028     1   111.0400475 529.694400
   3025   3028   3029     1   123.2000528 564.003200
   3025   3028   3030     1   112.7300484 572.371200
   3029   3028   3030     1   122.1000523 635.131200
   3032   3035   3038     1   111.0400475 529.694400
   3035   3038   3039     1   123.2000528 564.003200
   3035   3038   3040     1   112.7300484 572.371200
   3039   3038   3040     1   122.1000523 635.131200
   3044   3047   3050     1   111.5100476 526.347200
   3047   3050   3053     1   114.2100488 537.225600
   3047   3044   3074     1   107.9700462 569.024000
   3050   3053   3054     1   109.6600471 523.836800
   3050   3053   3064     1   109.6600471 523.836800
   3053   3054   3057     1   114.2100488 537.225600
   3053   3064   3067     1   114.2100488 537.225600
   3054   3057   3060     1   111.0400475 529.694400
   3054   3053   3064     1   109.6600471 523.836800
   3057   3060   3061     1   123.2000528 564.003200
   3057   3060   3062     1   112.7300484 572.371200
   3061   3060   3062     1   122.1000523 635.131200
   3064   3067   3070     1   111.0400475 529.694400
   3067   3070   3071     1   123.2000528 564.003200
   3067   3070   3072     1   112.7300484 572.371200
   3071   3070   3072     1   122.1000523 635.131200
   3076   3079   3082     1   111.5100476 526.347200
   3079   3076   3106     1   107.9700462 569.024000
   3079   3082   3085     1   114.2100488 537.225600
   3082   3085   3086     1   109.6600471 523.836800
   3082   3085   3096     1   109.6600471 523.836800
   3085   3086   3089     1   114.2100488 537.225600
   3085   3096   3099     1   114.2100488 537.225600
   3086   3085   3096     1   109.6600471 523.836800
   3086   3089   3092     1   111.0400475 529.694400
   3089   3092   3093     1   123.2000528 564.003200
   3089   3092   3094     1   112.7300484 572.371200
   3093   3092   3094     1   122.1000523 635.131200
   3096   3099   3102     1   111.0400475 529.694400
   3099   3102   3103     1   123.2000528 564.003200
   3099   3102   3104     1   112.7300484 572.371200
   3103   3102   3104     1   122.1000523 635.131200
   3108   3111   3114     1   111.5100476 526.347200
   3111   3114   3117     1   114.2100488 537.225600
   3111   3108   3138     1   107.9700462 569.024000
   3114   3117   3118     1   109.6600471 523.836800
   3114   3117   3128     1   109.6600471 523.836800
   3117   3118   3121     1   114.2100488 537.225600
   3117   3128   3131     1   114.2100488 537.225600
   3118   3121   3124     1   111.0400475 529.694400
   3118   3117   3128     1   109.6600471 523.836800
   3121   3124   3125     1   123.2000528 564.003200
   3121   3124   3126     1   112.7300484 572.371200
   3125   3124   3126     1   122.1000523 635.131200
   3128   3131   3134     1   111.0400475 529.694400
   3131   3134   3135     1   123.2000528 564.003200
   3131   3134   3136     1   112.7300484 572.371200
   3135   3134   3136     1   122.1000523 635.131200
   3140   3143   3146     1   111.5100476 526.347200
   3143   3140   3170     1   107.9700462 569.024000
   3143   3146   3149     1   114.2100488 537.225600
   3146   3149   3150     1   109.6600471 523.836800
   3146   3149   3160     1   109.6600471 523.836800
   3149   3150   3153     1   114.2100488 537.225600
   3149   3160   3163     1   114.2100488 537.225600
   3150   3149   3160     1   109.6600471 523.836800
   3150   3153   3156     1   111.0400475 529.694400
   3153   3156   3157     1   123.2000528 564.003200
   3153   3156   3158     1   112.7300484 572.371200
   3157   3156   3158     1   122.1000523 635.131200
   3160   3163   3166     1   111.0400475 529.694400
   3163   3166   3167     1   123.2000528 564.003200
   3163   3166   3168     1   112.7300484 572.371200
   3167   3166   3168     1   122.1000523 635.131200
   3172   3175   3178     1   111.5100476 526.347200
   3175   3178   3181     1   114.2100488 537.225600
   3175   3172   3202     1   107.9700462 569.024000
   3178   3181   3182     1   109.6600471 523.836800
   3178   3181   3192     1   109.6600471 523.836800
   3181   3182   3185     1   114.2100488 537.225600
   3181   3192   3195     1   114.2100488 537.225600
   3182   3185   3188     1   111.0400475 529.694400
   3182   3181   3192     1   109.6600471 523.836800
   3185   3188   3189     1   123.2000528 564.003200
   3185   3188   3190     1   112.7300484 572.371200
   3189   3188   3190     1   122.1000523 635.131200
   3192   3195   3198     1   111.0400475 529.694400
   3195   3198   3199     1   123.2000528 564.003200
   3195   3198   3200     1   112.7300484 572.371200
   3199   3198   3200     1   122.1000523 635.131200
   3204   3207   3210     1   111.5100476 526.347200
   3207   3204   3234     1   107.9700462 569.024000
   3207   3210   3213     1   114.2100488 537.225600
   3210   3213   3214     1   109.6600471 523.836800
   3210   3213   3224     1   109.6600471 523.836800
   3213   3214   3217     1   114.2100488 537.225600
   3213   3224   3227     1   114.2100488 537.225600
   3214   3213   3224     1   109.6600471 523.836800
   3214   3217   3220     1   111.0400475 529.694400
   3217   3220   3221     1   123.2000528 564.003200
   3217   3220   3222     1   112.7300484 572.371200
   3221   3220   3222     1   122.1000523 635.131200
   3224   3227   3230     1   111.0400475 529.694400
   3227   3230   3231     1   123.2000528 564.003200
   3227   3230   3232     1   112.7300484 572.371200
   3231   3230   3232     1   122.1000523 635.131200
   3236   3239   3242     1   111.5100476 526.347200
   3239   3242   3245     1   114.2100488 537.225600
   3239   3236   3266     1   107.9700462 569.024000
   3242   3245   3246     1   109.6600471 523.836800
   3242   3245   3256     1   109.6600471 523.836800
   3245   3246   3249     1   114.2100488 537.225600
   3245   3256   3259     1   114.2100488 537.225600
   3246   3249   3252     1   111.0400475 529.694400
   3246   3245   3256     1   109.6600471 523.836800
   3249   3252   3253     1   123.2000528 564.003200
   3249   3252   3254     1   112.7300484 572.371200
   3253   3252   3254     1   122.1000523 635.131200
   3256   3259   3262     1   111.0400475 529.694400
   3259   3262   3263     1   123.2000528 564.003200
   3259   3262   3264     1   112.7300484 572.371200
   3263   3262   3264     1   122.1000523 635.131200
   3268   3271   3274     1   111.5100476 526.347200
   3271   3268   3298     1   107.9700462 569.024000
   3271   3274   3277     1   114.2100488 537.225600
   3274   3277   3278     1   109.6600471 523.836800
   3274   3277   3288     1   109.6600471 523.836800
   3277   3278   3281     1   114.2100488 537.225600
   3277   3288   3291     1   114.2100488 537.225600
   3278   3277   3288     1   109.6600471 523.836800
   3278   3281   3284     1   111.0400475 529.694400
   3281   3284   3285     1   123.2000528 564.003200
   3281   3284   3286     1   112.7300484 572.371200
   3285   3284   3286     1   122.1000523 635.131200
   3288   3291   3294     1   111.0400475 529.694400
   3291   3294   3295     1   123.2000528 564.003200
   3291   3294   3296     1   112.7300484 572.371200
   3295   3294   3296     1   122.1000523 635.131200
   3300   3303   3306     1   111.5100476 526.347200
   3303   3306   3309     1   114.2100488 537.225600
   3303   3300   3330     1   107.9700462 569.024000
   3306   3309   3310     1   109.6600471 523.836800
   3306   3309   3320     1   109.6600471 523.836800
   3309   3310   3313     1   114.2100488 537.225600
   3309   3320   3323     1   114.2100488 537.225600
   3310   3313   3316     1   111.0400475 529.694400
   3310   3309   3320     1   109.6600471 523.836800
   3313   3316   3317     1   123.2000528 564.003200
   3313   3316   3318     1   112.7300484 572.371200
   3317   3316   3318     1   122.1000523 635.131200
   3320   3323   3326     1   111.0400475 529.694400
   3323   3326   3327     1   123.2000528 564.003200
   3323   3326   3328     1   112.7300484 572.371200
   3327   3326   3328     1   122.1000523 635.131200
   3332   3335   3338     1   111.5100476 526.347200
   3335   3332   3362     1   107.9700462 569.024000
   3335   3338   3341     1   114.2100488 537.225600
   3338   3341   3342     1   109.6600471 523.836800
   3338   3341   3352     1   109.6600471 523.836800
   3341   3342   3345     1   114.2100488 537.225600
   3341   3352   3355     1   114.2100488 537.225600
   3342   3341   3352     1   109.6600471 523.836800
   3342   3345   3348     1   111.0400475 529.694400
   3345   3348   3349     1   123.2000528 564.003200
   3345   3348   3350     1   112.7300484 572.371200
   3349   3348   3350     1   122.1000523 635.131200
   3352   3355   3358     1   111.0400475 529.694400
   3355   3358   3359     1   123.2000528 564.003200
   3355   3358   3360     1   112.7300484 572.371200
   3359   3358   3360     1   122.1000523 635.131200
   3364   3367   3370     1   111.5100476 526.347200
   3367   3370   3373     1   114.2100488 537.225600
   3367   3364   3394     1   107.9700462 569.024000
   3370   3373   3374     1   109.6600471 523.836800
   3370   3373   3384     1   109.6600471 523.836800
   3373   3374   3377     1   114.2100488 537.225600
   3373   3384   3387     1   114.2100488 537.225600
   3374   3377   3380     1   111.0400475 529.694400
   3374   3373   3384     1   109.6600471 523.836800
   3377   3380   3381     1   123.2000528 564.003200
   3377   3380   3382     1   112.7300484 572.371200
   3381   3380   3382     1   122.1000523 635.131200
   3384   3387   3390     1   111.0400475 529.694400
   3387   3390   3391     1   123.2000528 564.003200
   3387   3390   3392     1   112.7300484 572.371200
   3391   3390   3392     1   122.1000523 635.131200
   3396   3399   3402     1   111.5100476 526.347200
   3399   3396   3426     1   107.9700462 569.024000
   3399   3402   3405     1   114.2100488 537.225600
   3402   3405   3406     1   109.6600471 523.836800
   3402   3405   3416     1   109.6600471 523.836800
   3405   3406   3409     1   114.2100488 537.225600
   3405   3416   3419     1   114.2100488 537.225600
   3406   3405   3416     1   109.6600471 523.836800
   3406   3409   3412     1   111.0400475 529.694400
   3409   3412   3413     1   123.2000528 564.003200
   3409   3412   3414     1   112.7300484 572.371200
   3413   3412   3414     1   122.1000523 635.131200
   3416   3419   3422     1   111.0400475 529.694400
   3419   3422   3423     1   123.2000528 564.003200
   3419   3422   3424     1   112.7300484 572.371200
   3423   3422   3424     1   122.1000523 635.131200
   3428   3431   3434     1   111.5100476 526.347200
   3431   3434   3437     1   114.2100488 537.225600
   3431   3428   3458     1   107.9700462 569.024000
   3434   3437   3438     1   109.6600471 523.836800
   3434   3437   3448     1   109.6600471 523.836800
   3437   3438   3441     1   114.2100488 537.225600
   3437   3448   3451     1   114.2100488 537.225600
   3438   3441   3444     1   111.0400475 529.694400
   3438   3437   3448     1   109.6600471 523.836800
   3441   3444   3445     1   123.2000528 564.003200
   3441   3444   3446     1   112.7300484 572.371200
   3445   3444   3446     1   122.1000523 635.131200
   3448   3451   3454     1   111.0400475 529.694400
   3451   3454   3455     1   123.2000528 564.003200
   3451   3454   3456     1   112.7300484 572.371200
   3455   3454   3456     1   122.1000523 635.131200
   3460   3463   3466     1   111.5100476 526.347200
   3463   3460   3490     1   107.9700462 569.024000
   3463   3466   3469     1   114.2100488 537.225600
   3466   3469   3470     1   109.6600471 523.836800
   3466   3469   3480     1   109.6600471 523.836800
   3469   3470   3473     1   114.2100488 537.225600
   3469   3480   3483     1   114.2100488 537.225600
   3470   3469   3480     1   109.6600471 523.836800
   3470   3473   3476     1   111.0400475 529.694400
   3473   3476   3477     1   123.2000528 564.003200
   3473   3476   3478     1   112.7300484 572.371200
   3477   3476   3478     1   122.1000523 635.131200
   3480   3483   3486     1   111.0400475 529.694400
   3483   3486   3487     1   123.2000528 564.003200
   3483   3486   3488     1   112.7300484 572.371200
   3487   3486   3488     1   122.1000523 635.131200
   3492   3495   3498     1   111.5100476 526.347200
   3495   3498   3501     1   114.2100488 537.225600
   3495   3492   3522     1   107.9700462 569.024000
   3498   3501   3502     1   109.6600471 523.836800
   3498   3501   3512     1   109.6600471 523.836800
   3501   3502   3505     1   114.2100488 537.225600
   3501   3512   3515     1   114.2100488 537.225600
   3502   3505   3508     1   111.0400475 529.694400
   3502   3501   3512     1   109.6600471 523.836800
   3505   3508   3509     1   123.2000528 564.003200
   3505   3508   3510     1   112.7300484 572.371200
   3509   3508   3510     1   122.1000523 635.131200
   3512   3515   3518     1   111.0400475 529.694400
   3515   3518   3519     1   123.2000528 564.003200
   3515   3518   3520     1   112.7300484 572.371200
   3519   3518   3520     1   122.1000523 635.131200
   3524   3527   3530     1   111.5100476 526.347200
   3527   3524   3554     1   107.9700462 569.024000
   3527   3530   3533     1   114.2100488 537.225600
   3530   3533   3534     1   109.6600471 523.836800
   3530   3533   3544     1   109.6600471 523.836800
   3533   3534   3537     1   114.2100488 537.225600
   3533   3544   3547     1   114.2100488 537.225600
   3534   3533   3544     1   109.6600471 523.836800
   3534   3537   3540     1   111.0400475 529.694400
   3537   3540   3541     1   123.2000528 564.003200
   3537   3540   3542     1   112.7300484 572.371200
   3541   3540   3542     1   122.1000523 635.131200
   3544   3547   3550     1   111.0400475 529.694400
   3547   3550   3551     1   123.2000528 564.003200
   3547   3550   3552     1   112.7300484 572.371200
   3551   3550   3552     1   122.1000523 635.131200
   3556   3559   3562     1   111.5100476 526.347200
   3559   3562   3565     1   114.2100488 537.225600
   3559   3556   3586     1   107.9700462 569.024000
   3562   3565   3566     1   109.6600471 523.836800
   3562   3565   3576     1   109.6600471 523.836800
   3565   3566   3569     1   114.2100488 537.225600
   3565   3576   3579     1   114.2100488 537.225600
   3566   3569   3572     1   111.0400475 529.694400
   3566   3565   3576     1   109.6600471 523.836800
   3569   3572   3573     1   123.2000528 564.003200
   3569   3572   3574     1   112.7300484 572.371200
   3573   3572   3574     1   122.1000523 635.131200
   3576   3579   3582     1   111.0400475 529.694400
   3579   3582   3583     1   123.2000528 564.003200
   3579   3582   3584     1   112.7300484 572.371200
   3583   3582   3584     1   122.1000523 635.131200
   3588   3591   3594     1   111.5100476 526.347200
   3591   3588   3618     1   107.9700462 569.024000
   3591   3594   3597     1   114.2100488 537.225600
   3594   3597   3598     1   109.6600471 523.836800
   3594   3597   3608     1   109.6600471 523.836800
   3597   3598   3601     1   114.2100488 537.225600
   3597   3608   3611     1   114.2100488 537.225600
   3598   3597   3608     1   109.6600471 523.836800
   3598   3601   3604     1   111.0400475 529.694400
   3601   3604   3605     1   123.2000528 564.003200
   3601   3604   3606     1   112.7300484 572.371200
   3605   3604   3606     1   122.1000523 635.131200
   3608   3611   3614     1   111.0400475 529.694400
   3611   3614   3615     1   123.2000528 564.003200
   3611   3614   3616     1   112.7300484 572.371200
   3615   3614   3616     1   122.1000523 635.131200
   3620   3623   3626     1   111.5100476 526.347200
   3623   3626   3629     1   114.2100488 537.225600
   3623   3620   3650     1   107.9700462 569.024000
   3626   3629   3630     1   109.6600471 523.836800
   3626   3629   3640     1   109.6600471 523.836800
   3629   3630   3633     1   114.2100488 537.225600
   3629   3640   3643     1   114.2100488 537.225600
   3630   3633   3636     1   111.0400475 529.694400
   3630   3629   3640     1   109.6600471 523.836800
   3633   3636   3637     1   123.2000528 564.003200
   3633   3636   3638     1   112.7300484 572.371200
   3637   3636   3638     1   122.1000523 635.131200
   3640   3643   3646     1   111.0400475 529.694400
   3643   3646   3647     1   123.2000528 564.003200
   3643   3646   3648     1   112.7300484 572.371200
   3647   3646   3648     1   122.1000523 635.131200
   3652   3655   3658     1   111.5100476 526.347200
   3655   3652   3682     1   107.9700462 569.024000
   3655   3658   3661     1   114.2100488 537.225600
   3658   3661   3662     1   109.6600471 523.836800
   3658   3661   3672     1   109.6600471 523.836800
   3661   3662   3665     1   114.2100488 537.225600
   3661   3672   3675     1   114.2100488 537.225600
   3662   3661   3672     1   109.6600471 523.836800
   3662   3665   3668     1   111.0400475 529.694400
   3665   3668   3669     1   123.2000528 564.003200
   3665   3668   3670     1   112.7300484 572.371200
   3669   3668   3670     1   122.1000523 635.131200
   3672   3675   3678     1   111.0400475 529.694400
   3675   3678   3679     1   123.2000528 564.003200
   3675   3678   3680     1   112.7300484 572.371200
   3679   3678   3680     1   122.1000523 635.131200
   3684   3687   3690     1   111.5100476 526.347200
   3687   3690   3693     1   114.2100488 537.225600
   3687   3684   3714     1   107.9700462 569.024000
   3690   3693   3694     1   109.6600471 523.836800
   3690   3693   3704     1   109.6600471 523.836800
   3693   3694   3697     1   114.2100488 537.225600
   3693   3704   3707     1   114.2100488 537.225600
   3694   3697   3700     1   111.0400475 529.694400
   3694   3693   3704     1   109.6600471 523.836800
   3697   3700   3701     1   123.2000528 564.003200
   3697   3700   3702     1   112.7300484 572.371200
   3701   3700   3702     1   122.1000523 635.131200
   3704   3707   3710     1   111.0400475 529.694400
   3707   3710   3711     1   123.2000528 564.003200
   3707   3710   3712     1   112.7300484 572.371200
   3711   3710   3712     1   122.1000523 635.131200
   3716   3719   3722     1   111.5100476 526.347200
   3719   3716   3746     1   107.9700462 569.024000
   3719   3722   3725     1   114.2100488 537.225600
   3722   3725   3726     1   109.6600471 523.836800
   3722   3725   3736     1   109.6600471 523.836800
   3725   3726   3729     1   114.2100488 537.225600
   3725   3736   3739     1   114.2100488 537.225600
   3726   3725   3736     1   109.6600471 523.836800
   3726   3729   3732     1   111.0400475 529.694400
   3729   3732   3733     1   123.2000528 564.003200
   3729   3732   3734     1   112.7300484 572.371200
   3733   3732   3734     1   122.1000523 635.131200
   3736   3739   3742     1   111.0400475 529.694400
   3739   3742   3743     1   123.2000528 564.003200
   3739   3742   3744     1   112.7300484 572.371200
   3743   3742   3744     1   122.1000523 635.131200
   3748   3751   3754     1   111.5100476 526.347200
   3751   3754   3757     1   114.2100488 537.225600
   3751   3748   3778     1   107.9700462 569.024000
   3754   3757   3758     1   109.6600471 523.836800
   3754   3757   3768     1   109.6600471 523.836800
   3757   3758   3761     1   114.2100488 537.225600
   3757   3768   3771     1   114.2100488 537.225600
   3758   3761   3764     1   111.0400475 529.694400
   3758   3757   3768     1   109.6600471 523.836800
   3761   3764   3765     1   123.2000528 564.003200
   3761   3764   3766     1   112.7300484 572.371200
   3765   3764   3766     1   122.1000523 635.131200
   3768   3771   3774     1   111.0400475 529.694400
   3771   3774   3775     1   123.2000528 564.003200
   3771   3774   3776     1   112.7300484 572.371200
   3775   3774   3776     1   122.1000523 635.131200
   3780   3783   3786     1   111.5100476 526.347200
   3783   3780   3810     1   107.9700462 569.024000
   3783   3786   3789     1   114.2100488 537.225600
   3786   3789   3790     1   109.6600471 523.836800
   3786   3789   3800     1   109.6600471 523.836800
   3789   3790   3793     1   114.2100488 537.225600
   3789   3800   3803     1   114.2100488 537.225600
   3790   3789   3800     1   109.6600471 523.836800
   3790   3793   3796     1   111.0400475 529.694400
   3793   3796   3797     1   123.2000528 564.003200
   3793   3796   3798     1   112.7300484 572.371200
   3797   3796   3798     1   122.1000523 635.131200
   3800   3803   3806     1   111.0400475 529.694400
   3803   3806   3807     1   123.2000528 564.003200
   3803   3806   3808     1   112.7300484 572.371200
   3807   3806   3808     1   122.1000523 635.131200
   3812   3815   3818     1   111.5100476 526.347200
   3815   3818   3821     1   114.2100488 537.225600
   3815   3812   3842     1   107.9700462 569.024000
   3818   3821   3822     1   109.6600471 523.836800
   3818   3821   3832     1   109.6600471 523.836800
   3821   3822   3825     1   114.2100488 537.225600
   3821   3832   3835     1   114.2100488 537.225600
   3822   3825   3828     1   111.0400475 529.694400
   3822   3821   3832     1   109.6600471 523.836800
   3825   3828   3829     1   123.2000528 564.003200
   3825   3828   3830     1   112.7300484 572.371200
   3829   3828   3830     1   122.1000523 635.131200
   3832   3835   3838     1   111.0400475 529.694400
   3835   3838   3839     1   123.2000528 564.003200
   3835   3838   3840     1   112.7300484 572.371200
   3839   3838   3840     1   122.1000523 635.131200
   3844   3847   3850     1   111.5100476 526.347200
   3847   3844   3874     1   107.9700462 569.024000
   3847   3850   3853     1   114.2100488 537.225600
   3850   3853   3854     1   109.6600471 523.836800
   3850   3853   3864     1   109.6600471 523.836800
   3853   3854   3857     1   114.2100488 537.225600
   3853   3864   3867     1   114.2100488 537.225600
   3854   3853   3864     1   109.6600471 523.836800
   3854   3857   3860     1   111.0400475 529.694400
   3857   3860   3861     1   123.2000528 564.003200
   3857   3860   3862     1   112.7300484 572.371200
   3861   3860   3862     1   122.1000523 635.131200
   3864   3867   3870     1   111.0400475 529.694400
   3867   3870   3871     1   123.2000528 564.003200
   3867   3870   3872     1   112.7300484 572.371200
   3871   3870   3872     1   122.1000523 635.131200
   3876   3879   3882     1   111.5100476 526.347200
   3879   3882   3885     1   114.2100488 537.225600
   3879   3876   3906     1   107.9700462 569.024000
   3882   3885   3886     1   109.6600471 523.836800
   3882   3885   3896     1   109.6600471 523.836800
   3885   3886   3889     1   114.2100488 537.225600
   3885   3896   3899     1   114.2100488 537.225600
   3886   3889   3892     1   111.0400475 529.694400
   3886   3885   3896     1   109.6600471 523.836800
   3889   3892   3893     1   123.2000528 564.003200
   3889   3892   3894     1   112.7300484 572.371200
   3893   3892   3894     1   122.1000523 635.131200
   3896   3899   3902     1   111.0400475 529.694400
   3899   3902   3903     1   123.2000528 564.003200
   3899   3902   3904     1   112.7300484 572.371200
   3903   3902   3904     1   122.1000523 635.131200
   3908   3911   3914     1   111.5100476 526.347200
   3911   3908   3938     1   107.9700462 569.024000
   3911   3914   3917     1   114.2100488 537.225600
   3914   3917   3918     1   109.6600471 523.836800
   3914   3917   3928     1   109.6600471 523.836800
   3917   3918   3921     1   114.2100488 537.225600
   3917   3928   3931     1   114.2100488 537.225600
   3918   3917   3928     1   109.6600471 523.836800
   3918   3921   3924     1   111.0400475 529.694400
   3921   3924   3925     1   123.2000528 564.003200
   3921   3924   3926     1   112.7300484 572.371200
   3925   3924   3926     1   122.1000523 635.131200
   3928   3931   3934     1   111.0400475 529.694400
   3931   3934   3935     1   123.2000528 564.003200
   3931   3934   3936     1   112.7300484 572.371200
   3935   3934   3936     1   122.1000523 635.131200
   3940   3943   3946     1   111.5100476 526.347200
   3943   3946   3949     1   114.2100488 537.225600
   3943   3940   3970     1   107.9700462 569.024000
   3946   3949   3950     1   109.6600471 523.836800
   3946   3949   3960     1   109.6600471 523.836800
   3949   3950   3953     1   114.2100488 537.225600
   3949   3960   3963     1   114.2100488 537.225600
   3950   3953   3956     1   111.0400475 529.694400
   3950   3949   3960     1   109.6600471 523.836800
   3953   3956   3957     1   123.2000528 564.003200
   3953   3956   3958     1   112.7300484 572.371200
   3957   3956   3958     1   122.1000523 635.131200
   3960   3963   3966     1   111.0400475 529.694400
   3963   3966   3967     1   123.2000528 564.003200
   3963   3966   3968     1   112.7300484 572.371200
   3967   3966   3968     1   122.1000523 635.131200
   3972   3975   3978     1   111.5100476 526.347200
   3975   3972   4002     1   107.9700462 569.024000
   3975   3978   3981     1   114.2100488 537.225600
   3978   3981   3982     1   109.6600471 523.836800
   3978   3981   3992     1   109.6600471 523.836800
   3981   3982   3985     1   114.2100488 537.225600
   3981   3992   3995     1   114.2100488 537.225600
   3982   3981   3992     1   109.6600471 523.836800
   3982   3985   3988     1   111.0400475 529.694400
   3985   3988   3989     1   123.2000528 564.003200
   3985   3988   3990     1   112.7300484 572.371200
   3989   3988   3990     1   122.1000523 635.131200
   3992   3995   3998     1   111.0400475 529.694400
   3995   3998   3999     1   123.2000528 564.003200
   3995   3998   4000     1   112.7300484 572.371200
   3999   3998   4000     1   122.1000523 635.131200
   4004   4007   4010     1   111.5100476 526.347200
   4007   4010   4013     1   114.2100488 537.225600
   4007   4004   4034     1   107.9700462 569.024000
   4010   4013   4014     1   109.6600471 523.836800
   4010   4013   4024     1   109.6600471 523.836800
   4013   4014   4017     1   114.2100488 537.225600
   4013   4024   4027     1   114.2100488 537.225600
   4014   4017   4020     1   111.0400475 529.694400
   4014   4013   4024     1   109.6600471 523.836800
   4017   4020   4021     1   123.2000528 564.003200
   4017   4020   4022     1   112.7300484 572.371200
   4021   4020   4022     1   122.1000523 635.131200
   4024   4027   4030     1   111.0400475 529.694400
   4027   4030   4031     1   123.2000528 564.003200
   4027   4030   4032     1   112.7300484 572.371200
   4031   4030   4032     1   122.1000523 635.131200
   4036   4039   4042     1   111.5100476 526.347200
   4039   4036   4066     1   107.9700462 569.024000
   4039   4042   4045     1   114.2100488 537.225600
   4042   4045   4046     1   109.6600471 523.836800
   4042   4045   4056     1   109.6600471 523.836800
   4045   4046   4049     1   114.2100488 537.225600
   4045   4056   4059     1   114.2100488 537.225600
   4046   4045   4056     1   109.6600471 523.836800
   4046   4049   4052     1   111.0400475 529.694400
   4049   4052   4053     1   123.2000528 564.003200
   4049   4052   4054     1   112.7300484 572.371200
   4053   4052   4054     1   122.1000523 635.131200
   4056   4059   4062     1   111.0400475 529.694400
   4059   4062   4063     1   123.2000528 564.003200
   4059   4062   4064     1   112.7300484 572.371200
   4063   4062   4064     1   122.1000523 635.131200
   4068   4071   4074     1   111.5100476 526.347200
   4071   4074   4077     1   114.2100488 537.225600
   4071   4068   4098     1   107.9700462 569.024000
   4074   4077   4078     1   109.6600471 523.836800
   4074   4077   4088     1   109.6600471 523.836800
   4077   4078   4081     1   114.2100488 537.225600
   4077   4088   4091     1   114.2100488 537.225600
   4078   4081   4084     1   111.0400475 529.694400
   4078   4077   4088     1   109.6600471 523.836800
   4081   4084   4085     1   123.2000528 564.003200
   4081   4084   4086     1   112.7300484 572.371200
   4085   4084   4086     1   122.1000523 635.131200
   4088   4091   4094     1   111.0400475 529.694400
   4091   4094   4095     1   123.2000528 564.003200
   4091   4094   4096     1   112.7300484 572.371200
   4095   4094   4096     1   122.1000523 635.131200
   4100   4103   4106     1   111.5100476 526.347200
   4103   4100   4130     1   107.9700462 569.024000
   4103   4106   4109     1   114.2100488 537.225600
   4106   4109   4110     1   109.6600471 523.836800
   4106   4109   4120     1   109.6600471 523.836800
   4109   4110   4113     1   114.2100488 537.225600
   4109   4120   4123     1   114.2100488 537.225600
   4110   4109   4120     1   109.6600471 523.836800
   4110   4113   4116     1   111.0400475 529.694400
   4113   4116   4117     1   123.2000528 564.003200
   4113   4116   4118     1   112.7300484 572.371200
   4117   4116   4118     1   122.1000523 635.131200
   4120   4123   4126     1   111.0400475 529.694400
   4123   4126   4127     1   123.2000528 564.003200
   4123   4126   4128     1   112.7300484 572.371200
   4127   4126   4128     1   122.1000523 635.131200
   4132   4135   4138     1   111.5100476 526.347200
   4135   4138   4141     1   114.2100488 537.225600
   4135   4132   4162     1   107.9700462 569.024000
   4138   4141   4142     1   109.6600471 523.836800
   4138   4141   4152     1   109.6600471 523.836800
   4141   4142   4145     1   114.2100488 537.225600
   4141   4152   4155     1   114.2100488 537.225600
   4142   4145   4148     1   111.0400475 529.694400
   4142   4141   4152     1   109.6600471 523.836800
   4145   4148   4149     1   123.2000528 564.003200
   4145   4148   4150     1   112.7300484 572.371200
   4149   4148   4150     1   122.1000523 635.131200
   4152   4155   4158     1   111.0400475 529.694400
   4155   4158   4159     1   123.2000528 564.003200
   4155   4158   4160     1   112.7300484 572.371200
   4159   4158   4160     1   122.1000523 635.131200
   4164   4167   4170     1   111.5100476 526.347200
   4167   4164   4194     1   107.9700462 569.024000
   4167   4170   4173     1   114.2100488 537.225600
   4170   4173   4174     1   109.6600471 523.836800
   4170   4173   4184     1   109.6600471 523.836800
   4173   4174   4177     1   114.2100488 537.225600
   4173   4184   4187     1   114.2100488 537.225600
   4174   4173   4184     1   109.6600471 523.836800
   4174   4177   4180     1   111.0400475 529.694400
   4177   4180   4181     1   123.2000528 564.003200
   4177   4180   4182     1   112.7300484 572.371200
   4181   4180   4182     1   122.1000523 635.131200
   4184   4187   4190     1   111.0400475 529.694400
   4187   4190   4191     1   123.2000528 564.003200
   4187   4190   4192     1   112.7300484 572.371200
   4191   4190   4192     1   122.1000523 635.131200
   4196   4199   4202     1   111.5100476 526.347200
   4199   4202   4205     1   114.2100488 537.225600
   4199   4196   4226     1   107.9700462 569.024000
   4202   4205   4206     1   109.6600471 523.836800
   4202   4205   4216     1   109.6600471 523.836800
   4205   4206   4209     1   114.2100488 537.225600
   4205   4216   4219     1   114.2100488 537.225600
   4206   4209   4212     1   111.0400475 529.694400
   4206   4205   4216     1   109.6600471 523.836800
   4209   4212   4213     1   123.2000528 564.003200
   4209   4212   4214     1   112.7300484 572.371200
   4213   4212   4214     1   122.1000523 635.131200
   4216   4219   4222     1   111.0400475 529.694400
   4219   4222   4223     1   123.2000528 564.003200
   4219   4222   4224     1   112.7300484 572.371200
   4223   4222   4224     1   122.1000523 635.131200
   4228   4231   4234     1   111.5100476 526.347200
   4231   4228   4258     1   107.9700462 569.024000
   4231   4234   4237     1   114.2100488 537.225600
   4234   4237   4238     1   109.6600471 523.836800
   4234   4237   4248     1   109.6600471 523.836800
   4237   4238   4241     1   114.2100488 537.225600
   4237   4248   4251     1   114.2100488 537.225600
   4238   4237   4248     1   109.6600471 523.836800
   4238   4241   4244     1   111.0400475 529.694400
   4241   4244   4245     1   123.2000528 564.003200
   4241   4244   4246     1   112.7300484 572.371200
   4245   4244   4246     1   122.1000523 635.131200
   4248   4251   4254     1   111.0400475 529.694400
   4251   4254   4255     1   123.2000528 564.003200
   4251   4254   4256     1   112.7300484 572.371200
   4255   4254   4256     1   122.1000523 635.131200
   4260   4263   4266     1   111.5100476 526.347200
   4263   4266   4269     1   114.2100488 537.225600
   4263   4260   4290     1   107.9700462 569.024000
   4266   4269   4270     1   109.6600471 523.836800
   4266   4269   4280     1   109.6600471 523.836800
   4269   4270   4273     1   114.2100488 537.225600
   4269   4280   4283     1   114.2100488 537.225600
   4270   4273   4276     1   111.0400475 529.694400
   4270   4269   4280     1   109.6600471 523.836800
   4273   4276   4277     1   123.2000528 564.003200
   4273   4276   4278     1   112.7300484 572.371200
   4277   4276   4278     1   122.1000523 635.131200
   4280   4283   4286     1   111.0400475 529.694400
   4283   4286   4287     1   123.2000528 564.003200
   4283   4286   4288     1   112.7300484 572.371200
   4287   4286   4288     1   122.1000523 635.131200
   4292   4295   4298     1   111.5100476 526.347200
   4295   4292   4322     1   107.9700462 569.024000
   4295   4298   4301     1   114.2100488 537.225600
   4298   4301   4302     1   109.6600471 523.836800
   4298   4301   4312     1   109.6600471 523.836800
   4301   4302   4305     1   114.2100488 537.225600
   4301   4312   4315     1   114.2100488 537.225600
   4302   4301   4312     1   109.6600471 523.836800
   4302   4305   4308     1   111.0400475 529.694400
   4305   4308   4309     1   123.2000528 564.003200
   4305   4308   4310     1   112.7300484 572.371200
   4309   4308   4310     1   122.1000523 635.131200
   4312   4315   4318     1   111.0400475 529.694400
   4315   4318   4319     1   123.2000528 564.003200
   4315   4318   4320     1   112.7300484 572.371200
   4319   4318   4320     1   122.1000523 635.131200
   4324   4327   4330     1   111.5100476 526.347200
   4327   4330   4333     1   114.2100488 537.225600
   4327   4324   4354     1   107.9700462 569.024000
   4330   4333   4334     1   109.6600471 523.836800
   4330   4333   4344     1   109.6600471 523.836800
   4333   4334   4337     1   114.2100488 537.225600
   4333   4344   4347     1   114.2100488 537.225600
   4334   4337   4340     1   111.0400475 529.694400
   4334   4333   4344     1   109.6600471 523.836800
   4337   4340   4341     1   123.2000528 564.003200
   4337   4340   4342     1   112.7300484 572.371200
   4341   4340   4342     1   122.1000523 635.131200
   4344   4347   4350     1   111.0400475 529.694400
   4347   4350   4351     1   123.2000528 564.003200
   4347   4350   4352     1   112.7300484 572.371200
   4351   4350   4352     1   122.1000523 635.131200
   4356   4359   4362     1   111.5100476 526.347200
   4359   4356   4386     1   107.9700462 569.024000
   4359   4362   4365     1   114.2100488 537.225600
   4362   4365   4366     1   109.6600471 523.836800
   4362   4365   4376     1   109.6600471 523.836800
   4365   4366   4369     1   114.2100488 537.225600
   4365   4376   4379     1   114.2100488 537.225600
   4366   4365   4376     1   109.6600471 523.836800
   4366   4369   4372     1   111.0400475 529.694400
   4369   4372   4373     1   123.2000528 564.003200
   4369   4372   4374     1   112.7300484 572.371200
   4373   4372   4374     1   122.1000523 635.131200
   4376   4379   4382     1   111.0400475 529.694400
   4379   4382   4383     1   123.2000528 564.003200
   4379   4382   4384     1   112.7300484 572.371200
   4383   4382   4384     1   122.1000523 635.131200
   4388   4391   4394     1   111.5100476 526.347200
   4391   4394   4397     1   114.2100488 537.225600
   4391   4388   4418     1   107.9700462 569.024000
   4394   4397   4398     1   109.6600471 523.836800
   4394   4397   4408     1   109.6600471 523.836800
   4397   4398   4401     1   114.2100488 537.225600
   4397   4408   4411     1   114.2100488 537.225600
   4398   4401   4404     1   111.0400475 529.694400
   4398   4397   4408     1   109.6600471 523.836800
   4401   4404   4405     1   123.2000528 564.003200
   4401   4404   4406     1   112.7300484 572.371200
   4405   4404   4406     1   122.1000523 635.131200
   4408   4411   4414     1   111.0400475 529.694400
   4411   4414   4415     1   123.2000528 564.003200
   4411   4414   4416     1   112.7300484 572.371200
   4415   4414   4416     1   122.1000523 635.131200
   4420   4423   4426     1   111.5100476 526.347200
   4423   4420   4450     1   107.9700462 569.024000
   4423   4426   4429     1   114.2100488 537.225600
   4426   4429   4430     1   109.6600471 523.836800
   4426   4429   4440     1   109.6600471 523.836800
   4429   4430   4433     1   114.2100488 537.225600
   4429   4440   4443     1   114.2100488 537.225600
   4430   4429   4440     1   109.6600471 523.836800
   4430   4433   4436     1   111.0400475 529.694400
   4433   4436   4437     1   123.2000528 564.003200
   4433   4436   4438     1   112.7300484 572.371200
   4437   4436   4438     1   122.1000523 635.131200
   4440   4443   4446     1   111.0400475 529.694400
   4443   4446   4447     1   123.2000528 564.003200
   4443   4446   4448     1   112.7300484 572.371200
   4447   4446   4448     1   122.1000523 635.131200
   4452   4455   4458     1   111.5100476 526.347200
   4455   4458   4461     1   114.2100488 537.225600
   4455   4452   4482     1   107.9700462 569.024000
   4458   4461   4462     1   109.6600471 523.836800
   4458   4461   4472     1   109.6600471 523.836800
   4461   4462   4465     1   114.2100488 537.225600
   4461   4472   4475     1   114.2100488 537.225600
   4462   4465   4468     1   111.0400475 529.694400
   4462   4461   4472     1   109.6600471 523.836800
   4465   4468   4469     1   123.2000528 564.003200
   4465   4468   4470     1   112.7300484 572.371200
   4469   4468   4470     1   122.1000523 635.131200
   4472   4475   4478     1   111.0400475 529.694400
   4475   4478   4479     1   123.2000528 564.003200
   4475   4478   4480     1   112.7300484 572.371200
   4479   4478   4480     1   122.1000523 635.131200
   4484   4487   4490     1   111.5100476 526.347200
   4487   4484   4514     1   107.9700462 569.024000
   4487   4490   4493     1   114.2100488 537.225600
   4490   4493   4494     1   109.6600471 523.836800
   4490   4493   4504     1   109.6600471 523.836800
   4493   4494   4497     1   114.2100488 537.225600
   4493   4504   4507     1   114.2100488 537.225600
   4494   4493   4504     1   109.6600471 523.836800
   4494   4497   4500     1   111.0400475 529.694400
   4497   4500   4501     1   123.2000528 564.003200
   4497   4500   4502     1   112.7300484 572.371200
   4501   4500   4502     1   122.1000523 635.131200
   4504   4507   4510     1   111.0400475 529.694400
   4507   4510   4511     1   123.2000528 564.003200
   4507   4510   4512     1   112.7300484 572.371200
   4511   4510   4512     1   122.1000523 635.131200
   4516   4519   4522     1   111.5100476 526.347200
   4519   4522   4525     1   114.2100488 537.225600
   4519   4516   4546     1   107.9700462 569.024000
   4522   4525   4526     1   109.6600471 523.836800
   4522   4525   4536     1   109.6600471 523.836800
   4525   4526   4529     1   114.2100488 537.225600
   4525   4536   4539     1   114.2100488 537.225600
   4526   4529   4532     1   111.0400475 529.694400
   4526   4525   4536     1   109.6600471 523.836800
   4529   4532   4533     1   123.2000528 564.003200
   4529   4532   4534     1   112.7300484 572.371200
   4533   4532   4534     1   122.1000523 635.131200
   4536   4539   4542     1   111.0400475 529.694400
   4539   4542   4543     1   123.2000528 564.003200
   4539   4542   4544     1   112.7300484 572.371200
   4543   4542   4544     1   122.1000523 635.131200
   4548   4551   4554     1   111.5100476 526.347200
   4551   4548   4578     1   107.9700462 569.024000
   4551   4554   4557     1   114.2100488 537.225600
   4554   4557   4558     1   109.6600471 523.836800
   4554   4557   4568     1   109.6600471 523.836800
   4557   4558   4561     1   114.2100488 537.225600
   4557   4568   4571     1   114.2100488 537.225600
   4558   4557   4568     1   109.6600471 523.836800
   4558   4561   4564     1   111.0400475 529.694400
   4561   4564   4565     1   123.2000528 564.003200
   4561   4564   4566     1   112.7300484 572.371200
   4565   4564   4566     1   122.1000523 635.131200
   4568   4571   4574     1   111.0400475 529.694400
   4571   4574   4575     1   123.2000528 564.003200
   4571   4574   4576     1   112.7300484 572.371200
   4575   4574   4576     1   122.1000523 635.131200
   4580   4583   4586     1   111.5100476 526.347200
   4583   4586   4589     1   114.2100488 537.225600
   4583   4580   4610     1   107.9700462 569.024000
   4586   4589   4590     1   109.6600471 523.836800
   4586   4589   4600     1   109.6600471 523.836800
   4589   4590   4593     1   114.2100488 537.225600
   4589   4600   4603     1   114.2100488 537.225600
   4590   4593   4596     1   111.0400475 529.694400
   4590   4589   4600     1   109.6600471 523.836800
   4593   4596   4597     1   123.2000528 564.003200
   4593   4596   4598     1   112.7300484 572.371200
   4597   4596   4598     1   122.1000523 635.131200
   4600   4603   4606     1   111.0400475 529.694400
   4603   4606   4607     1   123.2000528 564.003200
   4603   4606   4608     1   112.7300484 572.371200
   4607   4606   4608     1   122.1000523 635.131200
   4612   4615   4618     1   111.5100476 526.347200
   4615   4612   4642     1   107.9700462 569.024000
   4615   4618   4621     1   114.2100488 537.225600
   4618   4621   4622     1   109.6600471 523.836800
   4618   4621   4632     1   109.6600471 523.836800
   4621   4622   4625     1   114.2100488 537.225600
   4621   4632   4635     1   114.2100488 537.225600
   4622   4621   4632     1   109.6600471 523.836800
   4622   4625   4628     1   111.0400475 529.694400
   4625   4628   4629     1   123.2000528 564.003200
   4625   4628   4630     1   112.7300484 572.371200
   4629   4628   4630     1   122.1000523 635.131200
   4632   4635   4638     1   111.0400475 529.694400
   4635   4638   4639     1   123.2000528 564.003200
   4635   4638   4640     1   112.7300484 572.371200
   4639   4638   4640     1   122.1000523 635.131200
   4644   4647   4650     1   111.5100476 526.347200
   4647   4650   4653     1   114.2100488 537.225600
   4647   4644   4674     1   107.9700462 569.024000
   4650   4653   4654     1   109.6600471 523.836800
   4650   4653   4664     1   109.6600471 523.836800
   4653   4654   4657     1   114.2100488 537.225600
   4653   4664   4667     1   114.2100488 537.225600
   4654   4657   4660     1   111.0400475 529.694400
   4654   4653   4664     1   109.6600471 523.836800
   4657   4660   4661     1   123.2000528 564.003200
   4657   4660   4662     1   112.7300484 572.371200
   4661   4660   4662     1   122.1000523 635.131200
   4664   4667   4670     1   111.0400475 529.694400
   4667   4670   4671     1   123.2000528 564.003200
   4667   4670   4672     1   112.7300484 572.371200
   4671   4670   4672     1   122.1000523 635.131200
   4676   4679   4682     1   111.5100476 526.347200
   4679   4676   4706     1   107.9700462 569.024000
   4679   4682   4685     1   114.2100488 537.225600
   4682   4685   4686     1   109.6600471 523.836800
   4682   4685   4696     1   109.6600471 523.836800
   4685   4686   4689     1   114.2100488 537.225600
   4685   4696   4699     1   114.2100488 537.225600
   4686   4685   4696     1   109.6600471 523.836800
   4686   4689   4692     1   111.0400475 529.694400
   4689   4692   4693     1   123.2000528 564.003200
   4689   4692   4694     1   112.7300484 572.371200
   4693   4692   4694     1   122.1000523 635.131200
   4696   4699   4702     1   111.0400475 529.694400
   4699   4702   4703     1   123.2000528 564.003200
   4699   4702   4704     1   112.7300484 572.371200
   4703   4702   4704     1   122.1000523 635.131200
   4708   4711   4714     1   111.5100476 526.347200
   4711   4714   4717     1   114.2100488 537.225600
   4711   4708   4738     1   107.9700462 569.024000
   4714   4717   4718     1   109.6600471 523.836800
   4714   4717   4728     1   109.6600471 523.836800
   4717   4718   4721     1   114.2100488 537.225600
   4717   4728   4731     1   114.2100488 537.225600
   4718   4721   4724     1   111.0400475 529.694400
   4718   4717   4728     1   109.6600471 523.836800
   4721   4724   4725     1   123.2000528 564.003200
   4721   4724   4726     1   112.7300484 572.371200
   4725   4724   4726     1   122.1000523 635.131200
   4728   4731   4734     1   111.0400475 529.694400
   4731   4734   4735     1   123.2000528 564.003200
   4731   4734   4736     1   112.7300484 572.371200
   4735   4734   4736     1   122.1000523 635.131200
   4740   4743   4746     1   111.5100476 526.347200
   4743   4740   4770     1   107.9700462 569.024000
   4743   4746   4749     1   114.2100488 537.225600
   4746   4749   4750     1   109.6600471 523.836800
   4746   4749   4760     1   109.6600471 523.836800
   4749   4750   4753     1   114.2100488 537.225600
   4749   4760   4763     1   114.2100488 537.225600
   4750   4749   4760     1   109.6600471 523.836800
   4750   4753   4756     1   111.0400475 529.694400
   4753   4756   4757     1   123.2000528 564.003200
   4753   4756   4758     1   112.7300484 572.371200
   4757   4756   4758     1   122.1000523 635.131200
   4760   4763   4766     1   111.0400475 529.694400
   4763   4766   4767     1   123.2000528 564.003200
   4763   4766   4768     1   112.7300484 572.371200
   4767   4766   4768     1   122.1000523 635.131200
   4772   4775   4778     1   111.5100476 526.347200
   4775   4778   4781     1   114.2100488 537.225600
   4775   4772   4802     1   107.9700462 569.024000
   4778   4781   4782     1   109.6600471 523.836800
   4778   4781   4792     1   109.6600471 523.836800
   4781   4782   4785     1   114.2100488 537.225600
   4781   4792   4795     1   114.2100488 537.225600
   4782   4785   4788     1   111.0400475 529.694400
   4782   4781   4792     1   109.6600471 523.836800
   4785   4788   4789     1   123.2000528 564.003200
   4785   4788   4790     1   112.7300484 572.371200
   4789   4788   4790     1   122.1000523 635.131200
   4792   4795   4798     1   111.0400475 529.694400
   4795   4798   4799     1   123.2000528 564.003200
   4795   4798   4800     1   112.7300484 572.371200
   4799   4798   4800     1   122.1000523 635.131200
   4804   4807   4810     1   111.5100476 526.347200
   4807   4804   4834     1   107.9700462 569.024000
   4807   4810   4813     1   114.2100488 537.225600
   4810   4813   4814     1   109.6600471 523.836800
   4810   4813   4824     1   109.6600471 523.836800
   4813   4814   4817     1   114.2100488 537.225600
   4813   4824   4827     1   114.2100488 537.225600
   4814   4813   4824     1   109.6600471 523.836800
   4814   4817   4820     1   111.0400475 529.694400
   4817   4820   4821     1   123.2000528 564.003200
   4817   4820   4822     1   112.7300484 572.371200
   4821   4820   4822     1   122.1000523 635.131200
   4824   4827   4830     1   111.0400475 529.694400
   4827   4830   4831     1   123.2000528 564.003200
   4827   4830   4832     1   112.7300484 572.371200
   4831   4830   4832     1   122.1000523 635.131200
   4836   4839   4842     1   111.5100476 526.347200
   4839   4842   4845     1   114.2100488 537.225600
   4839   4836   4866     1   107.9700462 569.024000
   4842   4845   4846     1   109.6600471 523.836800
   4842   4845   4856     1   109.6600471 523.836800
   4845   4846   4849     1   114.2100488 537.225600
   4845   4856   4859     1   114.2100488 537.225600
   4846   4849   4852     1   111.0400475 529.694400
   4846   4845   4856     1   109.6600471 523.836800
   4849   4852   4853     1   123.2000528 564.003200
   4849   4852   4854     1   112.7300484 572.371200
   4853   4852   4854     1   122.1000523 635.131200
   4856   4859   4862     1   111.0400475 529.694400
   4859   4862   4863     1   123.2000528 564.003200
   4859   4862   4864     1   112.7300484 572.371200
   4863   4862   4864     1   122.1000523 635.131200
   4868   4871   4874     1   111.5100476 526.347200
   4871   4868   4898     1   107.9700462 569.024000
   4871   4874   4877     1   114.2100488 537.225600
   4874   4877   4878     1   109.6600471 523.836800
   4874   4877   4888     1   109.6600471 523.836800
   4877   4878   4881     1   114.2100488 537.225600
   4877   4888   4891     1   114.2100488 537.225600
   4878   4877   4888     1   109.6600471 523.836800
   4878   4881   4884     1   111.0400475 529.694400
   4881   4884   4885     1   123.2000528 564.003200
   4881   4884   4886     1   112.7300484 572.371200
   4885   4884   4886     1   122.1000523 635.131200
   4888   4891   4894     1   111.0400475 529.694400
   4891   4894   4895     1   123.2000528 564.003200
   4891   4894   4896     1   112.7300484 572.371200
   4895   4894   4896     1   122.1000523 635.131200
   4900   4903   4906     1   111.5100476 526.347200
   4903   4906   4909     1   114.2100488 537.225600
   4903   4900   4930     1   107.9700462 569.024000
   4906   4909   4910     1   109.6600471 523.836800
   4906   4909   4920     1   109.6600471 523.836800
   4909   4910   4913     1   114.2100488 537.225600
   4909   4920   4923     1   114.2100488 537.225600
   4910   4913   4916     1   111.0400475 529.694400
   4910   4909   4920     1   109.6600471 523.836800
   4913   4916   4917     1   123.2000528 564.003200
   4913   4916   4918     1   112.7300484 572.371200
   4917   4916   4918     1   122.1000523 635.131200
   4920   4923   4926     1   111.0400475 529.694400
   4923   4926   4927     1   123.2000528 564.003200
   4923   4926   4928     1   112.7300484 572.371200
   4927   4926   4928     1   122.1000523 635.131200
   4932   4935   4938     1   111.5100476 526.347200
   4935   4932   4962     1   107.9700462 569.024000
   4935   4938   4941     1   114.2100488 537.225600
   4938   4941   4942     1   109.6600471 523.836800
   4938   4941   4952     1   109.6600471 523.836800
   4941   4942   4945     1   114.2100488 537.225600
   4941   4952   4955     1   114.2100488 537.225600
   4942   4941   4952     1   109.6600471 523.836800
   4942   4945   4948     1   111.0400475 529.694400
   4945   4948   4949     1   123.2000528 564.003200
   4945   4948   4950     1   112.7300484 572.371200
   4949   4948   4950     1   122.1000523 635.131200
   4952   4955   4958     1   111.0400475 529.694400
   4955   4958   4959     1   123.2000528 564.003200
   4955   4958   4960     1   112.7300484 572.371200
   4959   4958   4960     1   122.1000523 635.131200
   4964   4967   4970     1   111.5100476 526.347200
   4967   4970   4973     1   114.2100488 537.225600
   4967   4964   4994     1   107.9700462 569.024000
   4970   4973   4974     1   109.6600471 523.836800
   4970   4973   4984     1   109.6600471 523.836800
   4973   4974   4977     1   114.2100488 537.225600
   4973   4984   4987     1   114.2100488 537.225600
   4974   4977   4980     1   111.0400475 529.694400
   4974   4973   4984     1   109.6600471 523.836800
   4977   4980   4981     1   123.2000528 564.003200
   4977   4980   4982     1   112.7300484 572.371200
   4981   4980   4982     1   122.1000523 635.131200
   4984   4987   4990     1   111.0400475 529.694400
   4987   4990   4991     1   123.2000528 564.003200
   4987   4990   4992     1   112.7300484 572.371200
   4991   4990   4992     1   122.1000523 635.131200
   4996   4999   5002     1   111.5100476 526.347200
   4999   4996   5026     1   107.9700462 569.024000
   4999   5002   5005     1   114.2100488 537.225600
   5002   5005   5006     1   109.6600471 523.836800
   5002   5005   5016     1   109.6600471 523.836800
   5005   5006   5009     1   114.2100488 537.225600
   5005   5016   5019     1   114.2100488 537.225600
   5006   5005   5016     1   109.6600471 523.836800
   5006   5009   5012     1   111.0400475 529.694400
   5009   5012   5013     1   123.2000528 564.003200
   5009   5012   5014     1   112.7300484 572.371200
   5013   5012   5014     1   122.1000523 635.131200
   5016   5019   5022     1   111.0400475 529.694400
   5019   5022   5023     1   123.2000528 564.003200
   5019   5022   5024     1   112.7300484 572.371200
   5023   5022   5024     1   122.1000523 635.131200
   5028   5031   5034     1   111.5100476 526.347200
   5031   5034   5037     1   114.2100488 537.225600
   5031   5028   5058     1   107.9700462 569.024000
   5034   5037   5038     1   109.6600471 523.836800
   5034   5037   5048     1   109.6600471 523.836800
   5037   5038   5041     1   114.2100488 537.225600
   5037   5048   5051     1   114.2100488 537.225600
   5038   5041   5044     1   111.0400475 529.694400
   5038   5037   5048     1   109.6600471 523.836800
   5041   5044   5045     1   123.2000528 564.003200
   5041   5044   5046     1   112.7300484 572.371200
   5045   5044   5046     1   122.1000523 635.131200
   5048   5051   5054     1   111.0400475 529.694400
   5051   5054   5055     1   123.2000528 564.003200
   5051   5054   5056     1   112.7300484 572.371200
   5055   5054   5056     1   122.1000523 635.131200
   5060   5063   5066     1   111.5100476 526.347200
   5063   5060   5090     1   107.9700462 569.024000
   5063   5066   5069     1   114.2100488 537.225600
   5066   5069   5070     1   109.6600471 523.836800
   5066   5069   5080     1   109.6600471 523.836800
   5069   5070   5073     1   114.2100488 537.225600
   5069   5080   5083     1   114.2100488 537.225600
   5070   5069   5080     1   109.6600471 523.836800
   5070   5073   5076     1   111.0400475 529.694400
   5073   5076   5077     1   123.2000528 564.003200
   5073   5076   5078     1   112.7300484 572.371200
   5077   5076   5078     1   122.1000523 635.131200
   5080   5083   5086     1   111.0400475 529.694400
   5083   5086   5087     1   123.2000528 564.003200
   5083   5086   5088     1   112.7300484 572.371200
   5087   5086   5088     1   122.1000523 635.131200
   5092   5095   5098     1   111.5100476 526.347200
   5095   5098   5101     1   114.2100488 537.225600
   5095   5092   5122     1   107.9700462 569.024000
   5098   5101   5102     1   109.6600471 523.836800
   5098   5101   5112     1   109.6600471 523.836800
   5101   5102   5105     1   114.2100488 537.225600
   5101   5112   5115     1   114.2100488 537.225600
   5102   5105   5108     1   111.0400475 529.694400
   5102   5101   5112     1   109.6600471 523.836800
   5105   5108   5109     1   123.2000528 564.003200
   5105   5108   5110     1   112.7300484 572.371200
   5109   5108   5110     1   122.1000523 635.131200
   5112   5115   5118     1   111.0400475 529.694400
   5115   5118   5119     1   123.2000528 564.003200
   5115   5118   5120     1   112.7300484 572.371200
   5119   5118   5120     1   122.1000523 635.131200
   5124   5127   5130     1   111.5100476 526.347200
   5127   5124   5154     1   107.9700462 569.024000
   5127   5130   5133     1   114.2100488 537.225600
   5130   5133   5134     1   109.6600471 523.836800
   5130   5133   5144     1   109.6600471 523.836800
   5133   5134   5137     1   114.2100488 537.225600
   5133   5144   5147     1   114.2100488 537.225600
   5134   5133   5144     1   109.6600471 523.836800
   5134   5137   5140     1   111.0400475 529.694400
   5137   5140   5141     1   123.2000528 564.003200
   5137   5140   5142     1   112.7300484 572.371200
   5141   5140   5142     1   122.1000523 635.131200
   5144   5147   5150     1   111.0400475 529.694400
   5147   5150   5151     1   123.2000528 564.003200
   5147   5150   5152     1   112.7300484 572.371200
   5151   5150   5152     1   122.1000523 635.131200
   5156   5159   5162     1   111.5100476 526.347200
   5159   5162   5165     1   114.2100488 537.225600
   5159   5156   5186     1   107.9700462 569.024000
   5162   5165   5166     1   109.6600471 523.836800
   5162   5165   5176     1   109.6600471 523.836800
   5165   5166   5169     1   114.2100488 537.225600
   5165   5176   5179     1   114.2100488 537.225600
   5166   5169   5172     1   111.0400475 529.694400
   5166   5165   5176     1   109.6600471 523.836800
   5169   5172   5173     1   123.2000528 564.003200
   5169   5172   5174     1   112.7300484 572.371200
   5173   5172   5174     1   122.1000523 635.131200
   5176   5179   5182     1   111.0400475 529.694400
   5179   5182   5183     1   123.2000528 564.003200
   5179   5182   5184     1   112.7300484 572.371200
   5183   5182   5184     1   122.1000523 635.131200
   5188   5191   5194     1   111.5100476 526.347200
   5191   5188   5218     1   107.9700462 569.024000
   5191   5194   5197     1   114.2100488 537.225600
   5194   5197   5198     1   109.6600471 523.836800
   5194   5197   5208     1   109.6600471 523.836800
   5197   5198   5201     1   114.2100488 537.225600
   5197   5208   5211     1   114.2100488 537.225600
   5198   5197   5208     1   109.6600471 523.836800
   5198   5201   5204     1   111.0400475 529.694400
   5201   5204   5205     1   123.2000528 564.003200
   5201   5204   5206     1   112.7300484 572.371200
   5205   5204   5206     1   122.1000523 635.131200
   5208   5211   5214     1   111.0400475 529.694400
   5211   5214   5215     1   123.2000528 564.003200
   5211   5214   5216     1   112.7300484 572.371200
   5215   5214   5216     1   122.1000523 635.131200
   5220   5223   5226     1   111.5100476 526.347200
   5223   5226   5229     1   114.2100488 537.225600
   5223   5220   5250     1   107.9700462 569.024000
   5226   5229   5230     1   109.6600471 523.836800
   5226   5229   5240     1   109.6600471 523.836800
   5229   5230   5233     1   114.2100488 537.225600
   5229   5240   5243     1   114.2100488 537.225600
   5230   5233   5236     1   111.0400475 529.694400
   5230   5229   5240     1   109.6600471 523.836800
   5233   5236   5237     1   123.2000528 564.003200
   5233   5236   5238     1   112.7300484 572.371200
   5237   5236   5238     1   122.1000523 635.131200
   5240   5243   5246     1   111.0400475 529.694400
   5243   5246   5247     1   123.2000528 564.003200
   5243   5246   5248     1   112.7300484 572.371200
   5247   5246   5248     1   122.1000523 635.131200
   5252   5255   5258     1   111.5100476 526.347200
   5255   5252   5282     1   107.9700462 569.024000
   5255   5258   5261     1   114.2100488 537.225600
   5258   5261   5262     1   109.6600471 523.836800
   5258   5261   5272     1   109.6600471 523.836800
   5261   5262   5265     1   114.2100488 537.225600
   5261   5272   5275     1   114.2100488 537.225600
   5262   5261   5272     1   109.6600471 523.836800
   5262   5265   5268     1   111.0400475 529.694400
   5265   5268   5269     1   123.2000528 564.003200
   5265   5268   5270     1   112.7300484 572.371200
   5269   5268   5270     1   122.1000523 635.131200
   5272   5275   5278     1   111.0400475 529.694400
   5275   5278   5279     1   123.2000528 564.003200
   5275   5278   5280     1   112.7300484 572.371200
   5279   5278   5280     1   122.1000523 635.131200
   5284   5287   5290     1   111.5100476 526.347200
   5287   5290   5293     1   114.2100488 537.225600
   5287   5284   5314     1   107.9700462 569.024000
   5290   5293   5294     1   109.6600471 523.836800
   5290   5293   5304     1   109.6600471 523.836800
   5293   5294   5297     1   114.2100488 537.225600
   5293   5304   5307     1   114.2100488 537.225600
   5294   5297   5300     1   111.0400475 529.694400
   5294   5293   5304     1   109.6600471 523.836800
   5297   5300   5301     1   123.2000528 564.003200
   5297   5300   5302     1   112.7300484 572.371200
   5301   5300   5302     1   122.1000523 635.131200
   5304   5307   5310     1   111.0400475 529.694400
   5307   5310   5311     1   123.2000528 564.003200
   5307   5310   5312     1   112.7300484 572.371200
   5311   5310   5312     1   122.1000523 635.131200
   5316   5319   5322     1   111.5100476 526.347200
   5319   5316   5346     1   107.9700462 569.024000
   5319   5322   5325     1   114.2100488 537.225600
   5322   5325   5326     1   109.6600471 523.836800
   5322   5325   5336     1   109.6600471 523.836800
   5325   5326   5329     1   114.2100488 537.225600
   5325   5336   5339     1   114.2100488 537.225600
   5326   5325   5336     1   109.6600471 523.836800
   5326   5329   5332     1   111.0400475 529.694400
   5329   5332   5333     1   123.2000528 564.003200
   5329   5332   5334     1   112.7300484 572.371200
   5333   5332   5334     1   122.1000523 635.131200
   5336   5339   5342     1   111.0400475 529.694400
   5339   5342   5343     1   123.2000528 564.003200
   5339   5342   5344     1   112.7300484 572.371200
   5343   5342   5344     1   122.1000523 635.131200
   5348   5351   5354     1   111.5100476 526.347200
   5351   5354   5357     1   114.2100488 537.225600
   5351   5348   5378     1   107.9700462 569.024000
   5354   5357   5358     1   109.6600471 523.836800
   5354   5357   5368     1   109.6600471 523.836800
   5357   5358   5361     1   114.2100488 537.225600
   5357   5368   5371     1   114.2100488 537.225600
   5358   5361   5364     1   111.0400475 529.694400
   5358   5357   5368     1   109.6600471 523.836800
   5361   5364   5365     1   123.2000528 564.003200
   5361   5364   5366     1   112.7300484 572.371200
   5365   5364   5366     1   122.1000523 635.131200
   5368   5371   5374     1   111.0400475 529.694400
   5371   5374   5375     1   123.2000528 564.003200
   5371   5374   5376     1   112.7300484 572.371200
   5375   5374   5376     1   122.1000523 635.131200
   5380   5383   5386     1   111.5100476 526.347200
   5383   5380   5410     1   107.9700462 569.024000
   5383   5386   5389     1   114.2100488 537.225600
   5386   5389   5390     1   109.6600471 523.836800
   5386   5389   5400     1   109.6600471 523.836800
   5389   5390   5393     1   114.2100488 537.225600
   5389   5400   5403     1   114.2100488 537.225600
   5390   5389   5400     1   109.6600471 523.836800
   5390   5393   5396     1   111.0400475 529.694400
   5393   5396   5397     1   123.2000528 564.003200
   5393   5396   5398     1   112.7300484 572.371200
   5397   5396   5398     1   122.1000523 635.131200
   5400   5403   5406     1   111.0400475 529.694400
   5403   5406   5407     1   123.2000528 564.003200
   5403   5406   5408     1   112.7300484 572.371200
   5407   5406   5408     1   122.1000523 635.131200
   5412   5415   5418     1   111.5100476 526.347200
   5415   5418   5421     1   114.2100488 537.225600
   5415   5412   5442     1   107.9700462 569.024000
   5418   5421   5422     1   109.6600471 523.836800
   5418   5421   5432     1   109.6600471 523.836800
   5421   5422   5425     1   114.2100488 537.225600
   5421   5432   5435     1   114.2100488 537.225600
   5422   5425   5428     1   111.0400475 529.694400
   5422   5421   5432     1   109.6600471 523.836800
   5425   5428   5429     1   123.2000528 564.003200
   5425   5428   5430     1   112.7300484 572.371200
   5429   5428   5430     1   122.1000523 635.131200
   5432   5435   5438     1   111.0400475 529.694400
   5435   5438   5439     1   123.2000528 564.003200
   5435   5438   5440     1   112.7300484 572.371200
   5439   5438   5440     1   122.1000523 635.131200
   5444   5447   5450     1   111.5100476 526.347200
   5447   5444   5474     1   107.9700462 569.024000
   5447   5450   5453     1   114.2100488 537.225600
   5450   5453   5454     1   109.6600471 523.836800
   5450   5453   5464     1   109.6600471 523.836800
   5453   5454   5457     1   114.2100488 537.225600
   5453   5464   5467     1   114.2100488 537.225600
   5454   5453   5464     1   109.6600471 523.836800
   5454   5457   5460     1   111.0400475 529.694400
   5457   5460   5461     1   123.2000528 564.003200
   5457   5460   5462     1   112.7300484 572.371200
   5461   5460   5462     1   122.1000523 635.131200
   5464   5467   5470     1   111.0400475 529.694400
   5467   5470   5471     1   123.2000528 564.003200
   5467   5470   5472     1   112.7300484 572.371200
   5471   5470   5472     1   122.1000523 635.131200
   5476   5479   5482     1   111.5100476 526.347200
   5479   5482   5485     1   114.2100488 537.225600
   5479   5476   5506     1   107.9700462 569.024000
   5482   5485   5486     1   109.6600471 523.836800
   5482   5485   5496     1   109.6600471 523.836800
   5485   5486   5489     1   114.2100488 537.225600
   5485   5496   5499     1   114.2100488 537.225600
   5486   5489   5492     1   111.0400475 529.694400
   5486   5485   5496     1   109.6600471 523.836800
   5489   5492   5493     1   123.2000528 564.003200
   5489   5492   5494     1   112.7300484 572.371200
   5493   5492   5494     1   122.1000523 635.131200
   5496   5499   5502     1   111.0400475 529.694400
   5499   5502   5503     1   123.2000528 564.003200
   5499   5502   5504     1   112.7300484 572.371200
   5503   5502   5504     1   122.1000523 635.131200
   5508   5511   5514     1   111.5100476 526.347200
   5511   5508   5538     1   107.9700462 569.024000
   5511   5514   5517     1   114.2100488 537.225600
   5514   5517   5518     1   109.6600471 523.836800
   5514   5517   5528     1   109.6600471 523.836800
   5517   5518   5521     1   114.2100488 537.225600
   5517   5528   5531     1   114.2100488 537.225600
   5518   5517   5528     1   109.6600471 523.836800
   5518   5521   5524     1   111.0400475 529.694400
   5521   5524   5525     1   123.2000528 564.003200
   5521   5524   5526     1   112.7300484 572.371200
   5525   5524   5526     1   122.1000523 635.131200
   5528   5531   5534     1   111.0400475 529.694400
   5531   5534   5535     1   123.2000528 564.003200
   5531   5534   5536     1   112.7300484 572.371200
   5535   5534   5536     1   122.1000523 635.131200
   5540   5543   5546     1   111.5100476 526.347200
   5543   5546   5549     1   114.2100488 537.225600
   5543   5540   5570     1   107.9700462 569.024000
   5546   5549   5550     1   109.6600471 523.836800
   5546   5549   5560     1   109.6600471 523.836800
   5549   5550   5553     1   114.2100488 537.225600
   5549   5560   5563     1   114.2100488 537.225600
   5550   5553   5556     1   111.0400475 529.694400
   5550   5549   5560     1   109.6600471 523.836800
   5553   5556   5557     1   123.2000528 564.003200
   5553   5556   5558     1   112.7300484 572.371200
   5557   5556   5558     1   122.1000523 635.131200
   5560   5563   5566     1   111.0400475 529.694400
   5563   5566   5567     1   123.2000528 564.003200
   5563   5566   5568     1   112.7300484 572.371200
   5567   5566   5568     1   122.1000523 635.131200
   5572   5575   5578     1   111.5100476 526.347200
   5575   5572   5602     1   107.9700462 569.024000
   5575   5578   5581     1   114.2100488 537.225600
   5578   5581   5582     1   109.6600471 523.836800
   5578   5581   5592     1   109.6600471 523.836800
   5581   5582   5585     1   114.2100488 537.225600
   5581   5592   5595     1   114.2100488 537.225600
   5582   5581   5592     1   109.6600471 523.836800
   5582   5585   5588     1   111.0400475 529.694400
   5585   5588   5589     1   123.2000528 564.003200
   5585   5588   5590     1   112.7300484 572.371200
   5589   5588   5590     1   122.1000523 635.131200
   5592   5595   5598     1   111.0400475 529.694400
   5595   5598   5599     1   123.2000528 564.003200
   5595   5598   5600     1   112.7300484 572.371200
   5599   5598   5600     1   122.1000523 635.131200
   5604   5607   5610     1   111.5100476 526.347200
   5607   5610   5613     1   114.2100488 537.225600
   5607   5604   5634     1   107.9700462 569.024000
   5610   5613   5614     1   109.6600471 523.836800
   5610   5613   5624     1   109.6600471 523.836800
   5613   5614   5617     1   114.2100488 537.225600
   5613   5624   5627     1   114.2100488 537.225600
   5614   5617   5620     1   111.0400475 529.694400
   5614   5613   5624     1   109.6600471 523.836800
   5617   5620   5621     1   123.2000528 564.003200
   5617   5620   5622     1   112.7300484 572.371200
   5621   5620   5622     1   122.1000523 635.131200
   5624   5627   5630     1   111.0400475 529.694400
   5627   5630   5631     1   123.2000528 564.003200
   5627   5630   5632     1   112.7300484 572.371200
   5631   5630   5632     1   122.1000523 635.131200
   5636   5639   5642     1   111.5100476 526.347200
   5639   5636   5666     1   107.9700462 569.024000
   5639   5642   5645     1   114.2100488 537.225600
   5642   5645   5646     1   109.6600471 523.836800
   5642   5645   5656     1   109.6600471 523.836800
   5645   5646   5649     1   114.2100488 537.225600
   5645   5656   5659     1   114.2100488 537.225600
   5646   5645   5656     1   109.6600471 523.836800
   5646   5649   5652     1   111.0400475 529.694400
   5649   5652   5653     1   123.2000528 564.003200
   5649   5652   5654     1   112.7300484 572.371200
   5653   5652   5654     1   122.1000523 635.131200
   5656   5659   5662     1   111.0400475 529.694400
   5659   5662   5663     1   123.2000528 564.003200
   5659   5662   5664     1   112.7300484 572.371200
   5663   5662   5664     1   122.1000523 635.131200
   5668   5671   5674     1   111.5100476 526.347200
   5671   5674   5677     1   114.2100488 537.225600
   5671   5668   5698     1   107.9700462 569.024000
   5674   5677   5678     1   109.6600471 523.836800
   5674   5677   5688     1   109.6600471 523.836800
   5677   5678   5681     1   114.2100488 537.225600
   5677   5688   5691     1   114.2100488 537.225600
   5678   5681   5684     1   111.0400475 529.694400
   5678   5677   5688     1   109.6600471 523.836800
   5681   5684   5685     1   123.2000528 564.003200
   5681   5684   5686     1   112.7300484 572.371200
   5685   5684   5686     1   122.1000523 635.131200
   5688   5691   5694     1   111.0400475 529.694400
   5691   5694   5695     1   123.2000528 564.003200
   5691   5694   5696     1   112.7300484 572.371200
   5695   5694   5696     1   122.1000523 635.131200
   5700   5703   5706     1   111.5100476 526.347200
   5703   5700   5730     1   107.9700462 569.024000
   5703   5706   5709     1   114.2100488 537.225600
   5706   5709   5710     1   109.6600471 523.836800
   5706   5709   5720     1   109.6600471 523.836800
   5709   5710   5713     1   114.2100488 537.225600
   5709   5720   5723     1   114.2100488 537.225600
   5710   5709   5720     1   109.6600471 523.836800
   5710   5713   5716     1   111.0400475 529.694400
   5713   5716   5717     1   123.2000528 564.003200
   5713   5716   5718     1   112.7300484 572.371200
   5717   5716   5718     1   122.1000523 635.131200
   5720   5723   5726     1   111.0400475 529.694400
   5723   5726   5727     1   123.2000528 564.003200
   5723   5726   5728     1   112.7300484 572.371200
   5727   5726   5728     1   122.1000523 635.131200
   5732   5735   5738     1   111.5100476 526.347200
   5735   5738   5741     1   114.2100488 537.225600
   5735   5732   5762     1   107.9700462 569.024000
   5738   5741   5742     1   109.6600471 523.836800
   5738   5741   5752     1   109.6600471 523.836800
   5741   5742   5745     1   114.2100488 537.225600
   5741   5752   5755     1   114.2100488 537.225600
   5742   5745   5748     1   111.0400475 529.694400
   5742   5741   5752     1   109.6600471 523.836800
   5745   5748   5749     1   123.2000528 564.003200
   5745   5748   5750     1   112.7300484 572.371200
   5749   5748   5750     1   122.1000523 635.131200
   5752   5755   5758     1   111.0400475 529.694400
   5755   5758   5759     1   123.2000528 564.003200
   5755   5758   5760     1   112.7300484 572.371200
   5759   5758   5760     1   122.1000523 635.131200
   5764   5767   5770     1   111.5100476 526.347200
   5767   5764   5794     1   107.9700462 569.024000
   5767   5770   5773     1   114.2100488 537.225600
   5770   5773   5774     1   109.6600471 523.836800
   5770   5773   5784     1   109.6600471 523.836800
   5773   5774   5777     1   114.2100488 537.225600
   5773   5784   5787     1   114.2100488 537.225600
   5774   5773   5784     1   109.6600471 523.836800
   5774   5777   5780     1   111.0400475 529.694400
   5777   5780   5781     1   123.2000528 564.003200
   5777   5780   5782     1   112.7300484 572.371200
   5781   5780   5782     1   122.1000523 635.131200
   5784   5787   5790     1   111.0400475 529.694400
   5787   5790   5791     1   123.2000528 564.003200
   5787   5790   5792     1   112.7300484 572.371200
   5791   5790   5792     1   122.1000523 635.131200
   5796   5799   5802     1   111.5100476 526.347200
   5799   5802   5805     1   114.2100488 537.225600
   5799   5796   5826     1   107.9700462 569.024000
   5802   5805   5806     1   109.6600471 523.836800
   5802   5805   5816     1   109.6600471 523.836800
   5805   5806   5809     1   114.2100488 537.225600
   5805   5816   5819     1   114.2100488 537.225600
   5806   5809   5812     1   111.0400475 529.694400
   5806   5805   5816     1   109.6600471 523.836800
   5809   5812   5813     1   123.2000528 564.003200
   5809   5812   5814     1   112.7300484 572.371200
   5813   5812   5814     1   122.1000523 635.131200
   5816   5819   5822     1   111.0400475 529.694400
   5819   5822   5823     1   123.2000528 564.003200
   5819   5822   5824     1   112.7300484 572.371200
   5823   5822   5824     1   122.1000523 635.131200
   5828   5831   5834     1   111.5100476 526.347200
   5831   5828   5858     1   107.9700462 569.024000
   5831   5834   5837     1   114.2100488 537.225600
   5834   5837   5838     1   109.6600471 523.836800
   5834   5837   5848     1   109.6600471 523.836800
   5837   5838   5841     1   114.2100488 537.225600
   5837   5848   5851     1   114.2100488 537.225600
   5838   5837   5848     1   109.6600471 523.836800
   5838   5841   5844     1   111.0400475 529.694400
   5841   5844   5845     1   123.2000528 564.003200
   5841   5844   5846     1   112.7300484 572.371200
   5845   5844   5846     1   122.1000523 635.131200
   5848   5851   5854     1   111.0400475 529.694400
   5851   5854   5855     1   123.2000528 564.003200
   5851   5854   5856     1   112.7300484 572.371200
   5855   5854   5856     1   122.1000523 635.131200
   5860   5863   5866     1   111.5100476 526.347200
   5863   5866   5869     1   114.2100488 537.225600
   5863   5860   5890     1   107.9700462 569.024000
   5866   5869   5870     1   109.6600471 523.836800
   5866   5869   5880     1   109.6600471 523.836800
   5869   5870   5873     1   114.2100488 537.225600
   5869   5880   5883     1   114.2100488 537.225600
   5870   5873   5876     1   111.0400475 529.694400
   5870   5869   5880     1   109.6600471 523.836800
   5873   5876   5877     1   123.2000528 564.003200
   5873   5876   5878     1   112.7300484 572.371200
   5877   5876   5878     1   122.1000523 635.131200
   5880   5883   5886     1   111.0400475 529.694400
   5883   5886   5887     1   123.2000528 564.003200
   5883   5886   5888     1   112.7300484 572.371200
   5887   5886   5888     1   122.1000523 635.131200
      1      2      3     1   108.0100461 406.684800
      1      2      4     1   108.0100461 406.684800
      1      5      6     1   108.0100461 406.684800
      1      5      7     1   108.0100461 406.684800
      1      8      9     1   108.0100461 406.684800
      1      8     10     1   108.0100461 406.684800
      2      1     29     1   110.1100470 384.091200
      2     14     15     1   109.8000471 387.438400
      2     14     16     1   109.8000471 387.438400
      3      2     14     1   110.5600475 386.601600
      3      2      4     1   109.7500473 328.025600
      4      2     14     1   110.5600475 386.601600
      5      1     29     1   110.1100470 384.091200
      5     17     18     1   109.8000471 387.438400
      5     17     19     1   109.8000471 387.438400
      6      5     17     1   110.5600475 386.601600
      6      5      7     1   109.7500473 328.025600
      7      5     17     1   110.5600475 386.601600
      8      1     29     1   110.1100470 384.091200
      8     11     12     1   109.8000471 387.438400
      8     11     13     1   109.8000471 387.438400
      9      8     11     1   110.5600475 386.601600
      9      8     10     1   109.7500473 328.025600
     10      8     11     1   110.5600475 386.601600
     11     23     24     1   109.5600471 388.275200
     11     23     25     1   109.5600471 388.275200
     12     11     23     1   109.8000471 387.438400
     12     11     13     1   107.5800459 329.699200
     13     11     23     1   109.8000471 387.438400
     14     26     27     1   109.5600471 388.275200
     14     26     28     1   109.5600471 388.275200
     15     14     26     1   109.8000471 387.438400
     15     14     16     1   107.5800459 329.699200
     16     14     26     1   109.8000471 387.438400
     17     20     21     1   109.5600471 388.275200
     17     20     22     1   109.5600471 388.275200
     18     17     20     1   109.8000471 387.438400
     18     17     19     1   107.5800459 329.699200
     19     17     20     1   109.8000471 387.438400
     21     20     58     1   109.7800468 425.094400
     21     20     22     1   108.4600466 328.025600
     22     20     58     1   109.7800468 425.094400
     24     23     88     1   109.7800468 425.094400
     24     23     25     1   108.4600466 328.025600
     25     23     88     1   109.7800468 425.094400
     27     26    118     1   109.7800468 425.094400
     27     26     28     1   108.4600466 328.025600
     28     26    118     1   109.7800468 425.094400
     30     31     32     1   108.0100461 406.684800
     30     31     33     1   108.0100461 406.684800
     30     34     35     1   108.0100461 406.684800
     30     34     36     1   108.0100461 406.684800
     30     37     38     1   108.0100461 406.684800
     30     37     39     1   108.0100461 406.684800
     31     30     59     1   110.1100470 384.091200
     31     43     44     1   109.8000471 387.438400
     31     43     45     1   109.8000471 387.438400
     32     31     43     1   110.5600475 386.601600
     32     31     33     1   109.7500473 328.025600
     33     31     43     1   110.5600475 386.601600
     34     30     59     1   110.1100470 384.091200
     34     46     47     1   109.8000471 387.438400
     34     46     48     1   109.8000471 387.438400
     35     34     46     1   110.5600475 386.601600
     35     34     36     1   109.7500473 328.025600
     36     34     46     1   110.5600475 386.601600
     37     30     59     1   110.1100470 384.091200
     37     40     41     1   109.8000471 387.438400
     37     40     42     1   109.8000471 387.438400
     38     37     40     1   110.5600475 386.601600
     38     37     39     1   109.7500473 328.025600
     39     37     40     1   110.5600475 386.601600
     40     49     50     1   109.5600471 388.275200
     40     49     51     1   109.5600471 388.275200
     41     40     49     1   109.8000471 387.438400
     41     40     42     1   107.5800459 329.699200
     42     40     49     1   109.8000471 387.438400
     43     55     56     1   109.5600471 388.275200
     43     55     57     1   109.5600471 388.275200
     44     43     55     1   109.8000471 387.438400
     44     43     45     1   107.5800459 329.699200
     45     43     55     1   109.8000471 387.438400
     46     52     53     1   109.5600471 388.275200
     46     52     54     1   109.5600471 388.275200
     47     46     52     1   109.8000471 387.438400
     47     46     48     1   107.5800459 329.699200
     48     46     52     1   109.8000471 387.438400
     50     49     58     1   109.7800468 425.094400
     50     49     51     1   108.4600466 328.025600
     51     49     58     1   109.7800468 425.094400
     53     52    148     1   109.7800468 425.094400
     53     52     54     1   108.4600466 328.025600
     54     52    148     1   109.7800468 425.094400
     56     55    178     1   109.7800468 425.094400
     56     55     57     1   108.4600466 328.025600
     57     55    178     1   109.7800468 425.094400
     60     61     62     1   108.0100461 406.684800
     60     61     63     1   108.0100461 406.684800
     60     64     65     1   108.0100461 406.684800
     60     64     66     1   108.0100461 406.684800
     60     67     68     1   108.0100461 406.684800
     60     67     69     1   108.0100461 406.684800
     61     60     89     1   110.1100470 384.091200
     61     73     74     1   109.8000471 387.438400
     61     73     75     1   109.8000471 387.438400
     62     61     73     1   110.5600475 386.601600
     62     61     63     1   109.7500473 328.025600
     63     61     73     1   110.5600475 386.601600
     64     60     89     1   110.1100470 384.091200
     64     76     77     1   109.8000471 387.438400
     64     76     78     1   109.8000471 387.438400
     65     64     76     1   110.5600475 386.601600
     65     64     66     1   109.7500473 328.025600
     66     64     76     1   110.5600475 386.601600
     67     60     89     1   110.1100470 384.091200
     67     70     71     1   109.8000471 387.438400
     67     70     72     1   109.8000471 387.438400
     68     67     70     1   110.5600475 386.601600
     68     67     69     1   109.7500473 328.025600
     69     67     70     1   110.5600475 386.601600
     70     79     80     1   109.5600471 388.275200
     70     79     81     1   109.5600471 388.275200
     71     70     79     1   109.8000471 387.438400
     71     70     72     1   107.5800459 329.699200
     72     70     79     1   109.8000471 387.438400
     73     85     86     1   109.5600471 388.275200
     73     85     87     1   109.5600471 388.275200
     74     73     85     1   109.8000471 387.438400
     74     73     75     1   107.5800459 329.699200
     75     73     85     1   109.8000471 387.438400
     76     82     83     1   109.5600471 388.275200
     76     82     84     1   109.5600471 388.275200
     77     76     82     1   109.8000471 387.438400
     77     76     78     1   107.5800459 329.699200
     78     76     82     1   109.8000471 387.438400
     80     79     88     1   109.7800468 425.094400
     80     79     81     1   108.4600466 328.025600
     81     79     88     1   109.7800468 425.094400
     83     82    208     1   109.7800468 425.094400
     83     82     84     1   108.4600466 328.025600
     84     82    208     1   109.7800468 425.094400
     86     85    238     1   109.7800468 425.094400
     86     85     87     1   108.4600466 328.025600
     87     85    238     1   109.7800468 425.094400
     90     91     92     1   108.0100461 406.684800
     90     91     93     1   108.0100461 406.684800
     90     94     95     1   108.0100461 406.684800
     90     94     96     1   108.0100461 406.684800
     90     97     98     1   108.0100461 406.684800
     90     97     99     1   108.0100461 406.684800
     91     90    119     1   110.1100470 384.091200
     91    103    104     1   109.8000471 387.438400
     91    103    105     1   109.8000471 387.438400
     92     91    103     1   110.5600475 386.601600
     92     91     93     1   109.7500473 328.025600
     93     91    103     1   110.5600475 386.601600
     94     90    119     1   110.1100470 384.091200
     94    106    107     1   109.8000471 387.438400
     94    106    108     1   109.8000471 387.438400
     95     94    106     1   110.5600475 386.601600
     95     94     96     1   109.7500473 328.025600
     96     94    106     1   110.5600475 386.601600
     97     90    119     1   110.1100470 384.091200
     97    100    101     1   109.8000471 387.438400
     97    100    102     1   109.8000471 387.438400
     98     97    100     1   110.5600475 386.601600
     98     97     99     1   109.7500473 328.025600
     99     97    100     1   110.5600475 386.601600
    100    109    110     1   109.5600471 388.275200
    100    109    111     1   109.5600471 388.275200
    101    100    109     1   109.8000471 387.438400
    101    100    102     1   107.5800459 329.699200
    102    100    109     1   109.8000471 387.438400
    103    115    116     1   109.5600471 388.275200
    103    115    117     1   109.5600471 388.275200
    104    103    115     1   109.8000471 387.438400
    104    103    105     1   107.5800459 329.699200
    105    103    115     1   109.8000471 387.438400
    106    112    113     1   109.5600471 388.275200
    106    112    114     1   109.5600471 388.275200
    107    106    112     1   109.8000471 387.438400
    107    106    108     1   107.5800459 329.699200
    108    106    112     1   109.8000471 387.438400
    110    109    118     1   109.7800468 425.094400
    110    109    111     1   108.4600466 328.025600
    111    109    118     1   109.7800468 425.094400
    113    112    268     1   109.7800468 425.094400
    113    112    114     1   108.4600466 328.025600
    114    112    268     1   109.7800468 425.094400
    116    115    298     1   109.7800468 425.094400
    116    115    117     1   108.4600466 328.025600
    117    115    298     1   109.7800468 425.094400
    120    121    122     1   108.0100461 406.684800
    120    121    123     1   108.0100461 406.684800
    120    124    125     1   108.0100461 406.684800
    120    124    126     1   108.0100461 406.684800
    120    127    128     1   108.0100461 406.684800
    120    127    129     1   108.0100461 406.684800
    121    120    149     1   110.1100470 384.091200
    121    133    134     1   109.8000471 387.438400
    121    133    135     1   109.8000471 387.438400
    122    121    133     1   110.5600475 386.601600
    122    121    123     1   109.7500473 328.025600
    123    121    133     1   110.5600475 386.601600
    124    120    149     1   110.1100470 384.091200
    124    136    137     1   109.8000471 387.438400
    124    136    138     1   109.8000471 387.438400
    125    124    136     1   110.5600475 386.601600
    125    124    126     1   109.7500473 328.025600
    126    124    136     1   110.5600475 386.601600
    127    120    149     1   110.1100470 384.091200
    127    130    131     1   109.8000471 387.438400
    127    130    132     1   109.8000471 387.438400
    128    127    130     1   110.5600475 386.601600
    128    127    129     1   109.7500473 328.025600
    129    127    130     1   110.5600475 386.601600
    130    139    140     1   109.5600471 388.275200
    130    139    141     1   109.5600471 388.275200
    131    130    139     1   109.8000471 387.438400
    131    130    132     1   107.5800459 329.699200
    132    130    139     1   109.8000471 387.438400
    133    145    146     1   109.5600471 388.275200
    133    145    147     1   109.5600471 388.275200
    134    133    145     1   109.8000471 387.438400
    134    133    135     1   107.5800459 329.699200
    135    133    145     1   109.8000471 387.438400
    136    142    143     1   109.5600471 388.275200
    136    142    144     1   109.5600471 388.275200
    137    136    142     1   109.8000471 387.438400
    137    136    138     1   107.5800459 329.699200
    138    136    142     1   109.8000471 387.438400
    140    139    148     1   109.7800468 425.094400
    140    139    141     1   108.4600466 328.025600
    141    139    148     1   109.7800468 425.094400
    143    142    328     1   109.7800468 425.094400
    143    142    144     1   108.4600466 328.025600
    144    142    328     1   109.7800468 425.094400
    146    145    358     1   109.7800468 425.094400
    146    145    147     1   108.4600466 328.025600
    147    145    358     1   109.7800468 425.094400
    150    151    152     1   108.0100461 406.684800
    150    151    153     1   108.0100461 406.684800
    150    154    155     1   108.0100461 406.684800
    150    154    156     1   108.0100461 406.684800
    150    157    158     1   108.0100461 406.684800
    150    157    159     1   108.0100461 406.684800
    151    150    179     1   110.1100470 384.091200
    151    163    164     1   109.8000471 387.438400
    151    163    165     1   109.8000471 387.438400
    152    151    163     1   110.5600475 386.601600
    152    151    153     1   109.7500473 328.025600
    153    151    163     1   110.5600475 386.601600
    154    150    179     1   110.1100470 384.091200
    154    166    167     1   109.8000471 387.438400
    154    166    168     1   109.8000471 387.438400
    155    154    166     1   110.5600475 386.601600
    155    154    156     1   109.7500473 328.025600
    156    154    166     1   110.5600475 386.601600
    157    150    179     1   110.1100470 384.091200
    157    160    161     1   109.8000471 387.438400
    157    160    162     1   109.8000471 387.438400
    158    157    160     1   110.5600475 386.601600
    158    157    159     1   109.7500473 328.025600
    159    157    160     1   110.5600475 386.601600
    160    169    170     1   109.5600471 388.275200
    160    169    171     1   109.5600471 388.275200
    161    160    169     1   109.8000471 387.438400
    161    160    162     1   107.5800459 329.699200
    162    160    169     1   109.8000471 387.438400
    163    175    176     1   109.5600471 388.275200
    163    175    177     1   109.5600471 388.275200
    164    163    175     1   109.8000471 387.438400
    164    163    165     1   107.5800459 329.699200
    165    163    175     1   109.8000471 387.438400
    166    172    173     1   109.5600471 388.275200
    166    172    174     1   109.5600471 388.275200
    167    166    172     1   109.8000471 387.438400
    167    166    168     1   107.5800459 329.699200
    168    166    172     1   109.8000471 387.438400
    170    169    178     1   109.7800468 425.094400
    170    169    171     1   108.4600466 328.025600
    171    169    178     1   109.7800468 425.094400
    173    172    388     1   109.7800468 425.094400
    173    172    174     1   108.4600466 328.025600
    174    172    388     1   109.7800468 425.094400
    176    175    418     1   109.7800468 425.094400
    176    175    177     1   108.4600466 328.025600
    177    175    418     1   109.7800468 425.094400
    180    181    182     1   108.0100461 406.684800
    180    181    183     1   108.0100461 406.684800
    180    184    185     1   108.0100461 406.684800
    180    184    186     1   108.0100461 406.684800
    180    187    188     1   108.0100461 406.684800
    180    187    189     1   108.0100461 406.684800
    181    180    209     1   110.1100470 384.091200
    181    193    194     1   109.8000471 387.438400
    181    193    195     1   109.8000471 387.438400
    182    181    193     1   110.5600475 386.601600
    182    181    183     1   109.7500473 328.025600
    183    181    193     1   110.5600475 386.601600
    184    180    209     1   110.1100470 384.091200
    184    196    197     1   109.8000471 387.438400
    184    196    198     1   109.8000471 387.438400
    185    184    196     1   110.5600475 386.601600
    185    184    186     1   109.7500473 328.025600
    186    184    196     1   110.5600475 386.601600
    187    180    209     1   110.1100470 384.091200
    187    190    191     1   109.8000471 387.438400
    187    190    192     1   109.8000471 387.438400
    188    187    190     1   110.5600475 386.601600
    188    187    189     1   109.7500473 328.025600
    189    187    190     1   110.5600475 386.601600
    190    199    200     1   109.5600471 388.275200
    190    199    201     1   109.5600471 388.275200
    191    190    199     1   109.8000471 387.438400
    191    190    192     1   107.5800459 329.699200
    192    190    199     1   109.8000471 387.438400
    193    205    206     1   109.5600471 388.275200
    193    205    207     1   109.5600471 388.275200
    194    193    205     1   109.8000471 387.438400
    194    193    195     1   107.5800459 329.699200
    195    193    205     1   109.8000471 387.438400
    196    202    203     1   109.5600471 388.275200
    196    202    204     1   109.5600471 388.275200
    197    196    202     1   109.8000471 387.438400
    197    196    198     1   107.5800459 329.699200
    198    196    202     1   109.8000471 387.438400
    200    199    208     1   109.7800468 425.094400
    200    199    201     1   108.4600466 328.025600
    201    199    208     1   109.7800468 425.094400
    203    202    448     1   109.7800468 425.094400
    203    202    204     1   108.4600466 328.025600
    204    202    448     1   109.7800468 425.094400
    206    205    478     1   109.7800468 425.094400
    206    205    207     1   108.4600466 328.025600
    207    205    478     1   109.7800468 425.094400
    210    211    212     1   108.0100461 406.684800
    210    211    213     1   108.0100461 406.684800
    210    214    215     1   108.0100461 406.684800
    210    214    216     1   108.0100461 406.684800
    210    217    218     1   108.0100461 406.684800
    210    217    219     1   108.0100461 406.684800
    211    210    239     1   110.1100470 384.091200
    211    223    224     1   109.8000471 387.438400
    211    223    225     1   109.8000471 387.438400
    212    211    223     1   110.5600475 386.601600
    212    211    213     1   109.7500473 328.025600
    213    211    223     1   110.5600475 386.601600
    214    210    239     1   110.1100470 384.091200
    214    226    227     1   109.8000471 387.438400
    214    226    228     1   109.8000471 387.438400
    215    214    226     1   110.5600475 386.601600
    215    214    216     1   109.7500473 328.025600
    216    214    226     1   110.5600475 386.601600
    217    210    239     1   110.1100470 384.091200
    217    220    221     1   109.8000471 387.438400
    217    220    222     1   109.8000471 387.438400
    218    217    220     1   110.5600475 386.601600
    218    217    219     1   109.7500473 328.025600
    219    217    220     1   110.5600475 386.601600
    220    229    230     1   109.5600471 388.275200
    220    229    231     1   109.5600471 388.275200
    221    220    229     1   109.8000471 387.438400
    221    220    222     1   107.5800459 329.699200
    222    220    229     1   109.8000471 387.438400
    223    235    236     1   109.5600471 388.275200
    223    235    237     1   109.5600471 388.275200
    224    223    235     1   109.8000471 387.438400
    224    223    225     1   107.5800459 329.699200
    225    223    235     1   109.8000471 387.438400
    226    232    233     1   109.5600471 388.275200
    226    232    234     1   109.5600471 388.275200
    227    226    232     1   109.8000471 387.438400
    227    226    228     1   107.5800459 329.699200
    228    226    232     1   109.8000471 387.438400
    230    229    238     1   109.7800468 425.094400
    230    229    231     1   108.4600466 328.025600
    231    229    238     1   109.7800468 425.094400
    233    232    508     1   109.7800468 425.094400
    233    232    234     1   108.4600466 328.025600
    234    232    508     1   109.7800468 425.094400
    236    235    538     1   109.7800468 425.094400
    236    235    237     1   108.4600466 328.025600
    237    235    538     1   109.7800468 425.094400
    240    241    242     1   108.0100461 406.684800
    240    241    243     1   108.0100461 406.684800
    240    244    245     1   108.0100461 406.684800
    240    244    246     1   108.0100461 406.684800
    240    247    248     1   108.0100461 406.684800
    240    247    249     1   108.0100461 406.684800
    241    240    269     1   110.1100470 384.091200
    241    253    254     1   109.8000471 387.438400
    241    253    255     1   109.8000471 387.438400
    242    241    253     1   110.5600475 386.601600
    242    241    243     1   109.7500473 328.025600
    243    241    253     1   110.5600475 386.601600
    244    240    269     1   110.1100470 384.091200
    244    256    257     1   109.8000471 387.438400
    244    256    258     1   109.8000471 387.438400
    245    244    256     1   110.5600475 386.601600
    245    244    246     1   109.7500473 328.025600
    246    244    256     1   110.5600475 386.601600
    247    240    269     1   110.1100470 384.091200
    247    250    251     1   109.8000471 387.438400
    247    250    252     1   109.8000471 387.438400
    248    247    250     1   110.5600475 386.601600
    248    247    249     1   109.7500473 328.025600
    249    247    250     1   110.5600475 386.601600
    250    259    260     1   109.5600471 388.275200
    250    259    261     1   109.5600471 388.275200
    251    250    259     1   109.8000471 387.438400
    251    250    252     1   107.5800459 329.699200
    252    250    259     1   109.8000471 387.438400
    253    265    266     1   109.5600471 388.275200
    253    265    267     1   109.5600471 388.275200
    254    253    265     1   109.8000471 387.438400
    254    253    255     1   107.5800459 329.699200
    255    253    265     1   109.8000471 387.438400
    256    262    263     1   109.5600471 388.275200
    256    262    264     1   109.5600471 388.275200
    257    256    262     1   109.8000471 387.438400
    257    256    258     1   107.5800459 329.699200
    258    256    262     1   109.8000471 387.438400
    260    259    268     1   109.7800468 425.094400
    260    259    261     1   108.4600466 328.025600
    261    259    268     1   109.7800468 425.094400
    263    262    568     1   109.7800468 425.094400
    263    262    264     1   108.4600466 328.025600
    264    262    568     1   109.7800468 425.094400
    266    265    598     1   109.7800468 425.094400
    266    265    267     1   108.4600466 328.025600
    267    265    598     1   109.7800468 425.094400
    270    271    272     1   108.0100461 406.684800
    270    271    273     1   108.0100461 406.684800
    270    274    275     1   108.0100461 406.684800
    270    274    276     1   108.0100461 406.684800
    270    277    278     1   108.0100461 406.684800
    270    277    279     1   108.0100461 406.684800
    271    270    299     1   110.1100470 384.091200
    271    283    284     1   109.8000471 387.438400
    271    283    285     1   109.8000471 387.438400
    272    271    283     1   110.5600475 386.601600
    272    271    273     1   109.7500473 328.025600
    273    271    283     1   110.5600475 386.601600
    274    270    299     1   110.1100470 384.091200
    274    286    287     1   109.8000471 387.438400
    274    286    288     1   109.8000471 387.438400
    275    274    286     1   110.5600475 386.601600
    275    274    276     1   109.7500473 328.025600
    276    274    286     1   110.5600475 386.601600
    277    270    299     1   110.1100470 384.091200
    277    280    281     1   109.8000471 387.438400
    277    280    282     1   109.8000471 387.438400
    278    277    280     1   110.5600475 386.601600
    278    277    279     1   109.7500473 328.025600
    279    277    280     1   110.5600475 386.601600
    280    289    290     1   109.5600471 388.275200
    280    289    291     1   109.5600471 388.275200
    281    280    289     1   109.8000471 387.438400
    281    280    282     1   107.5800459 329.699200
    282    280    289     1   109.8000471 387.438400
    283    295    296     1   109.5600471 388.275200
    283    295    297     1   109.5600471 388.275200
    284    283    295     1   109.8000471 387.438400
    284    283    285     1   107.5800459 329.699200
    285    283    295     1   109.8000471 387.438400
    286    292    293     1   109.5600471 388.275200
    286    292    294     1   109.5600471 388.275200
    287    286    292     1   109.8000471 387.438400
    287    286    288     1   107.5800459 329.699200
    288    286    292     1   109.8000471 387.438400
    290    289    298     1   109.7800468 425.094400
    290    289    291     1   108.4600466 328.025600
    291    289    298     1   109.7800468 425.094400
    293    292    628     1   109.7800468 425.094400
    293    292    294     1   108.4600466 328.025600
    294    292    628     1   109.7800468 425.094400
    296    295    658     1   109.7800468 425.094400
    296    295    297     1   108.4600466 328.025600
    297    295    658     1   109.7800468 425.094400
    300    301    302     1   108.0100461 406.684800
    300    301    303     1   108.0100461 406.684800
    300    304    305     1   108.0100461 406.684800
    300    304    306     1   108.0100461 406.684800
    300    307    308     1   108.0100461 406.684800
    300    307    309     1   108.0100461 406.684800
    301    300    329     1   110.1100470 384.091200
    301    313    314     1   109.8000471 387.438400
    301    313    315     1   109.8000471 387.438400
    302    301    313     1   110.5600475 386.601600
    302    301    303     1   109.7500473 328.025600
    303    301    313     1   110.5600475 386.601600
    304    300    329     1   110.1100470 384.091200
    304    316    317     1   109.8000471 387.438400
    304    316    318     1   109.8000471 387.438400
    305    304    316     1   110.5600475 386.601600
    305    304    306     1   109.7500473 328.025600
    306    304    316     1   110.5600475 386.601600
    307    300    329     1   110.1100470 384.091200
    307    310    311     1   109.8000471 387.438400
    307    310    312     1   109.8000471 387.438400
    308    307    310     1   110.5600475 386.601600
    308    307    309     1   109.7500473 328.025600
    309    307    310     1   110.5600475 386.601600
    310    319    320     1   109.5600471 388.275200
    310    319    321     1   109.5600471 388.275200
    311    310    319     1   109.8000471 387.438400
    311    310    312     1   107.5800459 329.699200
    312    310    319     1   109.8000471 387.438400
    313    325    326     1   109.5600471 388.275200
    313    325    327     1   109.5600471 388.275200
    314    313    325     1   109.8000471 387.438400
    314    313    315     1   107.5800459 329.699200
    315    313    325     1   109.8000471 387.438400
    316    322    323     1   109.5600471 388.275200
    316    322    324     1   109.5600471 388.275200
    317    316    322     1   109.8000471 387.438400
    317    316    318     1   107.5800459 329.699200
    318    316    322     1   109.8000471 387.438400
    320    319    328     1   109.7800468 425.094400
    320    319    321     1   108.4600466 328.025600
    321    319    328     1   109.7800468 425.094400
    323    322    688     1   109.7800468 425.094400
    323    322    324     1   108.4600466 328.025600
    324    322    688     1   109.7800468 425.094400
    326    325    718     1   109.7800468 425.094400
    326    325    327     1   108.4600466 328.025600
    327    325    718     1   109.7800468 425.094400
    330    331    332     1   108.0100461 406.684800
    330    331    333     1   108.0100461 406.684800
    330    334    335     1   108.0100461 406.684800
    330    334    336     1   108.0100461 406.684800
    330    337    338     1   108.0100461 406.684800
    330    337    339     1   108.0100461 406.684800
    331    330    359     1   110.1100470 384.091200
    331    343    344     1   109.8000471 387.438400
    331    343    345     1   109.8000471 387.438400
    332    331    343     1   110.5600475 386.601600
    332    331    333     1   109.7500473 328.025600
    333    331    343     1   110.5600475 386.601600
    334    330    359     1   110.1100470 384.091200
    334    346    347     1   109.8000471 387.438400
    334    346    348     1   109.8000471 387.438400
    335    334    346     1   110.5600475 386.601600
    335    334    336     1   109.7500473 328.025600
    336    334    346     1   110.5600475 386.601600
    337    330    359     1   110.1100470 384.091200
    337    340    341     1   109.8000471 387.438400
    337    340    342     1   109.8000471 387.438400
    338    337    340     1   110.5600475 386.601600
    338    337    339     1   109.7500473 328.025600
    339    337    340     1   110.5600475 386.601600
    340    349    350     1   109.5600471 388.275200
    340    349    351     1   109.5600471 388.275200
    341    340    349     1   109.8000471 387.438400
    341    340    342     1   107.5800459 329.699200
    342    340    349     1   109.8000471 387.438400
    343    355    356     1   109.5600471 388.275200
    343    355    357     1   109.5600471 388.275200
    344    343    355     1   109.8000471 387.438400
    344    343    345     1   107.5800459 329.699200
    345    343    355     1   109.8000471 387.438400
    346    352    353     1   109.5600471 388.275200
    346    352    354     1   109.5600471 388.275200
    347    346    352     1   109.8000471 387.438400
    347    346    348     1   107.5800459 329.699200
    348    346    352     1   109.8000471 387.438400
    350    349    358     1   109.7800468 425.094400
    350    349    351     1   108.4600466 328.025600
    351    349    358     1   109.7800468 425.094400
    353    352    748     1   109.7800468 425.094400
    353    352    354     1   108.4600466 328.025600
    354    352    748     1   109.7800468 425.094400
    356    355    778     1   109.7800468 425.094400
    356    355    357     1   108.4600466 328.025600
    357    355    778     1   109.7800468 425.094400
    360    361    362     1   108.0100461 406.684800
    360    361    363     1   108.0100461 406.684800
    360    364    365     1   108.0100461 406.684800
    360    364    366     1   108.0100461 406.684800
    360    367    368     1   108.0100461 406.684800
    360    367    369     1   108.0100461 406.684800
    361    360    389     1   110.1100470 384.091200
    361    373    374     1   109.8000471 387.438400
    361    373    375     1   109.8000471 387.438400
    362    361    373     1   110.5600475 386.601600
    362    361    363     1   109.7500473 328.025600
    363    361    373     1   110.5600475 386.601600
    364    360    389     1   110.1100470 384.091200
    364    376    377     1   109.8000471 387.438400
    364    376    378     1   109.8000471 387.438400
    365    364    376     1   110.5600475 386.601600
    365    364    366     1   109.7500473 328.025600
    366    364    376     1   110.5600475 386.601600
    367    360    389     1   110.1100470 384.091200
    367    370    371     1   109.8000471 387.438400
    367    370    372     1   109.8000471 387.438400
    368    367    370     1   110.5600475 386.601600
    368    367    369     1   109.7500473 328.025600
    369    367    370     1   110.5600475 386.601600
    370    379    380     1   109.5600471 388.275200
    370    379    381     1   109.5600471 388.275200
    371    370    379     1   109.8000471 387.438400
    371    370    372     1   107.5800459 329.699200
    372    370    379     1   109.8000471 387.438400
    373    385    386     1   109.5600471 388.275200
    373    385    387     1   109.5600471 388.275200
    374    373    385     1   109.8000471 387.438400
    374    373    375     1   107.5800459 329.699200
    375    373    385     1   109.8000471 387.438400
    376    382    383     1   109.5600471 388.275200
    376    382    384     1   109.5600471 388.275200
    377    376    382     1   109.8000471 387.438400
    377    376    378     1   107.5800459 329.699200
    378    376    382     1   109.8000471 387.438400
    380    379    388     1   109.7800468 425.094400
    380    379    381     1   108.4600466 328.025600
    381    379    388     1   109.7800468 425.094400
    383    382    808     1   109.7800468 425.094400
    383    382    384     1   108.4600466 328.025600
    384    382    808     1   109.7800468 425.094400
    386    385    838     1   109.7800468 425.094400
    386    385    387     1   108.4600466 328.025600
    387    385    838     1   109.7800468 425.094400
    390    391    392     1   108.0100461 406.684800
    390    391    393     1   108.0100461 406.684800
    390    394    395     1   108.0100461 406.684800
    390    394    396     1   108.0100461 406.684800
    390    397    398     1   108.0100461 406.684800
    390    397    399     1   108.0100461 406.684800
    391    390    419     1   110.1100470 384.091200
    391    403    404     1   109.8000471 387.438400
    391    403    405     1   109.8000471 387.438400
    392    391    403     1   110.5600475 386.601600
    392    391    393     1   109.7500473 328.025600
    393    391    403     1   110.5600475 386.601600
    394    390    419     1   110.1100470 384.091200
    394    406    407     1   109.8000471 387.438400
    394    406    408     1   109.8000471 387.438400
    395    394    406     1   110.5600475 386.601600
    395    394    396     1   109.7500473 328.025600
    396    394    406     1   110.5600475 386.601600
    397    390    419     1   110.1100470 384.091200
    397    400    401     1   109.8000471 387.438400
    397    400    402     1   109.8000471 387.438400
    398    397    400     1   110.5600475 386.601600
    398    397    399     1   109.7500473 328.025600
    399    397    400     1   110.5600475 386.601600
    400    409    410     1   109.5600471 388.275200
    400    409    411     1   109.5600471 388.275200
    401    400    409     1   109.8000471 387.438400
    401    400    402     1   107.5800459 329.699200
    402    400    409     1   109.8000471 387.438400
    403    415    416     1   109.5600471 388.275200
    403    415    417     1   109.5600471 388.275200
    404    403    415     1   109.8000471 387.438400
    404    403    405     1   107.5800459 329.699200
    405    403    415     1   109.8000471 387.438400
    406    412    413     1   109.5600471 388.275200
    406    412    414     1   109.5600471 388.275200
    407    406    412     1   109.8000471 387.438400
    407    406    408     1   107.5800459 329.699200
    408    406    412     1   109.8000471 387.438400
    410    409    418     1   109.7800468 425.094400
    410    409    411     1   108.4600466 328.025600
    411    409    418     1   109.7800468 425.094400
    413    412    868     1   109.7800468 425.094400
    413    412    414     1   108.4600466 328.025600
    414    412    868     1   109.7800468 425.094400
    416    415    898     1   109.7800468 425.094400
    416    415    417     1   108.4600466 328.025600
    417    415    898     1   109.7800468 425.094400
    420    421    422     1   108.0100461 406.684800
    420    421    423     1   108.0100461 406.684800
    420    424    425     1   108.0100461 406.684800
    420    424    426     1   108.0100461 406.684800
    420    427    428     1   108.0100461 406.684800
    420    427    429     1   108.0100461 406.684800
    421    420    449     1   110.1100470 384.091200
    421    433    434     1   109.8000471 387.438400
    421    433    435     1   109.8000471 387.438400
    422    421    433     1   110.5600475 386.601600
    422    421    423     1   109.7500473 328.025600
    423    421    433     1   110.5600475 386.601600
    424    420    449     1   110.1100470 384.091200
    424    436    437     1   109.8000471 387.438400
    424    436    438     1   109.8000471 387.438400
    425    424    436     1   110.5600475 386.601600
    425    424    426     1   109.7500473 328.025600
    426    424    436     1   110.5600475 386.601600
    427    420    449     1   110.1100470 384.091200
    427    430    431     1   109.8000471 387.438400
    427    430    432     1   109.8000471 387.438400
    428    427    430     1   110.5600475 386.601600
    428    427    429     1   109.7500473 328.025600
    429    427    430     1   110.5600475 386.601600
    430    439    440     1   109.5600471 388.275200
    430    439    441     1   109.5600471 388.275200
    431    430    439     1   109.8000471 387.438400
    431    430    432     1   107.5800459 329.699200
    432    430    439     1   109.8000471 387.438400
    433    445    446     1   109.5600471 388.275200
    433    445    447     1   109.5600471 388.275200
    434    433    445     1   109.8000471 387.438400
    434    433    435     1   107.5800459 329.699200
    435    433    445     1   109.8000471 387.438400
    436    442    443     1   109.5600471 388.275200
    436    442    444     1   109.5600471 388.275200
    437    436    442     1   109.8000471 387.438400
    437    436    438     1   107.5800459 329.699200
    438    436    442     1   109.8000471 387.438400
    440    439    448     1   109.7800468 425.094400
    440    439    441     1   108.4600466 328.025600
    441    439    448     1   109.7800468 425.094400
    443    442    928     1   109.7800468 425.094400
    443    442    444     1   108.4600466 328.025600
    444    442    928     1   109.7800468 425.094400
    446    445    958     1   109.7800468 425.094400
    446    445    447     1   108.4600466 328.025600
    447    445    958     1   109.7800468 425.094400
    450    451    452     1   108.0100461 406.684800
    450    451    453     1   108.0100461 406.684800
    450    454    455     1   108.0100461 406.684800
    450    454    456     1   108.0100461 406.684800
    450    457    458     1   108.0100461 406.684800
    450    457    459     1   108.0100461 406.684800
    451    450    479     1   110.1100470 384.091200
    451    463    464     1   109.8000471 387.438400
    451    463    465     1   109.8000471 387.438400
    452    451    463     1   110.5600475 386.601600
    452    451    453     1   109.7500473 328.025600
    453    451    463     1   110.5600475 386.601600
    454    450    479     1   110.1100470 384.091200
    454    466    467     1   109.8000471 387.438400
    454    466    468     1   109.8000471 387.438400
    455    454    466     1   110.5600475 386.601600
    455    454    456     1   109.7500473 328.025600
    456    454    466     1   110.5600475 386.601600
    457    450    479     1   110.1100470 384.091200
    457    460    461     1   109.8000471 387.438400
    457    460    462     1   109.8000471 387.438400
    458    457    460     1   110.5600475 386.601600
    458    457    459     1   109.7500473 328.025600
    459    457    460     1   110.5600475 386.601600
    460    469    470     1   109.5600471 388.275200
    460    469    471     1   109.5600471 388.275200
    461    460    469     1   109.8000471 387.438400
    461    460    462     1   107.5800459 329.699200
    462    460    469     1   109.8000471 387.438400
    463    475    476     1   109.5600471 388.275200
    463    475    477     1   109.5600471 388.275200
    464    463    475     1   109.8000471 387.438400
    464    463    465     1   107.5800459 329.699200
    465    463    475     1   109.8000471 387.438400
    466    472    473     1   109.5600471 388.275200
    466    472    474     1   109.5600471 388.275200
    467    466    472     1   109.8000471 387.438400
    467    466    468     1   107.5800459 329.699200
    468    466    472     1   109.8000471 387.438400
    470    469    478     1   109.7800468 425.094400
    470    469    471     1   108.4600466 328.025600
    471    469    478     1   109.7800468 425.094400
    473    472    988     1   109.7800468 425.094400
    473    472    474     1   108.4600466 328.025600
    474    472    988     1   109.7800468 425.094400
    476    475   1018     1   109.7800468 425.094400
    476    475    477     1   108.4600466 328.025600
    477    475   1018     1   109.7800468 425.094400
    480    481    482     1   108.0100461 406.684800
    480    481    483     1   108.0100461 406.684800
    480    484    485     1   108.0100461 406.684800
    480    484    486     1   108.0100461 406.684800
    480    487    488     1   108.0100461 406.684800
    480    487    489     1   108.0100461 406.684800
    481    480    509     1   110.1100470 384.091200
    481    493    494     1   109.8000471 387.438400
    481    493    495     1   109.8000471 387.438400
    482    481    493     1   110.5600475 386.601600
    482    481    483     1   109.7500473 328.025600
    483    481    493     1   110.5600475 386.601600
    484    480    509     1   110.1100470 384.091200
    484    496    497     1   109.8000471 387.438400
    484    496    498     1   109.8000471 387.438400
    485    484    496     1   110.5600475 386.601600
    485    484    486     1   109.7500473 328.025600
    486    484    496     1   110.5600475 386.601600
    487    480    509     1   110.1100470 384.091200
    487    490    491     1   109.8000471 387.438400
    487    490    492     1   109.8000471 387.438400
    488    487    490     1   110.5600475 386.601600
    488    487    489     1   109.7500473 328.025600
    489    487    490     1   110.5600475 386.601600
    490    499    500     1   109.5600471 388.275200
    490    499    501     1   109.5600471 388.275200
    491    490    499     1   109.8000471 387.438400
    491    490    492     1   107.5800459 329.699200
    492    490    499     1   109.8000471 387.438400
    493    505    506     1   109.5600471 388.275200
    493    505    507     1   109.5600471 388.275200
    494    493    505     1   109.8000471 387.438400
    494    493    495     1   107.5800459 329.699200
    495    493    505     1   109.8000471 387.438400
    496    502    503     1   109.5600471 388.275200
    496    502    504     1   109.5600471 388.275200
    497    496    502     1   109.8000471 387.438400
    497    496    498     1   107.5800459 329.699200
    498    496    502     1   109.8000471 387.438400
    500    499    508     1   109.7800468 425.094400
    500    499    501     1   108.4600466 328.025600
    501    499    508     1   109.7800468 425.094400
    503    502   1048     1   109.7800468 425.094400
    503    502    504     1   108.4600466 328.025600
    504    502   1048     1   109.7800468 425.094400
    506    505   1078     1   109.7800468 425.094400
    506    505    507     1   108.4600466 328.025600
    507    505   1078     1   109.7800468 425.094400
    510    511    512     1   108.0100461 406.684800
    510    511    513     1   108.0100461 406.684800
    510    514    515     1   108.0100461 406.684800
    510    514    516     1   108.0100461 406.684800
    510    517    518     1   108.0100461 406.684800
    510    517    519     1   108.0100461 406.684800
    511    510    539     1   110.1100470 384.091200
    511    523    524     1   109.8000471 387.438400
    511    523    525     1   109.8000471 387.438400
    512    511    523     1   110.5600475 386.601600
    512    511    513     1   109.7500473 328.025600
    513    511    523     1   110.5600475 386.601600
    514    510    539     1   110.1100470 384.091200
    514    526    527     1   109.8000471 387.438400
    514    526    528     1   109.8000471 387.438400
    515    514    526     1   110.5600475 386.601600
    515    514    516     1   109.7500473 328.025600
    516    514    526     1   110.5600475 386.601600
    517    510    539     1   110.1100470 384.091200
    517    520    521     1   109.8000471 387.438400
    517    520    522     1   109.8000471 387.438400
    518    517    520     1   110.5600475 386.601600
    518    517    519     1   109.7500473 328.025600
    519    517    520     1   110.5600475 386.601600
    520    529    530     1   109.5600471 388.275200
    520    529    531     1   109.5600471 388.275200
    521    520    529     1   109.8000471 387.438400
    521    520    522     1   107.5800459 329.699200
    522    520    529     1   109.8000471 387.438400
    523    535    536     1   109.5600471 388.275200
    523    535    537     1   109.5600471 388.275200
    524    523    535     1   109.8000471 387.438400
    524    523    525     1   107.5800459 329.699200
    525    523    535     1   109.8000471 387.438400
    526    532    533     1   109.5600471 388.275200
    526    532    534     1   109.5600471 388.275200
    527    526    532     1   109.8000471 387.438400
    527    526    528     1   107.5800459 329.699200
    528    526    532     1   109.8000471 387.438400
    530    529    538     1   109.7800468 425.094400
    530    529    531     1   108.4600466 328.025600
    531    529    538     1   109.7800468 425.094400
    533    532   1108     1   109.7800468 425.094400
    533    532    534     1   108.4600466 328.025600
    534    532   1108     1   109.7800468 425.094400
    536    535   1138     1   109.7800468 425.094400
    536    535    537     1   108.4600466 328.025600
    537    535   1138     1   109.7800468 425.094400
    540    541    542     1   108.0100461 406.684800
    540    541    543     1   108.0100461 406.684800
    540    544    545     1   108.0100461 406.684800
    540    544    546     1   108.0100461 406.684800
    540    547    548     1   108.0100461 406.684800
    540    547    549     1   108.0100461 406.684800
    541    540    569     1   110.1100470 384.091200
    541    553    554     1   109.8000471 387.438400
    541    553    555     1   109.8000471 387.438400
    542    541    553     1   110.5600475 386.601600
    542    541    543     1   109.7500473 328.025600
    543    541    553     1   110.5600475 386.601600
    544    540    569     1   110.1100470 384.091200
    544    556    557     1   109.8000471 387.438400
    544    556    558     1   109.8000471 387.438400
    545    544    556     1   110.5600475 386.601600
    545    544    546     1   109.7500473 328.025600
    546    544    556     1   110.5600475 386.601600
    547    540    569     1   110.1100470 384.091200
    547    550    551     1   109.8000471 387.438400
    547    550    552     1   109.8000471 387.438400
    548    547    550     1   110.5600475 386.601600
    548    547    549     1   109.7500473 328.025600
    549    547    550     1   110.5600475 386.601600
    550    559    560     1   109.5600471 388.275200
    550    559    561     1   109.5600471 388.275200
    551    550    559     1   109.8000471 387.438400
    551    550    552     1   107.5800459 329.699200
    552    550    559     1   109.8000471 387.438400
    553    565    566     1   109.5600471 388.275200
    553    565    567     1   109.5600471 388.275200
    554    553    565     1   109.8000471 387.438400
    554    553    555     1   107.5800459 329.699200
    555    553    565     1   109.8000471 387.438400
    556    562    563     1   109.5600471 388.275200
    556    562    564     1   109.5600471 388.275200
    557    556    562     1   109.8000471 387.438400
    557    556    558     1   107.5800459 329.699200
    558    556    562     1   109.8000471 387.438400
    560    559    568     1   109.7800468 425.094400
    560    559    561     1   108.4600466 328.025600
    561    559    568     1   109.7800468 425.094400
    563    562   1168     1   109.7800468 425.094400
    563    562    564     1   108.4600466 328.025600
    564    562   1168     1   109.7800468 425.094400
    566    565   1198     1   109.7800468 425.094400
    566    565    567     1   108.4600466 328.025600
    567    565   1198     1   109.7800468 425.094400
    570    571    572     1   108.0100461 406.684800
    570    571    573     1   108.0100461 406.684800
    570    574    575     1   108.0100461 406.684800
    570    574    576     1   108.0100461 406.684800
    570    577    578     1   108.0100461 406.684800
    570    577    579     1   108.0100461 406.684800
    571    570    599     1   110.1100470 384.091200
    571    583    584     1   109.8000471 387.438400
    571    583    585     1   109.8000471 387.438400
    572    571    583     1   110.5600475 386.601600
    572    571    573     1   109.7500473 328.025600
    573    571    583     1   110.5600475 386.601600
    574    570    599     1   110.1100470 384.091200
    574    586    587     1   109.8000471 387.438400
    574    586    588     1   109.8000471 387.438400
    575    574    586     1   110.5600475 386.601600
    575    574    576     1   109.7500473 328.025600
    576    574    586     1   110.5600475 386.601600
    577    570    599     1   110.1100470 384.091200
    577    580    581     1   109.8000471 387.438400
    577    580    582     1   109.8000471 387.438400
    578    577    580     1   110.5600475 386.601600
    578    577    579     1   109.7500473 328.025600
    579    577    580     1   110.5600475 386.601600
    580    589    590     1   109.5600471 388.275200
    580    589    591     1   109.5600471 388.275200
    581    580    589     1   109.8000471 387.438400
    581    580    582     1   107.5800459 329.699200
    582    580    589     1   109.8000471 387.438400
    583    595    596     1   109.5600471 388.275200
    583    595    597     1   109.5600471 388.275200
    584    583    595     1   109.8000471 387.438400
    584    583    585     1   107.5800459 329.699200
    585    583    595     1   109.8000471 387.438400
    586    592    593     1   109.5600471 388.275200
    586    592    594     1   109.5600471 388.275200
    587    586    592     1   109.8000471 387.438400
    587    586    588     1   107.5800459 329.699200
    588    586    592     1   109.8000471 387.438400
    590    589    598     1   109.7800468 425.094400
    590    589    591     1   108.4600466 328.025600
    591    589    598     1   109.7800468 425.094400
    593    592   1228     1   109.7800468 425.094400
    593    592    594     1   108.4600466 328.025600
    594    592   1228     1   109.7800468 425.094400
    596    595   1258     1   109.7800468 425.094400
    596    595    597     1   108.4600466 328.025600
    597    595   1258     1   109.7800468 425.094400
    600    601    602     1   108.0100461 406.684800
    600    601    603     1   108.0100461 406.684800
    600    604    605     1   108.0100461 406.684800
    600    604    606     1   108.0100461 406.684800
    600    607    608     1   108.0100461 406.684800
    600    607    609     1   108.0100461 406.684800
    601    600    629     1   110.1100470 384.091200
    601    613    614     1   109.8000471 387.438400
    601    613    615     1   109.8000471 387.438400
    602    601    613     1   110.5600475 386.601600
    602    601    603     1   109.7500473 328.025600
    603    601    613     1   110.5600475 386.601600
    604    600    629     1   110.1100470 384.091200
    604    616    617     1   109.8000471 387.438400
    604    616    618     1   109.8000471 387.438400
    605    604    616     1   110.5600475 386.601600
    605    604    606     1   109.7500473 328.025600
    606    604    616     1   110.5600475 386.601600
    607    600    629     1   110.1100470 384.091200
    607    610    611     1   109.8000471 387.438400
    607    610    612     1   109.8000471 387.438400
    608    607    610     1   110.5600475 386.601600
    608    607    609     1   109.7500473 328.025600
    609    607    610     1   110.5600475 386.601600
    610    619    620     1   109.5600471 388.275200
    610    619    621     1   109.5600471 388.275200
    611    610    619     1   109.8000471 387.438400
    611    610    612     1   107.5800459 329.699200
    612    610    619     1   109.8000471 387.438400
    613    625    626     1   109.5600471 388.275200
    613    625    627     1   109.5600471 388.275200
    614    613    625     1   109.8000471 387.438400
    614    613    615     1   107.5800459 329.699200
    615    613    625     1   109.8000471 387.438400
    616    622    623     1   109.5600471 388.275200
    616    622    624     1   109.5600471 388.275200
    617    616    622     1   109.8000471 387.438400
    617    616    618     1   107.5800459 329.699200
    618    616    622     1   109.8000471 387.438400
    620    619    628     1   109.7800468 425.094400
    620    619    621     1   108.4600466 328.025600
    621    619    628     1   109.7800468 425.094400
    623    622   1288     1   109.7800468 425.094400
    623    622    624     1   108.4600466 328.025600
    624    622   1288     1   109.7800468 425.094400
    626    625   1318     1   109.7800468 425.094400
    626    625    627     1   108.4600466 328.025600
    627    625   1318     1   109.7800468 425.094400
    630    631    632     1   108.0100461 406.684800
    630    631    633     1   108.0100461 406.684800
    630    634    635     1   108.0100461 406.684800
    630    634    636     1   108.0100461 406.684800
    630    637    638     1   108.0100461 406.684800
    630    637    639     1   108.0100461 406.684800
    631    630    659     1   110.1100470 384.091200
    631    643    644     1   109.8000471 387.438400
    631    643    645     1   109.8000471 387.438400
    632    631    643     1   110.5600475 386.601600
    632    631    633     1   109.7500473 328.025600
    633    631    643     1   110.5600475 386.601600
    634    630    659     1   110.1100470 384.091200
    634    646    647     1   109.8000471 387.438400
    634    646    648     1   109.8000471 387.438400
    635    634    646     1   110.5600475 386.601600
    635    634    636     1   109.7500473 328.025600
    636    634    646     1   110.5600475 386.601600
    637    630    659     1   110.1100470 384.091200
    637    640    641     1   109.8000471 387.438400
    637    640    642     1   109.8000471 387.438400
    638    637    640     1   110.5600475 386.601600
    638    637    639     1   109.7500473 328.025600
    639    637    640     1   110.5600475 386.601600
    640    649    650     1   109.5600471 388.275200
    640    649    651     1   109.5600471 388.275200
    641    640    649     1   109.8000471 387.438400
    641    640    642     1   107.5800459 329.699200
    642    640    649     1   109.8000471 387.438400
    643    655    656     1   109.5600471 388.275200
    643    655    657     1   109.5600471 388.275200
    644    643    655     1   109.8000471 387.438400
    644    643    645     1   107.5800459 329.699200
    645    643    655     1   109.8000471 387.438400
    646    652    653     1   109.5600471 388.275200
    646    652    654     1   109.5600471 388.275200
    647    646    652     1   109.8000471 387.438400
    647    646    648     1   107.5800459 329.699200
    648    646    652     1   109.8000471 387.438400
    650    649    658     1   109.7800468 425.094400
    650    649    651     1   108.4600466 328.025600
    651    649    658     1   109.7800468 425.094400
    653    652   1348     1   109.7800468 425.094400
    653    652    654     1   108.4600466 328.025600
    654    652   1348     1   109.7800468 425.094400
    656    655   1378     1   109.7800468 425.094400
    656    655    657     1   108.4600466 328.025600
    657    655   1378     1   109.7800468 425.094400
    660    661    662     1   108.0100461 406.684800
    660    661    663     1   108.0100461 406.684800
    660    664    665     1   108.0100461 406.684800
    660    664    666     1   108.0100461 406.684800
    660    667    668     1   108.0100461 406.684800
    660    667    669     1   108.0100461 406.684800
    661    660    689     1   110.1100470 384.091200
    661    673    674     1   109.8000471 387.438400
    661    673    675     1   109.8000471 387.438400
    662    661    673     1   110.5600475 386.601600
    662    661    663     1   109.7500473 328.025600
    663    661    673     1   110.5600475 386.601600
    664    660    689     1   110.1100470 384.091200
    664    676    677     1   109.8000471 387.438400
    664    676    678     1   109.8000471 387.438400
    665    664    676     1   110.5600475 386.601600
    665    664    666     1   109.7500473 328.025600
    666    664    676     1   110.5600475 386.601600
    667    660    689     1   110.1100470 384.091200
    667    670    671     1   109.8000471 387.438400
    667    670    672     1   109.8000471 387.438400
    668    667    670     1   110.5600475 386.601600
    668    667    669     1   109.7500473 328.025600
    669    667    670     1   110.5600475 386.601600
    670    679    680     1   109.5600471 388.275200
    670    679    681     1   109.5600471 388.275200
    671    670    679     1   109.8000471 387.438400
    671    670    672     1   107.5800459 329.699200
    672    670    679     1   109.8000471 387.438400
    673    685    686     1   109.5600471 388.275200
    673    685    687     1   109.5600471 388.275200
    674    673    685     1   109.8000471 387.438400
    674    673    675     1   107.5800459 329.699200
    675    673    685     1   109.8000471 387.438400
    676    682    683     1   109.5600471 388.275200
    676    682    684     1   109.5600471 388.275200
    677    676    682     1   109.8000471 387.438400
    677    676    678     1   107.5800459 329.699200
    678    676    682     1   109.8000471 387.438400
    680    679    688     1   109.7800468 425.094400
    680    679    681     1   108.4600466 328.025600
    681    679    688     1   109.7800468 425.094400
    683    682   1408     1   109.7800468 425.094400
    683    682    684     1   108.4600466 328.025600
    684    682   1408     1   109.7800468 425.094400
    686    685   1438     1   109.7800468 425.094400
    686    685    687     1   108.4600466 328.025600
    687    685   1438     1   109.7800468 425.094400
    690    691    692     1   108.0100461 406.684800
    690    691    693     1   108.0100461 406.684800
    690    694    695     1   108.0100461 406.684800
    690    694    696     1   108.0100461 406.684800
    690    697    698     1   108.0100461 406.684800
    690    697    699     1   108.0100461 406.684800
    691    690    719     1   110.1100470 384.091200
    691    703    704     1   109.8000471 387.438400
    691    703    705     1   109.8000471 387.438400
    692    691    703     1   110.5600475 386.601600
    692    691    693     1   109.7500473 328.025600
    693    691    703     1   110.5600475 386.601600
    694    690    719     1   110.1100470 384.091200
    694    706    707     1   109.8000471 387.438400
    694    706    708     1   109.8000471 387.438400
    695    694    706     1   110.5600475 386.601600
    695    694    696     1   109.7500473 328.025600
    696    694    706     1   110.5600475 386.601600
    697    690    719     1   110.1100470 384.091200
    697    700    701     1   109.8000471 387.438400
    697    700    702     1   109.8000471 387.438400
    698    697    700     1   110.5600475 386.601600
    698    697    699     1   109.7500473 328.025600
    699    697    700     1   110.5600475 386.601600
    700    709    710     1   109.5600471 388.275200
    700    709    711     1   109.5600471 388.275200
    701    700    709     1   109.8000471 387.438400
    701    700    702     1   107.5800459 329.699200
    702    700    709     1   109.8000471 387.438400
    703    715    716     1   109.5600471 388.275200
    703    715    717     1   109.5600471 388.275200
    704    703    715     1   109.8000471 387.438400
    704    703    705     1   107.5800459 329.699200
    705    703    715     1   109.8000471 387.438400
    706    712    713     1   109.5600471 388.275200
    706    712    714     1   109.5600471 388.275200
    707    706    712     1   109.8000471 387.438400
    707    706    708     1   107.5800459 329.699200
    708    706    712     1   109.8000471 387.438400
    710    709    718     1   109.7800468 425.094400
    710    709    711     1   108.4600466 328.025600
    711    709    718     1   109.7800468 425.094400
    713    712   1468     1   109.7800468 425.094400
    713    712    714     1   108.4600466 328.025600
    714    712   1468     1   109.7800468 425.094400
    716    715   1498     1   109.7800468 425.094400
    716    715    717     1   108.4600466 328.025600
    717    715   1498     1   109.7800468 425.094400
    720    721    722     1   108.0100461 406.684800
    720    721    723     1   108.0100461 406.684800
    720    724    725     1   108.0100461 406.684800
    720    724    726     1   108.0100461 406.684800
    720    727    728     1   108.0100461 406.684800
    720    727    729     1   108.0100461 406.684800
    721    720    749     1   110.1100470 384.091200
    721    733    734     1   109.8000471 387.438400
    721    733    735     1   109.8000471 387.438400
    722    721    733     1   110.5600475 386.601600
    722    721    723     1   109.7500473 328.025600
    723    721    733     1   110.5600475 386.601600
    724    720    749     1   110.1100470 384.091200
    724    736    737     1   109.8000471 387.438400
    724    736    738     1   109.8000471 387.438400
    725    724    736     1   110.5600475 386.601600
    725    724    726     1   109.7500473 328.025600
    726    724    736     1   110.5600475 386.601600
    727    720    749     1   110.1100470 384.091200
    727    730    731     1   109.8000471 387.438400
    727    730    732     1   109.8000471 387.438400
    728    727    730     1   110.5600475 386.601600
    728    727    729     1   109.7500473 328.025600
    729    727    730     1   110.5600475 386.601600
    730    739    740     1   109.5600471 388.275200
    730    739    741     1   109.5600471 388.275200
    731    730    739     1   109.8000471 387.438400
    731    730    732     1   107.5800459 329.699200
    732    730    739     1   109.8000471 387.438400
    733    745    746     1   109.5600471 388.275200
    733    745    747     1   109.5600471 388.275200
    734    733    745     1   109.8000471 387.438400
    734    733    735     1   107.5800459 329.699200
    735    733    745     1   109.8000471 387.438400
    736    742    743     1   109.5600471 388.275200
    736    742    744     1   109.5600471 388.275200
    737    736    742     1   109.8000471 387.438400
    737    736    738     1   107.5800459 329.699200
    738    736    742     1   109.8000471 387.438400
    740    739    748     1   109.7800468 425.094400
    740    739    741     1   108.4600466 328.025600
    741    739    748     1   109.7800468 425.094400
    743    742   1528     1   109.7800468 425.094400
    743    742    744     1   108.4600466 328.025600
    744    742   1528     1   109.7800468 425.094400
    746    745   1558     1   109.7800468 425.094400
    746    745    747     1   108.4600466 328.025600
    747    745   1558     1   109.7800468 425.094400
    750    751    752     1   108.0100461 406.684800
    750    751    753     1   108.0100461 406.684800
    750    754    755     1   108.0100461 406.684800
    750    754    756     1   108.0100461 406.684800
    750    757    758     1   108.0100461 406.684800
    750    757    759     1   108.0100461 406.684800
    751    750    779     1   110.1100470 384.091200
    751    763    764     1   109.8000471 387.438400
    751    763    765     1   109.8000471 387.438400
    752    751    763     1   110.5600475 386.601600
    752    751    753     1   109.7500473 328.025600
    753    751    763     1   110.5600475 386.601600
    754    750    779     1   110.1100470 384.091200
    754    766    767     1   109.8000471 387.438400
    754    766    768     1   109.8000471 387.438400
    755    754    766     1   110.5600475 386.601600
    755    754    756     1   109.7500473 328.025600
    756    754    766     1   110.5600475 386.601600
    757    750    779     1   110.1100470 384.091200
    757    760    761     1   109.8000471 387.438400
    757    760    762     1   109.8000471 387.438400
    758    757    760     1   110.5600475 386.601600
    758    757    759     1   109.7500473 328.025600
    759    757    760     1   110.5600475 386.601600
    760    769    770     1   109.5600471 388.275200
    760    769    771     1   109.5600471 388.275200
    761    760    769     1   109.8000471 387.438400
    761    760    762     1   107.5800459 329.699200
    762    760    769     1   109.8000471 387.438400
    763    775    776     1   109.5600471 388.275200
    763    775    777     1   109.5600471 388.275200
    764    763    775     1   109.8000471 387.438400
    764    763    765     1   107.5800459 329.699200
    765    763    775     1   109.8000471 387.438400
    766    772    773     1   109.5600471 388.275200
    766    772    774     1   109.5600471 388.275200
    767    766    772     1   109.8000471 387.438400
    767    766    768     1   107.5800459 329.699200
    768    766    772     1   109.8000471 387.438400
    770    769    778     1   109.7800468 425.094400
    770    769    771     1   108.4600466 328.025600
    771    769    778     1   109.7800468 425.094400
    773    772   1588     1   109.7800468 425.094400
    773    772    774     1   108.4600466 328.025600
    774    772   1588     1   109.7800468 425.094400
    776    775   1618     1   109.7800468 425.094400
    776    775    777     1   108.4600466 328.025600
    777    775   1618     1   109.7800468 425.094400
    780    781    782     1   108.0100461 406.684800
    780    781    783     1   108.0100461 406.684800
    780    784    785     1   108.0100461 406.684800
    780    784    786     1   108.0100461 406.684800
    780    787    788     1   108.0100461 406.684800
    780    787    789     1   108.0100461 406.684800
    781    780    809     1   110.1100470 384.091200
    781    793    794     1   109.8000471 387.438400
    781    793    795     1   109.8000471 387.438400
    782    781    793     1   110.5600475 386.601600
    782    781    783     1   109.7500473 328.025600
    783    781    793     1   110.5600475 386.601600
    784    780    809     1   110.1100470 384.091200
    784    796    797     1   109.8000471 387.438400
    784    796    798     1   109.8000471 387.438400
    785    784    796     1   110.5600475 386.601600
    785    784    786     1   109.7500473 328.025600
    786    784    796     1   110.5600475 386.601600
    787    780    809     1   110.1100470 384.091200
    787    790    791     1   109.8000471 387.438400
    787    790    792     1   109.8000471 387.438400
    788    787    790     1   110.5600475 386.601600
    788    787    789     1   109.7500473 328.025600
    789    787    790     1   110.5600475 386.601600
    790    799    800     1   109.5600471 388.275200
    790    799    801     1   109.5600471 388.275200
    791    790    799     1   109.8000471 387.438400
    791    790    792     1   107.5800459 329.699200
    792    790    799     1   109.8000471 387.438400
    793    805    806     1   109.5600471 388.275200
    793    805    807     1   109.5600471 388.275200
    794    793    805     1   109.8000471 387.438400
    794    793    795     1   107.5800459 329.699200
    795    793    805     1   109.8000471 387.438400
    796    802    803     1   109.5600471 388.275200
    796    802    804     1   109.5600471 388.275200
    797    796    802     1   109.8000471 387.438400
    797    796    798     1   107.5800459 329.699200
    798    796    802     1   109.8000471 387.438400
    800    799    808     1   109.7800468 425.094400
    800    799    801     1   108.4600466 328.025600
    801    799    808     1   109.7800468 425.094400
    803    802   1648     1   109.7800468 425.094400
    803    802    804     1   108.4600466 328.025600
    804    802   1648     1   109.7800468 425.094400
    806    805   1678     1   109.7800468 425.094400
    806    805    807     1   108.4600466 328.025600
    807    805   1678     1   109.7800468 425.094400
    810    811    812     1   108.0100461 406.684800
    810    811    813     1   108.0100461 406.684800
    810    814    815     1   108.0100461 406.684800
    810    814    816     1   108.0100461 406.684800
    810    817    818     1   108.0100461 406.684800
    810    817    819     1   108.0100461 406.684800
    811    810    839     1   110.1100470 384.091200
    811    823    824     1   109.8000471 387.438400
    811    823    825     1   109.8000471 387.438400
    812    811    823     1   110.5600475 386.601600
    812    811    813     1   109.7500473 328.025600
    813    811    823     1   110.5600475 386.601600
    814    810    839     1   110.1100470 384.091200
    814    826    827     1   109.8000471 387.438400
    814    826    828     1   109.8000471 387.438400
    815    814    826     1   110.5600475 386.601600
    815    814    816     1   109.7500473 328.025600
    816    814    826     1   110.5600475 386.601600
    817    810    839     1   110.1100470 384.091200
    817    820    821     1   109.8000471 387.438400
    817    820    822     1   109.8000471 387.438400
    818    817    820     1   110.5600475 386.601600
    818    817    819     1   109.7500473 328.025600
    819    817    820     1   110.5600475 386.601600
    820    829    830     1   109.5600471 388.275200
    820    829    831     1   109.5600471 388.275200
    821    820    829     1   109.8000471 387.438400
    821    820    822     1   107.5800459 329.699200
    822    820    829     1   109.8000471 387.438400
    823    835    836     1   109.5600471 388.275200
    823    835    837     1   109.5600471 388.275200
    824    823    835     1   109.8000471 387.438400
    824    823    825     1   107.5800459 329.699200
    825    823    835     1   109.8000471 387.438400
    826    832    833     1   109.5600471 388.275200
    826    832    834     1   109.5600471 388.275200
    827    826    832     1   109.8000471 387.438400
    827    826    828     1   107.5800459 329.699200
    828    826    832     1   109.8000471 387.438400
    830    829    838     1   109.7800468 425.094400
    830    829    831     1   108.4600466 328.025600
    831    829    838     1   109.7800468 425.094400
    833    832   1708     1   109.7800468 425.094400
    833    832    834     1   108.4600466 328.025600
    834    832   1708     1   109.7800468 425.094400
    836    835   1738     1   109.7800468 425.094400
    836    835    837     1   108.4600466 328.025600
    837    835   1738     1   109.7800468 425.094400
    840    841    842     1   108.0100461 406.684800
    840    841    843     1   108.0100461 406.684800
    840    844    845     1   108.0100461 406.684800
    840    844    846     1   108.0100461 406.684800
    840    847    848     1   108.0100461 406.684800
    840    847    849     1   108.0100461 406.684800
    841    840    869     1   110.1100470 384.091200
    841    853    854     1   109.8000471 387.438400
    841    853    855     1   109.8000471 387.438400
    842    841    853     1   110.5600475 386.601600
    842    841    843     1   109.7500473 328.025600
    843    841    853     1   110.5600475 386.601600
    844    840    869     1   110.1100470 384.091200
    844    856    857     1   109.8000471 387.438400
    844    856    858     1   109.8000471 387.438400
    845    844    856     1   110.5600475 386.601600
    845    844    846     1   109.7500473 328.025600
    846    844    856     1   110.5600475 386.601600
    847    840    869     1   110.1100470 384.091200
    847    850    851     1   109.8000471 387.438400
    847    850    852     1   109.8000471 387.438400
    848    847    850     1   110.5600475 386.601600
    848    847    849     1   109.7500473 328.025600
    849    847    850     1   110.5600475 386.601600
    850    859    860     1   109.5600471 388.275200
    850    859    861     1   109.5600471 388.275200
    851    850    859     1   109.8000471 387.438400
    851    850    852     1   107.5800459 329.699200
    852    850    859     1   109.8000471 387.438400
    853    865    866     1   109.5600471 388.275200
    853    865    867     1   109.5600471 388.275200
    854    853    865     1   109.8000471 387.438400
    854    853    855     1   107.5800459 329.699200
    855    853    865     1   109.8000471 387.438400
    856    862    863     1   109.5600471 388.275200
    856    862    864     1   109.5600471 388.275200
    857    856    862     1   109.8000471 387.438400
    857    856    858     1   107.5800459 329.699200
    858    856    862     1   109.8000471 387.438400
    860    859    868     1   109.7800468 425.094400
    860    859    861     1   108.4600466 328.025600
    861    859    868     1   109.7800468 425.094400
    863    862   1768     1   109.7800468 425.094400
    863    862    864     1   108.4600466 328.025600
    864    862   1768     1   109.7800468 425.094400
    866    865   1798     1   109.7800468 425.094400
    866    865    867     1   108.4600466 328.025600
    867    865   1798     1   109.7800468 425.094400
    870    871    872     1   108.0100461 406.684800
    870    871    873     1   108.0100461 406.684800
    870    874    875     1   108.0100461 406.684800
    870    874    876     1   108.0100461 406.684800
    870    877    878     1   108.0100461 406.684800
    870    877    879     1   108.0100461 406.684800
    871    870    899     1   110.1100470 384.091200
    871    883    884     1   109.8000471 387.438400
    871    883    885     1   109.8000471 387.438400
    872    871    883     1   110.5600475 386.601600
    872    871    873     1   109.7500473 328.025600
    873    871    883     1   110.5600475 386.601600
    874    870    899     1   110.1100470 384.091200
    874    886    887     1   109.8000471 387.438400
    874    886    888     1   109.8000471 387.438400
    875    874    886     1   110.5600475 386.601600
    875    874    876     1   109.7500473 328.025600
    876    874    886     1   110.5600475 386.601600
    877    870    899     1   110.1100470 384.091200
    877    880    881     1   109.8000471 387.438400
    877    880    882     1   109.8000471 387.438400
    878    877    880     1   110.5600475 386.601600
    878    877    879     1   109.7500473 328.025600
    879    877    880     1   110.5600475 386.601600
    880    889    890     1   109.5600471 388.275200
    880    889    891     1   109.5600471 388.275200
    881    880    889     1   109.8000471 387.438400
    881    880    882     1   107.5800459 329.699200
    882    880    889     1   109.8000471 387.438400
    883    895    896     1   109.5600471 388.275200
    883    895    897     1   109.5600471 388.275200
    884    883    895     1   109.8000471 387.438400
    884    883    885     1   107.5800459 329.699200
    885    883    895     1   109.8000471 387.438400
    886    892    893     1   109.5600471 388.275200
    886    892    894     1   109.5600471 388.275200
    887    886    892     1   109.8000471 387.438400
    887    886    888     1   107.5800459 329.699200
    888    886    892     1   109.8000471 387.438400
    890    889    898     1   109.7800468 425.094400
    890    889    891     1   108.4600466 328.025600
    891    889    898     1   109.7800468 425.094400
    893    892   1828     1   109.7800468 425.094400
    893    892    894     1   108.4600466 328.025600
    894    892   1828     1   109.7800468 425.094400
    896    895   1858     1   109.7800468 425.094400
    896    895    897     1   108.4600466 328.025600
    897    895   1858     1   109.7800468 425.094400
    900    901    902     1   108.0100461 406.684800
    900    901    903     1   108.0100461 406.684800
    900    904    905     1   108.0100461 406.684800
    900    904    906     1   108.0100461 406.684800
    900    907    908     1   108.0100461 406.684800
    900    907    909     1   108.0100461 406.684800
    901    900    929     1   110.1100470 384.091200
    901    913    914     1   109.8000471 387.438400
    901    913    915     1   109.8000471 387.438400
    902    901    913     1   110.5600475 386.601600
    902    901    903     1   109.7500473 328.025600
    903    901    913     1   110.5600475 386.601600
    904    900    929     1   110.1100470 384.091200
    904    916    917     1   109.8000471 387.438400
    904    916    918     1   109.8000471 387.438400
    905    904    916     1   110.5600475 386.601600
    905    904    906     1   109.7500473 328.025600
    906    904    916     1   110.5600475 386.601600
    907    900    929     1   110.1100470 384.091200
    907    910    911     1   109.8000471 387.438400
    907    910    912     1   109.8000471 387.438400
    908    907    910     1   110.5600475 386.601600
    908    907    909     1   109.7500473 328.025600
    909    907    910     1   110.5600475 386.601600
    910    919    920     1   109.5600471 388.275200
    910    919    921     1   109.5600471 388.275200
    911    910    919     1   109.8000471 387.438400
    911    910    912     1   107.5800459 329.699200
    912    910    919     1   109.8000471 387.438400
    913    925    926     1   109.5600471 388.275200
    913    925    927     1   109.5600471 388.275200
    914    913    925     1   109.8000471 387.438400
    914    913    915     1   107.5800459 329.699200
    915    913    925     1   109.8000471 387.438400
    916    922    923     1   109.5600471 388.275200
    916    922    924     1   109.5600471 388.275200
    917    916    922     1   109.8000471 387.438400
    917    916    918     1   107.5800459 329.699200
    918    916    922     1   109.8000471 387.438400
    920    919    928     1   109.7800468 425.094400
    920    919    921     1   108.4600466 328.025600
    921    919    928     1   109.7800468 425.094400
    923    922   1888     1   109.7800468 425.094400
    923    922    924     1   108.4600466 328.025600
    924    922   1888     1   109.7800468 425.094400
    926    925   1918     1   109.7800468 425.094400
    926    925    927     1   108.4600466 328.025600
    927    925   1918     1   109.7800468 425.094400
    930    931    932     1   108.0100461 406.684800
    930    931    933     1   108.0100461 406.684800
    930    934    935     1   108.0100461 406.684800
    930    934    936     1   108.0100461 406.684800
    930    937    938     1   108.0100461 406.684800
    930    937    939     1   108.0100461 406.684800
    931    930    959     1   110.1100470 384.091200
    931    943    944     1   109.8000471 387.438400
    931    943    945     1   109.8000471 387.438400
    932    931    943     1   110.5600475 386.601600
    932    931    933     1   109.7500473 328.025600
    933    931    943     1   110.5600475 386.601600
    934    930    959     1   110.1100470 384.091200
    934    946    947     1   109.8000471 387.438400
    934    946    948     1   109.8000471 387.438400
    935    934    946     1   110.5600475 386.601600
    935    934    936     1   109.7500473 328.025600
    936    934    946     1   110.5600475 386.601600
    937    930    959     1   110.1100470 384.091200
    937    940    941     1   109.8000471 387.438400
    937    940    942     1   109.8000471 387.438400
    938    937    940     1   110.5600475 386.601600
    938    937    939     1   109.7500473 328.025600
    939    937    940     1   110.5600475 386.601600
    940    949    950     1   109.5600471 388.275200
    940    949    951     1   109.5600471 388.275200
    941    940    949     1   109.8000471 387.438400
    941    940    942     1   107.5800459 329.699200
    942    940    949     1   109.8000471 387.438400
    943    955    956     1   109.5600471 388.275200
    943    955    957     1   109.5600471 388.275200
    944    943    955     1   109.8000471 387.438400
    944    943    945     1   107.5800459 329.699200
    945    943    955     1   109.8000471 387.438400
    946    952    953     1   109.5600471 388.275200
    946    952    954     1   109.5600471 388.275200
    947    946    952     1   109.8000471 387.438400
    947    946    948     1   107.5800459 329.699200
    948    946    952     1   109.8000471 387.438400
    950    949    958     1   109.7800468 425.094400
    950    949    951     1   108.4600466 328.025600
    951    949    958     1   109.7800468 425.094400
    953    952   1948     1   109.7800468 425.094400
    953    952    954     1   108.4600466 328.025600
    954    952   1948     1   109.7800468 425.094400
    956    955   1978     1   109.7800468 425.094400
    956    955    957     1   108.4600466 328.025600
    957    955   1978     1   109.7800468 425.094400
    960    961    962     1   108.0100461 406.684800
    960    961    963     1   108.0100461 406.684800
    960    964    965     1   108.0100461 406.684800
    960    964    966     1   108.0100461 406.684800
    960    967    968     1   108.0100461 406.684800
    960    967    969     1   108.0100461 406.684800
    961    960    989     1   110.1100470 384.091200
    961    973    974     1   109.8000471 387.438400
    961    973    975     1   109.8000471 387.438400
    962    961    973     1   110.5600475 386.601600
    962    961    963     1   109.7500473 328.025600
    963    961    973     1   110.5600475 386.601600
    964    960    989     1   110.1100470 384.091200
    964    976    977     1   109.8000471 387.438400
    964    976    978     1   109.8000471 387.438400
    965    964    976     1   110.5600475 386.601600
    965    964    966     1   109.7500473 328.025600
    966    964    976     1   110.5600475 386.601600
    967    960    989     1   110.1100470 384.091200
    967    970    971     1   109.8000471 387.438400
    967    970    972     1   109.8000471 387.438400
    968    967    970     1   110.5600475 386.601600
    968    967    969     1   109.7500473 328.025600
    969    967    970     1   110.5600475 386.601600
    970    979    980     1   109.5600471 388.275200
    970    979    981     1   109.5600471 388.275200
    971    970    979     1   109.8000471 387.438400
    971    970    972     1   107.5800459 329.699200
    972    970    979     1   109.8000471 387.438400
    973    985    986     1   109.5600471 388.275200
    973    985    987     1   109.5600471 388.275200
    974    973    985     1   109.8000471 387.438400
    974    973    975     1   107.5800459 329.699200
    975    973    985     1   109.8000471 387.438400
    976    982    983     1   109.5600471 388.275200
    976    982    984     1   109.5600471 388.275200
    977    976    982     1   109.8000471 387.438400
    977    976    978     1   107.5800459 329.699200
    978    976    982     1   109.8000471 387.438400
    980    979    988     1   109.7800468 425.094400
    980    979    981     1   108.4600466 328.025600
    981    979    988     1   109.7800468 425.094400
    983    982   2008     1   109.7800468 425.094400
    983    982    984     1   108.4600466 328.025600
    984    982   2008     1   109.7800468 425.094400
    986    985   2038     1   109.7800468 425.094400
    986    985    987     1   108.4600466 328.025600
    987    985   2038     1   109.7800468 425.094400
    990    991    992     1   108.0100461 406.684800
    990    991    993     1   108.0100461 406.684800
    990    994    995     1   108.0100461 406.684800
    990    994    996     1   108.0100461 406.684800
    990    997    998     1   108.0100461 406.684800
    990    997    999     1   108.0100461 406.684800
    991    990   1019     1   110.1100470 384.091200
    991   1003   1004     1   109.8000471 387.438400
    991   1003   1005     1   109.8000471 387.438400
    992    991   1003     1   110.5600475 386.601600
    992    991    993     1   109.7500473 328.025600
    993    991   1003     1   110.5600475 386.601600
    994    990   1019     1   110.1100470 384.091200
    994   1006   1007     1   109.8000471 387.438400
    994   1006   1008     1   109.8000471 387.438400
    995    994   1006     1   110.5600475 386.601600
    995    994    996     1   109.7500473 328.025600
    996    994   1006     1   110.5600475 386.601600
    997    990   1019     1   110.1100470 384.091200
    997   1000   1001     1   109.8000471 387.438400
    997   1000   1002     1   109.8000471 387.438400
    998    997   1000     1   110.5600475 386.601600
    998    997    999     1   109.7500473 328.025600
    999    997   1000     1   110.5600475 386.601600
   1000   1009   1010     1   109.5600471 388.275200
   1000   1009   1011     1   109.5600471 388.275200
   1001   1000   1009     1   109.8000471 387.438400
   1001   1000   1002     1   107.5800459 329.699200
   1002   1000   1009     1   109.8000471 387.438400
   1003   1015   1016     1   109.5600471 388.275200
   1003   1015   1017     1   109.5600471 388.275200
   1004   1003   1015     1   109.8000471 387.438400
   1004   1003   1005     1   107.5800459 329.699200
   1005   1003   1015     1   109.8000471 387.438400
   1006   1012   1013     1   109.5600471 388.275200
   1006   1012   1014     1   109.5600471 388.275200
   1007   1006   1012     1   109.8000471 387.438400
   1007   1006   1008     1   107.5800459 329.699200
   1008   1006   1012     1   109.8000471 387.438400
   1010   1009   1018     1   109.7800468 425.094400
   1010   1009   1011     1   108.4600466 328.025600
   1011   1009   1018     1   109.7800468 425.094400
   1013   1012   2068     1   109.7800468 425.094400
   1013   1012   1014     1   108.4600466 328.025600
   1014   1012   2068     1   109.7800468 425.094400
   1016   1015   2098     1   109.7800468 425.094400
   1016   1015   1017     1   108.4600466 328.025600
   1017   1015   2098     1   109.7800468 425.094400
   1020   1021   1022     1   108.0100461 406.684800
   1020   1021   1023     1   108.0100461 406.684800
   1020   1024   1025     1   108.0100461 406.684800
   1020   1024   1026     1   108.0100461 406.684800
   1020   1027   1028     1   108.0100461 406.684800
   1020   1027   1029     1   108.0100461 406.684800
   1021   1020   1049     1   110.1100470 384.091200
   1021   1033   1034     1   109.8000471 387.438400
   1021   1033   1035     1   109.8000471 387.438400
   1022   1021   1033     1   110.5600475 386.601600
   1022   1021   1023     1   109.7500473 328.025600
   1023   1021   1033     1   110.5600475 386.601600
   1024   1020   1049     1   110.1100470 384.091200
   1024   1036   1037     1   109.8000471 387.438400
   1024   1036   1038     1   109.8000471 387.438400
   1025   1024   1036     1   110.5600475 386.601600
   1025   1024   1026     1   109.7500473 328.025600
   1026   1024   1036     1   110.5600475 386.601600
   1027   1020   1049     1   110.1100470 384.091200
   1027   1030   1031     1   109.8000471 387.438400
   1027   1030   1032     1   109.8000471 387.438400
   1028   1027   1030     1   110.5600475 386.601600
   1028   1027   1029     1   109.7500473 328.025600
   1029   1027   1030     1   110.5600475 386.601600
   1030   1039   1040     1   109.5600471 388.275200
   1030   1039   1041     1   109.5600471 388.275200
   1031   1030   1039     1   109.8000471 387.438400
   1031   1030   1032     1   107.5800459 329.699200
   1032   1030   1039     1   109.8000471 387.438400
   1033   1045   1046     1   109.5600471 388.275200
   1033   1045   1047     1   109.5600471 388.275200
   1034   1033   1045     1   109.8000471 387.438400
   1034   1033   1035     1   107.5800459 329.699200
   1035   1033   1045     1   109.8000471 387.438400
   1036   1042   1043     1   109.5600471 388.275200
   1036   1042   1044     1   109.5600471 388.275200
   1037   1036   1042     1   109.8000471 387.438400
   1037   1036   1038     1   107.5800459 329.699200
   1038   1036   1042     1   109.8000471 387.438400
   1040   1039   1048     1   109.7800468 425.094400
   1040   1039   1041     1   108.4600466 328.025600
   1041   1039   1048     1   109.7800468 425.094400
   1043   1042   2128     1   109.7800468 425.094400
   1043   1042   1044     1   108.4600466 328.025600
   1044   1042   2128     1   109.7800468 425.094400
   1046   1045   2158     1   109.7800468 425.094400
   1046   1045   1047     1   108.4600466 328.025600
   1047   1045   2158     1   109.7800468 425.094400
   1050   1051   1052     1   108.0100461 406.684800
   1050   1051   1053     1   108.0100461 406.684800
   1050   1054   1055     1   108.0100461 406.684800
   1050   1054   1056     1   108.0100461 406.684800
   1050   1057   1058     1   108.0100461 406.684800
   1050   1057   1059     1   108.0100461 406.684800
   1051   1050   1079     1   110.1100470 384.091200
   1051   1063   1064     1   109.8000471 387.438400
   1051   1063   1065     1   109.8000471 387.438400
   1052   1051   1063     1   110.5600475 386.601600
   1052   1051   1053     1   109.7500473 328.025600
   1053   1051   1063     1   110.5600475 386.601600
   1054   1050   1079     1   110.1100470 384.091200
   1054   1066   1067     1   109.8000471 387.438400
   1054   1066   1068     1   109.8000471 387.438400
   1055   1054   1066     1   110.5600475 386.601600
   1055   1054   1056     1   109.7500473 328.025600
   1056   1054   1066     1   110.5600475 386.601600
   1057   1050   1079     1   110.1100470 384.091200
   1057   1060   1061     1   109.8000471 387.438400
   1057   1060   1062     1   109.8000471 387.438400
   1058   1057   1060     1   110.5600475 386.601600
   1058   1057   1059     1   109.7500473 328.025600
   1059   1057   1060     1   110.5600475 386.601600
   1060   1069   1070     1   109.5600471 388.275200
   1060   1069   1071     1   109.5600471 388.275200
   1061   1060   1069     1   109.8000471 387.438400
   1061   1060   1062     1   107.5800459 329.699200
   1062   1060   1069     1   109.8000471 387.438400
   1063   1075   1076     1   109.5600471 388.275200
   1063   1075   1077     1   109.5600471 388.275200
   1064   1063   1075     1   109.8000471 387.438400
   1064   1063   1065     1   107.5800459 329.699200
   1065   1063   1075     1   109.8000471 387.438400
   1066   1072   1073     1   109.5600471 388.275200
   1066   1072   1074     1   109.5600471 388.275200
   1067   1066   1072     1   109.8000471 387.438400
   1067   1066   1068     1   107.5800459 329.699200
   1068   1066   1072     1   109.8000471 387.438400
   1070   1069   1078     1   109.7800468 425.094400
   1070   1069   1071     1   108.4600466 328.025600
   1071   1069   1078     1   109.7800468 425.094400
   1073   1072   2188     1   109.7800468 425.094400
   1073   1072   1074     1   108.4600466 328.025600
   1074   1072   2188     1   109.7800468 425.094400
   1076   1075   2218     1   109.7800468 425.094400
   1076   1075   1077     1   108.4600466 328.025600
   1077   1075   2218     1   109.7800468 425.094400
   1080   1081   1082     1   108.0100461 406.684800
   1080   1081   1083     1   108.0100461 406.684800
   1080   1084   1085     1   108.0100461 406.684800
   1080   1084   1086     1   108.0100461 406.684800
   1080   1087   1088     1   108.0100461 406.684800
   1080   1087   1089     1   108.0100461 406.684800
   1081   1080   1109     1   110.1100470 384.091200
   1081   1093   1094     1   109.8000471 387.438400
   1081   1093   1095     1   109.8000471 387.438400
   1082   1081   1093     1   110.5600475 386.601600
   1082   1081   1083     1   109.7500473 328.025600
   1083   1081   1093     1   110.5600475 386.601600
   1084   1080   1109     1   110.1100470 384.091200
   1084   1096   1097     1   109.8000471 387.438400
   1084   1096   1098     1   109.8000471 387.438400
   1085   1084   1096     1   110.5600475 386.601600
   1085   1084   1086     1   109.7500473 328.025600
   1086   1084   1096     1   110.5600475 386.601600
   1087   1080   1109     1   110.1100470 384.091200
   1087   1090   1091     1   109.8000471 387.438400
   1087   1090   1092     1   109.8000471 387.438400
   1088   1087   1090     1   110.5600475 386.601600
   1088   1087   1089     1   109.7500473 328.025600
   1089   1087   1090     1   110.5600475 386.601600
   1090   1099   1100     1   109.5600471 388.275200
   1090   1099   1101     1   109.5600471 388.275200
   1091   1090   1099     1   109.8000471 387.438400
   1091   1090   1092     1   107.5800459 329.699200
   1092   1090   1099     1   109.8000471 387.438400
   1093   1105   1106     1   109.5600471 388.275200
   1093   1105   1107     1   109.5600471 388.275200
   1094   1093   1105     1   109.8000471 387.438400
   1094   1093   1095     1   107.5800459 329.699200
   1095   1093   1105     1   109.8000471 387.438400
   1096   1102   1103     1   109.5600471 388.275200
   1096   1102   1104     1   109.5600471 388.275200
   1097   1096   1102     1   109.8000471 387.438400
   1097   1096   1098     1   107.5800459 329.699200
   1098   1096   1102     1   109.8000471 387.438400
   1100   1099   1108     1   109.7800468 425.094400
   1100   1099   1101     1   108.4600466 328.025600
   1101   1099   1108     1   109.7800468 425.094400
   1103   1102   2248     1   109.7800468 425.094400
   1103   1102   1104     1   108.4600466 328.025600
   1104   1102   2248     1   109.7800468 425.094400
   1106   1105   2278     1   109.7800468 425.094400
   1106   1105   1107     1   108.4600466 328.025600
   1107   1105   2278     1   109.7800468 425.094400
   1110   1111   1112     1   108.0100461 406.684800
   1110   1111   1113     1   108.0100461 406.684800
   1110   1114   1115     1   108.0100461 406.684800
   1110   1114   1116     1   108.0100461 406.684800
   1110   1117   1118     1   108.0100461 406.684800
   1110   1117   1119     1   108.0100461 406.684800
   1111   1110   1139     1   110.1100470 384.091200
   1111   1123   1124     1   109.8000471 387.438400
   1111   1123   1125     1   109.8000471 387.438400
   1112   1111   1123     1   110.5600475 386.601600
   1112   1111   1113     1   109.7500473 328.025600
   1113   1111   1123     1   110.5600475 386.601600
   1114   1110   1139     1   110.1100470 384.091200
   1114   1126   1127     1   109.8000471 387.438400
   1114   1126   1128     1   109.8000471 387.438400
   1115   1114   1126     1   110.5600475 386.601600
   1115   1114   1116     1   109.7500473 328.025600
   1116   1114   1126     1   110.5600475 386.601600
   1117   1110   1139     1   110.1100470 384.091200
   1117   1120   1121     1   109.8000471 387.438400
   1117   1120   1122     1   109.8000471 387.438400
   1118   1117   1120     1   110.5600475 386.601600
   1118   1117   1119     1   109.7500473 328.025600
   1119   1117   1120     1   110.5600475 386.601600
   1120   1129   1130     1   109.5600471 388.275200
   1120   1129   1131     1   109.5600471 388.275200
   1121   1120   1129     1   109.8000471 387.438400
   1121   1120   1122     1   107.5800459 329.699200
   1122   1120   1129     1   109.8000471 387.438400
   1123   1135   1136     1   109.5600471 388.275200
   1123   1135   1137     1   109.5600471 388.275200
   1124   1123   1135     1   109.8000471 387.438400
   1124   1123   1125     1   107.5800459 329.699200
   1125   1123   1135     1   109.8000471 387.438400
   1126   1132   1133     1   109.5600471 388.275200
   1126   1132   1134     1   109.5600471 388.275200
   1127   1126   1132     1   109.8000471 387.438400
   1127   1126   1128     1   107.5800459 329.699200
   1128   1126   1132     1   109.8000471 387.438400
   1130   1129   1138     1   109.7800468 425.094400
   1130   1129   1131     1   108.4600466 328.025600
   1131   1129   1138     1   109.7800468 425.094400
   1133   1132   2308     1   109.7800468 425.094400
   1133   1132   1134     1   108.4600466 328.025600
   1134   1132   2308     1   109.7800468 425.094400
   1136   1135   2338     1   109.7800468 425.094400
   1136   1135   1137     1   108.4600466 328.025600
   1137   1135   2338     1   109.7800468 425.094400
   1140   1141   1142     1   108.0100461 406.684800
   1140   1141   1143     1   108.0100461 406.684800
   1140   1144   1145     1   108.0100461 406.684800
   1140   1144   1146     1   108.0100461 406.684800
   1140   1147   1148     1   108.0100461 406.684800
   1140   1147   1149     1   108.0100461 406.684800
   1141   1140   1169     1   110.1100470 384.091200
   1141   1153   1154     1   109.8000471 387.438400
   1141   1153   1155     1   109.8000471 387.438400
   1142   1141   1153     1   110.5600475 386.601600
   1142   1141   1143     1   109.7500473 328.025600
   1143   1141   1153     1   110.5600475 386.601600
   1144   1140   1169     1   110.1100470 384.091200
   1144   1156   1157     1   109.8000471 387.438400
   1144   1156   1158     1   109.8000471 387.438400
   1145   1144   1156     1   110.5600475 386.601600
   1145   1144   1146     1   109.7500473 328.025600
   1146   1144   1156     1   110.5600475 386.601600
   1147   1140   1169     1   110.1100470 384.091200
   1147   1150   1151     1   109.8000471 387.438400
   1147   1150   1152     1   109.8000471 387.438400
   1148   1147   1150     1   110.5600475 386.601600
   1148   1147   1149     1   109.7500473 328.025600
   1149   1147   1150     1   110.5600475 386.601600
   1150   1159   1160     1   109.5600471 388.275200
   1150   1159   1161     1   109.5600471 388.275200
   1151   1150   1159     1   109.8000471 387.438400
   1151   1150   1152     1   107.5800459 329.699200
   1152   1150   1159     1   109.8000471 387.438400
   1153   1165   1166     1   109.5600471 388.275200
   1153   1165   1167     1   109.5600471 388.275200
   1154   1153   1165     1   109.8000471 387.438400
   1154   1153   1155     1   107.5800459 329.699200
   1155   1153   1165     1   109.8000471 387.438400
   1156   1162   1163     1   109.5600471 388.275200
   1156   1162   1164     1   109.5600471 388.275200
   1157   1156   1162     1   109.8000471 387.438400
   1157   1156   1158     1   107.5800459 329.699200
   1158   1156   1162     1   109.8000471 387.438400
   1160   1159   1168     1   109.7800468 425.094400
   1160   1159   1161     1   108.4600466 328.025600
   1161   1159   1168     1   109.7800468 425.094400
   1163   1162   2368     1   109.7800468 425.094400
   1163   1162   1164     1   108.4600466 328.025600
   1164   1162   2368     1   109.7800468 425.094400
   1166   1165   2398     1   109.7800468 425.094400
   1166   1165   1167     1   108.4600466 328.025600
   1167   1165   2398     1   109.7800468 425.094400
   1170   1171   1172     1   108.0100461 406.684800
   1170   1171   1173     1   108.0100461 406.684800
   1170   1174   1175     1   108.0100461 406.684800
   1170   1174   1176     1   108.0100461 406.684800
   1170   1177   1178     1   108.0100461 406.684800
   1170   1177   1179     1   108.0100461 406.684800
   1171   1170   1199     1   110.1100470 384.091200
   1171   1183   1184     1   109.8000471 387.438400
   1171   1183   1185     1   109.8000471 387.438400
   1172   1171   1183     1   110.5600475 386.601600
   1172   1171   1173     1   109.7500473 328.025600
   1173   1171   1183     1   110.5600475 386.601600
   1174   1170   1199     1   110.1100470 384.091200
   1174   1186   1187     1   109.8000471 387.438400
   1174   1186   1188     1   109.8000471 387.438400
   1175   1174   1186     1   110.5600475 386.601600
   1175   1174   1176     1   109.7500473 328.025600
   1176   1174   1186     1   110.5600475 386.601600
   1177   1170   1199     1   110.1100470 384.091200
   1177   1180   1181     1   109.8000471 387.438400
   1177   1180   1182     1   109.8000471 387.438400
   1178   1177   1180     1   110.5600475 386.601600
   1178   1177   1179     1   109.7500473 328.025600
   1179   1177   1180     1   110.5600475 386.601600
   1180   1189   1190     1   109.5600471 388.275200
   1180   1189   1191     1   109.5600471 388.275200
   1181   1180   1189     1   109.8000471 387.438400
   1181   1180   1182     1   107.5800459 329.699200
   1182   1180   1189     1   109.8000471 387.438400
   1183   1195   1196     1   109.5600471 388.275200
   1183   1195   1197     1   109.5600471 388.275200
   1184   1183   1195     1   109.8000471 387.438400
   1184   1183   1185     1   107.5800459 329.699200
   1185   1183   1195     1   109.8000471 387.438400
   1186   1192   1193     1   109.5600471 388.275200
   1186   1192   1194     1   109.5600471 388.275200
   1187   1186   1192     1   109.8000471 387.438400
   1187   1186   1188     1   107.5800459 329.699200
   1188   1186   1192     1   109.8000471 387.438400
   1190   1189   1198     1   109.7800468 425.094400
   1190   1189   1191     1   108.4600466 328.025600
   1191   1189   1198     1   109.7800468 425.094400
   1193   1192   2428     1   109.7800468 425.094400
   1193   1192   1194     1   108.4600466 328.025600
   1194   1192   2428     1   109.7800468 425.094400
   1196   1195   2458     1   109.7800468 425.094400
   1196   1195   1197     1   108.4600466 328.025600
   1197   1195   2458     1   109.7800468 425.094400
   1200   1201   1202     1   108.0100461 406.684800
   1200   1201   1203     1   108.0100461 406.684800
   1200   1204   1205     1   108.0100461 406.684800
   1200   1204   1206     1   108.0100461 406.684800
   1200   1207   1208     1   108.0100461 406.684800
   1200   1207   1209     1   108.0100461 406.684800
   1201   1200   1229     1   110.1100470 384.091200
   1201   1213   1214     1   109.8000471 387.438400
   1201   1213   1215     1   109.8000471 387.438400
   1202   1201   1213     1   110.5600475 386.601600
   1202   1201   1203     1   109.7500473 328.025600
   1203   1201   1213     1   110.5600475 386.601600
   1204   1200   1229     1   110.1100470 384.091200
   1204   1216   1217     1   109.8000471 387.438400
   1204   1216   1218     1   109.8000471 387.438400
   1205   1204   1216     1   110.5600475 386.601600
   1205   1204   1206     1   109.7500473 328.025600
   1206   1204   1216     1   110.5600475 386.601600
   1207   1200   1229     1   110.1100470 384.091200
   1207   1210   1211     1   109.8000471 387.438400
   1207   1210   1212     1   109.8000471 387.438400
   1208   1207   1210     1   110.5600475 386.601600
   1208   1207   1209     1   109.7500473 328.025600
   1209   1207   1210     1   110.5600475 386.601600
   1210   1219   1220     1   109.5600471 388.275200
   1210   1219   1221     1   109.5600471 388.275200
   1211   1210   1219     1   109.8000471 387.438400
   1211   1210   1212     1   107.5800459 329.699200
   1212   1210   1219     1   109.8000471 387.438400
   1213   1225   1226     1   109.5600471 388.275200
   1213   1225   1227     1   109.5600471 388.275200
   1214   1213   1225     1   109.8000471 387.438400
   1214   1213   1215     1   107.5800459 329.699200
   1215   1213   1225     1   109.8000471 387.438400
   1216   1222   1223     1   109.5600471 388.275200
   1216   1222   1224     1   109.5600471 388.275200
   1217   1216   1222     1   109.8000471 387.438400
   1217   1216   1218     1   107.5800459 329.699200
   1218   1216   1222     1   109.8000471 387.438400
   1220   1219   1228     1   109.7800468 425.094400
   1220   1219   1221     1   108.4600466 328.025600
   1221   1219   1228     1   109.7800468 425.094400
   1223   1222   2488     1   109.7800468 425.094400
   1223   1222   1224     1   108.4600466 328.025600
   1224   1222   2488     1   109.7800468 425.094400
   1226   1225   2518     1   109.7800468 425.094400
   1226   1225   1227     1   108.4600466 328.025600
   1227   1225   2518     1   109.7800468 425.094400
   1230   1231   1232     1   108.0100461 406.684800
   1230   1231   1233     1   108.0100461 406.684800
   1230   1234   1235     1   108.0100461 406.684800
   1230   1234   1236     1   108.0100461 406.684800
   1230   1237   1238     1   108.0100461 406.684800
   1230   1237   1239     1   108.0100461 406.684800
   1231   1230   1259     1   110.1100470 384.091200
   1231   1243   1244     1   109.8000471 387.438400
   1231   1243   1245     1   109.8000471 387.438400
   1232   1231   1243     1   110.5600475 386.601600
   1232   1231   1233     1   109.7500473 328.025600
   1233   1231   1243     1   110.5600475 386.601600
   1234   1230   1259     1   110.1100470 384.091200
   1234   1246   1247     1   109.8000471 387.438400
   1234   1246   1248     1   109.8000471 387.438400
   1235   1234   1246     1   110.5600475 386.601600
   1235   1234   1236     1   109.7500473 328.025600
   1236   1234   1246     1   110.5600475 386.601600
   1237   1230   1259     1   110.1100470 384.091200
   1237   1240   1241     1   109.8000471 387.438400
   1237   1240   1242     1   109.8000471 387.438400
   1238   1237   1240     1   110.5600475 386.601600
   1238   1237   1239     1   109.7500473 328.025600
   1239   1237   1240     1   110.5600475 386.601600
   1240   1249   1250     1   109.5600471 388.275200
   1240   1249   1251     1   109.5600471 388.275200
   1241   1240   1249     1   109.8000471 387.438400
   1241   1240   1242     1   107.5800459 329.699200
   1242   1240   1249     1   109.8000471 387.438400
   1243   1255   1256     1   109.5600471 388.275200
   1243   1255   1257     1   109.5600471 388.275200
   1244   1243   1255     1   109.8000471 387.438400
   1244   1243   1245     1   107.5800459 329.699200
   1245   1243   1255     1   109.8000471 387.438400
   1246   1252   1253     1   109.5600471 388.275200
   1246   1252   1254     1   109.5600471 388.275200
   1247   1246   1252     1   109.8000471 387.438400
   1247   1246   1248     1   107.5800459 329.699200
   1248   1246   1252     1   109.8000471 387.438400
   1250   1249   1258     1   109.7800468 425.094400
   1250   1249   1251     1   108.4600466 328.025600
   1251   1249   1258     1   109.7800468 425.094400
   1253   1252   2548     1   109.7800468 425.094400
   1253   1252   1254     1   108.4600466 328.025600
   1254   1252   2548     1   109.7800468 425.094400
   1256   1255   2578     1   109.7800468 425.094400
   1256   1255   1257     1   108.4600466 328.025600
   1257   1255   2578     1   109.7800468 425.094400
   1260   1261   1262     1   108.0100461 406.684800
   1260   1261   1263     1   108.0100461 406.684800
   1260   1264   1265     1   108.0100461 406.684800
   1260   1264   1266     1   108.0100461 406.684800
   1260   1267   1268     1   108.0100461 406.684800
   1260   1267   1269     1   108.0100461 406.684800
   1261   1260   1289     1   110.1100470 384.091200
   1261   1273   1274     1   109.8000471 387.438400
   1261   1273   1275     1   109.8000471 387.438400
   1262   1261   1273     1   110.5600475 386.601600
   1262   1261   1263     1   109.7500473 328.025600
   1263   1261   1273     1   110.5600475 386.601600
   1264   1260   1289     1   110.1100470 384.091200
   1264   1276   1277     1   109.8000471 387.438400
   1264   1276   1278     1   109.8000471 387.438400
   1265   1264   1276     1   110.5600475 386.601600
   1265   1264   1266     1   109.7500473 328.025600
   1266   1264   1276     1   110.5600475 386.601600
   1267   1260   1289     1   110.1100470 384.091200
   1267   1270   1271     1   109.8000471 387.438400
   1267   1270   1272     1   109.8000471 387.438400
   1268   1267   1270     1   110.5600475 386.601600
   1268   1267   1269     1   109.7500473 328.025600
   1269   1267   1270     1   110.5600475 386.601600
   1270   1279   1280     1   109.5600471 388.275200
   1270   1279   1281     1   109.5600471 388.275200
   1271   1270   1279     1   109.8000471 387.438400
   1271   1270   1272     1   107.5800459 329.699200
   1272   1270   1279     1   109.8000471 387.438400
   1273   1285   1286     1   109.5600471 388.275200
   1273   1285   1287     1   109.5600471 388.275200
   1274   1273   1285     1   109.8000471 387.438400
   1274   1273   1275     1   107.5800459 329.699200
   1275   1273   1285     1   109.8000471 387.438400
   1276   1282   1283     1   109.5600471 388.275200
   1276   1282   1284     1   109.5600471 388.275200
   1277   1276   1282     1   109.8000471 387.438400
   1277   1276   1278     1   107.5800459 329.699200
   1278   1276   1282     1   109.8000471 387.438400
   1280   1279   1288     1   109.7800468 425.094400
   1280   1279   1281     1   108.4600466 328.025600
   1281   1279   1288     1   109.7800468 425.094400
   1283   1282   2608     1   109.7800468 425.094400
   1283   1282   1284     1   108.4600466 328.025600
   1284   1282   2608     1   109.7800468 425.094400
   1286   1285   2638     1   109.7800468 425.094400
   1286   1285   1287     1   108.4600466 328.025600
   1287   1285   2638     1   109.7800468 425.094400
   1290   1291   1292     1   108.0100461 406.684800
   1290   1291   1293     1   108.0100461 406.684800
   1290   1294   1295     1   108.0100461 406.684800
   1290   1294   1296     1   108.0100461 406.684800
   1290   1297   1298     1   108.0100461 406.684800
   1290   1297   1299     1   108.0100461 406.684800
   1291   1290   1319     1   110.1100470 384.091200
   1291   1303   1304     1   109.8000471 387.438400
   1291   1303   1305     1   109.8000471 387.438400
   1292   1291   1303     1   110.5600475 386.601600
   1292   1291   1293     1   109.7500473 328.025600
   1293   1291   1303     1   110.5600475 386.601600
   1294   1290   1319     1   110.1100470 384.091200
   1294   1306   1307     1   109.8000471 387.438400
   1294   1306   1308     1   109.8000471 387.438400
   1295   1294   1306     1   110.5600475 386.601600
   1295   1294   1296     1   109.7500473 328.025600
   1296   1294   1306     1   110.5600475 386.601600
   1297   1290   1319     1   110.1100470 384.091200
   1297   1300   1301     1   109.8000471 387.438400
   1297   1300   1302     1   109.8000471 387.438400
   1298   1297   1300     1   110.5600475 386.601600
   1298   1297   1299     1   109.7500473 328.025600
   1299   1297   1300     1   110.5600475 386.601600
   1300   1309   1310     1   109.5600471 388.275200
   1300   1309   1311     1   109.5600471 388.275200
   1301   1300   1309     1   109.8000471 387.438400
   1301   1300   1302     1   107.5800459 329.699200
   1302   1300   1309     1   109.8000471 387.438400
   1303   1315   1316     1   109.5600471 388.275200
   1303   1315   1317     1   109.5600471 388.275200
   1304   1303   1315     1   109.8000471 387.438400
   1304   1303   1305     1   107.5800459 329.699200
   1305   1303   1315     1   109.8000471 387.438400
   1306   1312   1313     1   109.5600471 388.275200
   1306   1312   1314     1   109.5600471 388.275200
   1307   1306   1312     1   109.8000471 387.438400
   1307   1306   1308     1   107.5800459 329.699200
   1308   1306   1312     1   109.8000471 387.438400
   1310   1309   1318     1   109.7800468 425.094400
   1310   1309   1311     1   108.4600466 328.025600
   1311   1309   1318     1   109.7800468 425.094400
   1313   1312   2668     1   109.7800468 425.094400
   1313   1312   1314     1   108.4600466 328.025600
   1314   1312   2668     1   109.7800468 425.094400
   1316   1315   2698     1   109.7800468 425.094400
   1316   1315   1317     1   108.4600466 328.025600
   1317   1315   2698     1   109.7800468 425.094400
   1320   1321   1322     1   108.0100461 406.684800
   1320   1321   1323     1   108.0100461 406.684800
   1320   1324   1325     1   108.0100461 406.684800
   1320   1324   1326     1   108.0100461 406.684800
   1320   1327   1328     1   108.0100461 406.684800
   1320   1327   1329     1   108.0100461 406.684800
   1321   1320   1349     1   110.1100470 384.091200
   1321   1333   1334     1   109.8000471 387.438400
   1321   1333   1335     1   109.8000471 387.438400
   1322   1321   1333     1   110.5600475 386.601600
   1322   1321   1323     1   109.7500473 328.025600
   1323   1321   1333     1   110.5600475 386.601600
   1324   1320   1349     1   110.1100470 384.091200
   1324   1336   1337     1   109.8000471 387.438400
   1324   1336   1338     1   109.8000471 387.438400
   1325   1324   1336     1   110.5600475 386.601600
   1325   1324   1326     1   109.7500473 328.025600
   1326   1324   1336     1   110.5600475 386.601600
   1327   1320   1349     1   110.1100470 384.091200
   1327   1330   1331     1   109.8000471 387.438400
   1327   1330   1332     1   109.8000471 387.438400
   1328   1327   1330     1   110.5600475 386.601600
   1328   1327   1329     1   109.7500473 328.025600
   1329   1327   1330     1   110.5600475 386.601600
   1330   1339   1340     1   109.5600471 388.275200
   1330   1339   1341     1   109.5600471 388.275200
   1331   1330   1339     1   109.8000471 387.438400
   1331   1330   1332     1   107.5800459 329.699200
   1332   1330   1339     1   109.8000471 387.438400
   1333   1345   1346     1   109.5600471 388.275200
   1333   1345   1347     1   109.5600471 388.275200
   1334   1333   1345     1   109.8000471 387.438400
   1334   1333   1335     1   107.5800459 329.699200
   1335   1333   1345     1   109.8000471 387.438400
   1336   1342   1343     1   109.5600471 388.275200
   1336   1342   1344     1   109.5600471 388.275200
   1337   1336   1342     1   109.8000471 387.438400
   1337   1336   1338     1   107.5800459 329.699200
   1338   1336   1342     1   109.8000471 387.438400
   1340   1339   1348     1   109.7800468 425.094400
   1340   1339   1341     1   108.4600466 328.025600
   1341   1339   1348     1   109.7800468 425.094400
   1343   1342   2728     1   109.7800468 425.094400
   1343   1342   1344     1   108.4600466 328.025600
   1344   1342   2728     1   109.7800468 425.094400
   1346   1345   2758     1   109.7800468 425.094400
   1346   1345   1347     1   108.4600466 328.025600
   1347   1345   2758     1   109.7800468 425.094400
   1350   1351   1352     1   108.0100461 406.684800
   1350   1351   1353     1   108.0100461 406.684800
   1350   1354   1355     1   108.0100461 406.684800
   1350   1354   1356     1   108.0100461 406.684800
   1350   1357   1358     1   108.0100461 406.684800
   1350   1357   1359     1   108.0100461 406.684800
   1351   1350   1379     1   110.1100470 384.091200
   1351   1363   1364     1   109.8000471 387.438400
   1351   1363   1365     1   109.8000471 387.438400
   1352   1351   1363     1   110.5600475 386.601600
   1352   1351   1353     1   109.7500473 328.025600
   1353   1351   1363     1   110.5600475 386.601600
   1354   1350   1379     1   110.1100470 384.091200
   1354   1366   1367     1   109.8000471 387.438400
   1354   1366   1368     1   109.8000471 387.438400
   1355   1354   1366     1   110.5600475 386.601600
   1355   1354   1356     1   109.7500473 328.025600
   1356   1354   1366     1   110.5600475 386.601600
   1357   1350   1379     1   110.1100470 384.091200
   1357   1360   1361     1   109.8000471 387.438400
   1357   1360   1362     1   109.8000471 387.438400
   1358   1357   1360     1   110.5600475 386.601600
   1358   1357   1359     1   109.7500473 328.025600
   1359   1357   1360     1   110.5600475 386.601600
   1360   1369   1370     1   109.5600471 388.275200
   1360   1369   1371     1   109.5600471 388.275200
   1361   1360   1369     1   109.8000471 387.438400
   1361   1360   1362     1   107.5800459 329.699200
   1362   1360   1369     1   109.8000471 387.438400
   1363   1375   1376     1   109.5600471 388.275200
   1363   1375   1377     1   109.5600471 388.275200
   1364   1363   1375     1   109.8000471 387.438400
   1364   1363   1365     1   107.5800459 329.699200
   1365   1363   1375     1   109.8000471 387.438400
   1366   1372   1373     1   109.5600471 388.275200
   1366   1372   1374     1   109.5600471 388.275200
   1367   1366   1372     1   109.8000471 387.438400
   1367   1366   1368     1   107.5800459 329.699200
   1368   1366   1372     1   109.8000471 387.438400
   1370   1369   1378     1   109.7800468 425.094400
   1370   1369   1371     1   108.4600466 328.025600
   1371   1369   1378     1   109.7800468 425.094400
   1373   1372   2788     1   109.7800468 425.094400
   1373   1372   1374     1   108.4600466 328.025600
   1374   1372   2788     1   109.7800468 425.094400
   1376   1375   2818     1   109.7800468 425.094400
   1376   1375   1377     1   108.4600466 328.025600
   1377   1375   2818     1   109.7800468 425.094400
   1380   1381   1382     1   108.0100461 406.684800
   1380   1381   1383     1   108.0100461 406.684800
   1380   1384   1385     1   108.0100461 406.684800
   1380   1384   1386     1   108.0100461 406.684800
   1380   1387   1388     1   108.0100461 406.684800
   1380   1387   1389     1   108.0100461 406.684800
   1381   1380   1409     1   110.1100470 384.091200
   1381   1393   1394     1   109.8000471 387.438400
   1381   1393   1395     1   109.8000471 387.438400
   1382   1381   1393     1   110.5600475 386.601600
   1382   1381   1383     1   109.7500473 328.025600
   1383   1381   1393     1   110.5600475 386.601600
   1384   1380   1409     1   110.1100470 384.091200
   1384   1396   1397     1   109.8000471 387.438400
   1384   1396   1398     1   109.8000471 387.438400
   1385   1384   1396     1   110.5600475 386.601600
   1385   1384   1386     1   109.7500473 328.025600
   1386   1384   1396     1   110.5600475 386.601600
   1387   1380   1409     1   110.1100470 384.091200
   1387   1390   1391     1   109.8000471 387.438400
   1387   1390   1392     1   109.8000471 387.438400
   1388   1387   1390     1   110.5600475 386.601600
   1388   1387   1389     1   109.7500473 328.025600
   1389   1387   1390     1   110.5600475 386.601600
   1390   1399   1400     1   109.5600471 388.275200
   1390   1399   1401     1   109.5600471 388.275200
   1391   1390   1399     1   109.8000471 387.438400
   1391   1390   1392     1   107.5800459 329.699200
   1392   1390   1399     1   109.8000471 387.438400
   1393   1405   1406     1   109.5600471 388.275200
   1393   1405   1407     1   109.5600471 388.275200
   1394   1393   1405     1   109.8000471 387.438400
   1394   1393   1395     1   107.5800459 329.699200
   1395   1393   1405     1   109.8000471 387.438400
   1396   1402   1403     1   109.5600471 388.275200
   1396   1402   1404     1   109.5600471 388.275200
   1397   1396   1402     1   109.8000471 387.438400
   1397   1396   1398     1   107.5800459 329.699200
   1398   1396   1402     1   109.8000471 387.438400
   1400   1399   1408     1   109.7800468 425.094400
   1400   1399   1401     1   108.4600466 328.025600
   1401   1399   1408     1   109.7800468 425.094400
   1403   1402   2850     1   109.7800468 425.094400
   1403   1402   1404     1   108.4600466 328.025600
   1404   1402   2850     1   109.7800468 425.094400
   1406   1405   2882     1   109.7800468 425.094400
   1406   1405   1407     1   108.4600466 328.025600
   1407   1405   2882     1   109.7800468 425.094400
   1410   1411   1412     1   108.0100461 406.684800
   1410   1411   1413     1   108.0100461 406.684800
   1410   1414   1415     1   108.0100461 406.684800
   1410   1414   1416     1   108.0100461 406.684800
   1410   1417   1418     1   108.0100461 406.684800
   1410   1417   1419     1   108.0100461 406.684800
   1411   1410   1439     1   110.1100470 384.091200
   1411   1423   1424     1   109.8000471 387.438400
   1411   1423   1425     1   109.8000471 387.438400
   1412   1411   1423     1   110.5600475 386.601600
   1412   1411   1413     1   109.7500473 328.025600
   1413   1411   1423     1   110.5600475 386.601600
   1414   1410   1439     1   110.1100470 384.091200
   1414   1426   1427     1   109.8000471 387.438400
   1414   1426   1428     1   109.8000471 387.438400
   1415   1414   1426     1   110.5600475 386.601600
   1415   1414   1416     1   109.7500473 328.025600
   1416   1414   1426     1   110.5600475 386.601600
   1417   1410   1439     1   110.1100470 384.091200
   1417   1420   1421     1   109.8000471 387.438400
   1417   1420   1422     1   109.8000471 387.438400
   1418   1417   1420     1   110.5600475 386.601600
   1418   1417   1419     1   109.7500473 328.025600
   1419   1417   1420     1   110.5600475 386.601600
   1420   1429   1430     1   109.5600471 388.275200
   1420   1429   1431     1   109.5600471 388.275200
   1421   1420   1429     1   109.8000471 387.438400
   1421   1420   1422     1   107.5800459 329.699200
   1422   1420   1429     1   109.8000471 387.438400
   1423   1435   1436     1   109.5600471 388.275200
   1423   1435   1437     1   109.5600471 388.275200
   1424   1423   1435     1   109.8000471 387.438400
   1424   1423   1425     1   107.5800459 329.699200
   1425   1423   1435     1   109.8000471 387.438400
   1426   1432   1433     1   109.5600471 388.275200
   1426   1432   1434     1   109.5600471 388.275200
   1427   1426   1432     1   109.8000471 387.438400
   1427   1426   1428     1   107.5800459 329.699200
   1428   1426   1432     1   109.8000471 387.438400
   1430   1429   1438     1   109.7800468 425.094400
   1430   1429   1431     1   108.4600466 328.025600
   1431   1429   1438     1   109.7800468 425.094400
   1433   1432   2914     1   109.7800468 425.094400
   1433   1432   1434     1   108.4600466 328.025600
   1434   1432   2914     1   109.7800468 425.094400
   1436   1435   2946     1   109.7800468 425.094400
   1436   1435   1437     1   108.4600466 328.025600
   1437   1435   2946     1   109.7800468 425.094400
   1440   1441   1442     1   108.0100461 406.684800
   1440   1441   1443     1   108.0100461 406.684800
   1440   1444   1445     1   108.0100461 406.684800
   1440   1444   1446     1   108.0100461 406.684800
   1440   1447   1448     1   108.0100461 406.684800
   1440   1447   1449     1   108.0100461 406.684800
   1441   1440   1469     1   110.1100470 384.091200
   1441   1453   1454     1   109.8000471 387.438400
   1441   1453   1455     1   109.8000471 387.438400
   1442   1441   1453     1   110.5600475 386.601600
   1442   1441   1443     1   109.7500473 328.025600
   1443   1441   1453     1   110.5600475 386.601600
   1444   1440   1469     1   110.1100470 384.091200
   1444   1456   1457     1   109.8000471 387.438400
   1444   1456   1458     1   109.8000471 387.438400
   1445   1444   1456     1   110.5600475 386.601600
   1445   1444   1446     1   109.7500473 328.025600
   1446   1444   1456     1   110.5600475 386.601600
   1447   1440   1469     1   110.1100470 384.091200
   1447   1450   1451     1   109.8000471 387.438400
   1447   1450   1452     1   109.8000471 387.438400
   1448   1447   1450     1   110.5600475 386.601600
   1448   1447   1449     1   109.7500473 328.025600
   1449   1447   1450     1   110.5600475 386.601600
   1450   1459   1460     1   109.5600471 388.275200
   1450   1459   1461     1   109.5600471 388.275200
   1451   1450   1459     1   109.8000471 387.438400
   1451   1450   1452     1   107.5800459 329.699200
   1452   1450   1459     1   109.8000471 387.438400
   1453   1465   1466     1   109.5600471 388.275200
   1453   1465   1467     1   109.5600471 388.275200
   1454   1453   1465     1   109.8000471 387.438400
   1454   1453   1455     1   107.5800459 329.699200
   1455   1453   1465     1   109.8000471 387.438400
   1456   1462   1463     1   109.5600471 388.275200
   1456   1462   1464     1   109.5600471 388.275200
   1457   1456   1462     1   109.8000471 387.438400
   1457   1456   1458     1   107.5800459 329.699200
   1458   1456   1462     1   109.8000471 387.438400
   1460   1459   1468     1   109.7800468 425.094400
   1460   1459   1461     1   108.4600466 328.025600
   1461   1459   1468     1   109.7800468 425.094400
   1463   1462   2978     1   109.7800468 425.094400
   1463   1462   1464     1   108.4600466 328.025600
   1464   1462   2978     1   109.7800468 425.094400
   1466   1465   3010     1   109.7800468 425.094400
   1466   1465   1467     1   108.4600466 328.025600
   1467   1465   3010     1   109.7800468 425.094400
   1470   1471   1472     1   108.0100461 406.684800
   1470   1471   1473     1   108.0100461 406.684800
   1470   1474   1475     1   108.0100461 406.684800
   1470   1474   1476     1   108.0100461 406.684800
   1470   1477   1478     1   108.0100461 406.684800
   1470   1477   1479     1   108.0100461 406.684800
   1471   1470   1499     1   110.1100470 384.091200
   1471   1483   1484     1   109.8000471 387.438400
   1471   1483   1485     1   109.8000471 387.438400
   1472   1471   1483     1   110.5600475 386.601600
   1472   1471   1473     1   109.7500473 328.025600
   1473   1471   1483     1   110.5600475 386.601600
   1474   1470   1499     1   110.1100470 384.091200
   1474   1486   1487     1   109.8000471 387.438400
   1474   1486   1488     1   109.8000471 387.438400
   1475   1474   1486     1   110.5600475 386.601600
   1475   1474   1476     1   109.7500473 328.025600
   1476   1474   1486     1   110.5600475 386.601600
   1477   1470   1499     1   110.1100470 384.091200
   1477   1480   1481     1   109.8000471 387.438400
   1477   1480   1482     1   109.8000471 387.438400
   1478   1477   1480     1   110.5600475 386.601600
   1478   1477   1479     1   109.7500473 328.025600
   1479   1477   1480     1   110.5600475 386.601600
   1480   1489   1490     1   109.5600471 388.275200
   1480   1489   1491     1   109.5600471 388.275200
   1481   1480   1489     1   109.8000471 387.438400
   1481   1480   1482     1   107.5800459 329.699200
   1482   1480   1489     1   109.8000471 387.438400
   1483   1495   1496     1   109.5600471 388.275200
   1483   1495   1497     1   109.5600471 388.275200
   1484   1483   1495     1   109.8000471 387.438400
   1484   1483   1485     1   107.5800459 329.699200
   1485   1483   1495     1   109.8000471 387.438400
   1486   1492   1493     1   109.5600471 388.275200
   1486   1492   1494     1   109.5600471 388.275200
   1487   1486   1492     1   109.8000471 387.438400
   1487   1486   1488     1   107.5800459 329.699200
   1488   1486   1492     1   109.8000471 387.438400
   1490   1489   1498     1   109.7800468 425.094400
   1490   1489   1491     1   108.4600466 328.025600
   1491   1489   1498     1   109.7800468 425.094400
   1493   1492   3042     1   109.7800468 425.094400
   1493   1492   1494     1   108.4600466 328.025600
   1494   1492   3042     1   109.7800468 425.094400
   1496   1495   3074     1   109.7800468 425.094400
   1496   1495   1497     1   108.4600466 328.025600
   1497   1495   3074     1   109.7800468 425.094400
   1500   1501   1502     1   108.0100461 406.684800
   1500   1501   1503     1   108.0100461 406.684800
   1500   1504   1505     1   108.0100461 406.684800
   1500   1504   1506     1   108.0100461 406.684800
   1500   1507   1508     1   108.0100461 406.684800
   1500   1507   1509     1   108.0100461 406.684800
   1501   1500   1529     1   110.1100470 384.091200
   1501   1513   1514     1   109.8000471 387.438400
   1501   1513   1515     1   109.8000471 387.438400
   1502   1501   1513     1   110.5600475 386.601600
   1502   1501   1503     1   109.7500473 328.025600
   1503   1501   1513     1   110.5600475 386.601600
   1504   1500   1529     1   110.1100470 384.091200
   1504   1516   1517     1   109.8000471 387.438400
   1504   1516   1518     1   109.8000471 387.438400
   1505   1504   1516     1   110.5600475 386.601600
   1505   1504   1506     1   109.7500473 328.025600
   1506   1504   1516     1   110.5600475 386.601600
   1507   1500   1529     1   110.1100470 384.091200
   1507   1510   1511     1   109.8000471 387.438400
   1507   1510   1512     1   109.8000471 387.438400
   1508   1507   1510     1   110.5600475 386.601600
   1508   1507   1509     1   109.7500473 328.025600
   1509   1507   1510     1   110.5600475 386.601600
   1510   1519   1520     1   109.5600471 388.275200
   1510   1519   1521     1   109.5600471 388.275200
   1511   1510   1519     1   109.8000471 387.438400
   1511   1510   1512     1   107.5800459 329.699200
   1512   1510   1519     1   109.8000471 387.438400
   1513   1525   1526     1   109.5600471 388.275200
   1513   1525   1527     1   109.5600471 388.275200
   1514   1513   1525     1   109.8000471 387.438400
   1514   1513   1515     1   107.5800459 329.699200
   1515   1513   1525     1   109.8000471 387.438400
   1516   1522   1523     1   109.5600471 388.275200
   1516   1522   1524     1   109.5600471 388.275200
   1517   1516   1522     1   109.8000471 387.438400
   1517   1516   1518     1   107.5800459 329.699200
   1518   1516   1522     1   109.8000471 387.438400
   1520   1519   1528     1   109.7800468 425.094400
   1520   1519   1521     1   108.4600466 328.025600
   1521   1519   1528     1   109.7800468 425.094400
   1523   1522   3106     1   109.7800468 425.094400
   1523   1522   1524     1   108.4600466 328.025600
   1524   1522   3106     1   109.7800468 425.094400
   1526   1525   3138     1   109.7800468 425.094400
   1526   1525   1527     1   108.4600466 328.025600
   1527   1525   3138     1   109.7800468 425.094400
   1530   1531   1532     1   108.0100461 406.684800
   1530   1531   1533     1   108.0100461 406.684800
   1530   1534   1535     1   108.0100461 406.684800
   1530   1534   1536     1   108.0100461 406.684800
   1530   1537   1538     1   108.0100461 406.684800
   1530   1537   1539     1   108.0100461 406.684800
   1531   1530   1559     1   110.1100470 384.091200
   1531   1543   1544     1   109.8000471 387.438400
   1531   1543   1545     1   109.8000471 387.438400
   1532   1531   1543     1   110.5600475 386.601600
   1532   1531   1533     1   109.7500473 328.025600
   1533   1531   1543     1   110.5600475 386.601600
   1534   1530   1559     1   110.1100470 384.091200
   1534   1546   1547     1   109.8000471 387.438400
   1534   1546   1548     1   109.8000471 387.438400
   1535   1534   1546     1   110.5600475 386.601600
   1535   1534   1536     1   109.7500473 328.025600
   1536   1534   1546     1   110.5600475 386.601600
   1537   1530   1559     1   110.1100470 384.091200
   1537   1540   1541     1   109.8000471 387.438400
   1537   1540   1542     1   109.8000471 387.438400
   1538   1537   1540     1   110.5600475 386.601600
   1538   1537   1539     1   109.7500473 328.025600
   1539   1537   1540     1   110.5600475 386.601600
   1540   1549   1550     1   109.5600471 388.275200
   1540   1549   1551     1   109.5600471 388.275200
   1541   1540   1549     1   109.8000471 387.438400
   1541   1540   1542     1   107.5800459 329.699200
   1542   1540   1549     1   109.8000471 387.438400
   1543   1555   1556     1   109.5600471 388.275200
   1543   1555   1557     1   109.5600471 388.275200
   1544   1543   1555     1   109.8000471 387.438400
   1544   1543   1545     1   107.5800459 329.699200
   1545   1543   1555     1   109.8000471 387.438400
   1546   1552   1553     1   109.5600471 388.275200
   1546   1552   1554     1   109.5600471 388.275200
   1547   1546   1552     1   109.8000471 387.438400
   1547   1546   1548     1   107.5800459 329.699200
   1548   1546   1552     1   109.8000471 387.438400
   1550   1549   1558     1   109.7800468 425.094400
   1550   1549   1551     1   108.4600466 328.025600
   1551   1549   1558     1   109.7800468 425.094400
   1553   1552   3170     1   109.7800468 425.094400
   1553   1552   1554     1   108.4600466 328.025600
   1554   1552   3170     1   109.7800468 425.094400
   1556   1555   3202     1   109.7800468 425.094400
   1556   1555   1557     1   108.4600466 328.025600
   1557   1555   3202     1   109.7800468 425.094400
   1560   1561   1562     1   108.0100461 406.684800
   1560   1561   1563     1   108.0100461 406.684800
   1560   1564   1565     1   108.0100461 406.684800
   1560   1564   1566     1   108.0100461 406.684800
   1560   1567   1568     1   108.0100461 406.684800
   1560   1567   1569     1   108.0100461 406.684800
   1561   1560   1589     1   110.1100470 384.091200
   1561   1573   1574     1   109.8000471 387.438400
   1561   1573   1575     1   109.8000471 387.438400
   1562   1561   1573     1   110.5600475 386.601600
   1562   1561   1563     1   109.7500473 328.025600
   1563   1561   1573     1   110.5600475 386.601600
   1564   1560   1589     1   110.1100470 384.091200
   1564   1576   1577     1   109.8000471 387.438400
   1564   1576   1578     1   109.8000471 387.438400
   1565   1564   1576     1   110.5600475 386.601600
   1565   1564   1566     1   109.7500473 328.025600
   1566   1564   1576     1   110.5600475 386.601600
   1567   1560   1589     1   110.1100470 384.091200
   1567   1570   1571     1   109.8000471 387.438400
   1567   1570   1572     1   109.8000471 387.438400
   1568   1567   1570     1   110.5600475 386.601600
   1568   1567   1569     1   109.7500473 328.025600
   1569   1567   1570     1   110.5600475 386.601600
   1570   1579   1580     1   109.5600471 388.275200
   1570   1579   1581     1   109.5600471 388.275200
   1571   1570   1579     1   109.8000471 387.438400
   1571   1570   1572     1   107.5800459 329.699200
   1572   1570   1579     1   109.8000471 387.438400
   1573   1585   1586     1   109.5600471 388.275200
   1573   1585   1587     1   109.5600471 388.275200
   1574   1573   1585     1   109.8000471 387.438400
   1574   1573   1575     1   107.5800459 329.699200
   1575   1573   1585     1   109.8000471 387.438400
   1576   1582   1583     1   109.5600471 388.275200
   1576   1582   1584     1   109.5600471 388.275200
   1577   1576   1582     1   109.8000471 387.438400
   1577   1576   1578     1   107.5800459 329.699200
   1578   1576   1582     1   109.8000471 387.438400
   1580   1579   1588     1   109.7800468 425.094400
   1580   1579   1581     1   108.4600466 328.025600
   1581   1579   1588     1   109.7800468 425.094400
   1583   1582   3234     1   109.7800468 425.094400
   1583   1582   1584     1   108.4600466 328.025600
   1584   1582   3234     1   109.7800468 425.094400
   1586   1585   3266     1   109.7800468 425.094400
   1586   1585   1587     1   108.4600466 328.025600
   1587   1585   3266     1   109.7800468 425.094400
   1590   1591   1592     1   108.0100461 406.684800
   1590   1591   1593     1   108.0100461 406.684800
   1590   1594   1595     1   108.0100461 406.684800
   1590   1594   1596     1   108.0100461 406.684800
   1590   1597   1598     1   108.0100461 406.684800
   1590   1597   1599     1   108.0100461 406.684800
   1591   1590   1619     1   110.1100470 384.091200
   1591   1603   1604     1   109.8000471 387.438400
   1591   1603   1605     1   109.8000471 387.438400
   1592   1591   1603     1   110.5600475 386.601600
   1592   1591   1593     1   109.7500473 328.025600
   1593   1591   1603     1   110.5600475 386.601600
   1594   1590   1619     1   110.1100470 384.091200
   1594   1606   1607     1   109.8000471 387.438400
   1594   1606   1608     1   109.8000471 387.438400
   1595   1594   1606     1   110.5600475 386.601600
   1595   1594   1596     1   109.7500473 328.025600
   1596   1594   1606     1   110.5600475 386.601600
   1597   1590   1619     1   110.1100470 384.091200
   1597   1600   1601     1   109.8000471 387.438400
   1597   1600   1602     1   109.8000471 387.438400
   1598   1597   1600     1   110.5600475 386.601600
   1598   1597   1599     1   109.7500473 328.025600
   1599   1597   1600     1   110.5600475 386.601600
   1600   1609   1610     1   109.5600471 388.275200
   1600   1609   1611     1   109.5600471 388.275200
   1601   1600   1609     1   109.8000471 387.438400
   1601   1600   1602     1   107.5800459 329.699200
   1602   1600   1609     1   109.8000471 387.438400
   1603   1615   1616     1   109.5600471 388.275200
   1603   1615   1617     1   109.5600471 388.275200
   1604   1603   1615     1   109.8000471 387.438400
   1604   1603   1605     1   107.5800459 329.699200
   1605   1603   1615     1   109.8000471 387.438400
   1606   1612   1613     1   109.5600471 388.275200
   1606   1612   1614     1   109.5600471 388.275200
   1607   1606   1612     1   109.8000471 387.438400
   1607   1606   1608     1   107.5800459 329.699200
   1608   1606   1612     1   109.8000471 387.438400
   1610   1609   1618     1   109.7800468 425.094400
   1610   1609   1611     1   108.4600466 328.025600
   1611   1609   1618     1   109.7800468 425.094400
   1613   1612   3298     1   109.7800468 425.094400
   1613   1612   1614     1   108.4600466 328.025600
   1614   1612   3298     1   109.7800468 425.094400
   1616   1615   3330     1   109.7800468 425.094400
   1616   1615   1617     1   108.4600466 328.025600
   1617   1615   3330     1   109.7800468 425.094400
   1620   1621   1622     1   108.0100461 406.684800
   1620   1621   1623     1   108.0100461 406.684800
   1620   1624   1625     1   108.0100461 406.684800
   1620   1624   1626     1   108.0100461 406.684800
   1620   1627   1628     1   108.0100461 406.684800
   1620   1627   1629     1   108.0100461 406.684800
   1621   1620   1649     1   110.1100470 384.091200
   1621   1633   1634     1   109.8000471 387.438400
   1621   1633   1635     1   109.8000471 387.438400
   1622   1621   1633     1   110.5600475 386.601600
   1622   1621   1623     1   109.7500473 328.025600
   1623   1621   1633     1   110.5600475 386.601600
   1624   1620   1649     1   110.1100470 384.091200
   1624   1636   1637     1   109.8000471 387.438400
   1624   1636   1638     1   109.8000471 387.438400
   1625   1624   1636     1   110.5600475 386.601600
   1625   1624   1626     1   109.7500473 328.025600
   1626   1624   1636     1   110.5600475 386.601600
   1627   1620   1649     1   110.1100470 384.091200
   1627   1630   1631     1   109.8000471 387.438400
   1627   1630   1632     1   109.8000471 387.438400
   1628   1627   1630     1   110.5600475 386.601600
   1628   1627   1629     1   109.7500473 328.025600
   1629   1627   1630     1   110.5600475 386.601600
   1630   1639   1640     1   109.5600471 388.275200
   1630   1639   1641     1   109.5600471 388.275200
   1631   1630   1639     1   109.8000471 387.438400
   1631   1630   1632     1   107.5800459 329.699200
   1632   1630   1639     1   109.8000471 387.438400
   1633   1645   1646     1   109.5600471 388.275200
   1633   1645   1647     1   109.5600471 388.275200
   1634   1633   1645     1   109.8000471 387.438400
   1634   1633   1635     1   107.5800459 329.699200
   1635   1633   1645     1   109.8000471 387.438400
   1636   1642   1643     1   109.5600471 388.275200
   1636   1642   1644     1   109.5600471 388.275200
   1637   1636   1642     1   109.8000471 387.438400
   1637   1636   1638     1   107.5800459 329.699200
   1638   1636   1642     1   109.8000471 387.438400
   1640   1639   1648     1   109.7800468 425.094400
   1640   1639   1641     1   108.4600466 328.025600
   1641   1639   1648     1   109.7800468 425.094400
   1643   1642   3362     1   109.7800468 425.094400
   1643   1642   1644     1   108.4600466 328.025600
   1644   1642   3362     1   109.7800468 425.094400
   1646   1645   3394     1   109.7800468 425.094400
   1646   1645   1647     1   108.4600466 328.025600
   1647   1645   3394     1   109.7800468 425.094400
   1650   1651   1652     1   108.0100461 406.684800
   1650   1651   1653     1   108.0100461 406.684800
   1650   1654   1655     1   108.0100461 406.684800
   1650   1654   1656     1   108.0100461 406.684800
   1650   1657   1658     1   108.0100461 406.684800
   1650   1657   1659     1   108.0100461 406.684800
   1651   1650   1679     1   110.1100470 384.091200
   1651   1663   1664     1   109.8000471 387.438400
   1651   1663   1665     1   109.8000471 387.438400
   1652   1651   1663     1   110.5600475 386.601600
   1652   1651   1653     1   109.7500473 328.025600
   1653   1651   1663     1   110.5600475 386.601600
   1654   1650   1679     1   110.1100470 384.091200
   1654   1666   1667     1   109.8000471 387.438400
   1654   1666   1668     1   109.8000471 387.438400
   1655   1654   1666     1   110.5600475 386.601600
   1655   1654   1656     1   109.7500473 328.025600
   1656   1654   1666     1   110.5600475 386.601600
   1657   1650   1679     1   110.1100470 384.091200
   1657   1660   1661     1   109.8000471 387.438400
   1657   1660   1662     1   109.8000471 387.438400
   1658   1657   1660     1   110.5600475 386.601600
   1658   1657   1659     1   109.7500473 328.025600
   1659   1657   1660     1   110.5600475 386.601600
   1660   1669   1670     1   109.5600471 388.275200
   1660   1669   1671     1   109.5600471 388.275200
   1661   1660   1669     1   109.8000471 387.438400
   1661   1660   1662     1   107.5800459 329.699200
   1662   1660   1669     1   109.8000471 387.438400
   1663   1675   1676     1   109.5600471 388.275200
   1663   1675   1677     1   109.5600471 388.275200
   1664   1663   1675     1   109.8000471 387.438400
   1664   1663   1665     1   107.5800459 329.699200
   1665   1663   1675     1   109.8000471 387.438400
   1666   1672   1673     1   109.5600471 388.275200
   1666   1672   1674     1   109.5600471 388.275200
   1667   1666   1672     1   109.8000471 387.438400
   1667   1666   1668     1   107.5800459 329.699200
   1668   1666   1672     1   109.8000471 387.438400
   1670   1669   1678     1   109.7800468 425.094400
   1670   1669   1671     1   108.4600466 328.025600
   1671   1669   1678     1   109.7800468 425.094400
   1673   1672   3426     1   109.7800468 425.094400
   1673   1672   1674     1   108.4600466 328.025600
   1674   1672   3426     1   109.7800468 425.094400
   1676   1675   3458     1   109.7800468 425.094400
   1676   1675   1677     1   108.4600466 328.025600
   1677   1675   3458     1   109.7800468 425.094400
   1680   1681   1682     1   108.0100461 406.684800
   1680   1681   1683     1   108.0100461 406.684800
   1680   1684   1685     1   108.0100461 406.684800
   1680   1684   1686     1   108.0100461 406.684800
   1680   1687   1688     1   108.0100461 406.684800
   1680   1687   1689     1   108.0100461 406.684800
   1681   1680   1709     1   110.1100470 384.091200
   1681   1693   1694     1   109.8000471 387.438400
   1681   1693   1695     1   109.8000471 387.438400
   1682   1681   1693     1   110.5600475 386.601600
   1682   1681   1683     1   109.7500473 328.025600
   1683   1681   1693     1   110.5600475 386.601600
   1684   1680   1709     1   110.1100470 384.091200
   1684   1696   1697     1   109.8000471 387.438400
   1684   1696   1698     1   109.8000471 387.438400
   1685   1684   1696     1   110.5600475 386.601600
   1685   1684   1686     1   109.7500473 328.025600
   1686   1684   1696     1   110.5600475 386.601600
   1687   1680   1709     1   110.1100470 384.091200
   1687   1690   1691     1   109.8000471 387.438400
   1687   1690   1692     1   109.8000471 387.438400
   1688   1687   1690     1   110.5600475 386.601600
   1688   1687   1689     1   109.7500473 328.025600
   1689   1687   1690     1   110.5600475 386.601600
   1690   1699   1700     1   109.5600471 388.275200
   1690   1699   1701     1   109.5600471 388.275200
   1691   1690   1699     1   109.8000471 387.438400
   1691   1690   1692     1   107.5800459 329.699200
   1692   1690   1699     1   109.8000471 387.438400
   1693   1705   1706     1   109.5600471 388.275200
   1693   1705   1707     1   109.5600471 388.275200
   1694   1693   1705     1   109.8000471 387.438400
   1694   1693   1695     1   107.5800459 329.699200
   1695   1693   1705     1   109.8000471 387.438400
   1696   1702   1703     1   109.5600471 388.275200
   1696   1702   1704     1   109.5600471 388.275200
   1697   1696   1702     1   109.8000471 387.438400
   1697   1696   1698     1   107.5800459 329.699200
   1698   1696   1702     1   109.8000471 387.438400
   1700   1699   1708     1   109.7800468 425.094400
   1700   1699   1701     1   108.4600466 328.025600
   1701   1699   1708     1   109.7800468 425.094400
   1703   1702   3490     1   109.7800468 425.094400
   1703   1702   1704     1   108.4600466 328.025600
   1704   1702   3490     1   109.7800468 425.094400
   1706   1705   3522     1   109.7800468 425.094400
   1706   1705   1707     1   108.4600466 328.025600
   1707   1705   3522     1   109.7800468 425.094400
   1710   1711   1712     1   108.0100461 406.684800
   1710   1711   1713     1   108.0100461 406.684800
   1710   1714   1715     1   108.0100461 406.684800
   1710   1714   1716     1   108.0100461 406.684800
   1710   1717   1718     1   108.0100461 406.684800
   1710   1717   1719     1   108.0100461 406.684800
   1711   1710   1739     1   110.1100470 384.091200
   1711   1723   1724     1   109.8000471 387.438400
   1711   1723   1725     1   109.8000471 387.438400
   1712   1711   1723     1   110.5600475 386.601600
   1712   1711   1713     1   109.7500473 328.025600
   1713   1711   1723     1   110.5600475 386.601600
   1714   1710   1739     1   110.1100470 384.091200
   1714   1726   1727     1   109.8000471 387.438400
   1714   1726   1728     1   109.8000471 387.438400
   1715   1714   1726     1   110.5600475 386.601600
   1715   1714   1716     1   109.7500473 328.025600
   1716   1714   1726     1   110.5600475 386.601600
   1717   1710   1739     1   110.1100470 384.091200
   1717   1720   1721     1   109.8000471 387.438400
   1717   1720   1722     1   109.8000471 387.438400
   1718   1717   1720     1   110.5600475 386.601600
   1718   1717   1719     1   109.7500473 328.025600
   1719   1717   1720     1   110.5600475 386.601600
   1720   1729   1730     1   109.5600471 388.275200
   1720   1729   1731     1   109.5600471 388.275200
   1721   1720   1729     1   109.8000471 387.438400
   1721   1720   1722     1   107.5800459 329.699200
   1722   1720   1729     1   109.8000471 387.438400
   1723   1735   1736     1   109.5600471 388.275200
   1723   1735   1737     1   109.5600471 388.275200
   1724   1723   1735     1   109.8000471 387.438400
   1724   1723   1725     1   107.5800459 329.699200
   1725   1723   1735     1   109.8000471 387.438400
   1726   1732   1733     1   109.5600471 388.275200
   1726   1732   1734     1   109.5600471 388.275200
   1727   1726   1732     1   109.8000471 387.438400
   1727   1726   1728     1   107.5800459 329.699200
   1728   1726   1732     1   109.8000471 387.438400
   1730   1729   1738     1   109.7800468 425.094400
   1730   1729   1731     1   108.4600466 328.025600
   1731   1729   1738     1   109.7800468 425.094400
   1733   1732   3554     1   109.7800468 425.094400
   1733   1732   1734     1   108.4600466 328.025600
   1734   1732   3554     1   109.7800468 425.094400
   1736   1735   3586     1   109.7800468 425.094400
   1736   1735   1737     1   108.4600466 328.025600
   1737   1735   3586     1   109.7800468 425.094400
   1740   1741   1742     1   108.0100461 406.684800
   1740   1741   1743     1   108.0100461 406.684800
   1740   1744   1745     1   108.0100461 406.684800
   1740   1744   1746     1   108.0100461 406.684800
   1740   1747   1748     1   108.0100461 406.684800
   1740   1747   1749     1   108.0100461 406.684800
   1741   1740   1769     1   110.1100470 384.091200
   1741   1753   1754     1   109.8000471 387.438400
   1741   1753   1755     1   109.8000471 387.438400
   1742   1741   1753     1   110.5600475 386.601600
   1742   1741   1743     1   109.7500473 328.025600
   1743   1741   1753     1   110.5600475 386.601600
   1744   1740   1769     1   110.1100470 384.091200
   1744   1756   1757     1   109.8000471 387.438400
   1744   1756   1758     1   109.8000471 387.438400
   1745   1744   1756     1   110.5600475 386.601600
   1745   1744   1746     1   109.7500473 328.025600
   1746   1744   1756     1   110.5600475 386.601600
   1747   1740   1769     1   110.1100470 384.091200
   1747   1750   1751     1   109.8000471 387.438400
   1747   1750   1752     1   109.8000471 387.438400
   1748   1747   1750     1   110.5600475 386.601600
   1748   1747   1749     1   109.7500473 328.025600
   1749   1747   1750     1   110.5600475 386.601600
   1750   1759   1760     1   109.5600471 388.275200
   1750   1759   1761     1   109.5600471 388.275200
   1751   1750   1759     1   109.8000471 387.438400
   1751   1750   1752     1   107.5800459 329.699200
   1752   1750   1759     1   109.8000471 387.438400
   1753   1765   1766     1   109.5600471 388.275200
   1753   1765   1767     1   109.5600471 388.275200
   1754   1753   1765     1   109.8000471 387.438400
   1754   1753   1755     1   107.5800459 329.699200
   1755   1753   1765     1   109.8000471 387.438400
   1756   1762   1763     1   109.5600471 388.275200
   1756   1762   1764     1   109.5600471 388.275200
   1757   1756   1762     1   109.8000471 387.438400
   1757   1756   1758     1   107.5800459 329.699200
   1758   1756   1762     1   109.8000471 387.438400
   1760   1759   1768     1   109.7800468 425.094400
   1760   1759   1761     1   108.4600466 328.025600
   1761   1759   1768     1   109.7800468 425.094400
   1763   1762   3618     1   109.7800468 425.094400
   1763   1762   1764     1   108.4600466 328.025600
   1764   1762   3618     1   109.7800468 425.094400
   1766   1765   3650     1   109.7800468 425.094400
   1766   1765   1767     1   108.4600466 328.025600
   1767   1765   3650     1   109.7800468 425.094400
   1770   1771   1772     1   108.0100461 406.684800
   1770   1771   1773     1   108.0100461 406.684800
   1770   1774   1775     1   108.0100461 406.684800
   1770   1774   1776     1   108.0100461 406.684800
   1770   1777   1778     1   108.0100461 406.684800
   1770   1777   1779     1   108.0100461 406.684800
   1771   1770   1799     1   110.1100470 384.091200
   1771   1783   1784     1   109.8000471 387.438400
   1771   1783   1785     1   109.8000471 387.438400
   1772   1771   1783     1   110.5600475 386.601600
   1772   1771   1773     1   109.7500473 328.025600
   1773   1771   1783     1   110.5600475 386.601600
   1774   1770   1799     1   110.1100470 384.091200
   1774   1786   1787     1   109.8000471 387.438400
   1774   1786   1788     1   109.8000471 387.438400
   1775   1774   1786     1   110.5600475 386.601600
   1775   1774   1776     1   109.7500473 328.025600
   1776   1774   1786     1   110.5600475 386.601600
   1777   1770   1799     1   110.1100470 384.091200
   1777   1780   1781     1   109.8000471 387.438400
   1777   1780   1782     1   109.8000471 387.438400
   1778   1777   1780     1   110.5600475 386.601600
   1778   1777   1779     1   109.7500473 328.025600
   1779   1777   1780     1   110.5600475 386.601600
   1780   1789   1790     1   109.5600471 388.275200
   1780   1789   1791     1   109.5600471 388.275200
   1781   1780   1789     1   109.8000471 387.438400
   1781   1780   1782     1   107.5800459 329.699200
   1782   1780   1789     1   109.8000471 387.438400
   1783   1795   1796     1   109.5600471 388.275200
   1783   1795   1797     1   109.5600471 388.275200
   1784   1783   1795     1   109.8000471 387.438400
   1784   1783   1785     1   107.5800459 329.699200
   1785   1783   1795     1   109.8000471 387.438400
   1786   1792   1793     1   109.5600471 388.275200
   1786   1792   1794     1   109.5600471 388.275200
   1787   1786   1792     1   109.8000471 387.438400
   1787   1786   1788     1   107.5800459 329.699200
   1788   1786   1792     1   109.8000471 387.438400
   1790   1789   1798     1   109.7800468 425.094400
   1790   1789   1791     1   108.4600466 328.025600
   1791   1789   1798     1   109.7800468 425.094400
   1793   1792   3682     1   109.7800468 425.094400
   1793   1792   1794     1   108.4600466 328.025600
   1794   1792   3682     1   109.7800468 425.094400
   1796   1795   3714     1   109.7800468 425.094400
   1796   1795   1797     1   108.4600466 328.025600
   1797   1795   3714     1   109.7800468 425.094400
   1800   1801   1802     1   108.0100461 406.684800
   1800   1801   1803     1   108.0100461 406.684800
   1800   1804   1805     1   108.0100461 406.684800
   1800   1804   1806     1   108.0100461 406.684800
   1800   1807   1808     1   108.0100461 406.684800
   1800   1807   1809     1   108.0100461 406.684800
   1801   1800   1829     1   110.1100470 384.091200
   1801   1813   1814     1   109.8000471 387.438400
   1801   1813   1815     1   109.8000471 387.438400
   1802   1801   1813     1   110.5600475 386.601600
   1802   1801   1803     1   109.7500473 328.025600
   1803   1801   1813     1   110.5600475 386.601600
   1804   1800   1829     1   110.1100470 384.091200
   1804   1816   1817     1   109.8000471 387.438400
   1804   1816   1818     1   109.8000471 387.438400
   1805   1804   1816     1   110.5600475 386.601600
   1805   1804   1806     1   109.7500473 328.025600
   1806   1804   1816     1   110.5600475 386.601600
   1807   1800   1829     1   110.1100470 384.091200
   1807   1810   1811     1   109.8000471 387.438400
   1807   1810   1812     1   109.8000471 387.438400
   1808   1807   1810     1   110.5600475 386.601600
   1808   1807   1809     1   109.7500473 328.025600
   1809   1807   1810     1   110.5600475 386.601600
   1810   1819   1820     1   109.5600471 388.275200
   1810   1819   1821     1   109.5600471 388.275200
   1811   1810   1819     1   109.8000471 387.438400
   1811   1810   1812     1   107.5800459 329.699200
   1812   1810   1819     1   109.8000471 387.438400
   1813   1825   1826     1   109.5600471 388.275200
   1813   1825   1827     1   109.5600471 388.275200
   1814   1813   1825     1   109.8000471 387.438400
   1814   1813   1815     1   107.5800459 329.699200
   1815   1813   1825     1   109.8000471 387.438400
   1816   1822   1823     1   109.5600471 388.275200
   1816   1822   1824     1   109.5600471 388.275200
   1817   1816   1822     1   109.8000471 387.438400
   1817   1816   1818     1   107.5800459 329.699200
   1818   1816   1822     1   109.8000471 387.438400
   1820   1819   1828     1   109.7800468 425.094400
   1820   1819   1821     1   108.4600466 328.025600
   1821   1819   1828     1   109.7800468 425.094400
   1823   1822   3746     1   109.7800468 425.094400
   1823   1822   1824     1   108.4600466 328.025600
   1824   1822   3746     1   109.7800468 425.094400
   1826   1825   3778     1   109.7800468 425.094400
   1826   1825   1827     1   108.4600466 328.025600
   1827   1825   3778     1   109.7800468 425.094400
   1830   1831   1832     1   108.0100461 406.684800
   1830   1831   1833     1   108.0100461 406.684800
   1830   1834   1835     1   108.0100461 406.684800
   1830   1834   1836     1   108.0100461 406.684800
   1830   1837   1838     1   108.0100461 406.684800
   1830   1837   1839     1   108.0100461 406.684800
   1831   1830   1859     1   110.1100470 384.091200
   1831   1843   1844     1   109.8000471 387.438400
   1831   1843   1845     1   109.8000471 387.438400
   1832   1831   1843     1   110.5600475 386.601600
   1832   1831   1833     1   109.7500473 328.025600
   1833   1831   1843     1   110.5600475 386.601600
   1834   1830   1859     1   110.1100470 384.091200
   1834   1846   1847     1   109.8000471 387.438400
   1834   1846   1848     1   109.8000471 387.438400
   1835   1834   1846     1   110.5600475 386.601600
   1835   1834   1836     1   109.7500473 328.025600
   1836   1834   1846     1   110.5600475 386.601600
   1837   1830   1859     1   110.1100470 384.091200
   1837   1840   1841     1   109.8000471 387.438400
   1837   1840   1842     1   109.8000471 387.438400
   1838   1837   1840     1   110.5600475 386.601600
   1838   1837   1839     1   109.7500473 328.025600
   1839   1837   1840     1   110.5600475 386.601600
   1840   1849   1850     1   109.5600471 388.275200
   1840   1849   1851     1   109.5600471 388.275200
   1841   1840   1849     1   109.8000471 387.438400
   1841   1840   1842     1   107.5800459 329.699200
   1842   1840   1849     1   109.8000471 387.438400
   1843   1855   1856     1   109.5600471 388.275200
   1843   1855   1857     1   109.5600471 388.275200
   1844   1843   1855     1   109.8000471 387.438400
   1844   1843   1845     1   107.5800459 329.699200
   1845   1843   1855     1   109.8000471 387.438400
   1846   1852   1853     1   109.5600471 388.275200
   1846   1852   1854     1   109.5600471 388.275200
   1847   1846   1852     1   109.8000471 387.438400
   1847   1846   1848     1   107.5800459 329.699200
   1848   1846   1852     1   109.8000471 387.438400
   1850   1849   1858     1   109.7800468 425.094400
   1850   1849   1851     1   108.4600466 328.025600
   1851   1849   1858     1   109.7800468 425.094400
   1853   1852   3810     1   109.7800468 425.094400
   1853   1852   1854     1   108.4600466 328.025600
   1854   1852   3810     1   109.7800468 425.094400
   1856   1855   3842     1   109.7800468 425.094400
   1856   1855   1857     1   108.4600466 328.025600
   1857   1855   3842     1   109.7800468 425.094400
   1860   1861   1862     1   108.0100461 406.684800
   1860   1861   1863     1   108.0100461 406.684800
   1860   1864   1865     1   108.0100461 406.684800
   1860   1864   1866     1   108.0100461 406.684800
   1860   1867   1868     1   108.0100461 406.684800
   1860   1867   1869     1   108.0100461 406.684800
   1861   1860   1889     1   110.1100470 384.091200
   1861   1873   1874     1   109.8000471 387.438400
   1861   1873   1875     1   109.8000471 387.438400
   1862   1861   1873     1   110.5600475 386.601600
   1862   1861   1863     1   109.7500473 328.025600
   1863   1861   1873     1   110.5600475 386.601600
   1864   1860   1889     1   110.1100470 384.091200
   1864   1876   1877     1   109.8000471 387.438400
   1864   1876   1878     1   109.8000471 387.438400
   1865   1864   1876     1   110.5600475 386.601600
   1865   1864   1866     1   109.7500473 328.025600
   1866   1864   1876     1   110.5600475 386.601600
   1867   1860   1889     1   110.1100470 384.091200
   1867   1870   1871     1   109.8000471 387.438400
   1867   1870   1872     1   109.8000471 387.438400
   1868   1867   1870     1   110.5600475 386.601600
   1868   1867   1869     1   109.7500473 328.025600
   1869   1867   1870     1   110.5600475 386.601600
   1870   1879   1880     1   109.5600471 388.275200
   1870   1879   1881     1   109.5600471 388.275200
   1871   1870   1879     1   109.8000471 387.438400
   1871   1870   1872     1   107.5800459 329.699200
   1872   1870   1879     1   109.8000471 387.438400
   1873   1885   1886     1   109.5600471 388.275200
   1873   1885   1887     1   109.5600471 388.275200
   1874   1873   1885     1   109.8000471 387.438400
   1874   1873   1875     1   107.5800459 329.699200
   1875   1873   1885     1   109.8000471 387.438400
   1876   1882   1883     1   109.5600471 388.275200
   1876   1882   1884     1   109.5600471 388.275200
   1877   1876   1882     1   109.8000471 387.438400
   1877   1876   1878     1   107.5800459 329.699200
   1878   1876   1882     1   109.8000471 387.438400
   1880   1879   1888     1   109.7800468 425.094400
   1880   1879   1881     1   108.4600466 328.025600
   1881   1879   1888     1   109.7800468 425.094400
   1883   1882   3874     1   109.7800468 425.094400
   1883   1882   1884     1   108.4600466 328.025600
   1884   1882   3874     1   109.7800468 425.094400
   1886   1885   3906     1   109.7800468 425.094400
   1886   1885   1887     1   108.4600466 328.025600
   1887   1885   3906     1   109.7800468 425.094400
   1890   1891   1892     1   108.0100461 406.684800
   1890   1891   1893     1   108.0100461 406.684800
   1890   1894   1895     1   108.0100461 406.684800
   1890   1894   1896     1   108.0100461 406.684800
   1890   1897   1898     1   108.0100461 406.684800
   1890   1897   1899     1   108.0100461 406.684800
   1891   1890   1919     1   110.1100470 384.091200
   1891   1903   1904     1   109.8000471 387.438400
   1891   1903   1905     1   109.8000471 387.438400
   1892   1891   1903     1   110.5600475 386.601600
   1892   1891   1893     1   109.7500473 328.025600
   1893   1891   1903     1   110.5600475 386.601600
   1894   1890   1919     1   110.1100470 384.091200
   1894   1906   1907     1   109.8000471 387.438400
   1894   1906   1908     1   109.8000471 387.438400
   1895   1894   1906     1   110.5600475 386.601600
   1895   1894   1896     1   109.7500473 328.025600
   1896   1894   1906     1   110.5600475 386.601600
   1897   1890   1919     1   110.1100470 384.091200
   1897   1900   1901     1   109.8000471 387.438400
   1897   1900   1902     1   109.8000471 387.438400
   1898   1897   1900     1   110.5600475 386.601600
   1898   1897   1899     1   109.7500473 328.025600
   1899   1897   1900     1   110.5600475 386.601600
   1900   1909   1910     1   109.5600471 388.275200
   1900   1909   1911     1   109.5600471 388.275200
   1901   1900   1909     1   109.8000471 387.438400
   1901   1900   1902     1   107.5800459 329.699200
   1902   1900   1909     1   109.8000471 387.438400
   1903   1915   1916     1   109.5600471 388.275200
   1903   1915   1917     1   109.5600471 388.275200
   1904   1903   1915     1   109.8000471 387.438400
   1904   1903   1905     1   107.5800459 329.699200
   1905   1903   1915     1   109.8000471 387.438400
   1906   1912   1913     1   109.5600471 388.275200
   1906   1912   1914     1   109.5600471 388.275200
   1907   1906   1912     1   109.8000471 387.438400
   1907   1906   1908     1   107.5800459 329.699200
   1908   1906   1912     1   109.8000471 387.438400
   1910   1909   1918     1   109.7800468 425.094400
   1910   1909   1911     1   108.4600466 328.025600
   1911   1909   1918     1   109.7800468 425.094400
   1913   1912   3938     1   109.7800468 425.094400
   1913   1912   1914     1   108.4600466 328.025600
   1914   1912   3938     1   109.7800468 425.094400
   1916   1915   3970     1   109.7800468 425.094400
   1916   1915   1917     1   108.4600466 328.025600
   1917   1915   3970     1   109.7800468 425.094400
   1920   1921   1922     1   108.0100461 406.684800
   1920   1921   1923     1   108.0100461 406.684800
   1920   1924   1925     1   108.0100461 406.684800
   1920   1924   1926     1   108.0100461 406.684800
   1920   1927   1928     1   108.0100461 406.684800
   1920   1927   1929     1   108.0100461 406.684800
   1921   1920   1949     1   110.1100470 384.091200
   1921   1933   1934     1   109.8000471 387.438400
   1921   1933   1935     1   109.8000471 387.438400
   1922   1921   1933     1   110.5600475 386.601600
   1922   1921   1923     1   109.7500473 328.025600
   1923   1921   1933     1   110.5600475 386.601600
   1924   1920   1949     1   110.1100470 384.091200
   1924   1936   1937     1   109.8000471 387.438400
   1924   1936   1938     1   109.8000471 387.438400
   1925   1924   1936     1   110.5600475 386.601600
   1925   1924   1926     1   109.7500473 328.025600
   1926   1924   1936     1   110.5600475 386.601600
   1927   1920   1949     1   110.1100470 384.091200
   1927   1930   1931     1   109.8000471 387.438400
   1927   1930   1932     1   109.8000471 387.438400
   1928   1927   1930     1   110.5600475 386.601600
   1928   1927   1929     1   109.7500473 328.025600
   1929   1927   1930     1   110.5600475 386.601600
   1930   1939   1940     1   109.5600471 388.275200
   1930   1939   1941     1   109.5600471 388.275200
   1931   1930   1939     1   109.8000471 387.438400
   1931   1930   1932     1   107.5800459 329.699200
   1932   1930   1939     1   109.8000471 387.438400
   1933   1945   1946     1   109.5600471 388.275200
   1933   1945   1947     1   109.5600471 388.275200
   1934   1933   1945     1   109.8000471 387.438400
   1934   1933   1935     1   107.5800459 329.699200
   1935   1933   1945     1   109.8000471 387.438400
   1936   1942   1943     1   109.5600471 388.275200
   1936   1942   1944     1   109.5600471 388.275200
   1937   1936   1942     1   109.8000471 387.438400
   1937   1936   1938     1   107.5800459 329.699200
   1938   1936   1942     1   109.8000471 387.438400
   1940   1939   1948     1   109.7800468 425.094400
   1940   1939   1941     1   108.4600466 328.025600
   1941   1939   1948     1   109.7800468 425.094400
   1943   1942   4002     1   109.7800468 425.094400
   1943   1942   1944     1   108.4600466 328.025600
   1944   1942   4002     1   109.7800468 425.094400
   1946   1945   4034     1   109.7800468 425.094400
   1946   1945   1947     1   108.4600466 328.025600
   1947   1945   4034     1   109.7800468 425.094400
   1950   1951   1952     1   108.0100461 406.684800
   1950   1951   1953     1   108.0100461 406.684800
   1950   1954   1955     1   108.0100461 406.684800
   1950   1954   1956     1   108.0100461 406.684800
   1950   1957   1958     1   108.0100461 406.684800
   1950   1957   1959     1   108.0100461 406.684800
   1951   1950   1979     1   110.1100470 384.091200
   1951   1963   1964     1   109.8000471 387.438400
   1951   1963   1965     1   109.8000471 387.438400
   1952   1951   1963     1   110.5600475 386.601600
   1952   1951   1953     1   109.7500473 328.025600
   1953   1951   1963     1   110.5600475 386.601600
   1954   1950   1979     1   110.1100470 384.091200
   1954   1966   1967     1   109.8000471 387.438400
   1954   1966   1968     1   109.8000471 387.438400
   1955   1954   1966     1   110.5600475 386.601600
   1955   1954   1956     1   109.7500473 328.025600
   1956   1954   1966     1   110.5600475 386.601600
   1957   1950   1979     1   110.1100470 384.091200
   1957   1960   1961     1   109.8000471 387.438400
   1957   1960   1962     1   109.8000471 387.438400
   1958   1957   1960     1   110.5600475 386.601600
   1958   1957   1959     1   109.7500473 328.025600
   1959   1957   1960     1   110.5600475 386.601600
   1960   1969   1970     1   109.5600471 388.275200
   1960   1969   1971     1   109.5600471 388.275200
   1961   1960   1969     1   109.8000471 387.438400
   1961   1960   1962     1   107.5800459 329.699200
   1962   1960   1969     1   109.8000471 387.438400
   1963   1975   1976     1   109.5600471 388.275200
   1963   1975   1977     1   109.5600471 388.275200
   1964   1963   1975     1   109.8000471 387.438400
   1964   1963   1965     1   107.5800459 329.699200
   1965   1963   1975     1   109.8000471 387.438400
   1966   1972   1973     1   109.5600471 388.275200
   1966   1972   1974     1   109.5600471 388.275200
   1967   1966   1972     1   109.8000471 387.438400
   1967   1966   1968     1   107.5800459 329.699200
   1968   1966   1972     1   109.8000471 387.438400
   1970   1969   1978     1   109.7800468 425.094400
   1970   1969   1971     1   108.4600466 328.025600
   1971   1969   1978     1   109.7800468 425.094400
   1973   1972   4066     1   109.7800468 425.094400
   1973   1972   1974     1   108.4600466 328.025600
   1974   1972   4066     1   109.7800468 425.094400
   1976   1975   4098     1   109.7800468 425.094400
   1976   1975   1977     1   108.4600466 328.025600
   1977   1975   4098     1   109.7800468 425.094400
   1980   1981   1982     1   108.0100461 406.684800
   1980   1981   1983     1   108.0100461 406.684800
   1980   1984   1985     1   108.0100461 406.684800
   1980   1984   1986     1   108.0100461 406.684800
   1980   1987   1988     1   108.0100461 406.684800
   1980   1987   1989     1   108.0100461 406.684800
   1981   1980   2009     1   110.1100470 384.091200
   1981   1993   1994     1   109.8000471 387.438400
   1981   1993   1995     1   109.8000471 387.438400
   1982   1981   1993     1   110.5600475 386.601600
   1982   1981   1983     1   109.7500473 328.025600
   1983   1981   1993     1   110.5600475 386.601600
   1984   1980   2009     1   110.1100470 384.091200
   1984   1996   1997     1   109.8000471 387.438400
   1984   1996   1998     1   109.8000471 387.438400
   1985   1984   1996     1   110.5600475 386.601600
   1985   1984   1986     1   109.7500473 328.025600
   1986   1984   1996     1   110.5600475 386.601600
   1987   1980   2009     1   110.1100470 384.091200
   1987   1990   1991     1   109.8000471 387.438400
   1987   1990   1992     1   109.8000471 387.438400
   1988   1987   1990     1   110.5600475 386.601600
   1988   1987   1989     1   109.7500473 328.025600
   1989   1987   1990     1   110.5600475 386.601600
   1990   1999   2000     1   109.5600471 388.275200
   1990   1999   2001     1   109.5600471 388.275200
   1991   1990   1999     1   109.8000471 387.438400
   1991   1990   1992     1   107.5800459 329.699200
   1992   1990   1999     1   109.8000471 387.438400
   1993   2005   2006     1   109.5600471 388.275200
   1993   2005   2007     1   109.5600471 388.275200
   1994   1993   2005     1   109.8000471 387.438400
   1994   1993   1995     1   107.5800459 329.699200
   1995   1993   2005     1   109.8000471 387.438400
   1996   2002   2003     1   109.5600471 388.275200
   1996   2002   2004     1   109.5600471 388.275200
   1997   1996   2002     1   109.8000471 387.438400
   1997   1996   1998     1   107.5800459 329.699200
   1998   1996   2002     1   109.8000471 387.438400
   2000   1999   2008     1   109.7800468 425.094400
   2000   1999   2001     1   108.4600466 328.025600
   2001   1999   2008     1   109.7800468 425.094400
   2003   2002   4130     1   109.7800468 425.094400
   2003   2002   2004     1   108.4600466 328.025600
   2004   2002   4130     1   109.7800468 425.094400
   2006   2005   4162     1   109.7800468 425.094400
   2006   2005   2007     1   108.4600466 328.025600
   2007   2005   4162     1   109.7800468 425.094400
   2010   2011   2012     1   108.0100461 406.684800
   2010   2011   2013     1   108.0100461 406.684800
   2010   2014   2015     1   108.0100461 406.684800
   2010   2014   2016     1   108.0100461 406.684800
   2010   2017   2018     1   108.0100461 406.684800
   2010   2017   2019     1   108.0100461 406.684800
   2011   2010   2039     1   110.1100470 384.091200
   2011   2023   2024     1   109.8000471 387.438400
   2011   2023   2025     1   109.8000471 387.438400
   2012   2011   2023     1   110.5600475 386.601600
   2012   2011   2013     1   109.7500473 328.025600
   2013   2011   2023     1   110.5600475 386.601600
   2014   2010   2039     1   110.1100470 384.091200
   2014   2026   2027     1   109.8000471 387.438400
   2014   2026   2028     1   109.8000471 387.438400
   2015   2014   2026     1   110.5600475 386.601600
   2015   2014   2016     1   109.7500473 328.025600
   2016   2014   2026     1   110.5600475 386.601600
   2017   2010   2039     1   110.1100470 384.091200
   2017   2020   2021     1   109.8000471 387.438400
   2017   2020   2022     1   109.8000471 387.438400
   2018   2017   2020     1   110.5600475 386.601600
   2018   2017   2019     1   109.7500473 328.025600
   2019   2017   2020     1   110.5600475 386.601600
   2020   2029   2030     1   109.5600471 388.275200
   2020   2029   2031     1   109.5600471 388.275200
   2021   2020   2029     1   109.8000471 387.438400
   2021   2020   2022     1   107.5800459 329.699200
   2022   2020   2029     1   109.8000471 387.438400
   2023   2035   2036     1   109.5600471 388.275200
   2023   2035   2037     1   109.5600471 388.275200
   2024   2023   2035     1   109.8000471 387.438400
   2024   2023   2025     1   107.5800459 329.699200
   2025   2023   2035     1   109.8000471 387.438400
   2026   2032   2033     1   109.5600471 388.275200
   2026   2032   2034     1   109.5600471 388.275200
   2027   2026   2032     1   109.8000471 387.438400
   2027   2026   2028     1   107.5800459 329.699200
   2028   2026   2032     1   109.8000471 387.438400
   2030   2029   2038     1   109.7800468 425.094400
   2030   2029   2031     1   108.4600466 328.025600
   2031   2029   2038     1   109.7800468 425.094400
   2033   2032   4194     1   109.7800468 425.094400
   2033   2032   2034     1   108.4600466 328.025600
   2034   2032   4194     1   109.7800468 425.094400
   2036   2035   4226     1   109.7800468 425.094400
   2036   2035   2037     1   108.4600466 328.025600
   2037   2035   4226     1   109.7800468 425.094400
   2040   2041   2042     1   108.0100461 406.684800
   2040   2041   2043     1   108.0100461 406.684800
   2040   2044   2045     1   108.0100461 406.684800
   2040   2044   2046     1   108.0100461 406.684800
   2040   2047   2048     1   108.0100461 406.684800
   2040   2047   2049     1   108.0100461 406.684800
   2041   2040   2069     1   110.1100470 384.091200
   2041   2053   2054     1   109.8000471 387.438400
   2041   2053   2055     1   109.8000471 387.438400
   2042   2041   2053     1   110.5600475 386.601600
   2042   2041   2043     1   109.7500473 328.025600
   2043   2041   2053     1   110.5600475 386.601600
   2044   2040   2069     1   110.1100470 384.091200
   2044   2056   2057     1   109.8000471 387.438400
   2044   2056   2058     1   109.8000471 387.438400
   2045   2044   2056     1   110.5600475 386.601600
   2045   2044   2046     1   109.7500473 328.025600
   2046   2044   2056     1   110.5600475 386.601600
   2047   2040   2069     1   110.1100470 384.091200
   2047   2050   2051     1   109.8000471 387.438400
   2047   2050   2052     1   109.8000471 387.438400
   2048   2047   2050     1   110.5600475 386.601600
   2048   2047   2049     1   109.7500473 328.025600
   2049   2047   2050     1   110.5600475 386.601600
   2050   2059   2060     1   109.5600471 388.275200
   2050   2059   2061     1   109.5600471 388.275200
   2051   2050   2059     1   109.8000471 387.438400
   2051   2050   2052     1   107.5800459 329.699200
   2052   2050   2059     1   109.8000471 387.438400
   2053   2065   2066     1   109.5600471 388.275200
   2053   2065   2067     1   109.5600471 388.275200
   2054   2053   2065     1   109.8000471 387.438400
   2054   2053   2055     1   107.5800459 329.699200
   2055   2053   2065     1   109.8000471 387.438400
   2056   2062   2063     1   109.5600471 388.275200
   2056   2062   2064     1   109.5600471 388.275200
   2057   2056   2062     1   109.8000471 387.438400
   2057   2056   2058     1   107.5800459 329.699200
   2058   2056   2062     1   109.8000471 387.438400
   2060   2059   2068     1   109.7800468 425.094400
   2060   2059   2061     1   108.4600466 328.025600
   2061   2059   2068     1   109.7800468 425.094400
   2063   2062   4258     1   109.7800468 425.094400
   2063   2062   2064     1   108.4600466 328.025600
   2064   2062   4258     1   109.7800468 425.094400
   2066   2065   4290     1   109.7800468 425.094400
   2066   2065   2067     1   108.4600466 328.025600
   2067   2065   4290     1   109.7800468 425.094400
   2070   2071   2072     1   108.0100461 406.684800
   2070   2071   2073     1   108.0100461 406.684800
   2070   2074   2075     1   108.0100461 406.684800
   2070   2074   2076     1   108.0100461 406.684800
   2070   2077   2078     1   108.0100461 406.684800
   2070   2077   2079     1   108.0100461 406.684800
   2071   2070   2099     1   110.1100470 384.091200
   2071   2083   2084     1   109.8000471 387.438400
   2071   2083   2085     1   109.8000471 387.438400
   2072   2071   2083     1   110.5600475 386.601600
   2072   2071   2073     1   109.7500473 328.025600
   2073   2071   2083     1   110.5600475 386.601600
   2074   2070   2099     1   110.1100470 384.091200
   2074   2086   2087     1   109.8000471 387.438400
   2074   2086   2088     1   109.8000471 387.438400
   2075   2074   2086     1   110.5600475 386.601600
   2075   2074   2076     1   109.7500473 328.025600
   2076   2074   2086     1   110.5600475 386.601600
   2077   2070   2099     1   110.1100470 384.091200
   2077   2080   2081     1   109.8000471 387.438400
   2077   2080   2082     1   109.8000471 387.438400
   2078   2077   2080     1   110.5600475 386.601600
   2078   2077   2079     1   109.7500473 328.025600
   2079   2077   2080     1   110.5600475 386.601600
   2080   2089   2090     1   109.5600471 388.275200
   2080   2089   2091     1   109.5600471 388.275200
   2081   2080   2089     1   109.8000471 387.438400
   2081   2080   2082     1   107.5800459 329.699200
   2082   2080   2089     1   109.8000471 387.438400
   2083   2095   2096     1   109.5600471 388.275200
   2083   2095   2097     1   109.5600471 388.275200
   2084   2083   2095     1   109.8000471 387.438400
   2084   2083   2085     1   107.5800459 329.699200
   2085   2083   2095     1   109.8000471 387.438400
   2086   2092   2093     1   109.5600471 388.275200
   2086   2092   2094     1   109.5600471 388.275200
   2087   2086   2092     1   109.8000471 387.438400
   2087   2086   2088     1   107.5800459 329.699200
   2088   2086   2092     1   109.8000471 387.438400
   2090   2089   2098     1   109.7800468 425.094400
   2090   2089   2091     1   108.4600466 328.025600
   2091   2089   2098     1   109.7800468 425.094400
   2093   2092   4322     1   109.7800468 425.094400
   2093   2092   2094     1   108.4600466 328.025600
   2094   2092   4322     1   109.7800468 425.094400
   2096   2095   4354     1   109.7800468 425.094400
   2096   2095   2097     1   108.4600466 328.025600
   2097   2095   4354     1   109.7800468 425.094400
   2100   2101   2102     1   108.0100461 406.684800
   2100   2101   2103     1   108.0100461 406.684800
   2100   2104   2105     1   108.0100461 406.684800
   2100   2104   2106     1   108.0100461 406.684800
   2100   2107   2108     1   108.0100461 406.684800
   2100   2107   2109     1   108.0100461 406.684800
   2101   2100   2129     1   110.1100470 384.091200
   2101   2113   2114     1   109.8000471 387.438400
   2101   2113   2115     1   109.8000471 387.438400
   2102   2101   2113     1   110.5600475 386.601600
   2102   2101   2103     1   109.7500473 328.025600
   2103   2101   2113     1   110.5600475 386.601600
   2104   2100   2129     1   110.1100470 384.091200
   2104   2116   2117     1   109.8000471 387.438400
   2104   2116   2118     1   109.8000471 387.438400
   2105   2104   2116     1   110.5600475 386.601600
   2105   2104   2106     1   109.7500473 328.025600
   2106   2104   2116     1   110.5600475 386.601600
   2107   2100   2129     1   110.1100470 384.091200
   2107   2110   2111     1   109.8000471 387.438400
   2107   2110   2112     1   109.8000471 387.438400
   2108   2107   2110     1   110.5600475 386.601600
   2108   2107   2109     1   109.7500473 328.025600
   2109   2107   2110     1   110.5600475 386.601600
   2110   2119   2120     1   109.5600471 388.275200
   2110   2119   2121     1   109.5600471 388.275200
   2111   2110   2119     1   109.8000471 387.438400
   2111   2110   2112     1   107.5800459 329.699200
   2112   2110   2119     1   109.8000471 387.438400
   2113   2125   2126     1   109.5600471 388.275200
   2113   2125   2127     1   109.5600471 388.275200
   2114   2113   2125     1   109.8000471 387.438400
   2114   2113   2115     1   107.5800459 329.699200
   2115   2113   2125     1   109.8000471 387.438400
   2116   2122   2123     1   109.5600471 388.275200
   2116   2122   2124     1   109.5600471 388.275200
   2117   2116   2122     1   109.8000471 387.438400
   2117   2116   2118     1   107.5800459 329.699200
   2118   2116   2122     1   109.8000471 387.438400
   2120   2119   2128     1   109.7800468 425.094400
   2120   2119   2121     1   108.4600466 328.025600
   2121   2119   2128     1   109.7800468 425.094400
   2123   2122   4386     1   109.7800468 425.094400
   2123   2122   2124     1   108.4600466 328.025600
   2124   2122   4386     1   109.7800468 425.094400
   2126   2125   4418     1   109.7800468 425.094400
   2126   2125   2127     1   108.4600466 328.025600
   2127   2125   4418     1   109.7800468 425.094400
   2130   2131   2132     1   108.0100461 406.684800
   2130   2131   2133     1   108.0100461 406.684800
   2130   2134   2135     1   108.0100461 406.684800
   2130   2134   2136     1   108.0100461 406.684800
   2130   2137   2138     1   108.0100461 406.684800
   2130   2137   2139     1   108.0100461 406.684800
   2131   2130   2159     1   110.1100470 384.091200
   2131   2143   2144     1   109.8000471 387.438400
   2131   2143   2145     1   109.8000471 387.438400
   2132   2131   2143     1   110.5600475 386.601600
   2132   2131   2133     1   109.7500473 328.025600
   2133   2131   2143     1   110.5600475 386.601600
   2134   2130   2159     1   110.1100470 384.091200
   2134   2146   2147     1   109.8000471 387.438400
   2134   2146   2148     1   109.8000471 387.438400
   2135   2134   2146     1   110.5600475 386.601600
   2135   2134   2136     1   109.7500473 328.025600
   2136   2134   2146     1   110.5600475 386.601600
   2137   2130   2159     1   110.1100470 384.091200
   2137   2140   2141     1   109.8000471 387.438400
   2137   2140   2142     1   109.8000471 387.438400
   2138   2137   2140     1   110.5600475 386.601600
   2138   2137   2139     1   109.7500473 328.025600
   2139   2137   2140     1   110.5600475 386.601600
   2140   2149   2150     1   109.5600471 388.275200
   2140   2149   2151     1   109.5600471 388.275200
   2141   2140   2149     1   109.8000471 387.438400
   2141   2140   2142     1   107.5800459 329.699200
   2142   2140   2149     1   109.8000471 387.438400
   2143   2155   2156     1   109.5600471 388.275200
   2143   2155   2157     1   109.5600471 388.275200
   2144   2143   2155     1   109.8000471 387.438400
   2144   2143   2145     1   107.5800459 329.699200
   2145   2143   2155     1   109.8000471 387.438400
   2146   2152   2153     1   109.5600471 388.275200
   2146   2152   2154     1   109.5600471 388.275200
   2147   2146   2152     1   109.8000471 387.438400
   2147   2146   2148     1   107.5800459 329.699200
   2148   2146   2152     1   109.8000471 387.438400
   2150   2149   2158     1   109.7800468 425.094400
   2150   2149   2151     1   108.4600466 328.025600
   2151   2149   2158     1   109.7800468 425.094400
   2153   2152   4450     1   109.7800468 425.094400
   2153   2152   2154     1   108.4600466 328.025600
   2154   2152   4450     1   109.7800468 425.094400
   2156   2155   4482     1   109.7800468 425.094400
   2156   2155   2157     1   108.4600466 328.025600
   2157   2155   4482     1   109.7800468 425.094400
   2160   2161   2162     1   108.0100461 406.684800
   2160   2161   2163     1   108.0100461 406.684800
   2160   2164   2165     1   108.0100461 406.684800
   2160   2164   2166     1   108.0100461 406.684800
   2160   2167   2168     1   108.0100461 406.684800
   2160   2167   2169     1   108.0100461 406.684800
   2161   2160   2189     1   110.1100470 384.091200
   2161   2173   2174     1   109.8000471 387.438400
   2161   2173   2175     1   109.8000471 387.438400
   2162   2161   2173     1   110.5600475 386.601600
   2162   2161   2163     1   109.7500473 328.025600
   2163   2161   2173     1   110.5600475 386.601600
   2164   2160   2189     1   110.1100470 384.091200
   2164   2176   2177     1   109.8000471 387.438400
   2164   2176   2178     1   109.8000471 387.438400
   2165   2164   2176     1   110.5600475 386.601600
   2165   2164   2166     1   109.7500473 328.025600
   2166   2164   2176     1   110.5600475 386.601600
   2167   2160   2189     1   110.1100470 384.091200
   2167   2170   2171     1   109.8000471 387.438400
   2167   2170   2172     1   109.8000471 387.438400
   2168   2167   2170     1   110.5600475 386.601600
   2168   2167   2169     1   109.7500473 328.025600
   2169   2167   2170     1   110.5600475 386.601600
   2170   2179   2180     1   109.5600471 388.275200
   2170   2179   2181     1   109.5600471 388.275200
   2171   2170   2179     1   109.8000471 387.438400
   2171   2170   2172     1   107.5800459 329.699200
   2172   2170   2179     1   109.8000471 387.438400
   2173   2185   2186     1   109.5600471 388.275200
   2173   2185   2187     1   109.5600471 388.275200
   2174   2173   2185     1   109.8000471 387.438400
   2174   2173   2175     1   107.5800459 329.699200
   2175   2173   2185     1   109.8000471 387.438400
   2176   2182   2183     1   109.5600471 388.275200
   2176   2182   2184     1   109.5600471 388.275200
   2177   2176   2182     1   109.8000471 387.438400
   2177   2176   2178     1   107.5800459 329.699200
   2178   2176   2182     1   109.8000471 387.438400
   2180   2179   2188     1   109.7800468 425.094400
   2180   2179   2181     1   108.4600466 328.025600
   2181   2179   2188     1   109.7800468 425.094400
   2183   2182   4514     1   109.7800468 425.094400
   2183   2182   2184     1   108.4600466 328.025600
   2184   2182   4514     1   109.7800468 425.094400
   2186   2185   4546     1   109.7800468 425.094400
   2186   2185   2187     1   108.4600466 328.025600
   2187   2185   4546     1   109.7800468 425.094400
   2190   2191   2192     1   108.0100461 406.684800
   2190   2191   2193     1   108.0100461 406.684800
   2190   2194   2195     1   108.0100461 406.684800
   2190   2194   2196     1   108.0100461 406.684800
   2190   2197   2198     1   108.0100461 406.684800
   2190   2197   2199     1   108.0100461 406.684800
   2191   2190   2219     1   110.1100470 384.091200
   2191   2203   2204     1   109.8000471 387.438400
   2191   2203   2205     1   109.8000471 387.438400
   2192   2191   2203     1   110.5600475 386.601600
   2192   2191   2193     1   109.7500473 328.025600
   2193   2191   2203     1   110.5600475 386.601600
   2194   2190   2219     1   110.1100470 384.091200
   2194   2206   2207     1   109.8000471 387.438400
   2194   2206   2208     1   109.8000471 387.438400
   2195   2194   2206     1   110.5600475 386.601600
   2195   2194   2196     1   109.7500473 328.025600
   2196   2194   2206     1   110.5600475 386.601600
   2197   2190   2219     1   110.1100470 384.091200
   2197   2200   2201     1   109.8000471 387.438400
   2197   2200   2202     1   109.8000471 387.438400
   2198   2197   2200     1   110.5600475 386.601600
   2198   2197   2199     1   109.7500473 328.025600
   2199   2197   2200     1   110.5600475 386.601600
   2200   2209   2210     1   109.5600471 388.275200
   2200   2209   2211     1   109.5600471 388.275200
   2201   2200   2209     1   109.8000471 387.438400
   2201   2200   2202     1   107.5800459 329.699200
   2202   2200   2209     1   109.8000471 387.438400
   2203   2215   2216     1   109.5600471 388.275200
   2203   2215   2217     1   109.5600471 388.275200
   2204   2203   2215     1   109.8000471 387.438400
   2204   2203   2205     1   107.5800459 329.699200
   2205   2203   2215     1   109.8000471 387.438400
   2206   2212   2213     1   109.5600471 388.275200
   2206   2212   2214     1   109.5600471 388.275200
   2207   2206   2212     1   109.8000471 387.438400
   2207   2206   2208     1   107.5800459 329.699200
   2208   2206   2212     1   109.8000471 387.438400
   2210   2209   2218     1   109.7800468 425.094400
   2210   2209   2211     1   108.4600466 328.025600
   2211   2209   2218     1   109.7800468 425.094400
   2213   2212   4578     1   109.7800468 425.094400
   2213   2212   2214     1   108.4600466 328.025600
   2214   2212   4578     1   109.7800468 425.094400
   2216   2215   4610     1   109.7800468 425.094400
   2216   2215   2217     1   108.4600466 328.025600
   2217   2215   4610     1   109.7800468 425.094400
   2220   2221   2222     1   108.0100461 406.684800
   2220   2221   2223     1   108.0100461 406.684800
   2220   2224   2225     1   108.0100461 406.684800
   2220   2224   2226     1   108.0100461 406.684800
   2220   2227   2228     1   108.0100461 406.684800
   2220   2227   2229     1   108.0100461 406.684800
   2221   2220   2249     1   110.1100470 384.091200
   2221   2233   2234     1   109.8000471 387.438400
   2221   2233   2235     1   109.8000471 387.438400
   2222   2221   2233     1   110.5600475 386.601600
   2222   2221   2223     1   109.7500473 328.025600
   2223   2221   2233     1   110.5600475 386.601600
   2224   2220   2249     1   110.1100470 384.091200
   2224   2236   2237     1   109.8000471 387.438400
   2224   2236   2238     1   109.8000471 387.438400
   2225   2224   2236     1   110.5600475 386.601600
   2225   2224   2226     1   109.7500473 328.025600
   2226   2224   2236     1   110.5600475 386.601600
   2227   2220   2249     1   110.1100470 384.091200
   2227   2230   2231     1   109.8000471 387.438400
   2227   2230   2232     1   109.8000471 387.438400
   2228   2227   2230     1   110.5600475 386.601600
   2228   2227   2229     1   109.7500473 328.025600
   2229   2227   2230     1   110.5600475 386.601600
   2230   2239   2240     1   109.5600471 388.275200
   2230   2239   2241     1   109.5600471 388.275200
   2231   2230   2239     1   109.8000471 387.438400
   2231   2230   2232     1   107.5800459 329.699200
   2232   2230   2239     1   109.8000471 387.438400
   2233   2245   2246     1   109.5600471 388.275200
   2233   2245   2247     1   109.5600471 388.275200
   2234   2233   2245     1   109.8000471 387.438400
   2234   2233   2235     1   107.5800459 329.699200
   2235   2233   2245     1   109.8000471 387.438400
   2236   2242   2243     1   109.5600471 388.275200
   2236   2242   2244     1   109.5600471 388.275200
   2237   2236   2242     1   109.8000471 387.438400
   2237   2236   2238     1   107.5800459 329.699200
   2238   2236   2242     1   109.8000471 387.438400
   2240   2239   2248     1   109.7800468 425.094400
   2240   2239   2241     1   108.4600466 328.025600
   2241   2239   2248     1   109.7800468 425.094400
   2243   2242   4642     1   109.7800468 425.094400
   2243   2242   2244     1   108.4600466 328.025600
   2244   2242   4642     1   109.7800468 425.094400
   2246   2245   4674     1   109.7800468 425.094400
   2246   2245   2247     1   108.4600466 328.025600
   2247   2245   4674     1   109.7800468 425.094400
   2250   2251   2252     1   108.0100461 406.684800
   2250   2251   2253     1   108.0100461 406.684800
   2250   2254   2255     1   108.0100461 406.684800
   2250   2254   2256     1   108.0100461 406.684800
   2250   2257   2258     1   108.0100461 406.684800
   2250   2257   2259     1   108.0100461 406.684800
   2251   2250   2279     1   110.1100470 384.091200
   2251   2263   2264     1   109.8000471 387.438400
   2251   2263   2265     1   109.8000471 387.438400
   2252   2251   2263     1   110.5600475 386.601600
   2252   2251   2253     1   109.7500473 328.025600
   2253   2251   2263     1   110.5600475 386.601600
   2254   2250   2279     1   110.1100470 384.091200
   2254   2266   2267     1   109.8000471 387.438400
   2254   2266   2268     1   109.8000471 387.438400
   2255   2254   2266     1   110.5600475 386.601600
   2255   2254   2256     1   109.7500473 328.025600
   2256   2254   2266     1   110.5600475 386.601600
   2257   2250   2279     1   110.1100470 384.091200
   2257   2260   2261     1   109.8000471 387.438400
   2257   2260   2262     1   109.8000471 387.438400
   2258   2257   2260     1   110.5600475 386.601600
   2258   2257   2259     1   109.7500473 328.025600
   2259   2257   2260     1   110.5600475 386.601600
   2260   2269   2270     1   109.5600471 388.275200
   2260   2269   2271     1   109.5600471 388.275200
   2261   2260   2269     1   109.8000471 387.438400
   2261   2260   2262     1   107.5800459 329.699200
   2262   2260   2269     1   109.8000471 387.438400
   2263   2275   2276     1   109.5600471 388.275200
   2263   2275   2277     1   109.5600471 388.275200
   2264   2263   2275     1   109.8000471 387.438400
   2264   2263   2265     1   107.5800459 329.699200
   2265   2263   2275     1   109.8000471 387.438400
   2266   2272   2273     1   109.5600471 388.275200
   2266   2272   2274     1   109.5600471 388.275200
   2267   2266   2272     1   109.8000471 387.438400
   2267   2266   2268     1   107.5800459 329.699200
   2268   2266   2272     1   109.8000471 387.438400
   2270   2269   2278     1   109.7800468 425.094400
   2270   2269   2271     1   108.4600466 328.025600
   2271   2269   2278     1   109.7800468 425.094400
   2273   2272   4706     1   109.7800468 425.094400
   2273   2272   2274     1   108.4600466 328.025600
   2274   2272   4706     1   109.7800468 425.094400
   2276   2275   4738     1   109.7800468 425.094400
   2276   2275   2277     1   108.4600466 328.025600
   2277   2275   4738     1   109.7800468 425.094400
   2280   2281   2282     1   108.0100461 406.684800
   2280   2281   2283     1   108.0100461 406.684800
   2280   2284   2285     1   108.0100461 406.684800
   2280   2284   2286     1   108.0100461 406.684800
   2280   2287   2288     1   108.0100461 406.684800
   2280   2287   2289     1   108.0100461 406.684800
   2281   2280   2309     1   110.1100470 384.091200
   2281   2293   2294     1   109.8000471 387.438400
   2281   2293   2295     1   109.8000471 387.438400
   2282   2281   2293     1   110.5600475 386.601600
   2282   2281   2283     1   109.7500473 328.025600
   2283   2281   2293     1   110.5600475 386.601600
   2284   2280   2309     1   110.1100470 384.091200
   2284   2296   2297     1   109.8000471 387.438400
   2284   2296   2298     1   109.8000471 387.438400
   2285   2284   2296     1   110.5600475 386.601600
   2285   2284   2286     1   109.7500473 328.025600
   2286   2284   2296     1   110.5600475 386.601600
   2287   2280   2309     1   110.1100470 384.091200
   2287   2290   2291     1   109.8000471 387.438400
   2287   2290   2292     1   109.8000471 387.438400
   2288   2287   2290     1   110.5600475 386.601600
   2288   2287   2289     1   109.7500473 328.025600
   2289   2287   2290     1   110.5600475 386.601600
   2290   2299   2300     1   109.5600471 388.275200
   2290   2299   2301     1   109.5600471 388.275200
   2291   2290   2299     1   109.8000471 387.438400
   2291   2290   2292     1   107.5800459 329.699200
   2292   2290   2299     1   109.8000471 387.438400
   2293   2305   2306     1   109.5600471 388.275200
   2293   2305   2307     1   109.5600471 388.275200
   2294   2293   2305     1   109.8000471 387.438400
   2294   2293   2295     1   107.5800459 329.699200
   2295   2293   2305     1   109.8000471 387.438400
   2296   2302   2303     1   109.5600471 388.275200
   2296   2302   2304     1   109.5600471 388.275200
   2297   2296   2302     1   109.8000471 387.438400
   2297   2296   2298     1   107.5800459 329.699200
   2298   2296   2302     1   109.8000471 387.438400
   2300   2299   2308     1   109.7800468 425.094400
   2300   2299   2301     1   108.4600466 328.025600
   2301   2299   2308     1   109.7800468 425.094400
   2303   2302   4770     1   109.7800468 425.094400
   2303   2302   2304     1   108.4600466 328.025600
   2304   2302   4770     1   109.7800468 425.094400
   2306   2305   4802     1   109.7800468 425.094400
   2306   2305   2307     1   108.4600466 328.025600
   2307   2305   4802     1   109.7800468 425.094400
   2310   2311   2312     1   108.0100461 406.684800
   2310   2311   2313     1   108.0100461 406.684800
   2310   2314   2315     1   108.0100461 406.684800
   2310   2314   2316     1   108.0100461 406.684800
   2310   2317   2318     1   108.0100461 406.684800
   2310   2317   2319     1   108.0100461 406.684800
   2311   2310   2339     1   110.1100470 384.091200
   2311   2323   2324     1   109.8000471 387.438400
   2311   2323   2325     1   109.8000471 387.438400
   2312   2311   2323     1   110.5600475 386.601600
   2312   2311   2313     1   109.7500473 328.025600
   2313   2311   2323     1   110.5600475 386.601600
   2314   2310   2339     1   110.1100470 384.091200
   2314   2326   2327     1   109.8000471 387.438400
   2314   2326   2328     1   109.8000471 387.438400
   2315   2314   2326     1   110.5600475 386.601600
   2315   2314   2316     1   109.7500473 328.025600
   2316   2314   2326     1   110.5600475 386.601600
   2317   2310   2339     1   110.1100470 384.091200
   2317   2320   2321     1   109.8000471 387.438400
   2317   2320   2322     1   109.8000471 387.438400
   2318   2317   2320     1   110.5600475 386.601600
   2318   2317   2319     1   109.7500473 328.025600
   2319   2317   2320     1   110.5600475 386.601600
   2320   2329   2330     1   109.5600471 388.275200
   2320   2329   2331     1   109.5600471 388.275200
   2321   2320   2329     1   109.8000471 387.438400
   2321   2320   2322     1   107.5800459 329.699200
   2322   2320   2329     1   109.8000471 387.438400
   2323   2335   2336     1   109.5600471 388.275200
   2323   2335   2337     1   109.5600471 388.275200
   2324   2323   2335     1   109.8000471 387.438400
   2324   2323   2325     1   107.5800459 329.699200
   2325   2323   2335     1   109.8000471 387.438400
   2326   2332   2333     1   109.5600471 388.275200
   2326   2332   2334     1   109.5600471 388.275200
   2327   2326   2332     1   109.8000471 387.438400
   2327   2326   2328     1   107.5800459 329.699200
   2328   2326   2332     1   109.8000471 387.438400
   2330   2329   2338     1   109.7800468 425.094400
   2330   2329   2331     1   108.4600466 328.025600
   2331   2329   2338     1   109.7800468 425.094400
   2333   2332   4834     1   109.7800468 425.094400
   2333   2332   2334     1   108.4600466 328.025600
   2334   2332   4834     1   109.7800468 425.094400
   2336   2335   4866     1   109.7800468 425.094400
   2336   2335   2337     1   108.4600466 328.025600
   2337   2335   4866     1   109.7800468 425.094400
   2340   2341   2342     1   108.0100461 406.684800
   2340   2341   2343     1   108.0100461 406.684800
   2340   2344   2345     1   108.0100461 406.684800
   2340   2344   2346     1   108.0100461 406.684800
   2340   2347   2348     1   108.0100461 406.684800
   2340   2347   2349     1   108.0100461 406.684800
   2341   2340   2369     1   110.1100470 384.091200
   2341   2353   2354     1   109.8000471 387.438400
   2341   2353   2355     1   109.8000471 387.438400
   2342   2341   2353     1   110.5600475 386.601600
   2342   2341   2343     1   109.7500473 328.025600
   2343   2341   2353     1   110.5600475 386.601600
   2344   2340   2369     1   110.1100470 384.091200
   2344   2356   2357     1   109.8000471 387.438400
   2344   2356   2358     1   109.8000471 387.438400
   2345   2344   2356     1   110.5600475 386.601600
   2345   2344   2346     1   109.7500473 328.025600
   2346   2344   2356     1   110.5600475 386.601600
   2347   2340   2369     1   110.1100470 384.091200
   2347   2350   2351     1   109.8000471 387.438400
   2347   2350   2352     1   109.8000471 387.438400
   2348   2347   2350     1   110.5600475 386.601600
   2348   2347   2349     1   109.7500473 328.025600
   2349   2347   2350     1   110.5600475 386.601600
   2350   2359   2360     1   109.5600471 388.275200
   2350   2359   2361     1   109.5600471 388.275200
   2351   2350   2359     1   109.8000471 387.438400
   2351   2350   2352     1   107.5800459 329.699200
   2352   2350   2359     1   109.8000471 387.438400
   2353   2365   2366     1   109.5600471 388.275200
   2353   2365   2367     1   109.5600471 388.275200
   2354   2353   2365     1   109.8000471 387.438400
   2354   2353   2355     1   107.5800459 329.699200
   2355   2353   2365     1   109.8000471 387.438400
   2356   2362   2363     1   109.5600471 388.275200
   2356   2362   2364     1   109.5600471 388.275200
   2357   2356   2362     1   109.8000471 387.438400
   2357   2356   2358     1   107.5800459 329.699200
   2358   2356   2362     1   109.8000471 387.438400
   2360   2359   2368     1   109.7800468 425.094400
   2360   2359   2361     1   108.4600466 328.025600
   2361   2359   2368     1   109.7800468 425.094400
   2363   2362   4898     1   109.7800468 425.094400
   2363   2362   2364     1   108.4600466 328.025600
   2364   2362   4898     1   109.7800468 425.094400
   2366   2365   4930     1   109.7800468 425.094400
   2366   2365   2367     1   108.4600466 328.025600
   2367   2365   4930     1   109.7800468 425.094400
   2370   2371   2372     1   108.0100461 406.684800
   2370   2371   2373     1   108.0100461 406.684800
   2370   2374   2375     1   108.0100461 406.684800
   2370   2374   2376     1   108.0100461 406.684800
   2370   2377   2378     1   108.0100461 406.684800
   2370   2377   2379     1   108.0100461 406.684800
   2371   2370   2399     1   110.1100470 384.091200
   2371   2383   2384     1   109.8000471 387.438400
   2371   2383   2385     1   109.8000471 387.438400
   2372   2371   2383     1   110.5600475 386.601600
   2372   2371   2373     1   109.7500473 328.025600
   2373   2371   2383     1   110.5600475 386.601600
   2374   2370   2399     1   110.1100470 384.091200
   2374   2386   2387     1   109.8000471 387.438400
   2374   2386   2388     1   109.8000471 387.438400
   2375   2374   2386     1   110.5600475 386.601600
   2375   2374   2376     1   109.7500473 328.025600
   2376   2374   2386     1   110.5600475 386.601600
   2377   2370   2399     1   110.1100470 384.091200
   2377   2380   2381     1   109.8000471 387.438400
   2377   2380   2382     1   109.8000471 387.438400
   2378   2377   2380     1   110.5600475 386.601600
   2378   2377   2379     1   109.7500473 328.025600
   2379   2377   2380     1   110.5600475 386.601600
   2380   2389   2390     1   109.5600471 388.275200
   2380   2389   2391     1   109.5600471 388.275200
   2381   2380   2389     1   109.8000471 387.438400
   2381   2380   2382     1   107.5800459 329.699200
   2382   2380   2389     1   109.8000471 387.438400
   2383   2395   2396     1   109.5600471 388.275200
   2383   2395   2397     1   109.5600471 388.275200
   2384   2383   2395     1   109.8000471 387.438400
   2384   2383   2385     1   107.5800459 329.699200
   2385   2383   2395     1   109.8000471 387.438400
   2386   2392   2393     1   109.5600471 388.275200
   2386   2392   2394     1   109.5600471 388.275200
   2387   2386   2392     1   109.8000471 387.438400
   2387   2386   2388     1   107.5800459 329.699200
   2388   2386   2392     1   109.8000471 387.438400
   2390   2389   2398     1   109.7800468 425.094400
   2390   2389   2391     1   108.4600466 328.025600
   2391   2389   2398     1   109.7800468 425.094400
   2393   2392   4962     1   109.7800468 425.094400
   2393   2392   2394     1   108.4600466 328.025600
   2394   2392   4962     1   109.7800468 425.094400
   2396   2395   4994     1   109.7800468 425.094400
   2396   2395   2397     1   108.4600466 328.025600
   2397   2395   4994     1   109.7800468 425.094400
   2400   2401   2402     1   108.0100461 406.684800
   2400   2401   2403     1   108.0100461 406.684800
   2400   2404   2405     1   108.0100461 406.684800
   2400   2404   2406     1   108.0100461 406.684800
   2400   2407   2408     1   108.0100461 406.684800
   2400   2407   2409     1   108.0100461 406.684800
   2401   2400   2429     1   110.1100470 384.091200
   2401   2413   2414     1   109.8000471 387.438400
   2401   2413   2415     1   109.8000471 387.438400
   2402   2401   2413     1   110.5600475 386.601600
   2402   2401   2403     1   109.7500473 328.025600
   2403   2401   2413     1   110.5600475 386.601600
   2404   2400   2429     1   110.1100470 384.091200
   2404   2416   2417     1   109.8000471 387.438400
   2404   2416   2418     1   109.8000471 387.438400
   2405   2404   2416     1   110.5600475 386.601600
   2405   2404   2406     1   109.7500473 328.025600
   2406   2404   2416     1   110.5600475 386.601600
   2407   2400   2429     1   110.1100470 384.091200
   2407   2410   2411     1   109.8000471 387.438400
   2407   2410   2412     1   109.8000471 387.438400
   2408   2407   2410     1   110.5600475 386.601600
   2408   2407   2409     1   109.7500473 328.025600
   2409   2407   2410     1   110.5600475 386.601600
   2410   2419   2420     1   109.5600471 388.275200
   2410   2419   2421     1   109.5600471 388.275200
   2411   2410   2419     1   109.8000471 387.438400
   2411   2410   2412     1   107.5800459 329.699200
   2412   2410   2419     1   109.8000471 387.438400
   2413   2425   2426     1   109.5600471 388.275200
   2413   2425   2427     1   109.5600471 388.275200
   2414   2413   2425     1   109.8000471 387.438400
   2414   2413   2415     1   107.5800459 329.699200
   2415   2413   2425     1   109.8000471 387.438400
   2416   2422   2423     1   109.5600471 388.275200
   2416   2422   2424     1   109.5600471 388.275200
   2417   2416   2422     1   109.8000471 387.438400
   2417   2416   2418     1   107.5800459 329.699200
   2418   2416   2422     1   109.8000471 387.438400
   2420   2419   2428     1   109.7800468 425.094400
   2420   2419   2421     1   108.4600466 328.025600
   2421   2419   2428     1   109.7800468 425.094400
   2423   2422   5026     1   109.7800468 425.094400
   2423   2422   2424     1   108.4600466 328.025600
   2424   2422   5026     1   109.7800468 425.094400
   2426   2425   5058     1   109.7800468 425.094400
   2426   2425   2427     1   108.4600466 328.025600
   2427   2425   5058     1   109.7800468 425.094400
   2430   2431   2432     1   108.0100461 406.684800
   2430   2431   2433     1   108.0100461 406.684800
   2430   2434   2435     1   108.0100461 406.684800
   2430   2434   2436     1   108.0100461 406.684800
   2430   2437   2438     1   108.0100461 406.684800
   2430   2437   2439     1   108.0100461 406.684800
   2431   2430   2459     1   110.1100470 384.091200
   2431   2443   2444     1   109.8000471 387.438400
   2431   2443   2445     1   109.8000471 387.438400
   2432   2431   2443     1   110.5600475 386.601600
   2432   2431   2433     1   109.7500473 328.025600
   2433   2431   2443     1   110.5600475 386.601600
   2434   2430   2459     1   110.1100470 384.091200
   2434   2446   2447     1   109.8000471 387.438400
   2434   2446   2448     1   109.8000471 387.438400
   2435   2434   2446     1   110.5600475 386.601600
   2435   2434   2436     1   109.7500473 328.025600
   2436   2434   2446     1   110.5600475 386.601600
   2437   2430   2459     1   110.1100470 384.091200
   2437   2440   2441     1   109.8000471 387.438400
   2437   2440   2442     1   109.8000471 387.438400
   2438   2437   2440     1   110.5600475 386.601600
   2438   2437   2439     1   109.7500473 328.025600
   2439   2437   2440     1   110.5600475 386.601600
   2440   2449   2450     1   109.5600471 388.275200
   2440   2449   2451     1   109.5600471 388.275200
   2441   2440   2449     1   109.8000471 387.438400
   2441   2440   2442     1   107.5800459 329.699200
   2442   2440   2449     1   109.8000471 387.438400
   2443   2455   2456     1   109.5600471 388.275200
   2443   2455   2457     1   109.5600471 388.275200
   2444   2443   2455     1   109.8000471 387.438400
   2444   2443   2445     1   107.5800459 329.699200
   2445   2443   2455     1   109.8000471 387.438400
   2446   2452   2453     1   109.5600471 388.275200
   2446   2452   2454     1   109.5600471 388.275200
   2447   2446   2452     1   109.8000471 387.438400
   2447   2446   2448     1   107.5800459 329.699200
   2448   2446   2452     1   109.8000471 387.438400
   2450   2449   2458     1   109.7800468 425.094400
   2450   2449   2451     1   108.4600466 328.025600
   2451   2449   2458     1   109.7800468 425.094400
   2453   2452   5090     1   109.7800468 425.094400
   2453   2452   2454     1   108.4600466 328.025600
   2454   2452   5090     1   109.7800468 425.094400
   2456   2455   5122     1   109.7800468 425.094400
   2456   2455   2457     1   108.4600466 328.025600
   2457   2455   5122     1   109.7800468 425.094400
   2460   2461   2462     1   108.0100461 406.684800
   2460   2461   2463     1   108.0100461 406.684800
   2460   2464   2465     1   108.0100461 406.684800
   2460   2464   2466     1   108.0100461 406.684800
   2460   2467   2468     1   108.0100461 406.684800
   2460   2467   2469     1   108.0100461 406.684800
   2461   2460   2489     1   110.1100470 384.091200
   2461   2473   2474     1   109.8000471 387.438400
   2461   2473   2475     1   109.8000471 387.438400
   2462   2461   2473     1   110.5600475 386.601600
   2462   2461   2463     1   109.7500473 328.025600
   2463   2461   2473     1   110.5600475 386.601600
   2464   2460   2489     1   110.1100470 384.091200
   2464   2476   2477     1   109.8000471 387.438400
   2464   2476   2478     1   109.8000471 387.438400
   2465   2464   2476     1   110.5600475 386.601600
   2465   2464   2466     1   109.7500473 328.025600
   2466   2464   2476     1   110.5600475 386.601600
   2467   2460   2489     1   110.1100470 384.091200
   2467   2470   2471     1   109.8000471 387.438400
   2467   2470   2472     1   109.8000471 387.438400
   2468   2467   2470     1   110.5600475 386.601600
   2468   2467   2469     1   109.7500473 328.025600
   2469   2467   2470     1   110.5600475 386.601600
   2470   2479   2480     1   109.5600471 388.275200
   2470   2479   2481     1   109.5600471 388.275200
   2471   2470   2479     1   109.8000471 387.438400
   2471   2470   2472     1   107.5800459 329.699200
   2472   2470   2479     1   109.8000471 387.438400
   2473   2485   2486     1   109.5600471 388.275200
   2473   2485   2487     1   109.5600471 388.275200
   2474   2473   2485     1   109.8000471 387.438400
   2474   2473   2475     1   107.5800459 329.699200
   2475   2473   2485     1   109.8000471 387.438400
   2476   2482   2483     1   109.5600471 388.275200
   2476   2482   2484     1   109.5600471 388.275200
   2477   2476   2482     1   109.8000471 387.438400
   2477   2476   2478     1   107.5800459 329.699200
   2478   2476   2482     1   109.8000471 387.438400
   2480   2479   2488     1   109.7800468 425.094400
   2480   2479   2481     1   108.4600466 328.025600
   2481   2479   2488     1   109.7800468 425.094400
   2483   2482   5154     1   109.7800468 425.094400
   2483   2482   2484     1   108.4600466 328.025600
   2484   2482   5154     1   109.7800468 425.094400
   2486   2485   5186     1   109.7800468 425.094400
   2486   2485   2487     1   108.4600466 328.025600
   2487   2485   5186     1   109.7800468 425.094400
   2490   2491   2492     1   108.0100461 406.684800
   2490   2491   2493     1   108.0100461 406.684800
   2490   2494   2495     1   108.0100461 406.684800
   2490   2494   2496     1   108.0100461 406.684800
   2490   2497   2498     1   108.0100461 406.684800
   2490   2497   2499     1   108.0100461 406.684800
   2491   2490   2519     1   110.1100470 384.091200
   2491   2503   2504     1   109.8000471 387.438400
   2491   2503   2505     1   109.8000471 387.438400
   2492   2491   2503     1   110.5600475 386.601600
   2492   2491   2493     1   109.7500473 328.025600
   2493   2491   2503     1   110.5600475 386.601600
   2494   2490   2519     1   110.1100470 384.091200
   2494   2506   2507     1   109.8000471 387.438400
   2494   2506   2508     1   109.8000471 387.438400
   2495   2494   2506     1   110.5600475 386.601600
   2495   2494   2496     1   109.7500473 328.025600
   2496   2494   2506     1   110.5600475 386.601600
   2497   2490   2519     1   110.1100470 384.091200
   2497   2500   2501     1   109.8000471 387.438400
   2497   2500   2502     1   109.8000471 387.438400
   2498   2497   2500     1   110.5600475 386.601600
   2498   2497   2499     1   109.7500473 328.025600
   2499   2497   2500     1   110.5600475 386.601600
   2500   2509   2510     1   109.5600471 388.275200
   2500   2509   2511     1   109.5600471 388.275200
   2501   2500   2509     1   109.8000471 387.438400
   2501   2500   2502     1   107.5800459 329.699200
   2502   2500   2509     1   109.8000471 387.438400
   2503   2515   2516     1   109.5600471 388.275200
   2503   2515   2517     1   109.5600471 388.275200
   2504   2503   2515     1   109.8000471 387.438400
   2504   2503   2505     1   107.5800459 329.699200
   2505   2503   2515     1   109.8000471 387.438400
   2506   2512   2513     1   109.5600471 388.275200
   2506   2512   2514     1   109.5600471 388.275200
   2507   2506   2512     1   109.8000471 387.438400
   2507   2506   2508     1   107.5800459 329.699200
   2508   2506   2512     1   109.8000471 387.438400
   2510   2509   2518     1   109.7800468 425.094400
   2510   2509   2511     1   108.4600466 328.025600
   2511   2509   2518     1   109.7800468 425.094400
   2513   2512   5218     1   109.7800468 425.094400
   2513   2512   2514     1   108.4600466 328.025600
   2514   2512   5218     1   109.7800468 425.094400
   2516   2515   5250     1   109.7800468 425.094400
   2516   2515   2517     1   108.4600466 328.025600
   2517   2515   5250     1   109.7800468 425.094400
   2520   2521   2522     1   108.0100461 406.684800
   2520   2521   2523     1   108.0100461 406.684800
   2520   2524   2525     1   108.0100461 406.684800
   2520   2524   2526     1   108.0100461 406.684800
   2520   2527   2528     1   108.0100461 406.684800
   2520   2527   2529     1   108.0100461 406.684800
   2521   2520   2549     1   110.1100470 384.091200
   2521   2533   2534     1   109.8000471 387.438400
   2521   2533   2535     1   109.8000471 387.438400
   2522   2521   2533     1   110.5600475 386.601600
   2522   2521   2523     1   109.7500473 328.025600
   2523   2521   2533     1   110.5600475 386.601600
   2524   2520   2549     1   110.1100470 384.091200
   2524   2536   2537     1   109.8000471 387.438400
   2524   2536   2538     1   109.8000471 387.438400
   2525   2524   2536     1   110.5600475 386.601600
   2525   2524   2526     1   109.7500473 328.025600
   2526   2524   2536     1   110.5600475 386.601600
   2527   2520   2549     1   110.1100470 384.091200
   2527   2530   2531     1   109.8000471 387.438400
   2527   2530   2532     1   109.8000471 387.438400
   2528   2527   2530     1   110.5600475 386.601600
   2528   2527   2529     1   109.7500473 328.025600
   2529   2527   2530     1   110.5600475 386.601600
   2530   2539   2540     1   109.5600471 388.275200
   2530   2539   2541     1   109.5600471 388.275200
   2531   2530   2539     1   109.8000471 387.438400
   2531   2530   2532     1   107.5800459 329.699200
   2532   2530   2539     1   109.8000471 387.438400
   2533   2545   2546     1   109.5600471 388.275200
   2533   2545   2547     1   109.5600471 388.275200
   2534   2533   2545     1   109.8000471 387.438400
   2534   2533   2535     1   107.5800459 329.699200
   2535   2533   2545     1   109.8000471 387.438400
   2536   2542   2543     1   109.5600471 388.275200
   2536   2542   2544     1   109.5600471 388.275200
   2537   2536   2542     1   109.8000471 387.438400
   2537   2536   2538     1   107.5800459 329.699200
   2538   2536   2542     1   109.8000471 387.438400
   2540   2539   2548     1   109.7800468 425.094400
   2540   2539   2541     1   108.4600466 328.025600
   2541   2539   2548     1   109.7800468 425.094400
   2543   2542   5282     1   109.7800468 425.094400
   2543   2542   2544     1   108.4600466 328.025600
   2544   2542   5282     1   109.7800468 425.094400
   2546   2545   5314     1   109.7800468 425.094400
   2546   2545   2547     1   108.4600466 328.025600
   2547   2545   5314     1   109.7800468 425.094400
   2550   2551   2552     1   108.0100461 406.684800
   2550   2551   2553     1   108.0100461 406.684800
   2550   2554   2555     1   108.0100461 406.684800
   2550   2554   2556     1   108.0100461 406.684800
   2550   2557   2558     1   108.0100461 406.684800
   2550   2557   2559     1   108.0100461 406.684800
   2551   2550   2579     1   110.1100470 384.091200
   2551   2563   2564     1   109.8000471 387.438400
   2551   2563   2565     1   109.8000471 387.438400
   2552   2551   2563     1   110.5600475 386.601600
   2552   2551   2553     1   109.7500473 328.025600
   2553   2551   2563     1   110.5600475 386.601600
   2554   2550   2579     1   110.1100470 384.091200
   2554   2566   2567     1   109.8000471 387.438400
   2554   2566   2568     1   109.8000471 387.438400
   2555   2554   2566     1   110.5600475 386.601600
   2555   2554   2556     1   109.7500473 328.025600
   2556   2554   2566     1   110.5600475 386.601600
   2557   2550   2579     1   110.1100470 384.091200
   2557   2560   2561     1   109.8000471 387.438400
   2557   2560   2562     1   109.8000471 387.438400
   2558   2557   2560     1   110.5600475 386.601600
   2558   2557   2559     1   109.7500473 328.025600
   2559   2557   2560     1   110.5600475 386.601600
   2560   2569   2570     1   109.5600471 388.275200
   2560   2569   2571     1   109.5600471 388.275200
   2561   2560   2569     1   109.8000471 387.438400
   2561   2560   2562     1   107.5800459 329.699200
   2562   2560   2569     1   109.8000471 387.438400
   2563   2575   2576     1   109.5600471 388.275200
   2563   2575   2577     1   109.5600471 388.275200
   2564   2563   2575     1   109.8000471 387.438400
   2564   2563   2565     1   107.5800459 329.699200
   2565   2563   2575     1   109.8000471 387.438400
   2566   2572   2573     1   109.5600471 388.275200
   2566   2572   2574     1   109.5600471 388.275200
   2567   2566   2572     1   109.8000471 387.438400
   2567   2566   2568     1   107.5800459 329.699200
   2568   2566   2572     1   109.8000471 387.438400
   2570   2569   2578     1   109.7800468 425.094400
   2570   2569   2571     1   108.4600466 328.025600
   2571   2569   2578     1   109.7800468 425.094400
   2573   2572   5346     1   109.7800468 425.094400
   2573   2572   2574     1   108.4600466 328.025600
   2574   2572   5346     1   109.7800468 425.094400
   2576   2575   5378     1   109.7800468 425.094400
   2576   2575   2577     1   108.4600466 328.025600
   2577   2575   5378     1   109.7800468 425.094400
   2580   2581   2582     1   108.0100461 406.684800
   2580   2581   2583     1   108.0100461 406.684800
   2580   2584   2585     1   108.0100461 406.684800
   2580   2584   2586     1   108.0100461 406.684800
   2580   2587   2588     1   108.0100461 406.684800
   2580   2587   2589     1   108.0100461 406.684800
   2581   2580   2609     1   110.1100470 384.091200
   2581   2593   2594     1   109.8000471 387.438400
   2581   2593   2595     1   109.8000471 387.438400
   2582   2581   2593     1   110.5600475 386.601600
   2582   2581   2583     1   109.7500473 328.025600
   2583   2581   2593     1   110.5600475 386.601600
   2584   2580   2609     1   110.1100470 384.091200
   2584   2596   2597     1   109.8000471 387.438400
   2584   2596   2598     1   109.8000471 387.438400
   2585   2584   2596     1   110.5600475 386.601600
   2585   2584   2586     1   109.7500473 328.025600
   2586   2584   2596     1   110.5600475 386.601600
   2587   2580   2609     1   110.1100470 384.091200
   2587   2590   2591     1   109.8000471 387.438400
   2587   2590   2592     1   109.8000471 387.438400
   2588   2587   2590     1   110.5600475 386.601600
   2588   2587   2589     1   109.7500473 328.025600
   2589   2587   2590     1   110.5600475 386.601600
   2590   2599   2600     1   109.5600471 388.275200
   2590   2599   2601     1   109.5600471 388.275200
   2591   2590   2599     1   109.8000471 387.438400
   2591   2590   2592     1   107.5800459 329.699200
   2592   2590   2599     1   109.8000471 387.438400
   2593   2605   2606     1   109.5600471 388.275200
   2593   2605   2607     1   109.5600471 388.275200
   2594   2593   2605     1   109.8000471 387.438400
   2594   2593   2595     1   107.5800459 329.699200
   2595   2593   2605     1   109.8000471 387.438400
   2596   2602   2603     1   109.5600471 388.275200
   2596   2602   2604     1   109.5600471 388.275200
   2597   2596   2602     1   109.8000471 387.438400
   2597   2596   2598     1   107.5800459 329.699200
   2598   2596   2602     1   109.8000471 387.438400
   2600   2599   2608     1   109.7800468 425.094400
   2600   2599   2601     1   108.4600466 328.025600
   2601   2599   2608     1   109.7800468 425.094400
   2603   2602   5410     1   109.7800468 425.094400
   2603   2602   2604     1   108.4600466 328.025600
   2604   2602   5410     1   109.7800468 425.094400
   2606   2605   5442     1   109.7800468 425.094400
   2606   2605   2607     1   108.4600466 328.025600
   2607   2605   5442     1   109.7800468 425.094400
   2610   2611   2612     1   108.0100461 406.684800
   2610   2611   2613     1   108.0100461 406.684800
   2610   2614   2615     1   108.0100461 406.684800
   2610   2614   2616     1   108.0100461 406.684800
   2610   2617   2618     1   108.0100461 406.684800
   2610   2617   2619     1   108.0100461 406.684800
   2611   2610   2639     1   110.1100470 384.091200
   2611   2623   2624     1   109.8000471 387.438400
   2611   2623   2625     1   109.8000471 387.438400
   2612   2611   2623     1   110.5600475 386.601600
   2612   2611   2613     1   109.7500473 328.025600
   2613   2611   2623     1   110.5600475 386.601600
   2614   2610   2639     1   110.1100470 384.091200
   2614   2626   2627     1   109.8000471 387.438400
   2614   2626   2628     1   109.8000471 387.438400
   2615   2614   2626     1   110.5600475 386.601600
   2615   2614   2616     1   109.7500473 328.025600
   2616   2614   2626     1   110.5600475 386.601600
   2617   2610   2639     1   110.1100470 384.091200
   2617   2620   2621     1   109.8000471 387.438400
   2617   2620   2622     1   109.8000471 387.438400
   2618   2617   2620     1   110.5600475 386.601600
   2618   2617   2619     1   109.7500473 328.025600
   2619   2617   2620     1   110.5600475 386.601600
   2620   2629   2630     1   109.5600471 388.275200
   2620   2629   2631     1   109.5600471 388.275200
   2621   2620   2629     1   109.8000471 387.438400
   2621   2620   2622     1   107.5800459 329.699200
   2622   2620   2629     1   109.8000471 387.438400
   2623   2635   2636     1   109.5600471 388.275200
   2623   2635   2637     1   109.5600471 388.275200
   2624   2623   2635     1   109.8000471 387.438400
   2624   2623   2625     1   107.5800459 329.699200
   2625   2623   2635     1   109.8000471 387.438400
   2626   2632   2633     1   109.5600471 388.275200
   2626   2632   2634     1   109.5600471 388.275200
   2627   2626   2632     1   109.8000471 387.438400
   2627   2626   2628     1   107.5800459 329.699200
   2628   2626   2632     1   109.8000471 387.438400
   2630   2629   2638     1   109.7800468 425.094400
   2630   2629   2631     1   108.4600466 328.025600
   2631   2629   2638     1   109.7800468 425.094400
   2633   2632   5474     1   109.7800468 425.094400
   2633   2632   2634     1   108.4600466 328.025600
   2634   2632   5474     1   109.7800468 425.094400
   2636   2635   5506     1   109.7800468 425.094400
   2636   2635   2637     1   108.4600466 328.025600
   2637   2635   5506     1   109.7800468 425.094400
   2640   2641   2642     1   108.0100461 406.684800
   2640   2641   2643     1   108.0100461 406.684800
   2640   2644   2645     1   108.0100461 406.684800
   2640   2644   2646     1   108.0100461 406.684800
   2640   2647   2648     1   108.0100461 406.684800
   2640   2647   2649     1   108.0100461 406.684800
   2641   2640   2669     1   110.1100470 384.091200
   2641   2653   2654     1   109.8000471 387.438400
   2641   2653   2655     1   109.8000471 387.438400
   2642   2641   2653     1   110.5600475 386.601600
   2642   2641   2643     1   109.7500473 328.025600
   2643   2641   2653     1   110.5600475 386.601600
   2644   2640   2669     1   110.1100470 384.091200
   2644   2656   2657     1   109.8000471 387.438400
   2644   2656   2658     1   109.8000471 387.438400
   2645   2644   2656     1   110.5600475 386.601600
   2645   2644   2646     1   109.7500473 328.025600
   2646   2644   2656     1   110.5600475 386.601600
   2647   2640   2669     1   110.1100470 384.091200
   2647   2650   2651     1   109.8000471 387.438400
   2647   2650   2652     1   109.8000471 387.438400
   2648   2647   2650     1   110.5600475 386.601600
   2648   2647   2649     1   109.7500473 328.025600
   2649   2647   2650     1   110.5600475 386.601600
   2650   2659   2660     1   109.5600471 388.275200
   2650   2659   2661     1   109.5600471 388.275200
   2651   2650   2659     1   109.8000471 387.438400
   2651   2650   2652     1   107.5800459 329.699200
   2652   2650   2659     1   109.8000471 387.438400
   2653   2665   2666     1   109.5600471 388.275200
   2653   2665   2667     1   109.5600471 388.275200
   2654   2653   2665     1   109.8000471 387.438400
   2654   2653   2655     1   107.5800459 329.699200
   2655   2653   2665     1   109.8000471 387.438400
   2656   2662   2663     1   109.5600471 388.275200
   2656   2662   2664     1   109.5600471 388.275200
   2657   2656   2662     1   109.8000471 387.438400
   2657   2656   2658     1   107.5800459 329.699200
   2658   2656   2662     1   109.8000471 387.438400
   2660   2659   2668     1   109.7800468 425.094400
   2660   2659   2661     1   108.4600466 328.025600
   2661   2659   2668     1   109.7800468 425.094400
   2663   2662   5538     1   109.7800468 425.094400
   2663   2662   2664     1   108.4600466 328.025600
   2664   2662   5538     1   109.7800468 425.094400
   2666   2665   5570     1   109.7800468 425.094400
   2666   2665   2667     1   108.4600466 328.025600
   2667   2665   5570     1   109.7800468 425.094400
   2670   2671   2672     1   108.0100461 406.684800
   2670   2671   2673     1   108.0100461 406.684800
   2670   2674   2675     1   108.0100461 406.684800
   2670   2674   2676     1   108.0100461 406.684800
   2670   2677   2678     1   108.0100461 406.684800
   2670   2677   2679     1   108.0100461 406.684800
   2671   2670   2699     1   110.1100470 384.091200
   2671   2683   2684     1   109.8000471 387.438400
   2671   2683   2685     1   109.8000471 387.438400
   2672   2671   2683     1   110.5600475 386.601600
   2672   2671   2673     1   109.7500473 328.025600
   2673   2671   2683     1   110.5600475 386.601600
   2674   2670   2699     1   110.1100470 384.091200
   2674   2686   2687     1   109.8000471 387.438400
   2674   2686   2688     1   109.8000471 387.438400
   2675   2674   2686     1   110.5600475 386.601600
   2675   2674   2676     1   109.7500473 328.025600
   2676   2674   2686     1   110.5600475 386.601600
   2677   2670   2699     1   110.1100470 384.091200
   2677   2680   2681     1   109.8000471 387.438400
   2677   2680   2682     1   109.8000471 387.438400
   2678   2677   2680     1   110.5600475 386.601600
   2678   2677   2679     1   109.7500473 328.025600
   2679   2677   2680     1   110.5600475 386.601600
   2680   2689   2690     1   109.5600471 388.275200
   2680   2689   2691     1   109.5600471 388.275200
   2681   2680   2689     1   109.8000471 387.438400
   2681   2680   2682     1   107.5800459 329.699200
   2682   2680   2689     1   109.8000471 387.438400
   2683   2695   2696     1   109.5600471 388.275200
   2683   2695   2697     1   109.5600471 388.275200
   2684   2683   2695     1   109.8000471 387.438400
   2684   2683   2685     1   107.5800459 329.699200
   2685   2683   2695     1   109.8000471 387.438400
   2686   2692   2693     1   109.5600471 388.275200
   2686   2692   2694     1   109.5600471 388.275200
   2687   2686   2692     1   109.8000471 387.438400
   2687   2686   2688     1   107.5800459 329.699200
   2688   2686   2692     1   109.8000471 387.438400
   2690   2689   2698     1   109.7800468 425.094400
   2690   2689   2691     1   108.4600466 328.025600
   2691   2689   2698     1   109.7800468 425.094400
   2693   2692   5602     1   109.7800468 425.094400
   2693   2692   2694     1   108.4600466 328.025600
   2694   2692   5602     1   109.7800468 425.094400
   2696   2695   5634     1   109.7800468 425.094400
   2696   2695   2697     1   108.4600466 328.025600
   2697   2695   5634     1   109.7800468 425.094400
   2700   2701   2702     1   108.0100461 406.684800
   2700   2701   2703     1   108.0100461 406.684800
   2700   2704   2705     1   108.0100461 406.684800
   2700   2704   2706     1   108.0100461 406.684800
   2700   2707   2708     1   108.0100461 406.684800
   2700   2707   2709     1   108.0100461 406.684800
   2701   2700   2729     1   110.1100470 384.091200
   2701   2713   2714     1   109.8000471 387.438400
   2701   2713   2715     1   109.8000471 387.438400
   2702   2701   2713     1   110.5600475 386.601600
   2702   2701   2703     1   109.7500473 328.025600
   2703   2701   2713     1   110.5600475 386.601600
   2704   2700   2729     1   110.1100470 384.091200
   2704   2716   2717     1   109.8000471 387.438400
   2704   2716   2718     1   109.8000471 387.438400
   2705   2704   2716     1   110.5600475 386.601600
   2705   2704   2706     1   109.7500473 328.025600
   2706   2704   2716     1   110.5600475 386.601600
   2707   2700   2729     1   110.1100470 384.091200
   2707   2710   2711     1   109.8000471 387.438400
   2707   2710   2712     1   109.8000471 387.438400
   2708   2707   2710     1   110.5600475 386.601600
   2708   2707   2709     1   109.7500473 328.025600
   2709   2707   2710     1   110.5600475 386.601600
   2710   2719   2720     1   109.5600471 388.275200
   2710   2719   2721     1   109.5600471 388.275200
   2711   2710   2719     1   109.8000471 387.438400
   2711   2710   2712     1   107.5800459 329.699200
   2712   2710   2719     1   109.8000471 387.438400
   2713   2725   2726     1   109.5600471 388.275200
   2713   2725   2727     1   109.5600471 388.275200
   2714   2713   2725     1   109.8000471 387.438400
   2714   2713   2715     1   107.5800459 329.699200
   2715   2713   2725     1   109.8000471 387.438400
   2716   2722   2723     1   109.5600471 388.275200
   2716   2722   2724     1   109.5600471 388.275200
   2717   2716   2722     1   109.8000471 387.438400
   2717   2716   2718     1   107.5800459 329.699200
   2718   2716   2722     1   109.8000471 387.438400
   2720   2719   2728     1   109.7800468 425.094400
   2720   2719   2721     1   108.4600466 328.025600
   2721   2719   2728     1   109.7800468 425.094400
   2723   2722   5666     1   109.7800468 425.094400
   2723   2722   2724     1   108.4600466 328.025600
   2724   2722   5666     1   109.7800468 425.094400
   2726   2725   5698     1   109.7800468 425.094400
   2726   2725   2727     1   108.4600466 328.025600
   2727   2725   5698     1   109.7800468 425.094400
   2730   2731   2732     1   108.0100461 406.684800
   2730   2731   2733     1   108.0100461 406.684800
   2730   2734   2735     1   108.0100461 406.684800
   2730   2734   2736     1   108.0100461 406.684800
   2730   2737   2738     1   108.0100461 406.684800
   2730   2737   2739     1   108.0100461 406.684800
   2731   2730   2759     1   110.1100470 384.091200
   2731   2743   2744     1   109.8000471 387.438400
   2731   2743   2745     1   109.8000471 387.438400
   2732   2731   2743     1   110.5600475 386.601600
   2732   2731   2733     1   109.7500473 328.025600
   2733   2731   2743     1   110.5600475 386.601600
   2734   2730   2759     1   110.1100470 384.091200
   2734   2746   2747     1   109.8000471 387.438400
   2734   2746   2748     1   109.8000471 387.438400
   2735   2734   2746     1   110.5600475 386.601600
   2735   2734   2736     1   109.7500473 328.025600
   2736   2734   2746     1   110.5600475 386.601600
   2737   2730   2759     1   110.1100470 384.091200
   2737   2740   2741     1   109.8000471 387.438400
   2737   2740   2742     1   109.8000471 387.438400
   2738   2737   2740     1   110.5600475 386.601600
   2738   2737   2739     1   109.7500473 328.025600
   2739   2737   2740     1   110.5600475 386.601600
   2740   2749   2750     1   109.5600471 388.275200
   2740   2749   2751     1   109.5600471 388.275200
   2741   2740   2749     1   109.8000471 387.438400
   2741   2740   2742     1   107.5800459 329.699200
   2742   2740   2749     1   109.8000471 387.438400
   2743   2755   2756     1   109.5600471 388.275200
   2743   2755   2757     1   109.5600471 388.275200
   2744   2743   2755     1   109.8000471 387.438400
   2744   2743   2745     1   107.5800459 329.699200
   2745   2743   2755     1   109.8000471 387.438400
   2746   2752   2753     1   109.5600471 388.275200
   2746   2752   2754     1   109.5600471 388.275200
   2747   2746   2752     1   109.8000471 387.438400
   2747   2746   2748     1   107.5800459 329.699200
   2748   2746   2752     1   109.8000471 387.438400
   2750   2749   2758     1   109.7800468 425.094400
   2750   2749   2751     1   108.4600466 328.025600
   2751   2749   2758     1   109.7800468 425.094400
   2753   2752   5730     1   109.7800468 425.094400
   2753   2752   2754     1   108.4600466 328.025600
   2754   2752   5730     1   109.7800468 425.094400
   2756   2755   5762     1   109.7800468 425.094400
   2756   2755   2757     1   108.4600466 328.025600
   2757   2755   5762     1   109.7800468 425.094400
   2760   2761   2762     1   108.0100461 406.684800
   2760   2761   2763     1   108.0100461 406.684800
   2760   2764   2765     1   108.0100461 406.684800
   2760   2764   2766     1   108.0100461 406.684800
   2760   2767   2768     1   108.0100461 406.684800
   2760   2767   2769     1   108.0100461 406.684800
   2761   2760   2789     1   110.1100470 384.091200
   2761   2773   2774     1   109.8000471 387.438400
   2761   2773   2775     1   109.8000471 387.438400
   2762   2761   2773     1   110.5600475 386.601600
   2762   2761   2763     1   109.7500473 328.025600
   2763   2761   2773     1   110.5600475 386.601600
   2764   2760   2789     1   110.1100470 384.091200
   2764   2776   2777     1   109.8000471 387.438400
   2764   2776   2778     1   109.8000471 387.438400
   2765   2764   2776     1   110.5600475 386.601600
   2765   2764   2766     1   109.7500473 328.025600
   2766   2764   2776     1   110.5600475 386.601600
   2767   2760   2789     1   110.1100470 384.091200
   2767   2770   2771     1   109.8000471 387.438400
   2767   2770   2772     1   109.8000471 387.438400
   2768   2767   2770     1   110.5600475 386.601600
   2768   2767   2769     1   109.7500473 328.025600
   2769   2767   2770     1   110.5600475 386.601600
   2770   2779   2780     1   109.5600471 388.275200
   2770   2779   2781     1   109.5600471 388.275200
   2771   2770   2779     1   109.8000471 387.438400
   2771   2770   2772     1   107.5800459 329.699200
   2772   2770   2779     1   109.8000471 387.438400
   2773   2785   2786     1   109.5600471 388.275200
   2773   2785   2787     1   109.5600471 388.275200
   2774   2773   2785     1   109.8000471 387.438400
   2774   2773   2775     1   107.5800459 329.699200
   2775   2773   2785     1   109.8000471 387.438400
   2776   2782   2783     1   109.5600471 388.275200
   2776   2782   2784     1   109.5600471 388.275200
   2777   2776   2782     1   109.8000471 387.438400
   2777   2776   2778     1   107.5800459 329.699200
   2778   2776   2782     1   109.8000471 387.438400
   2780   2779   2788     1   109.7800468 425.094400
   2780   2779   2781     1   108.4600466 328.025600
   2781   2779   2788     1   109.7800468 425.094400
   2783   2782   5794     1   109.7800468 425.094400
   2783   2782   2784     1   108.4600466 328.025600
   2784   2782   5794     1   109.7800468 425.094400
   2786   2785   5826     1   109.7800468 425.094400
   2786   2785   2787     1   108.4600466 328.025600
   2787   2785   5826     1   109.7800468 425.094400
   2790   2791   2792     1   108.0100461 406.684800
   2790   2791   2793     1   108.0100461 406.684800
   2790   2794   2795     1   108.0100461 406.684800
   2790   2794   2796     1   108.0100461 406.684800
   2790   2797   2798     1   108.0100461 406.684800
   2790   2797   2799     1   108.0100461 406.684800
   2791   2790   2819     1   110.1100470 384.091200
   2791   2803   2804     1   109.8000471 387.438400
   2791   2803   2805     1   109.8000471 387.438400
   2792   2791   2803     1   110.5600475 386.601600
   2792   2791   2793     1   109.7500473 328.025600
   2793   2791   2803     1   110.5600475 386.601600
   2794   2790   2819     1   110.1100470 384.091200
   2794   2806   2807     1   109.8000471 387.438400
   2794   2806   2808     1   109.8000471 387.438400
   2795   2794   2806     1   110.5600475 386.601600
   2795   2794   2796     1   109.7500473 328.025600
   2796   2794   2806     1   110.5600475 386.601600
   2797   2790   2819     1   110.1100470 384.091200
   2797   2800   2801     1   109.8000471 387.438400
   2797   2800   2802     1   109.8000471 387.438400
   2798   2797   2800     1   110.5600475 386.601600
   2798   2797   2799     1   109.7500473 328.025600
   2799   2797   2800     1   110.5600475 386.601600
   2800   2809   2810     1   109.5600471 388.275200
   2800   2809   2811     1   109.5600471 388.275200
   2801   2800   2809     1   109.8000471 387.438400
   2801   2800   2802     1   107.5800459 329.699200
   2802   2800   2809     1   109.8000471 387.438400
   2803   2815   2816     1   109.5600471 388.275200
   2803   2815   2817     1   109.5600471 388.275200
   2804   2803   2815     1   109.8000471 387.438400
   2804   2803   2805     1   107.5800459 329.699200
   2805   2803   2815     1   109.8000471 387.438400
   2806   2812   2813     1   109.5600471 388.275200
   2806   2812   2814     1   109.5600471 388.275200
   2807   2806   2812     1   109.8000471 387.438400
   2807   2806   2808     1   107.5800459 329.699200
   2808   2806   2812     1   109.8000471 387.438400
   2810   2809   2818     1   109.7800468 425.094400
   2810   2809   2811     1   108.4600466 328.025600
   2811   2809   2818     1   109.7800468 425.094400
   2813   2812   5858     1   109.7800468 425.094400
   2813   2812   2814     1   108.4600466 328.025600
   2814   2812   5858     1   109.7800468 425.094400
   2816   2815   5890     1   109.7800468 425.094400
   2816   2815   2817     1   108.4600466 328.025600
   2817   2815   5890     1   109.7800468 425.094400
   2820   2823   2824     1   109.8000471 387.438400
   2820   2823   2825     1   109.8000471 387.438400
   2821   2820   2823     1   109.5600471 388.275200
   2821   2820   2850     1   109.7800468 425.094400
   2821   2820   2822     1   108.4600466 328.025600
   2822   2820   2823     1   109.5600471 388.275200
   2822   2820   2850     1   109.7800468 425.094400
   2823   2826   2827     1   110.5600475 386.601600
   2823   2826   2828     1   110.5600475 386.601600
   2824   2823   2826     1   109.8000471 387.438400
   2824   2823   2825     1   107.5800459 329.699200
   2825   2823   2826     1   109.8000471 387.438400
   2826   2829   2851     1   110.1100470 384.091200
   2827   2826   2829     1   108.0100461 406.684800
   2827   2826   2828     1   109.7500473 328.025600
   2828   2826   2829     1   108.0100461 406.684800
   2829   2830   2831     1   108.0100461 406.684800
   2829   2830   2832     1   108.0100461 406.684800
   2829   2840   2841     1   108.0100461 406.684800
   2829   2840   2842     1   108.0100461 406.684800
   2830   2829   2851     1   110.1100470 384.091200
   2830   2833   2834     1   109.8000471 387.438400
   2830   2833   2835     1   109.8000471 387.438400
   2831   2830   2833     1   110.5600475 386.601600
   2831   2830   2832     1   109.7500473 328.025600
   2832   2830   2833     1   110.5600475 386.601600
   2834   2833   2836     1   108.7700466 392.459200
   2834   2833   2835     1   107.5800459 329.699200
   2835   2833   2836     1   108.7700466 392.459200
   2836   2838   2839     1   106.5500460 417.563200
   2840   2829   2851     1   110.1100470 384.091200
   2840   2843   2844     1   109.8000471 387.438400
   2840   2843   2845     1   109.8000471 387.438400
   2841   2840   2843     1   110.5600475 386.601600
   2841   2840   2842     1   109.7500473 328.025600
   2842   2840   2843     1   110.5600475 386.601600
   2844   2843   2846     1   108.7700466 392.459200
   2844   2843   2845     1   107.5800459 329.699200
   2845   2843   2846     1   108.7700466 392.459200
   2846   2848   2849     1   106.5500460 417.563200
   2852   2855   2856     1   109.8000471 387.438400
   2852   2855   2857     1   109.8000471 387.438400
   2853   2852   2855     1   109.5600471 388.275200
   2853   2852   2882     1   109.7800468 425.094400
   2853   2852   2854     1   108.4600466 328.025600
   2854   2852   2855     1   109.5600471 388.275200
   2854   2852   2882     1   109.7800468 425.094400
   2855   2858   2859     1   110.5600475 386.601600
   2855   2858   2860     1   110.5600475 386.601600
   2856   2855   2858     1   109.8000471 387.438400
   2856   2855   2857     1   107.5800459 329.699200
   2857   2855   2858     1   109.8000471 387.438400
   2858   2861   2883     1   110.1100470 384.091200
   2859   2858   2861     1   108.0100461 406.684800
   2859   2858   2860     1   109.7500473 328.025600
   2860   2858   2861     1   108.0100461 406.684800
   2861   2862   2863     1   108.0100461 406.684800
   2861   2862   2864     1   108.0100461 406.684800
   2861   2872   2873     1   108.0100461 406.684800
   2861   2872   2874     1   108.0100461 406.684800
   2862   2865   2866     1   109.8000471 387.438400
   2862   2865   2867     1   109.8000471 387.438400
   2862   2861   2883     1   110.1100470 384.091200
   2863   2862   2865     1   110.5600475 386.601600
   2863   2862   2864     1   109.7500473 328.025600
   2864   2862   2865     1   110.5600475 386.601600
   2866   2865   2868     1   108.7700466 392.459200
   2866   2865   2867     1   107.5800459 329.699200
   2867   2865   2868     1   108.7700466 392.459200
   2868   2870   2871     1   106.5500460 417.563200
   2872   2875   2876     1   109.8000471 387.438400
   2872   2875   2877     1   109.8000471 387.438400
   2872   2861   2883     1   110.1100470 384.091200
   2873   2872   2875     1   110.5600475 386.601600
   2873   2872   2874     1   109.7500473 328.025600
   2874   2872   2875     1   110.5600475 386.601600
   2876   2875   2878     1   108.7700466 392.459200
   2876   2875   2877     1   107.5800459 329.699200
   2877   2875   2878     1   108.7700466 392.459200
   2878   2880   2881     1   106.5500460 417.563200
   2884   2887   2888     1   109.8000471 387.438400
   2884   2887   2889     1   109.8000471 387.438400
   2885   2884   2887     1   109.5600471 388.275200
   2885   2884   2914     1   109.7800468 425.094400
   2885   2884   2886     1   108.4600466 328.025600
   2886   2884   2887     1   109.5600471 388.275200
   2886   2884   2914     1   109.7800468 425.094400
   2887   2890   2891     1   110.5600475 386.601600
   2887   2890   2892     1   110.5600475 386.601600
   2888   2887   2890     1   109.8000471 387.438400
   2888   2887   2889     1   107.5800459 329.699200
   2889   2887   2890     1   109.8000471 387.438400
   2890   2893   2915     1   110.1100470 384.091200
   2891   2890   2893     1   108.0100461 406.684800
   2891   2890   2892     1   109.7500473 328.025600
   2892   2890   2893     1   108.0100461 406.684800
   2893   2894   2895     1   108.0100461 406.684800
   2893   2894   2896     1   108.0100461 406.684800
   2893   2904   2905     1   108.0100461 406.684800
   2893   2904   2906     1   108.0100461 406.684800
   2894   2893   2915     1   110.1100470 384.091200
   2894   2897   2898     1   109.8000471 387.438400
   2894   2897   2899     1   109.8000471 387.438400
   2895   2894   2897     1   110.5600475 386.601600
   2895   2894   2896     1   109.7500473 328.025600
   2896   2894   2897     1   110.5600475 386.601600
   2898   2897   2900     1   108.7700466 392.459200
   2898   2897   2899     1   107.5800459 329.699200
   2899   2897   2900     1   108.7700466 392.459200
   2900   2902   2903     1   106.5500460 417.563200
   2904   2893   2915     1   110.1100470 384.091200
   2904   2907   2908     1   109.8000471 387.438400
   2904   2907   2909     1   109.8000471 387.438400
   2905   2904   2907     1   110.5600475 386.601600
   2905   2904   2906     1   109.7500473 328.025600
   2906   2904   2907     1   110.5600475 386.601600
   2908   2907   2910     1   108.7700466 392.459200
   2908   2907   2909     1   107.5800459 329.699200
   2909   2907   2910     1   108.7700466 392.459200
   2910   2912   2913     1   106.5500460 417.563200
   2916   2919   2920     1   109.8000471 387.438400
   2916   2919   2921     1   109.8000471 387.438400
   2917   2916   2919     1   109.5600471 388.275200
   2917   2916   2946     1   109.7800468 425.094400
   2917   2916   2918     1   108.4600466 328.025600
   2918   2916   2919     1   109.5600471 388.275200
   2918   2916   2946     1   109.7800468 425.094400
   2919   2922   2923     1   110.5600475 386.601600
   2919   2922   2924     1   110.5600475 386.601600
   2920   2919   2922     1   109.8000471 387.438400
   2920   2919   2921     1   107.5800459 329.699200
   2921   2919   2922     1   109.8000471 387.438400
   2922   2925   2947     1   110.1100470 384.091200
   2923   2922   2925     1   108.0100461 406.684800
   2923   2922   2924     1   109.7500473 328.025600
   2924   2922   2925     1   108.0100461 406.684800
   2925   2926   2927     1   108.0100461 406.684800
   2925   2926   2928     1   108.0100461 406.684800
   2925   2936   2937     1   108.0100461 406.684800
   2925   2936   2938     1   108.0100461 406.684800
   2926   2929   2930     1   109.8000471 387.438400
   2926   2929   2931     1   109.8000471 387.438400
   2926   2925   2947     1   110.1100470 384.091200
   2927   2926   2929     1   110.5600475 386.601600
   2927   2926   2928     1   109.7500473 328.025600
   2928   2926   2929     1   110.5600475 386.601600
   2930   2929   2932     1   108.7700466 392.459200
   2930   2929   2931     1   107.5800459 329.699200
   2931   2929   2932     1   108.7700466 392.459200
   2932   2934   2935     1   106.5500460 417.563200
   2936   2939   2940     1   109.8000471 387.438400
   2936   2939   2941     1   109.8000471 387.438400
   2936   2925   2947     1   110.1100470 384.091200
   2937   2936   2939     1   110.5600475 386.601600
   2937   2936   2938     1   109.7500473 328.025600
   2938   2936   2939     1   110.5600475 386.601600
   2940   2939   2942     1   108.7700466 392.459200
   2940   2939   2941     1   107.5800459 329.699200
   2941   2939   2942     1   108.7700466 392.459200
   2942   2944   2945     1   106.5500460 417.563200
   2948   2951   2952     1   109.8000471 387.438400
   2948   2951   2953     1   109.8000471 387.438400
   2949   2948   2951     1   109.5600471 388.275200
   2949   2948   2978     1   109.7800468 425.094400
   2949   2948   2950     1   108.4600466 328.025600
   2950   2948   2951     1   109.5600471 388.275200
   2950   2948   2978     1   109.7800468 425.094400
   2951   2954   2955     1   110.5600475 386.601600
   2951   2954   2956     1   110.5600475 386.601600
   2952   2951   2954     1   109.8000471 387.438400
   2952   2951   2953     1   107.5800459 329.699200
   2953   2951   2954     1   109.8000471 387.438400
   2954   2957   2979     1   110.1100470 384.091200
   2955   2954   2957     1   108.0100461 406.684800
   2955   2954   2956     1   109.7500473 328.025600
   2956   2954   2957     1   108.0100461 406.684800
   2957   2958   2959     1   108.0100461 406.684800
   2957   2958   2960     1   108.0100461 406.684800
   2957   2968   2969     1   108.0100461 406.684800
   2957   2968   2970     1   108.0100461 406.684800
   2958   2957   2979     1   110.1100470 384.091200
   2958   2961   2962     1   109.8000471 387.438400
   2958   2961   2963     1   109.8000471 387.438400
   2959   2958   2961     1   110.5600475 386.601600
   2959   2958   2960     1   109.7500473 328.025600
   2960   2958   2961     1   110.5600475 386.601600
   2962   2961   2964     1   108.7700466 392.459200
   2962   2961   2963     1   107.5800459 329.699200
   2963   2961   2964     1   108.7700466 392.459200
   2964   2966   2967     1   106.5500460 417.563200
   2968   2957   2979     1   110.1100470 384.091200
   2968   2971   2972     1   109.8000471 387.438400
   2968   2971   2973     1   109.8000471 387.438400
   2969   2968   2971     1   110.5600475 386.601600
   2969   2968   2970     1   109.7500473 328.025600
   2970   2968   2971     1   110.5600475 386.601600
   2972   2971   2974     1   108.7700466 392.459200
   2972   2971   2973     1   107.5800459 329.699200
   2973   2971   2974     1   108.7700466 392.459200
   2974   2976   2977     1   106.5500460 417.563200
   2980   2983   2984     1   109.8000471 387.438400
   2980   2983   2985     1   109.8000471 387.438400
   2981   2980   2983     1   109.5600471 388.275200
   2981   2980   3010     1   109.7800468 425.094400
   2981   2980   2982     1   108.4600466 328.025600
   2982   2980   2983     1   109.5600471 388.275200
   2982   2980   3010     1   109.7800468 425.094400
   2983   2986   2987     1   110.5600475 386.601600
   2983   2986   2988     1   110.5600475 386.601600
   2984   2983   2986     1   109.8000471 387.438400
   2984   2983   2985     1   107.5800459 329.699200
   2985   2983   2986     1   109.8000471 387.438400
   2986   2989   3011     1   110.1100470 384.091200
   2987   2986   2989     1   108.0100461 406.684800
   2987   2986   2988     1   109.7500473 328.025600
   2988   2986   2989     1   108.0100461 406.684800
   2989   2990   2991     1   108.0100461 406.684800
   2989   2990   2992     1   108.0100461 406.684800
   2989   3000   3001     1   108.0100461 406.684800
   2989   3000   3002     1   108.0100461 406.684800
   2990   2993   2994     1   109.8000471 387.438400
   2990   2993   2995     1   109.8000471 387.438400
   2990   2989   3011     1   110.1100470 384.091200
   2991   2990   2993     1   110.5600475 386.601600
   2991   2990   2992     1   109.7500473 328.025600
   2992   2990   2993     1   110.5600475 386.601600
   2994   2993   2996     1   108.7700466 392.459200
   2994   2993   2995     1   107.5800459 329.699200
   2995   2993   2996     1   108.7700466 392.459200
   2996   2998   2999     1   106.5500460 417.563200
   3000   3003   3004     1   109.8000471 387.438400
   3000   3003   3005     1   109.8000471 387.438400
   3000   2989   3011     1   110.1100470 384.091200
   3001   3000   3003     1   110.5600475 386.601600
   3001   3000   3002     1   109.7500473 328.025600
   3002   3000   3003     1   110.5600475 386.601600
   3004   3003   3006     1   108.7700466 392.459200
   3004   3003   3005     1   107.5800459 329.699200
   3005   3003   3006     1   108.7700466 392.459200
   3006   3008   3009     1   106.5500460 417.563200
   3012   3015   3016     1   109.8000471 387.438400
   3012   3015   3017     1   109.8000471 387.438400
   3013   3012   3015     1   109.5600471 388.275200
   3013   3012   3042     1   109.7800468 425.094400
   3013   3012   3014     1   108.4600466 328.025600
   3014   3012   3015     1   109.5600471 388.275200
   3014   3012   3042     1   109.7800468 425.094400
   3015   3018   3019     1   110.5600475 386.601600
   3015   3018   3020     1   110.5600475 386.601600
   3016   3015   3018     1   109.8000471 387.438400
   3016   3015   3017     1   107.5800459 329.699200
   3017   3015   3018     1   109.8000471 387.438400
   3018   3021   3043     1   110.1100470 384.091200
   3019   3018   3021     1   108.0100461 406.684800
   3019   3018   3020     1   109.7500473 328.025600
   3020   3018   3021     1   108.0100461 406.684800
   3021   3022   3023     1   108.0100461 406.684800
   3021   3022   3024     1   108.0100461 406.684800
   3021   3032   3033     1   108.0100461 406.684800
   3021   3032   3034     1   108.0100461 406.684800
   3022   3021   3043     1   110.1100470 384.091200
   3022   3025   3026     1   109.8000471 387.438400
   3022   3025   3027     1   109.8000471 387.438400
   3023   3022   3025     1   110.5600475 386.601600
   3023   3022   3024     1   109.7500473 328.025600
   3024   3022   3025     1   110.5600475 386.601600
   3026   3025   3028     1   108.7700466 392.459200
   3026   3025   3027     1   107.5800459 329.699200
   3027   3025   3028     1   108.7700466 392.459200
   3028   3030   3031     1   106.5500460 417.563200
   3032   3021   3043     1   110.1100470 384.091200
   3032   3035   3036     1   109.8000471 387.438400
   3032   3035   3037     1   109.8000471 387.438400
   3033   3032   3035     1   110.5600475 386.601600
   3033   3032   3034     1   109.7500473 328.025600
   3034   3032   3035     1   110.5600475 386.601600
   3036   3035   3038     1   108.7700466 392.459200
   3036   3035   3037     1   107.5800459 329.699200
   3037   3035   3038     1   108.7700466 392.459200
   3038   3040   3041     1   106.5500460 417.563200
   3044   3047   3048     1   109.8000471 387.438400
   3044   3047   3049     1   109.8000471 387.438400
   3045   3044   3047     1   109.5600471 388.275200
   3045   3044   3074     1   109.7800468 425.094400
   3045   3044   3046     1   108.4600466 328.025600
   3046   3044   3047     1   109.5600471 388.275200
   3046   3044   3074     1   109.7800468 425.094400
   3047   3050   3051     1   110.5600475 386.601600
   3047   3050   3052     1   110.5600475 386.601600
   3048   3047   3050     1   109.8000471 387.438400
   3048   3047   3049     1   107.5800459 329.699200
   3049   3047   3050     1   109.8000471 387.438400
   3050   3053   3075     1   110.1100470 384.091200
   3051   3050   3053     1   108.0100461 406.684800
   3051   3050   3052     1   109.7500473 328.025600
   3052   3050   3053     1   108.0100461 406.684800
   3053   3054   3055     1   108.0100461 406.684800
   3053   3054   3056     1   108.0100461 406.684800
   3053   3064   3065     1   108.0100461 406.684800
   3053   3064   3066     1   108.0100461 406.684800
   3054   3057   3058     1   109.8000471 387.438400
   3054   3057   3059     1   109.8000471 387.438400
   3054   3053   3075     1   110.1100470 384.091200
   3055   3054   3057     1   110.5600475 386.601600
   3055   3054   3056     1   109.7500473 328.025600
   3056   3054   3057     1   110.5600475 386.601600
   3058   3057   3060     1   108.7700466 392.459200
   3058   3057   3059     1   107.5800459 329.699200
   3059   3057   3060     1   108.7700466 392.459200
   3060   3062   3063     1   106.5500460 417.563200
   3064   3067   3068     1   109.8000471 387.438400
   3064   3067   3069     1   109.8000471 387.438400
   3064   3053   3075     1   110.1100470 384.091200
   3065   3064   3067     1   110.5600475 386.601600
   3065   3064   3066     1   109.7500473 328.025600
   3066   3064   3067     1   110.5600475 386.601600
   3068   3067   3070     1   108.7700466 392.459200
   3068   3067   3069     1   107.5800459 329.699200
   3069   3067   3070     1   108.7700466 392.459200
   3070   3072   3073     1   106.5500460 417.563200
   3076   3079   3080     1   109.8000471 387.438400
   3076   3079   3081     1   109.8000471 387.438400
   3077   3076   3079     1   109.5600471 388.275200
   3077   3076   3106     1   109.7800468 425.094400
   3077   3076   3078     1   108.4600466 328.025600
   3078   3076   3079     1   109.5600471 388.275200
   3078   3076   3106     1   109.7800468 425.094400
   3079   3082   3083     1   110.5600475 386.601600
   3079   3082   3084     1   110.5600475 386.601600
   3080   3079   3082     1   109.8000471 387.438400
   3080   3079   3081     1   107.5800459 329.699200
   3081   3079   3082     1   109.8000471 387.438400
   3082   3085   3107     1   110.1100470 384.091200
   3083   3082   3085     1   108.0100461 406.684800
   3083   3082   3084     1   109.7500473 328.025600
   3084   3082   3085     1   108.0100461 406.684800
   3085   3086   3087     1   108.0100461 406.684800
   3085   3086   3088     1   108.0100461 406.684800
   3085   3096   3097     1   108.0100461 406.684800
   3085   3096   3098     1   108.0100461 406.684800
   3086   3085   3107     1   110.1100470 384.091200
   3086   3089   3090     1   109.8000471 387.438400
   3086   3089   3091     1   109.8000471 387.438400
   3087   3086   3089     1   110.5600475 386.601600
   3087   3086   3088     1   109.7500473 328.025600
   3088   3086   3089     1   110.5600475 386.601600
   3090   3089   3092     1   108.7700466 392.459200
   3090   3089   3091     1   107.5800459 329.699200
   3091   3089   3092     1   108.7700466 392.459200
   3092   3094   3095     1   106.5500460 417.563200
   3096   3085   3107     1   110.1100470 384.091200
   3096   3099   3100     1   109.8000471 387.438400
   3096   3099   3101     1   109.8000471 387.438400
   3097   3096   3099     1   110.5600475 386.601600
   3097   3096   3098     1   109.7500473 328.025600
   3098   3096   3099     1   110.5600475 386.601600
   3100   3099   3102     1   108.7700466 392.459200
   3100   3099   3101     1   107.5800459 329.699200
   3101   3099   3102     1   108.7700466 392.459200
   3102   3104   3105     1   106.5500460 417.563200
   3108   3111   3112     1   109.8000471 387.438400
   3108   3111   3113     1   109.8000471 387.438400
   3109   3108   3111     1   109.5600471 388.275200
   3109   3108   3138     1   109.7800468 425.094400
   3109   3108   3110     1   108.4600466 328.025600
   3110   3108   3111     1   109.5600471 388.275200
   3110   3108   3138     1   109.7800468 425.094400
   3111   3114   3115     1   110.5600475 386.601600
   3111   3114   3116     1   110.5600475 386.601600
   3112   3111   3114     1   109.8000471 387.438400
   3112   3111   3113     1   107.5800459 329.699200
   3113   3111   3114     1   109.8000471 387.438400
   3114   3117   3139     1   110.1100470 384.091200
   3115   3114   3117     1   108.0100461 406.684800
   3115   3114   3116     1   109.7500473 328.025600
   3116   3114   3117     1   108.0100461 406.684800
   3117   3118   3119     1   108.0100461 406.684800
   3117   3118   3120     1   108.0100461 406.684800
   3117   3128   3129     1   108.0100461 406.684800
   3117   3128   3130     1   108.0100461 406.684800
   3118   3121   3122     1   109.8000471 387.438400
   3118   3121   3123     1   109.8000471 387.438400
   3118   3117   3139     1   110.1100470 384.091200
   3119   3118   3121     1   110.5600475 386.601600
   3119   3118   3120     1   109.7500473 328.025600
   3120   3118   3121     1   110.5600475 386.601600
   3122   3121   3124     1   108.7700466 392.459200
   3122   3121   3123     1   107.5800459 329.699200
   3123   3121   3124     1   108.7700466 392.459200
   3124   3126   3127     1   106.5500460 417.563200
   3128   3131   3132     1   109.8000471 387.438400
   3128   3131   3133     1   109.8000471 387.438400
   3128   3117   3139     1   110.1100470 384.091200
   3129   3128   3131     1   110.5600475 386.601600
   3129   3128   3130     1   109.7500473 328.025600
   3130   3128   3131     1   110.5600475 386.601600
   3132   3131   3134     1   108.7700466 392.459200
   3132   3131   3133     1   107.5800459 329.699200
   3133   3131   3134     1   108.7700466 392.459200
   3134   3136   3137     1   106.5500460 417.563200
   3140   3143   3144     1   109.8000471 387.438400
   3140   3143   3145     1   109.8000471 387.438400
   3141   3140   3143     1   109.5600471 388.275200
   3141   3140   3170     1   109.7800468 425.094400
   3141   3140   3142     1   108.4600466 328.025600
   3142   3140   3143     1   109.5600471 388.275200
   3142   3140   3170     1   109.7800468 425.094400
   3143   3146   3147     1   110.5600475 386.601600
   3143   3146   3148     1   110.5600475 386.601600
   3144   3143   3146     1   109.8000471 387.438400
   3144   3143   3145     1   107.5800459 329.699200
   3145   3143   3146     1   109.8000471 387.438400
   3146   3149   3171     1   110.1100470 384.091200
   3147   3146   3149     1   108.0100461 406.684800
   3147   3146   3148     1   109.7500473 328.025600
   3148   3146   3149     1   108.0100461 406.684800
   3149   3150   3151     1   108.0100461 406.684800
   3149   3150   3152     1   108.0100461 406.684800
   3149   3160   3161     1   108.0100461 406.684800
   3149   3160   3162     1   108.0100461 406.684800
   3150   3149   3171     1   110.1100470 384.091200
   3150   3153   3154     1   109.8000471 387.438400
   3150   3153   3155     1   109.8000471 387.438400
   3151   3150   3153     1   110.5600475 386.601600
   3151   3150   3152     1   109.7500473 328.025600
   3152   3150   3153     1   110.5600475 386.601600
   3154   3153   3156     1   108.7700466 392.459200
   3154   3153   3155     1   107.5800459 329.699200
   3155   3153   3156     1   108.7700466 392.459200
   3156   3158   3159     1   106.5500460 417.563200
   3160   3149   3171     1   110.1100470 384.091200
   3160   3163   3164     1   109.8000471 387.438400
   3160   3163   3165     1   109.8000471 387.438400
   3161   3160   3163     1   110.5600475 386.601600
   3161   3160   3162     1   109.7500473 328.025600
   3162   3160   3163     1   110.5600475 386.601600
   3164   3163   3166     1   108.7700466 392.459200
   3164   3163   3165     1   107.5800459 329.699200
   3165   3163   3166     1   108.7700466 392.459200
   3166   3168   3169     1   106.5500460 417.563200
   3172   3175   3176     1   109.8000471 387.438400
   3172   3175   3177     1   109.8000471 387.438400
   3173   3172   3175     1   109.5600471 388.275200
   3173   3172   3202     1   109.7800468 425.094400
   3173   3172   3174     1   108.4600466 328.025600
   3174   3172   3175     1   109.5600471 388.275200
   3174   3172   3202     1   109.7800468 425.094400
   3175   3178   3179     1   110.5600475 386.601600
   3175   3178   3180     1   110.5600475 386.601600
   3176   3175   3178     1   109.8000471 387.438400
   3176   3175   3177     1   107.5800459 329.699200
   3177   3175   3178     1   109.8000471 387.438400
   3178   3181   3203     1   110.1100470 384.091200
   3179   3178   3181     1   108.0100461 406.684800
   3179   3178   3180     1   109.7500473 328.025600
   3180   3178   3181     1   108.0100461 406.684800
   3181   3182   3183     1   108.0100461 406.684800
   3181   3182   3184     1   108.0100461 406.684800
   3181   3192   3193     1   108.0100461 406.684800
   3181   3192   3194     1   108.0100461 406.684800
   3182   3185   3186     1   109.8000471 387.438400
   3182   3185   3187     1   109.8000471 387.438400
   3182   3181   3203     1   110.1100470 384.091200
   3183   3182   3185     1   110.5600475 386.601600
   3183   3182   3184     1   109.7500473 328.025600
   3184   3182   3185     1   110.5600475 386.601600
   3186   3185   3188     1   108.7700466 392.459200
   3186   3185   3187     1   107.5800459 329.699200
   3187   3185   3188     1   108.7700466 392.459200
   3188   3190   3191     1   106.5500460 417.563200
   3192   3195   3196     1   109.8000471 387.438400
   3192   3195   3197     1   109.8000471 387.438400
   3192   3181   3203     1   110.1100470 384.091200
   3193   3192   3195     1   110.5600475 386.601600
   3193   3192   3194     1   109.7500473 328.025600
   3194   3192   3195     1   110.5600475 386.601600
   3196   3195   3198     1   108.7700466 392.459200
   3196   3195   3197     1   107.5800459 329.699200
   3197   3195   3198     1   108.7700466 392.459200
   3198   3200   3201     1   106.5500460 417.563200
   3204   3207   3208     1   109.8000471 387.438400
   3204   3207   3209     1   109.8000471 387.438400
   3205   3204   3207     1   109.5600471 388.275200
   3205   3204   3234     1   109.7800468 425.094400
   3205   3204   3206     1   108.4600466 328.025600
   3206   3204   3207     1   109.5600471 388.275200
   3206   3204   3234     1   109.7800468 425.094400
   3207   3210   3211     1   110.5600475 386.601600
   3207   3210   3212     1   110.5600475 386.601600
   3208   3207   3210     1   109.8000471 387.438400
   3208   3207   3209     1   107.5800459 329.699200
   3209   3207   3210     1   109.8000471 387.438400
   3210   3213   3235     1   110.1100470 384.091200
   3211   3210   3213     1   108.0100461 406.684800
   3211   3210   3212     1   109.7500473 328.025600
   3212   3210   3213     1   108.0100461 406.684800
   3213   3214   3215     1   108.0100461 406.684800
   3213   3214   3216     1   108.0100461 406.684800
   3213   3224   3225     1   108.0100461 406.684800
   3213   3224   3226     1   108.0100461 406.684800
   3214   3213   3235     1   110.1100470 384.091200
   3214   3217   3218     1   109.8000471 387.438400
   3214   3217   3219     1   109.8000471 387.438400
   3215   3214   3217     1   110.5600475 386.601600
   3215   3214   3216     1   109.7500473 328.025600
   3216   3214   3217     1   110.5600475 386.601600
   3218   3217   3220     1   108.7700466 392.459200
   3218   3217   3219     1   107.5800459 329.699200
   3219   3217   3220     1   108.7700466 392.459200
   3220   3222   3223     1   106.5500460 417.563200
   3224   3213   3235     1   110.1100470 384.091200
   3224   3227   3228     1   109.8000471 387.438400
   3224   3227   3229     1   109.8000471 387.438400
   3225   3224   3227     1   110.5600475 386.601600
   3225   3224   3226     1   109.7500473 328.025600
   3226   3224   3227     1   110.5600475 386.601600
   3228   3227   3230     1   108.7700466 392.459200
   3228   3227   3229     1   107.5800459 329.699200
   3229   3227   3230     1   108.7700466 392.459200
   3230   3232   3233     1   106.5500460 417.563200
   3236   3239   3240     1   109.8000471 387.438400
   3236   3239   3241     1   109.8000471 387.438400
   3237   3236   3239     1   109.5600471 388.275200
   3237   3236   3266     1   109.7800468 425.094400
   3237   3236   3238     1   108.4600466 328.025600
   3238   3236   3239     1   109.5600471 388.275200
   3238   3236   3266     1   109.7800468 425.094400
   3239   3242   3243     1   110.5600475 386.601600
   3239   3242   3244     1   110.5600475 386.601600
   3240   3239   3242     1   109.8000471 387.438400
   3240   3239   3241     1   107.5800459 329.699200
   3241   3239   3242     1   109.8000471 387.438400
   3242   3245   3267     1   110.1100470 384.091200
   3243   3242   3245     1   108.0100461 406.684800
   3243   3242   3244     1   109.7500473 328.025600
   3244   3242   3245     1   108.0100461 406.684800
   3245   3246   3247     1   108.0100461 406.684800
   3245   3246   3248     1   108.0100461 406.684800
   3245   3256   3257     1   108.0100461 406.684800
   3245   3256   3258     1   108.0100461 406.684800
   3246   3249   3250     1   109.8000471 387.438400
   3246   3249   3251     1   109.8000471 387.438400
   3246   3245   3267     1   110.1100470 384.091200
   3247   3246   3249     1   110.5600475 386.601600
   3247   3246   3248     1   109.7500473 328.025600
   3248   3246   3249     1   110.5600475 386.601600
   3250   3249   3252     1   108.7700466 392.459200
   3250   3249   3251     1   107.5800459 329.699200
   3251   3249   3252     1   108.7700466 392.459200
   3252   3254   3255     1   106.5500460 417.563200
   3256   3259   3260     1   109.8000471 387.438400
   3256   3259   3261     1   109.8000471 387.438400
   3256   3245   3267     1   110.1100470 384.091200
   3257   3256   3259     1   110.5600475 386.601600
   3257   3256   3258     1   109.7500473 328.025600
   3258   3256   3259     1   110.5600475 386.601600
   3260   3259   3262     1   108.7700466 392.459200
   3260   3259   3261     1   107.5800459 329.699200
   3261   3259   3262     1   108.7700466 392.459200
   3262   3264   3265     1   106.5500460 417.563200
   3268   3271   3272     1   109.8000471 387.438400
   3268   3271   3273     1   109.8000471 387.438400
   3269   3268   3271     1   109.5600471 388.275200
   3269   3268   3298     1   109.7800468 425.094400
   3269   3268   3270     1   108.4600466 328.025600
   3270   3268   3271     1   109.5600471 388.275200
   3270   3268   3298     1   109.7800468 425.094400
   3271   3274   3275     1   110.5600475 386.601600
   3271   3274   3276     1   110.5600475 386.601600
   3272   3271   3274     1   109.8000471 387.438400
   3272   3271   3273     1   107.5800459 329.699200
   3273   3271   3274     1   109.8000471 387.438400
   3274   3277   3299     1   110.1100470 384.091200
   3275   3274   3277     1   108.0100461 406.684800
   3275   3274   3276     1   109.7500473 328.025600
   3276   3274   3277     1   108.0100461 406.684800
   3277   3278   3279     1   108.0100461 406.684800
   3277   3278   3280     1   108.0100461 406.684800
   3277   3288   3289     1   108.0100461 406.684800
   3277   3288   3290     1   108.0100461 406.684800
   3278   3277   3299     1   110.1100470 384.091200
   3278   3281   3282     1   109.8000471 387.438400
   3278   3281   3283     1   109.8000471 387.438400
   3279   3278   3281     1   110.5600475 386.601600
   3279   3278   3280     1   109.7500473 328.025600
   3280   3278   3281     1   110.5600475 386.601600
   3282   3281   3284     1   108.7700466 392.459200
   3282   3281   3283     1   107.5800459 329.699200
   3283   3281   3284     1   108.7700466 392.459200
   3284   3286   3287     1   106.5500460 417.563200
   3288   3277   3299     1   110.1100470 384.091200
   3288   3291   3292     1   109.8000471 387.438400
   3288   3291   3293     1   109.8000471 387.438400
   3289   3288   3291     1   110.5600475 386.601600
   3289   3288   3290     1   109.7500473 328.025600
   3290   3288   3291     1   110.5600475 386.601600
   3292   3291   3294     1   108.7700466 392.459200
   3292   3291   3293     1   107.5800459 329.699200
   3293   3291   3294     1   108.7700466 392.459200
   3294   3296   3297     1   106.5500460 417.563200
   3300   3303   3304     1   109.8000471 387.438400
   3300   3303   3305     1   109.8000471 387.438400
   3301   3300   3303     1   109.5600471 388.275200
   3301   3300   3330     1   109.7800468 425.094400
   3301   3300   3302     1   108.4600466 328.025600
   3302   3300   3303     1   109.5600471 388.275200
   3302   3300   3330     1   109.7800468 425.094400
   3303   3306   3307     1   110.5600475 386.601600
   3303   3306   3308     1   110.5600475 386.601600
   3304   3303   3306     1   109.8000471 387.438400
   3304   3303   3305     1   107.5800459 329.699200
   3305   3303   3306     1   109.8000471 387.438400
   3306   3309   3331     1   110.1100470 384.091200
   3307   3306   3309     1   108.0100461 406.684800
   3307   3306   3308     1   109.7500473 328.025600
   3308   3306   3309     1   108.0100461 406.684800
   3309   3310   3311     1   108.0100461 406.684800
   3309   3310   3312     1   108.0100461 406.684800
   3309   3320   3321     1   108.0100461 406.684800
   3309   3320   3322     1   108.0100461 406.684800
   3310   3313   3314     1   109.8000471 387.438400
   3310   3313   3315     1   109.8000471 387.438400
   3310   3309   3331     1   110.1100470 384.091200
   3311   3310   3313     1   110.5600475 386.601600
   3311   3310   3312     1   109.7500473 328.025600
   3312   3310   3313     1   110.5600475 386.601600
   3314   3313   3316     1   108.7700466 392.459200
   3314   3313   3315     1   107.5800459 329.699200
   3315   3313   3316     1   108.7700466 392.459200
   3316   3318   3319     1   106.5500460 417.563200
   3320   3323   3324     1   109.8000471 387.438400
   3320   3323   3325     1   109.8000471 387.438400
   3320   3309   3331     1   110.1100470 384.091200
   3321   3320   3323     1   110.5600475 386.601600
   3321   3320   3322     1   109.7500473 328.025600
   3322   3320   3323     1   110.5600475 386.601600
   3324   3323   3326     1   108.7700466 392.459200
   3324   3323   3325     1   107.5800459 329.699200
   3325   3323   3326     1   108.7700466 392.459200
   3326   3328   3329     1   106.5500460 417.563200
   3332   3335   3336     1   109.8000471 387.438400
   3332   3335   3337     1   109.8000471 387.438400
   3333   3332   3335     1   109.5600471 388.275200
   3333   3332   3362     1   109.7800468 425.094400
   3333   3332   3334     1   108.4600466 328.025600
   3334   3332   3335     1   109.5600471 388.275200
   3334   3332   3362     1   109.7800468 425.094400
   3335   3338   3339     1   110.5600475 386.601600
   3335   3338   3340     1   110.5600475 386.601600
   3336   3335   3338     1   109.8000471 387.438400
   3336   3335   3337     1   107.5800459 329.699200
   3337   3335   3338     1   109.8000471 387.438400
   3338   3341   3363     1   110.1100470 384.091200
   3339   3338   3341     1   108.0100461 406.684800
   3339   3338   3340     1   109.7500473 328.025600
   3340   3338   3341     1   108.0100461 406.684800
   3341   3342   3343     1   108.0100461 406.684800
   3341   3342   3344     1   108.0100461 406.684800
   3341   3352   3353     1   108.0100461 406.684800
   3341   3352   3354     1   108.0100461 406.684800
   3342   3341   3363     1   110.1100470 384.091200
   3342   3345   3346     1   109.8000471 387.438400
   3342   3345   3347     1   109.8000471 387.438400
   3343   3342   3345     1   110.5600475 386.601600
   3343   3342   3344     1   109.7500473 328.025600
   3344   3342   3345     1   110.5600475 386.601600
   3346   3345   3348     1   108.7700466 392.459200
   3346   3345   3347     1   107.5800459 329.699200
   3347   3345   3348     1   108.7700466 392.459200
   3348   3350   3351     1   106.5500460 417.563200
   3352   3341   3363     1   110.1100470 384.091200
   3352   3355   3356     1   109.8000471 387.438400
   3352   3355   3357     1   109.8000471 387.438400
   3353   3352   3355     1   110.5600475 386.601600
   3353   3352   3354     1   109.7500473 328.025600
   3354   3352   3355     1   110.5600475 386.601600
   3356   3355   3358     1   108.7700466 392.459200
   3356   3355   3357     1   107.5800459 329.699200
   3357   3355   3358     1   108.7700466 392.459200
   3358   3360   3361     1   106.5500460 417.563200
   3364   3367   3368     1   109.8000471 387.438400
   3364   3367   3369     1   109.8000471 387.438400
   3365   3364   3367     1   109.5600471 388.275200
   3365   3364   3394     1   109.7800468 425.094400
   3365   3364   3366     1   108.4600466 328.025600
   3366   3364   3367     1   109.5600471 388.275200
   3366   3364   3394     1   109.7800468 425.094400
   3367   3370   3371     1   110.5600475 386.601600
   3367   3370   3372     1   110.5600475 386.601600
   3368   3367   3370     1   109.8000471 387.438400
   3368   3367   3369     1   107.5800459 329.699200
   3369   3367   3370     1   109.8000471 387.438400
   3370   3373   3395     1   110.1100470 384.091200
   3371   3370   3373     1   108.0100461 406.684800
   3371   3370   3372     1   109.7500473 328.025600
   3372   3370   3373     1   108.0100461 406.684800
   3373   3374   3375     1   108.0100461 406.684800
   3373   3374   3376     1   108.0100461 406.684800
   3373   3384   3385     1   108.0100461 406.684800
   3373   3384   3386     1   108.0100461 406.684800
   3374   3377   3378     1   109.8000471 387.438400
   3374   3377   3379     1   109.8000471 387.438400
   3374   3373   3395     1   110.1100470 384.091200
   3375   3374   3377     1   110.5600475 386.601600
   3375   3374   3376     1   109.7500473 328.025600
   3376   3374   3377     1   110.5600475 386.601600
   3378   3377   3380     1   108.7700466 392.459200
   3378   3377   3379     1   107.5800459 329.699200
   3379   3377   3380     1   108.7700466 392.459200
   3380   3382   3383     1   106.5500460 417.563200
   3384   3387   3388     1   109.8000471 387.438400
   3384   3387   3389     1   109.8000471 387.438400
   3384   3373   3395     1   110.1100470 384.091200
   3385   3384   3387     1   110.5600475 386.601600
   3385   3384   3386     1   109.7500473 328.025600
   3386   3384   3387     1   110.5600475 386.601600
   3388   3387   3390     1   108.7700466 392.459200
   3388   3387   3389     1   107.5800459 329.699200
   3389   3387   3390     1   108.7700466 392.459200
   3390   3392   3393     1   106.5500460 417.563200
   3396   3399   3400     1   109.8000471 387.438400
   3396   3399   3401     1   109.8000471 387.438400
   3397   3396   3399     1   109.5600471 388.275200
   3397   3396   3426     1   109.7800468 425.094400
   3397   3396   3398     1   108.4600466 328.025600
   3398   3396   3399     1   109.5600471 388.275200
   3398   3396   3426     1   109.7800468 425.094400
   3399   3402   3403     1   110.5600475 386.601600
   3399   3402   3404     1   110.5600475 386.601600
   3400   3399   3402     1   109.8000471 387.438400
   3400   3399   3401     1   107.5800459 329.699200
   3401   3399   3402     1   109.8000471 387.438400
   3402   3405   3427     1   110.1100470 384.091200
   3403   3402   3405     1   108.0100461 406.684800
   3403   3402   3404     1   109.7500473 328.025600
   3404   3402   3405     1   108.0100461 406.684800
   3405   3406   3407     1   108.0100461 406.684800
   3405   3406   3408     1   108.0100461 406.684800
   3405   3416   3417     1   108.0100461 406.684800
   3405   3416   3418     1   108.0100461 406.684800
   3406   3405   3427     1   110.1100470 384.091200
   3406   3409   3410     1   109.8000471 387.438400
   3406   3409   3411     1   109.8000471 387.438400
   3407   3406   3409     1   110.5600475 386.601600
   3407   3406   3408     1   109.7500473 328.025600
   3408   3406   3409     1   110.5600475 386.601600
   3410   3409   3412     1   108.7700466 392.459200
   3410   3409   3411     1   107.5800459 329.699200
   3411   3409   3412     1   108.7700466 392.459200
   3412   3414   3415     1   106.5500460 417.563200
   3416   3405   3427     1   110.1100470 384.091200
   3416   3419   3420     1   109.8000471 387.438400
   3416   3419   3421     1   109.8000471 387.438400
   3417   3416   3419     1   110.5600475 386.601600
   3417   3416   3418     1   109.7500473 328.025600
   3418   3416   3419     1   110.5600475 386.601600
   3420   3419   3422     1   108.7700466 392.459200
   3420   3419   3421     1   107.5800459 329.699200
   3421   3419   3422     1   108.7700466 392.459200
   3422   3424   3425     1   106.5500460 417.563200
   3428   3431   3432     1   109.8000471 387.438400
   3428   3431   3433     1   109.8000471 387.438400
   3429   3428   3431     1   109.5600471 388.275200
   3429   3428   3458     1   109.7800468 425.094400
   3429   3428   3430     1   108.4600466 328.025600
   3430   3428   3431     1   109.5600471 388.275200
   3430   3428   3458     1   109.7800468 425.094400
   3431   3434   3435     1   110.5600475 386.601600
   3431   3434   3436     1   110.5600475 386.601600
   3432   3431   3434     1   109.8000471 387.438400
   3432   3431   3433     1   107.5800459 329.699200
   3433   3431   3434     1   109.8000471 387.438400
   3434   3437   3459     1   110.1100470 384.091200
   3435   3434   3437     1   108.0100461 406.684800
   3435   3434   3436     1   109.7500473 328.025600
   3436   3434   3437     1   108.0100461 406.684800
   3437   3438   3439     1   108.0100461 406.684800
   3437   3438   3440     1   108.0100461 406.684800
   3437   3448   3449     1   108.0100461 406.684800
   3437   3448   3450     1   108.0100461 406.684800
   3438   3441   3442     1   109.8000471 387.438400
   3438   3441   3443     1   109.8000471 387.438400
   3438   3437   3459     1   110.1100470 384.091200
   3439   3438   3441     1   110.5600475 386.601600
   3439   3438   3440     1   109.7500473 328.025600
   3440   3438   3441     1   110.5600475 386.601600
   3442   3441   3444     1   108.7700466 392.459200
   3442   3441   3443     1   107.5800459 329.699200
   3443   3441   3444     1   108.7700466 392.459200
   3444   3446   3447     1   106.5500460 417.563200
   3448   3451   3452     1   109.8000471 387.438400
   3448   3451   3453     1   109.8000471 387.438400
   3448   3437   3459     1   110.1100470 384.091200
   3449   3448   3451     1   110.5600475 386.601600
   3449   3448   3450     1   109.7500473 328.025600
   3450   3448   3451     1   110.5600475 386.601600
   3452   3451   3454     1   108.7700466 392.459200
   3452   3451   3453     1   107.5800459 329.699200
   3453   3451   3454     1   108.7700466 392.459200
   3454   3456   3457     1   106.5500460 417.563200
   3460   3463   3464     1   109.8000471 387.438400
   3460   3463   3465     1   109.8000471 387.438400
   3461   3460   3463     1   109.5600471 388.275200
   3461   3460   3490     1   109.7800468 425.094400
   3461   3460   3462     1   108.4600466 328.025600
   3462   3460   3463     1   109.5600471 388.275200
   3462   3460   3490     1   109.7800468 425.094400
   3463   3466   3467     1   110.5600475 386.601600
   3463   3466   3468     1   110.5600475 386.601600
   3464   3463   3466     1   109.8000471 387.438400
   3464   3463   3465     1   107.5800459 329.699200
   3465   3463   3466     1   109.8000471 387.438400
   3466   3469   3491     1   110.1100470 384.091200
   3467   3466   3469     1   108.0100461 406.684800
   3467   3466   3468     1   109.7500473 328.025600
   3468   3466   3469     1   108.0100461 406.684800
   3469   3470   3471     1   108.0100461 406.684800
   3469   3470   3472     1   108.0100461 406.684800
   3469   3480   3481     1   108.0100461 406.684800
   3469   3480   3482     1   108.0100461 406.684800
   3470   3469   3491     1   110.1100470 384.091200
   3470   3473   3474     1   109.8000471 387.438400
   3470   3473   3475     1   109.8000471 387.438400
   3471   3470   3473     1   110.5600475 386.601600
   3471   3470   3472     1   109.7500473 328.025600
   3472   3470   3473     1   110.5600475 386.601600
   3474   3473   3476     1   108.7700466 392.459200
   3474   3473   3475     1   107.5800459 329.699200
   3475   3473   3476     1   108.7700466 392.459200
   3476   3478   3479     1   106.5500460 417.563200
   3480   3469   3491     1   110.1100470 384.091200
   3480   3483   3484     1   109.8000471 387.438400
   3480   3483   3485     1   109.8000471 387.438400
   3481   3480   3483     1   110.5600475 386.601600
   3481   3480   3482     1   109.7500473 328.025600
   3482   3480   3483     1   110.5600475 386.601600
   3484   3483   3486     1   108.7700466 392.459200
   3484   3483   3485     1   107.5800459 329.699200
   3485   3483   3486     1   108.7700466 392.459200
   3486   3488   3489     1   106.5500460 417.563200
   3492   3495   3496     1   109.8000471 387.438400
   3492   3495   3497     1   109.8000471 387.438400
   3493   3492   3495     1   109.5600471 388.275200
   3493   3492   3522     1   109.7800468 425.094400
   3493   3492   3494     1   108.4600466 328.025600
   3494   3492   3495     1   109.5600471 388.275200
   3494   3492   3522     1   109.7800468 425.094400
   3495   3498   3499     1   110.5600475 386.601600
   3495   3498   3500     1   110.5600475 386.601600
   3496   3495   3498     1   109.8000471 387.438400
   3496   3495   3497     1   107.5800459 329.699200
   3497   3495   3498     1   109.8000471 387.438400
   3498   3501   3523     1   110.1100470 384.091200
   3499   3498   3501     1   108.0100461 406.684800
   3499   3498   3500     1   109.7500473 328.025600
   3500   3498   3501     1   108.0100461 406.684800
   3501   3502   3503     1   108.0100461 406.684800
   3501   3502   3504     1   108.0100461 406.684800
   3501   3512   3513     1   108.0100461 406.684800
   3501   3512   3514     1   108.0100461 406.684800
   3502   3505   3506     1   109.8000471 387.438400
   3502   3505   3507     1   109.8000471 387.438400
   3502   3501   3523     1   110.1100470 384.091200
   3503   3502   3505     1   110.5600475 386.601600
   3503   3502   3504     1   109.7500473 328.025600
   3504   3502   3505     1   110.5600475 386.601600
   3506   3505   3508     1   108.7700466 392.459200
   3506   3505   3507     1   107.5800459 329.699200
   3507   3505   3508     1   108.7700466 392.459200
   3508   3510   3511     1   106.5500460 417.563200
   3512   3515   3516     1   109.8000471 387.438400
   3512   3515   3517     1   109.8000471 387.438400
   3512   3501   3523     1   110.1100470 384.091200
   3513   3512   3515     1   110.5600475 386.601600
   3513   3512   3514     1   109.7500473 328.025600
   3514   3512   3515     1   110.5600475 386.601600
   3516   3515   3518     1   108.7700466 392.459200
   3516   3515   3517     1   107.5800459 329.699200
   3517   3515   3518     1   108.7700466 392.459200
   3518   3520   3521     1   106.5500460 417.563200
   3524   3527   3528     1   109.8000471 387.438400
   3524   3527   3529     1   109.8000471 387.438400
   3525   3524   3527     1   109.5600471 388.275200
   3525   3524   3554     1   109.7800468 425.094400
   3525   3524   3526     1   108.4600466 328.025600
   3526   3524   3527     1   109.5600471 388.275200
   3526   3524   3554     1   109.7800468 425.094400
   3527   3530   3531     1   110.5600475 386.601600
   3527   3530   3532     1   110.5600475 386.601600
   3528   3527   3530     1   109.8000471 387.438400
   3528   3527   3529     1   107.5800459 329.699200
   3529   3527   3530     1   109.8000471 387.438400
   3530   3533   3555     1   110.1100470 384.091200
   3531   3530   3533     1   108.0100461 406.684800
   3531   3530   3532     1   109.7500473 328.025600
   3532   3530   3533     1   108.0100461 406.684800
   3533   3534   3535     1   108.0100461 406.684800
   3533   3534   3536     1   108.0100461 406.684800
   3533   3544   3545     1   108.0100461 406.684800
   3533   3544   3546     1   108.0100461 406.684800
   3534   3533   3555     1   110.1100470 384.091200
   3534   3537   3538     1   109.8000471 387.438400
   3534   3537   3539     1   109.8000471 387.438400
   3535   3534   3537     1   110.5600475 386.601600
   3535   3534   3536     1   109.7500473 328.025600
   3536   3534   3537     1   110.5600475 386.601600
   3538   3537   3540     1   108.7700466 392.459200
   3538   3537   3539     1   107.5800459 329.699200
   3539   3537   3540     1   108.7700466 392.459200
   3540   3542   3543     1   106.5500460 417.563200
   3544   3533   3555     1   110.1100470 384.091200
   3544   3547   3548     1   109.8000471 387.438400
   3544   3547   3549     1   109.8000471 387.438400
   3545   3544   3547     1   110.5600475 386.601600
   3545   3544   3546     1   109.7500473 328.025600
   3546   3544   3547     1   110.5600475 386.601600
   3548   3547   3550     1   108.7700466 392.459200
   3548   3547   3549     1   107.5800459 329.699200
   3549   3547   3550     1   108.7700466 392.459200
   3550   3552   3553     1   106.5500460 417.563200
   3556   3559   3560     1   109.8000471 387.438400
   3556   3559   3561     1   109.8000471 387.438400
   3557   3556   3559     1   109.5600471 388.275200
   3557   3556   3586     1   109.7800468 425.094400
   3557   3556   3558     1   108.4600466 328.025600
   3558   3556   3559     1   109.5600471 388.275200
   3558   3556   3586     1   109.7800468 425.094400
   3559   3562   3563     1   110.5600475 386.601600
   3559   3562   3564     1   110.5600475 386.601600
   3560   3559   3562     1   109.8000471 387.438400
   3560   3559   3561     1   107.5800459 329.699200
   3561   3559   3562     1   109.8000471 387.438400
   3562   3565   3587     1   110.1100470 384.091200
   3563   3562   3565     1   108.0100461 406.684800
   3563   3562   3564     1   109.7500473 328.025600
   3564   3562   3565     1   108.0100461 406.684800
   3565   3566   3567     1   108.0100461 406.684800
   3565   3566   3568     1   108.0100461 406.684800
   3565   3576   3577     1   108.0100461 406.684800
   3565   3576   3578     1   108.0100461 406.684800
   3566   3569   3570     1   109.8000471 387.438400
   3566   3569   3571     1   109.8000471 387.438400
   3566   3565   3587     1   110.1100470 384.091200
   3567   3566   3569     1   110.5600475 386.601600
   3567   3566   3568     1   109.7500473 328.025600
   3568   3566   3569     1   110.5600475 386.601600
   3570   3569   3572     1   108.7700466 392.459200
   3570   3569   3571     1   107.5800459 329.699200
   3571   3569   3572     1   108.7700466 392.459200
   3572   3574   3575     1   106.5500460 417.563200
   3576   3579   3580     1   109.8000471 387.438400
   3576   3579   3581     1   109.8000471 387.438400
   3576   3565   3587     1   110.1100470 384.091200
   3577   3576   3579     1   110.5600475 386.601600
   3577   3576   3578     1   109.7500473 328.025600
   3578   3576   3579     1   110.5600475 386.601600
   3580   3579   3582     1   108.7700466 392.459200
   3580   3579   3581     1   107.5800459 329.699200
   3581   3579   3582     1   108.7700466 392.459200
   3582   3584   3585     1   106.5500460 417.563200
   3588   3591   3592     1   109.8000471 387.438400
   3588   3591   3593     1   109.8000471 387.438400
   3589   3588   3591     1   109.5600471 388.275200
   3589   3588   3618     1   109.7800468 425.094400
   3589   3588   3590     1   108.4600466 328.025600
   3590   3588   3591     1   109.5600471 388.275200
   3590   3588   3618     1   109.7800468 425.094400
   3591   3594   3595     1   110.5600475 386.601600
   3591   3594   3596     1   110.5600475 386.601600
   3592   3591   3594     1   109.8000471 387.438400
   3592   3591   3593     1   107.5800459 329.699200
   3593   3591   3594     1   109.8000471 387.438400
   3594   3597   3619     1   110.1100470 384.091200
   3595   3594   3597     1   108.0100461 406.684800
   3595   3594   3596     1   109.7500473 328.025600
   3596   3594   3597     1   108.0100461 406.684800
   3597   3598   3599     1   108.0100461 406.684800
   3597   3598   3600     1   108.0100461 406.684800
   3597   3608   3609     1   108.0100461 406.684800
   3597   3608   3610     1   108.0100461 406.684800
   3598   3597   3619     1   110.1100470 384.091200
   3598   3601   3602     1   109.8000471 387.438400
   3598   3601   3603     1   109.8000471 387.438400
   3599   3598   3601     1   110.5600475 386.601600
   3599   3598   3600     1   109.7500473 328.025600
   3600   3598   3601     1   110.5600475 386.601600
   3602   3601   3604     1   108.7700466 392.459200
   3602   3601   3603     1   107.5800459 329.699200
   3603   3601   3604     1   108.7700466 392.459200
   3604   3606   3607     1   106.5500460 417.563200
   3608   3597   3619     1   110.1100470 384.091200
   3608   3611   3612     1   109.8000471 387.438400
   3608   3611   3613     1   109.8000471 387.438400
   3609   3608   3611     1   110.5600475 386.601600
   3609   3608   3610     1   109.7500473 328.025600
   3610   3608   3611     1   110.5600475 386.601600
   3612   3611   3614     1   108.7700466 392.459200
   3612   3611   3613     1   107.5800459 329.699200
   3613   3611   3614     1   108.7700466 392.459200
   3614   3616   3617     1   106.5500460 417.563200
   3620   3623   3624     1   109.8000471 387.438400
   3620   3623   3625     1   109.8000471 387.438400
   3621   3620   3623     1   109.5600471 388.275200
   3621   3620   3650     1   109.7800468 425.094400
   3621   3620   3622     1   108.4600466 328.025600
   3622   3620   3623     1   109.5600471 388.275200
   3622   3620   3650     1   109.7800468 425.094400
   3623   3626   3627     1   110.5600475 386.601600
   3623   3626   3628     1   110.5600475 386.601600
   3624   3623   3626     1   109.8000471 387.438400
   3624   3623   3625     1   107.5800459 329.699200
   3625   3623   3626     1   109.8000471 387.438400
   3626   3629   3651     1   110.1100470 384.091200
   3627   3626   3629     1   108.0100461 406.684800
   3627   3626   3628     1   109.7500473 328.025600
   3628   3626   3629     1   108.0100461 406.684800
   3629   3630   3631     1   108.0100461 406.684800
   3629   3630   3632     1   108.0100461 406.684800
   3629   3640   3641     1   108.0100461 406.684800
   3629   3640   3642     1   108.0100461 406.684800
   3630   3633   3634     1   109.8000471 387.438400
   3630   3633   3635     1   109.8000471 387.438400
   3630   3629   3651     1   110.1100470 384.091200
   3631   3630   3633     1   110.5600475 386.601600
   3631   3630   3632     1   109.7500473 328.025600
   3632   3630   3633     1   110.5600475 386.601600
   3634   3633   3636     1   108.7700466 392.459200
   3634   3633   3635     1   107.5800459 329.699200
   3635   3633   3636     1   108.7700466 392.459200
   3636   3638   3639     1   106.5500460 417.563200
   3640   3643   3644     1   109.8000471 387.438400
   3640   3643   3645     1   109.8000471 387.438400
   3640   3629   3651     1   110.1100470 384.091200
   3641   3640   3643     1   110.5600475 386.601600
   3641   3640   3642     1   109.7500473 328.025600
   3642   3640   3643     1   110.5600475 386.601600
   3644   3643   3646     1   108.7700466 392.459200
   3644   3643   3645     1   107.5800459 329.699200
   3645   3643   3646     1   108.7700466 392.459200
   3646   3648   3649     1   106.5500460 417.563200
   3652   3655   3656     1   109.8000471 387.438400
   3652   3655   3657     1   109.8000471 387.438400
   3653   3652   3655     1   109.5600471 388.275200
   3653   3652   3682     1   109.7800468 425.094400
   3653   3652   3654     1   108.4600466 328.025600
   3654   3652   3655     1   109.5600471 388.275200
   3654   3652   3682     1   109.7800468 425.094400
   3655   3658   3659     1   110.5600475 386.601600
   3655   3658   3660     1   110.5600475 386.601600
   3656   3655   3658     1   109.8000471 387.438400
   3656   3655   3657     1   107.5800459 329.699200
   3657   3655   3658     1   109.8000471 387.438400
   3658   3661   3683     1   110.1100470 384.091200
   3659   3658   3661     1   108.0100461 406.684800
   3659   3658   3660     1   109.7500473 328.025600
   3660   3658   3661     1   108.0100461 406.684800
   3661   3662   3663     1   108.0100461 406.684800
   3661   3662   3664     1   108.0100461 406.684800
   3661   3672   3673     1   108.0100461 406.684800
   3661   3672   3674     1   108.0100461 406.684800
   3662   3661   3683     1   110.1100470 384.091200
   3662   3665   3666     1   109.8000471 387.438400
   3662   3665   3667     1   109.8000471 387.438400
   3663   3662   3665     1   110.5600475 386.601600
   3663   3662   3664     1   109.7500473 328.025600
   3664   3662   3665     1   110.5600475 386.601600
   3666   3665   3668     1   108.7700466 392.459200
   3666   3665   3667     1   107.5800459 329.699200
   3667   3665   3668     1   108.7700466 392.459200
   3668   3670   3671     1   106.5500460 417.563200
   3672   3661   3683     1   110.1100470 384.091200
   3672   3675   3676     1   109.8000471 387.438400
   3672   3675   3677     1   109.8000471 387.438400
   3673   3672   3675     1   110.5600475 386.601600
   3673   3672   3674     1   109.7500473 328.025600
   3674   3672   3675     1   110.5600475 386.601600
   3676   3675   3678     1   108.7700466 392.459200
   3676   3675   3677     1   107.5800459 329.699200
   3677   3675   3678     1   108.7700466 392.459200
   3678   3680   3681     1   106.5500460 417.563200
   3684   3687   3688     1   109.8000471 387.438400
   3684   3687   3689     1   109.8000471 387.438400
   3685   3684   3687     1   109.5600471 388.275200
   3685   3684   3714     1   109.7800468 425.094400
   3685   3684   3686     1   108.4600466 328.025600
   3686   3684   3687     1   109.5600471 388.275200
   3686   3684   3714     1   109.7800468 425.094400
   3687   3690   3691     1   110.5600475 386.601600
   3687   3690   3692     1   110.5600475 386.601600
   3688   3687   3690     1   109.8000471 387.438400
   3688   3687   3689     1   107.5800459 329.699200
   3689   3687   3690     1   109.8000471 387.438400
   3690   3693   3715     1   110.1100470 384.091200
   3691   3690   3693     1   108.0100461 406.684800
   3691   3690   3692     1   109.7500473 328.025600
   3692   3690   3693     1   108.0100461 406.684800
   3693   3694   3695     1   108.0100461 406.684800
   3693   3694   3696     1   108.0100461 406.684800
   3693   3704   3705     1   108.0100461 406.684800
   3693   3704   3706     1   108.0100461 406.684800
   3694   3697   3698     1   109.8000471 387.438400
   3694   3697   3699     1   109.8000471 387.438400
   3694   3693   3715     1   110.1100470 384.091200
   3695   3694   3697     1   110.5600475 386.601600
   3695   3694   3696     1   109.7500473 328.025600
   3696   3694   3697     1   110.5600475 386.601600
   3698   3697   3700     1   108.7700466 392.459200
   3698   3697   3699     1   107.5800459 329.699200
   3699   3697   3700     1   108.7700466 392.459200
   3700   3702   3703     1   106.5500460 417.563200
   3704   3707   3708     1   109.8000471 387.438400
   3704   3707   3709     1   109.8000471 387.438400
   3704   3693   3715     1   110.1100470 384.091200
   3705   3704   3707     1   110.5600475 386.601600
   3705   3704   3706     1   109.7500473 328.025600
   3706   3704   3707     1   110.5600475 386.601600
   3708   3707   3710     1   108.7700466 392.459200
   3708   3707   3709     1   107.5800459 329.699200
   3709   3707   3710     1   108.7700466 392.459200
   3710   3712   3713     1   106.5500460 417.563200
   3716   3719   3720     1   109.8000471 387.438400
   3716   3719   3721     1   109.8000471 387.438400
   3717   3716   3719     1   109.5600471 388.275200
   3717   3716   3746     1   109.7800468 425.094400
   3717   3716   3718     1   108.4600466 328.025600
   3718   3716   3719     1   109.5600471 388.275200
   3718   3716   3746     1   109.7800468 425.094400
   3719   3722   3723     1   110.5600475 386.601600
   3719   3722   3724     1   110.5600475 386.601600
   3720   3719   3722     1   109.8000471 387.438400
   3720   3719   3721     1   107.5800459 329.699200
   3721   3719   3722     1   109.8000471 387.438400
   3722   3725   3747     1   110.1100470 384.091200
   3723   3722   3725     1   108.0100461 406.684800
   3723   3722   3724     1   109.7500473 328.025600
   3724   3722   3725     1   108.0100461 406.684800
   3725   3726   3727     1   108.0100461 406.684800
   3725   3726   3728     1   108.0100461 406.684800
   3725   3736   3737     1   108.0100461 406.684800
   3725   3736   3738     1   108.0100461 406.684800
   3726   3725   3747     1   110.1100470 384.091200
   3726   3729   3730     1   109.8000471 387.438400
   3726   3729   3731     1   109.8000471 387.438400
   3727   3726   3729     1   110.5600475 386.601600
   3727   3726   3728     1   109.7500473 328.025600
   3728   3726   3729     1   110.5600475 386.601600
   3730   3729   3732     1   108.7700466 392.459200
   3730   3729   3731     1   107.5800459 329.699200
   3731   3729   3732     1   108.7700466 392.459200
   3732   3734   3735     1   106.5500460 417.563200
   3736   3725   3747     1   110.1100470 384.091200
   3736   3739   3740     1   109.8000471 387.438400
   3736   3739   3741     1   109.8000471 387.438400
   3737   3736   3739     1   110.5600475 386.601600
   3737   3736   3738     1   109.7500473 328.025600
   3738   3736   3739     1   110.5600475 386.601600
   3740   3739   3742     1   108.7700466 392.459200
   3740   3739   3741     1   107.5800459 329.699200
   3741   3739   3742     1   108.7700466 392.459200
   3742   3744   3745     1   106.5500460 417.563200
   3748   3751   3752     1   109.8000471 387.438400
   3748   3751   3753     1   109.8000471 387.438400
   3749   3748   3751     1   109.5600471 388.275200
   3749   3748   3778     1   109.7800468 425.094400
   3749   3748   3750     1   108.4600466 328.025600
   3750   3748   3751     1   109.5600471 388.275200
   3750   3748   3778     1   109.7800468 425.094400
   3751   3754   3755     1   110.5600475 386.601600
   3751   3754   3756     1   110.5600475 386.601600
   3752   3751   3754     1   109.8000471 387.438400
   3752   3751   3753     1   107.5800459 329.699200
   3753   3751   3754     1   109.8000471 387.438400
   3754   3757   3779     1   110.1100470 384.091200
   3755   3754   3757     1   108.0100461 406.684800
   3755   3754   3756     1   109.7500473 328.025600
   3756   3754   3757     1   108.0100461 406.684800
   3757   3758   3759     1   108.0100461 406.684800
   3757   3758   3760     1   108.0100461 406.684800
   3757   3768   3769     1   108.0100461 406.684800
   3757   3768   3770     1   108.0100461 406.684800
   3758   3761   3762     1   109.8000471 387.438400
   3758   3761   3763     1   109.8000471 387.438400
   3758   3757   3779     1   110.1100470 384.091200
   3759   3758   3761     1   110.5600475 386.601600
   3759   3758   3760     1   109.7500473 328.025600
   3760   3758   3761     1   110.5600475 386.601600
   3762   3761   3764     1   108.7700466 392.459200
   3762   3761   3763     1   107.5800459 329.699200
   3763   3761   3764     1   108.7700466 392.459200
   3764   3766   3767     1   106.5500460 417.563200
   3768   3771   3772     1   109.8000471 387.438400
   3768   3771   3773     1   109.8000471 387.438400
   3768   3757   3779     1   110.1100470 384.091200
   3769   3768   3771     1   110.5600475 386.601600
   3769   3768   3770     1   109.7500473 328.025600
   3770   3768   3771     1   110.5600475 386.601600
   3772   3771   3774     1   108.7700466 392.459200
   3772   3771   3773     1   107.5800459 329.699200
   3773   3771   3774     1   108.7700466 392.459200
   3774   3776   3777     1   106.5500460 417.563200
   3780   3783   3784     1   109.8000471 387.438400
   3780   3783   3785     1   109.8000471 387.438400
   3781   3780   3783     1   109.5600471 388.275200
   3781   3780   3810     1   109.7800468 425.094400
   3781   3780   3782     1   108.4600466 328.025600
   3782   3780   3783     1   109.5600471 388.275200
   3782   3780   3810     1   109.7800468 425.094400
   3783   3786   3787     1   110.5600475 386.601600
   3783   3786   3788     1   110.5600475 386.601600
   3784   3783   3786     1   109.8000471 387.438400
   3784   3783   3785     1   107.5800459 329.699200
   3785   3783   3786     1   109.8000471 387.438400
   3786   3789   3811     1   110.1100470 384.091200
   3787   3786   3789     1   108.0100461 406.684800
   3787   3786   3788     1   109.7500473 328.025600
   3788   3786   3789     1   108.0100461 406.684800
   3789   3790   3791     1   108.0100461 406.684800
   3789   3790   3792     1   108.0100461 406.684800
   3789   3800   3801     1   108.0100461 406.684800
   3789   3800   3802     1   108.0100461 406.684800
   3790   3789   3811     1   110.1100470 384.091200
   3790   3793   3794     1   109.8000471 387.438400
   3790   3793   3795     1   109.8000471 387.438400
   3791   3790   3793     1   110.5600475 386.601600
   3791   3790   3792     1   109.7500473 328.025600
   3792   3790   3793     1   110.5600475 386.601600
   3794   3793   3796     1   108.7700466 392.459200
   3794   3793   3795     1   107.5800459 329.699200
   3795   3793   3796     1   108.7700466 392.459200
   3796   3798   3799     1   106.5500460 417.563200
   3800   3789   3811     1   110.1100470 384.091200
   3800   3803   3804     1   109.8000471 387.438400
   3800   3803   3805     1   109.8000471 387.438400
   3801   3800   3803     1   110.5600475 386.601600
   3801   3800   3802     1   109.7500473 328.025600
   3802   3800   3803     1   110.5600475 386.601600
   3804   3803   3806     1   108.7700466 392.459200
   3804   3803   3805     1   107.5800459 329.699200
   3805   3803   3806     1   108.7700466 392.459200
   3806   3808   3809     1   106.5500460 417.563200
   3812   3815   3816     1   109.8000471 387.438400
   3812   3815   3817     1   109.8000471 387.438400
   3813   3812   3815     1   109.5600471 388.275200
   3813   3812   3842     1   109.7800468 425.094400
   3813   3812   3814     1   108.4600466 328.025600
   3814   3812   3815     1   109.5600471 388.275200
   3814   3812   3842     1   109.7800468 425.094400
   3815   3818   3819     1   110.5600475 386.601600
   3815   3818   3820     1   110.5600475 386.601600
   3816   3815   3818     1   109.8000471 387.438400
   3816   3815   3817     1   107.5800459 329.699200
   3817   3815   3818     1   109.8000471 387.438400
   3818   3821   3843     1   110.1100470 384.091200
   3819   3818   3821     1   108.0100461 406.684800
   3819   3818   3820     1   109.7500473 328.025600
   3820   3818   3821     1   108.0100461 406.684800
   3821   3822   3823     1   108.0100461 406.684800
   3821   3822   3824     1   108.0100461 406.684800
   3821   3832   3833     1   108.0100461 406.684800
   3821   3832   3834     1   108.0100461 406.684800
   3822   3825   3826     1   109.8000471 387.438400
   3822   3825   3827     1   109.8000471 387.438400
   3822   3821   3843     1   110.1100470 384.091200
   3823   3822   3825     1   110.5600475 386.601600
   3823   3822   3824     1   109.7500473 328.025600
   3824   3822   3825     1   110.5600475 386.601600
   3826   3825   3828     1   108.7700466 392.459200
   3826   3825   3827     1   107.5800459 329.699200
   3827   3825   3828     1   108.7700466 392.459200
   3828   3830   3831     1   106.5500460 417.563200
   3832   3835   3836     1   109.8000471 387.438400
   3832   3835   3837     1   109.8000471 387.438400
   3832   3821   3843     1   110.1100470 384.091200
   3833   3832   3835     1   110.5600475 386.601600
   3833   3832   3834     1   109.7500473 328.025600
   3834   3832   3835     1   110.5600475 386.601600
   3836   3835   3838     1   108.7700466 392.459200
   3836   3835   3837     1   107.5800459 329.699200
   3837   3835   3838     1   108.7700466 392.459200
   3838   3840   3841     1   106.5500460 417.563200
   3844   3847   3848     1   109.8000471 387.438400
   3844   3847   3849     1   109.8000471 387.438400
   3845   3844   3847     1   109.5600471 388.275200
   3845   3844   3874     1   109.7800468 425.094400
   3845   3844   3846     1   108.4600466 328.025600
   3846   3844   3847     1   109.5600471 388.275200
   3846   3844   3874     1   109.7800468 425.094400
   3847   3850   3851     1   110.5600475 386.601600
   3847   3850   3852     1   110.5600475 386.601600
   3848   3847   3850     1   109.8000471 387.438400
   3848   3847   3849     1   107.5800459 329.699200
   3849   3847   3850     1   109.8000471 387.438400
   3850   3853   3875     1   110.1100470 384.091200
   3851   3850   3853     1   108.0100461 406.684800
   3851   3850   3852     1   109.7500473 328.025600
   3852   3850   3853     1   108.0100461 406.684800
   3853   3854   3855     1   108.0100461 406.684800
   3853   3854   3856     1   108.0100461 406.684800
   3853   3864   3865     1   108.0100461 406.684800
   3853   3864   3866     1   108.0100461 406.684800
   3854   3853   3875     1   110.1100470 384.091200
   3854   3857   3858     1   109.8000471 387.438400
   3854   3857   3859     1   109.8000471 387.438400
   3855   3854   3857     1   110.5600475 386.601600
   3855   3854   3856     1   109.7500473 328.025600
   3856   3854   3857     1   110.5600475 386.601600
   3858   3857   3860     1   108.7700466 392.459200
   3858   3857   3859     1   107.5800459 329.699200
   3859   3857   3860     1   108.7700466 392.459200
   3860   3862   3863     1   106.5500460 417.563200
   3864   3853   3875     1   110.1100470 384.091200
   3864   3867   3868     1   109.8000471 387.438400
   3864   3867   3869     1   109.8000471 387.438400
   3865   3864   3867     1   110.5600475 386.601600
   3865   3864   3866     1   109.7500473 328.025600
   3866   3864   3867     1   110.5600475 386.601600
   3868   3867   3870     1   108.7700466 392.459200
   3868   3867   3869     1   107.5800459 329.699200
   3869   3867   3870     1   108.7700466 392.459200
   3870   3872   3873     1   106.5500460 417.563200
   3876   3879   3880     1   109.8000471 387.438400
   3876   3879   3881     1   109.8000471 387.438400
   3877   3876   3879     1   109.5600471 388.275200
   3877   3876   3906     1   109.7800468 425.094400
   3877   3876   3878     1   108.4600466 328.025600
   3878   3876   3879     1   109.5600471 388.275200
   3878   3876   3906     1   109.7800468 425.094400
   3879   3882   3883     1   110.5600475 386.601600
   3879   3882   3884     1   110.5600475 386.601600
   3880   3879   3882     1   109.8000471 387.438400
   3880   3879   3881     1   107.5800459 329.699200
   3881   3879   3882     1   109.8000471 387.438400
   3882   3885   3907     1   110.1100470 384.091200
   3883   3882   3885     1   108.0100461 406.684800
   3883   3882   3884     1   109.7500473 328.025600
   3884   3882   3885     1   108.0100461 406.684800
   3885   3886   3887     1   108.0100461 406.684800
   3885   3886   3888     1   108.0100461 406.684800
   3885   3896   3897     1   108.0100461 406.684800
   3885   3896   3898     1   108.0100461 406.684800
   3886   3889   3890     1   109.8000471 387.438400
   3886   3889   3891     1   109.8000471 387.438400
   3886   3885   3907     1   110.1100470 384.091200
   3887   3886   3889     1   110.5600475 386.601600
   3887   3886   3888     1   109.7500473 328.025600
   3888   3886   3889     1   110.5600475 386.601600
   3890   3889   3892     1   108.7700466 392.459200
   3890   3889   3891     1   107.5800459 329.699200
   3891   3889   3892     1   108.7700466 392.459200
   3892   3894   3895     1   106.5500460 417.563200
   3896   3899   3900     1   109.8000471 387.438400
   3896   3899   3901     1   109.8000471 387.438400
   3896   3885   3907     1   110.1100470 384.091200
   3897   3896   3899     1   110.5600475 386.601600
   3897   3896   3898     1   109.7500473 328.025600
   3898   3896   3899     1   110.5600475 386.601600
   3900   3899   3902     1   108.7700466 392.459200
   3900   3899   3901     1   107.5800459 329.699200
   3901   3899   3902     1   108.7700466 392.459200
   3902   3904   3905     1   106.5500460 417.563200
   3908   3911   3912     1   109.8000471 387.438400
   3908   3911   3913     1   109.8000471 387.438400
   3909   3908   3911     1   109.5600471 388.275200
   3909   3908   3938     1   109.7800468 425.094400
   3909   3908   3910     1   108.4600466 328.025600
   3910   3908   3911     1   109.5600471 388.275200
   3910   3908   3938     1   109.7800468 425.094400
   3911   3914   3915     1   110.5600475 386.601600
   3911   3914   3916     1   110.5600475 386.601600
   3912   3911   3914     1   109.8000471 387.438400
   3912   3911   3913     1   107.5800459 329.699200
   3913   3911   3914     1   109.8000471 387.438400
   3914   3917   3939     1   110.1100470 384.091200
   3915   3914   3917     1   108.0100461 406.684800
   3915   3914   3916     1   109.7500473 328.025600
   3916   3914   3917     1   108.0100461 406.684800
   3917   3918   3919     1   108.0100461 406.684800
   3917   3918   3920     1   108.0100461 406.684800
   3917   3928   3929     1   108.0100461 406.684800
   3917   3928   3930     1   108.0100461 406.684800
   3918   3917   3939     1   110.1100470 384.091200
   3918   3921   3922     1   109.8000471 387.438400
   3918   3921   3923     1   109.8000471 387.438400
   3919   3918   3921     1   110.5600475 386.601600
   3919   3918   3920     1   109.7500473 328.025600
   3920   3918   3921     1   110.5600475 386.601600
   3922   3921   3924     1   108.7700466 392.459200
   3922   3921   3923     1   107.5800459 329.699200
   3923   3921   3924     1   108.7700466 392.459200
   3924   3926   3927     1   106.5500460 417.563200
   3928   3917   3939     1   110.1100470 384.091200
   3928   3931   3932     1   109.8000471 387.438400
   3928   3931   3933     1   109.8000471 387.438400
   3929   3928   3931     1   110.5600475 386.601600
   3929   3928   3930     1   109.7500473 328.025600
   3930   3928   3931     1   110.5600475 386.601600
   3932   3931   3934     1   108.7700466 392.459200
   3932   3931   3933     1   107.5800459 329.699200
   3933   3931   3934     1   108.7700466 392.459200
   3934   3936   3937     1   106.5500460 417.563200
   3940   3943   3944     1   109.8000471 387.438400
   3940   3943   3945     1   109.8000471 387.438400
   3941   3940   3943     1   109.5600471 388.275200
   3941   3940   3970     1   109.7800468 425.094400
   3941   3940   3942     1   108.4600466 328.025600
   3942   3940   3943     1   109.5600471 388.275200
   3942   3940   3970     1   109.7800468 425.094400
   3943   3946   3947     1   110.5600475 386.601600
   3943   3946   3948     1   110.5600475 386.601600
   3944   3943   3946     1   109.8000471 387.438400
   3944   3943   3945     1   107.5800459 329.699200
   3945   3943   3946     1   109.8000471 387.438400
   3946   3949   3971     1   110.1100470 384.091200
   3947   3946   3949     1   108.0100461 406.684800
   3947   3946   3948     1   109.7500473 328.025600
   3948   3946   3949     1   108.0100461 406.684800
   3949   3950   3951     1   108.0100461 406.684800
   3949   3950   3952     1   108.0100461 406.684800
   3949   3960   3961     1   108.0100461 406.684800
   3949   3960   3962     1   108.0100461 406.684800
   3950   3953   3954     1   109.8000471 387.438400
   3950   3953   3955     1   109.8000471 387.438400
   3950   3949   3971     1   110.1100470 384.091200
   3951   3950   3953     1   110.5600475 386.601600
   3951   3950   3952     1   109.7500473 328.025600
   3952   3950   3953     1   110.5600475 386.601600
   3954   3953   3956     1   108.7700466 392.459200
   3954   3953   3955     1   107.5800459 329.699200
   3955   3953   3956     1   108.7700466 392.459200
   3956   3958   3959     1   106.5500460 417.563200
   3960   3963   3964     1   109.8000471 387.438400
   3960   3963   3965     1   109.8000471 387.438400
   3960   3949   3971     1   110.1100470 384.091200
   3961   3960   3963     1   110.5600475 386.601600
   3961   3960   3962     1   109.7500473 328.025600
   3962   3960   3963     1   110.5600475 386.601600
   3964   3963   3966     1   108.7700466 392.459200
   3964   3963   3965     1   107.5800459 329.699200
   3965   3963   3966     1   108.7700466 392.459200
   3966   3968   3969     1   106.5500460 417.563200
   3972   3975   3976     1   109.8000471 387.438400
   3972   3975   3977     1   109.8000471 387.438400
   3973   3972   3975     1   109.5600471 388.275200
   3973   3972   4002     1   109.7800468 425.094400
   3973   3972   3974     1   108.4600466 328.025600
   3974   3972   3975     1   109.5600471 388.275200
   3974   3972   4002     1   109.7800468 425.094400
   3975   3978   3979     1   110.5600475 386.601600
   3975   3978   3980     1   110.5600475 386.601600
   3976   3975   3978     1   109.8000471 387.438400
   3976   3975   3977     1   107.5800459 329.699200
   3977   3975   3978     1   109.8000471 387.438400
   3978   3981   4003     1   110.1100470 384.091200
   3979   3978   3981     1   108.0100461 406.684800
   3979   3978   3980     1   109.7500473 328.025600
   3980   3978   3981     1   108.0100461 406.684800
   3981   3982   3983     1   108.0100461 406.684800
   3981   3982   3984     1   108.0100461 406.684800
   3981   3992   3993     1   108.0100461 406.684800
   3981   3992   3994     1   108.0100461 406.684800
   3982   3981   4003     1   110.1100470 384.091200
   3982   3985   3986     1   109.8000471 387.438400
   3982   3985   3987     1   109.8000471 387.438400
   3983   3982   3985     1   110.5600475 386.601600
   3983   3982   3984     1   109.7500473 328.025600
   3984   3982   3985     1   110.5600475 386.601600
   3986   3985   3988     1   108.7700466 392.459200
   3986   3985   3987     1   107.5800459 329.699200
   3987   3985   3988     1   108.7700466 392.459200
   3988   3990   3991     1   106.5500460 417.563200
   3992   3981   4003     1   110.1100470 384.091200
   3992   3995   3996     1   109.8000471 387.438400
   3992   3995   3997     1   109.8000471 387.438400
   3993   3992   3995     1   110.5600475 386.601600
   3993   3992   3994     1   109.7500473 328.025600
   3994   3992   3995     1   110.5600475 386.601600
   3996   3995   3998     1   108.7700466 392.459200
   3996   3995   3997     1   107.5800459 329.699200
   3997   3995   3998     1   108.7700466 392.459200
   3998   4000   4001     1   106.5500460 417.563200
   4004   4007   4008     1   109.8000471 387.438400
   4004   4007   4009     1   109.8000471 387.438400
   4005   4004   4007     1   109.5600471 388.275200
   4005   4004   4034     1   109.7800468 425.094400
   4005   4004   4006     1   108.4600466 328.025600
   4006   4004   4007     1   109.5600471 388.275200
   4006   4004   4034     1   109.7800468 425.094400
   4007   4010   4011     1   110.5600475 386.601600
   4007   4010   4012     1   110.5600475 386.601600
   4008   4007   4010     1   109.8000471 387.438400
   4008   4007   4009     1   107.5800459 329.699200
   4009   4007   4010     1   109.8000471 387.438400
   4010   4013   4035     1   110.1100470 384.091200
   4011   4010   4013     1   108.0100461 406.684800
   4011   4010   4012     1   109.7500473 328.025600
   4012   4010   4013     1   108.0100461 406.684800
   4013   4014   4015     1   108.0100461 406.684800
   4013   4014   4016     1   108.0100461 406.684800
   4013   4024   4025     1   108.0100461 406.684800
   4013   4024   4026     1   108.0100461 406.684800
   4014   4017   4018     1   109.8000471 387.438400
   4014   4017   4019     1   109.8000471 387.438400
   4014   4013   4035     1   110.1100470 384.091200
   4015   4014   4017     1   110.5600475 386.601600
   4015   4014   4016     1   109.7500473 328.025600
   4016   4014   4017     1   110.5600475 386.601600
   4018   4017   4020     1   108.7700466 392.459200
   4018   4017   4019     1   107.5800459 329.699200
   4019   4017   4020     1   108.7700466 392.459200
   4020   4022   4023     1   106.5500460 417.563200
   4024   4027   4028     1   109.8000471 387.438400
   4024   4027   4029     1   109.8000471 387.438400
   4024   4013   4035     1   110.1100470 384.091200
   4025   4024   4027     1   110.5600475 386.601600
   4025   4024   4026     1   109.7500473 328.025600
   4026   4024   4027     1   110.5600475 386.601600
   4028   4027   4030     1   108.7700466 392.459200
   4028   4027   4029     1   107.5800459 329.699200
   4029   4027   4030     1   108.7700466 392.459200
   4030   4032   4033     1   106.5500460 417.563200
   4036   4039   4040     1   109.8000471 387.438400
   4036   4039   4041     1   109.8000471 387.438400
   4037   4036   4039     1   109.5600471 388.275200
   4037   4036   4066     1   109.7800468 425.094400
   4037   4036   4038     1   108.4600466 328.025600
   4038   4036   4039     1   109.5600471 388.275200
   4038   4036   4066     1   109.7800468 425.094400
   4039   4042   4043     1   110.5600475 386.601600
   4039   4042   4044     1   110.5600475 386.601600
   4040   4039   4042     1   109.8000471 387.438400
   4040   4039   4041     1   107.5800459 329.699200
   4041   4039   4042     1   109.8000471 387.438400
   4042   4045   4067     1   110.1100470 384.091200
   4043   4042   4045     1   108.0100461 406.684800
   4043   4042   4044     1   109.7500473 328.025600
   4044   4042   4045     1   108.0100461 406.684800
   4045   4046   4047     1   108.0100461 406.684800
   4045   4046   4048     1   108.0100461 406.684800
   4045   4056   4057     1   108.0100461 406.684800
   4045   4056   4058     1   108.0100461 406.684800
   4046   4045   4067     1   110.1100470 384.091200
   4046   4049   4050     1   109.8000471 387.438400
   4046   4049   4051     1   109.8000471 387.438400
   4047   4046   4049     1   110.5600475 386.601600
   4047   4046   4048     1   109.7500473 328.025600
   4048   4046   4049     1   110.5600475 386.601600
   4050   4049   4052     1   108.7700466 392.459200
   4050   4049   4051     1   107.5800459 329.699200
   4051   4049   4052     1   108.7700466 392.459200
   4052   4054   4055     1   106.5500460 417.563200
   4056   4045   4067     1   110.1100470 384.091200
   4056   4059   4060     1   109.8000471 387.438400
   4056   4059   4061     1   109.8000471 387.438400
   4057   4056   4059     1   110.5600475 386.601600
   4057   4056   4058     1   109.7500473 328.025600
   4058   4056   4059     1   110.5600475 386.601600
   4060   4059   4062     1   108.7700466 392.459200
   4060   4059   4061     1   107.5800459 329.699200
   4061   4059   4062     1   108.7700466 392.459200
   4062   4064   4065     1   106.5500460 417.563200
   4068   4071   4072     1   109.8000471 387.438400
   4068   4071   4073     1   109.8000471 387.438400
   4069   4068   4071     1   109.5600471 388.275200
   4069   4068   4098     1   109.7800468 425.094400
   4069   4068   4070     1   108.4600466 328.025600
   4070   4068   4071     1   109.5600471 388.275200
   4070   4068   4098     1   109.7800468 425.094400
   4071   4074   4075     1   110.5600475 386.601600
   4071   4074   4076     1   110.5600475 386.601600
   4072   4071   4074     1   109.8000471 387.438400
   4072   4071   4073     1   107.5800459 329.699200
   4073   4071   4074     1   109.8000471 387.438400
   4074   4077   4099     1   110.1100470 384.091200
   4075   4074   4077     1   108.0100461 406.684800
   4075   4074   4076     1   109.7500473 328.025600
   4076   4074   4077     1   108.0100461 406.684800
   4077   4078   4079     1   108.0100461 406.684800
   4077   4078   4080     1   108.0100461 406.684800
   4077   4088   4089     1   108.0100461 406.684800
   4077   4088   4090     1   108.0100461 406.684800
   4078   4081   4082     1   109.8000471 387.438400
   4078   4081   4083     1   109.8000471 387.438400
   4078   4077   4099     1   110.1100470 384.091200
   4079   4078   4081     1   110.5600475 386.601600
   4079   4078   4080     1   109.7500473 328.025600
   4080   4078   4081     1   110.5600475 386.601600
   4082   4081   4084     1   108.7700466 392.459200
   4082   4081   4083     1   107.5800459 329.699200
   4083   4081   4084     1   108.7700466 392.459200
   4084   4086   4087     1   106.5500460 417.563200
   4088   4091   4092     1   109.8000471 387.438400
   4088   4091   4093     1   109.8000471 387.438400
   4088   4077   4099     1   110.1100470 384.091200
   4089   4088   4091     1   110.5600475 386.601600
   4089   4088   4090     1   109.7500473 328.025600
   4090   4088   4091     1   110.5600475 386.601600
   4092   4091   4094     1   108.7700466 392.459200
   4092   4091   4093     1   107.5800459 329.699200
   4093   4091   4094     1   108.7700466 392.459200
   4094   4096   4097     1   106.5500460 417.563200
   4100   4103   4104     1   109.8000471 387.438400
   4100   4103   4105     1   109.8000471 387.438400
   4101   4100   4103     1   109.5600471 388.275200
   4101   4100   4130     1   109.7800468 425.094400
   4101   4100   4102     1   108.4600466 328.025600
   4102   4100   4103     1   109.5600471 388.275200
   4102   4100   4130     1   109.7800468 425.094400
   4103   4106   4107     1   110.5600475 386.601600
   4103   4106   4108     1   110.5600475 386.601600
   4104   4103   4106     1   109.8000471 387.438400
   4104   4103   4105     1   107.5800459 329.699200
   4105   4103   4106     1   109.8000471 387.438400
   4106   4109   4131     1   110.1100470 384.091200
   4107   4106   4109     1   108.0100461 406.684800
   4107   4106   4108     1   109.7500473 328.025600
   4108   4106   4109     1   108.0100461 406.684800
   4109   4110   4111     1   108.0100461 406.684800
   4109   4110   4112     1   108.0100461 406.684800
   4109   4120   4121     1   108.0100461 406.684800
   4109   4120   4122     1   108.0100461 406.684800
   4110   4109   4131     1   110.1100470 384.091200
   4110   4113   4114     1   109.8000471 387.438400
   4110   4113   4115     1   109.8000471 387.438400
   4111   4110   4113     1   110.5600475 386.601600
   4111   4110   4112     1   109.7500473 328.025600
   4112   4110   4113     1   110.5600475 386.601600
   4114   4113   4116     1   108.7700466 392.459200
   4114   4113   4115     1   107.5800459 329.699200
   4115   4113   4116     1   108.7700466 392.459200
   4116   4118   4119     1   106.5500460 417.563200
   4120   4109   4131     1   110.1100470 384.091200
   4120   4123   4124     1   109.8000471 387.438400
   4120   4123   4125     1   109.8000471 387.438400
   4121   4120   4123     1   110.5600475 386.601600
   4121   4120   4122     1   109.7500473 328.025600
   4122   4120   4123     1   110.5600475 386.601600
   4124   4123   4126     1   108.7700466 392.459200
   4124   4123   4125     1   107.5800459 329.699200
   4125   4123   4126     1   108.7700466 392.459200
   4126   4128   4129     1   106.5500460 417.563200
   4132   4135   4136     1   109.8000471 387.438400
   4132   4135   4137     1   109.8000471 387.438400
   4133   4132   4135     1   109.5600471 388.275200
   4133   4132   4162     1   109.7800468 425.094400
   4133   4132   4134     1   108.4600466 328.025600
   4134   4132   4135     1   109.5600471 388.275200
   4134   4132   4162     1   109.7800468 425.094400
   4135   4138   4139     1   110.5600475 386.601600
   4135   4138   4140     1   110.5600475 386.601600
   4136   4135   4138     1   109.8000471 387.438400
   4136   4135   4137     1   107.5800459 329.699200
   4137   4135   4138     1   109.8000471 387.438400
   4138   4141   4163     1   110.1100470 384.091200
   4139   4138   4141     1   108.0100461 406.684800
   4139   4138   4140     1   109.7500473 328.025600
   4140   4138   4141     1   108.0100461 406.684800
   4141   4142   4143     1   108.0100461 406.684800
   4141   4142   4144     1   108.0100461 406.684800
   4141   4152   4153     1   108.0100461 406.684800
   4141   4152   4154     1   108.0100461 406.684800
   4142   4145   4146     1   109.8000471 387.438400
   4142   4145   4147     1   109.8000471 387.438400
   4142   4141   4163     1   110.1100470 384.091200
   4143   4142   4145     1   110.5600475 386.601600
   4143   4142   4144     1   109.7500473 328.025600
   4144   4142   4145     1   110.5600475 386.601600
   4146   4145   4148     1   108.7700466 392.459200
   4146   4145   4147     1   107.5800459 329.699200
   4147   4145   4148     1   108.7700466 392.459200
   4148   4150   4151     1   106.5500460 417.563200
   4152   4155   4156     1   109.8000471 387.438400
   4152   4155   4157     1   109.8000471 387.438400
   4152   4141   4163     1   110.1100470 384.091200
   4153   4152   4155     1   110.5600475 386.601600
   4153   4152   4154     1   109.7500473 328.025600
   4154   4152   4155     1   110.5600475 386.601600
   4156   4155   4158     1   108.7700466 392.459200
   4156   4155   4157     1   107.5800459 329.699200
   4157   4155   4158     1   108.7700466 392.459200
   4158   4160   4161     1   106.5500460 417.563200
   4164   4167   4168     1   109.8000471 387.438400
   4164   4167   4169     1   109.8000471 387.438400
   4165   4164   4167     1   109.5600471 388.275200
   4165   4164   4194     1   109.7800468 425.094400
   4165   4164   4166     1   108.4600466 328.025600
   4166   4164   4167     1   109.5600471 388.275200
   4166   4164   4194     1   109.7800468 425.094400
   4167   4170   4171     1   110.5600475 386.601600
   4167   4170   4172     1   110.5600475 386.601600
   4168   4167   4170     1   109.8000471 387.438400
   4168   4167   4169     1   107.5800459 329.699200
   4169   4167   4170     1   109.8000471 387.438400
   4170   4173   4195     1   110.1100470 384.091200
   4171   4170   4173     1   108.0100461 406.684800
   4171   4170   4172     1   109.7500473 328.025600
   4172   4170   4173     1   108.0100461 406.684800
   4173   4174   4175     1   108.0100461 406.684800
   4173   4174   4176     1   108.0100461 406.684800
   4173   4184   4185     1   108.0100461 406.684800
   4173   4184   4186     1   108.0100461 406.684800
   4174   4173   4195     1   110.1100470 384.091200
   4174   4177   4178     1   109.8000471 387.438400
   4174   4177   4179     1   109.8000471 387.438400
   4175   4174   4177     1   110.5600475 386.601600
   4175   4174   4176     1   109.7500473 328.025600
   4176   4174   4177     1   110.5600475 386.601600
   4178   4177   4180     1   108.7700466 392.459200
   4178   4177   4179     1   107.5800459 329.699200
   4179   4177   4180     1   108.7700466 392.459200
   4180   4182   4183     1   106.5500460 417.563200
   4184   4173   4195     1   110.1100470 384.091200
   4184   4187   4188     1   109.8000471 387.438400
   4184   4187   4189     1   109.8000471 387.438400
   4185   4184   4187     1   110.5600475 386.601600
   4185   4184   4186     1   109.7500473 328.025600
   4186   4184   4187     1   110.5600475 386.601600
   4188   4187   4190     1   108.7700466 392.459200
   4188   4187   4189     1   107.5800459 329.699200
   4189   4187   4190     1   108.7700466 392.459200
   4190   4192   4193     1   106.5500460 417.563200
   4196   4199   4200     1   109.8000471 387.438400
   4196   4199   4201     1   109.8000471 387.438400
   4197   4196   4199     1   109.5600471 388.275200
   4197   4196   4226     1   109.7800468 425.094400
   4197   4196   4198     1   108.4600466 328.025600
   4198   4196   4199     1   109.5600471 388.275200
   4198   4196   4226     1   109.7800468 425.094400
   4199   4202   4203     1   110.5600475 386.601600
   4199   4202   4204     1   110.5600475 386.601600
   4200   4199   4202     1   109.8000471 387.438400
   4200   4199   4201     1   107.5800459 329.699200
   4201   4199   4202     1   109.8000471 387.438400
   4202   4205   4227     1   110.1100470 384.091200
   4203   4202   4205     1   108.0100461 406.684800
   4203   4202   4204     1   109.7500473 328.025600
   4204   4202   4205     1   108.0100461 406.684800
   4205   4206   4207     1   108.0100461 406.684800
   4205   4206   4208     1   108.0100461 406.684800
   4205   4216   4217     1   108.0100461 406.684800
   4205   4216   4218     1   108.0100461 406.684800
   4206   4209   4210     1   109.8000471 387.438400
   4206   4209   4211     1   109.8000471 387.438400
   4206   4205   4227     1   110.1100470 384.091200
   4207   4206   4209     1   110.5600475 386.601600
   4207   4206   4208     1   109.7500473 328.025600
   4208   4206   4209     1   110.5600475 386.601600
   4210   4209   4212     1   108.7700466 392.459200
   4210   4209   4211     1   107.5800459 329.699200
   4211   4209   4212     1   108.7700466 392.459200
   4212   4214   4215     1   106.5500460 417.563200
   4216   4219   4220     1   109.8000471 387.438400
   4216   4219   4221     1   109.8000471 387.438400
   4216   4205   4227     1   110.1100470 384.091200
   4217   4216   4219     1   110.5600475 386.601600
   4217   4216   4218     1   109.7500473 328.025600
   4218   4216   4219     1   110.5600475 386.601600
   4220   4219   4222     1   108.7700466 392.459200
   4220   4219   4221     1   107.5800459 329.699200
   4221   4219   4222     1   108.7700466 392.459200
   4222   4224   4225     1   106.5500460 417.563200
   4228   4231   4232     1   109.8000471 387.438400
   4228   4231   4233     1   109.8000471 387.438400
   4229   4228   4231     1   109.5600471 388.275200
   4229   4228   4258     1   109.7800468 425.094400
   4229   4228   4230     1   108.4600466 328.025600
   4230   4228   4231     1   109.5600471 388.275200
   4230   4228   4258     1   109.7800468 425.094400
   4231   4234   4235     1   110.5600475 386.601600
   4231   4234   4236     1   110.5600475 386.601600
   4232   4231   4234     1   109.8000471 387.438400
   4232   4231   4233     1   107.5800459 329.699200
   4233   4231   4234     1   109.8000471 387.438400
   4234   4237   4259     1   110.1100470 384.091200
   4235   4234   4237     1   108.0100461 406.684800
   4235   4234   4236     1   109.7500473 328.025600
   4236   4234   4237     1   108.0100461 406.684800
   4237   4238   4239     1   108.0100461 406.684800
   4237   4238   4240     1   108.0100461 406.684800
   4237   4248   4249     1   108.0100461 406.684800
   4237   4248   4250     1   108.0100461 406.684800
   4238   4237   4259     1   110.1100470 384.091200
   4238   4241   4242     1   109.8000471 387.438400
   4238   4241   4243     1   109.8000471 387.438400
   4239   4238   4241     1   110.5600475 386.601600
   4239   4238   4240     1   109.7500473 328.025600
   4240   4238   4241     1   110.5600475 386.601600
   4242   4241   4244     1   108.7700466 392.459200
   4242   4241   4243     1   107.5800459 329.699200
   4243   4241   4244     1   108.7700466 392.459200
   4244   4246   4247     1   106.5500460 417.563200
   4248   4237   4259     1   110.1100470 384.091200
   4248   4251   4252     1   109.8000471 387.438400
   4248   4251   4253     1   109.8000471 387.438400
   4249   4248   4251     1   110.5600475 386.601600
   4249   4248   4250     1   109.7500473 328.025600
   4250   4248   4251     1   110.5600475 386.601600
   4252   4251   4254     1   108.7700466 392.459200
   4252   4251   4253     1   107.5800459 329.699200
   4253   4251   4254     1   108.7700466 392.459200
   4254   4256   4257     1   106.5500460 417.563200
   4260   4263   4264     1   109.8000471 387.438400
   4260   4263   4265     1   109.8000471 387.438400
   4261   4260   4263     1   109.5600471 388.275200
   4261   4260   4290     1   109.7800468 425.094400
   4261   4260   4262     1   108.4600466 328.025600
   4262   4260   4263     1   109.5600471 388.275200
   4262   4260   4290     1   109.7800468 425.094400
   4263   4266   4267     1   110.5600475 386.601600
   4263   4266   4268     1   110.5600475 386.601600
   4264   4263   4266     1   109.8000471 387.438400
   4264   4263   4265     1   107.5800459 329.699200
   4265   4263   4266     1   109.8000471 387.438400
   4266   4269   4291     1   110.1100470 384.091200
   4267   4266   4269     1   108.0100461 406.684800
   4267   4266   4268     1   109.7500473 328.025600
   4268   4266   4269     1   108.0100461 406.684800
   4269   4270   4271     1   108.0100461 406.684800
   4269   4270   4272     1   108.0100461 406.684800
   4269   4280   4281     1   108.0100461 406.684800
   4269   4280   4282     1   108.0100461 406.684800
   4270   4273   4274     1   109.8000471 387.438400
   4270   4273   4275     1   109.8000471 387.438400
   4270   4269   4291     1   110.1100470 384.091200
   4271   4270   4273     1   110.5600475 386.601600
   4271   4270   4272     1   109.7500473 328.025600
   4272   4270   4273     1   110.5600475 386.601600
   4274   4273   4276     1   108.7700466 392.459200
   4274   4273   4275     1   107.5800459 329.699200
   4275   4273   4276     1   108.7700466 392.459200
   4276   4278   4279     1   106.5500460 417.563200
   4280   4283   4284     1   109.8000471 387.438400
   4280   4283   4285     1   109.8000471 387.438400
   4280   4269   4291     1   110.1100470 384.091200
   4281   4280   4283     1   110.5600475 386.601600
   4281   4280   4282     1   109.7500473 328.025600
   4282   4280   4283     1   110.5600475 386.601600
   4284   4283   4286     1   108.7700466 392.459200
   4284   4283   4285     1   107.5800459 329.699200
   4285   4283   4286     1   108.7700466 392.459200
   4286   4288   4289     1   106.5500460 417.563200
   4292   4295   4296     1   109.8000471 387.438400
   4292   4295   4297     1   109.8000471 387.438400
   4293   4292   4295     1   109.5600471 388.275200
   4293   4292   4322     1   109.7800468 425.094400
   4293   4292   4294     1   108.4600466 328.025600
   4294   4292   4295     1   109.5600471 388.275200
   4294   4292   4322     1   109.7800468 425.094400
   4295   4298   4299     1   110.5600475 386.601600
   4295   4298   4300     1   110.5600475 386.601600
   4296   4295   4298     1   109.8000471 387.438400
   4296   4295   4297     1   107.5800459 329.699200
   4297   4295   4298     1   109.8000471 387.438400
   4298   4301   4323     1   110.1100470 384.091200
   4299   4298   4301     1   108.0100461 406.684800
   4299   4298   4300     1   109.7500473 328.025600
   4300   4298   4301     1   108.0100461 406.684800
   4301   4302   4303     1   108.0100461 406.684800
   4301   4302   4304     1   108.0100461 406.684800
   4301   4312   4313     1   108.0100461 406.684800
   4301   4312   4314     1   108.0100461 406.684800
   4302   4301   4323     1   110.1100470 384.091200
   4302   4305   4306     1   109.8000471 387.438400
   4302   4305   4307     1   109.8000471 387.438400
   4303   4302   4305     1   110.5600475 386.601600
   4303   4302   4304     1   109.7500473 328.025600
   4304   4302   4305     1   110.5600475 386.601600
   4306   4305   4308     1   108.7700466 392.459200
   4306   4305   4307     1   107.5800459 329.699200
   4307   4305   4308     1   108.7700466 392.459200
   4308   4310   4311     1   106.5500460 417.563200
   4312   4301   4323     1   110.1100470 384.091200
   4312   4315   4316     1   109.8000471 387.438400
   4312   4315   4317     1   109.8000471 387.438400
   4313   4312   4315     1   110.5600475 386.601600
   4313   4312   4314     1   109.7500473 328.025600
   4314   4312   4315     1   110.5600475 386.601600
   4316   4315   4318     1   108.7700466 392.459200
   4316   4315   4317     1   107.5800459 329.699200
   4317   4315   4318     1   108.7700466 392.459200
   4318   4320   4321     1   106.5500460 417.563200
   4324   4327   4328     1   109.8000471 387.438400
   4324   4327   4329     1   109.8000471 387.438400
   4325   4324   4327     1   109.5600471 388.275200
   4325   4324   4354     1   109.7800468 425.094400
   4325   4324   4326     1   108.4600466 328.025600
   4326   4324   4327     1   109.5600471 388.275200
   4326   4324   4354     1   109.7800468 425.094400
   4327   4330   4331     1   110.5600475 386.601600
   4327   4330   4332     1   110.5600475 386.601600
   4328   4327   4330     1   109.8000471 387.438400
   4328   4327   4329     1   107.5800459 329.699200
   4329   4327   4330     1   109.8000471 387.438400
   4330   4333   4355     1   110.1100470 384.091200
   4331   4330   4333     1   108.0100461 406.684800
   4331   4330   4332     1   109.7500473 328.025600
   4332   4330   4333     1   108.0100461 406.684800
   4333   4334   4335     1   108.0100461 406.684800
   4333   4334   4336     1   108.0100461 406.684800
   4333   4344   4345     1   108.0100461 406.684800
   4333   4344   4346     1   108.0100461 406.684800
   4334   4337   4338     1   109.8000471 387.438400
   4334   4337   4339     1   109.8000471 387.438400
   4334   4333   4355     1   110.1100470 384.091200
   4335   4334   4337     1   110.5600475 386.601600
   4335   4334   4336     1   109.7500473 328.025600
   4336   4334   4337     1   110.5600475 386.601600
   4338   4337   4340     1   108.7700466 392.459200
   4338   4337   4339     1   107.5800459 329.699200
   4339   4337   4340     1   108.7700466 392.459200
   4340   4342   4343     1   106.5500460 417.563200
   4344   4347   4348     1   109.8000471 387.438400
   4344   4347   4349     1   109.8000471 387.438400
   4344   4333   4355     1   110.1100470 384.091200
   4345   4344   4347     1   110.5600475 386.601600
   4345   4344   4346     1   109.7500473 328.025600
   4346   4344   4347     1   110.5600475 386.601600
   4348   4347   4350     1   108.7700466 392.459200
   4348   4347   4349     1   107.5800459 329.699200
   4349   4347   4350     1   108.7700466 392.459200
   4350   4352   4353     1   106.5500460 417.563200
   4356   4359   4360     1   109.8000471 387.438400
   4356   4359   4361     1   109.8000471 387.438400
   4357   4356   4359     1   109.5600471 388.275200
   4357   4356   4386     1   109.7800468 425.094400
   4357   4356   4358     1   108.4600466 328.025600
   4358   4356   4359     1   109.5600471 388.275200
   4358   4356   4386     1   109.7800468 425.094400
   4359   4362   4363     1   110.5600475 386.601600
   4359   4362   4364     1   110.5600475 386.601600
   4360   4359   4362     1   109.8000471 387.438400
   4360   4359   4361     1   107.5800459 329.699200
   4361   4359   4362     1   109.8000471 387.438400
   4362   4365   4387     1   110.1100470 384.091200
   4363   4362   4365     1   108.0100461 406.684800
   4363   4362   4364     1   109.7500473 328.025600
   4364   4362   4365     1   108.0100461 406.684800
   4365   4366   4367     1   108.0100461 406.684800
   4365   4366   4368     1   108.0100461 406.684800
   4365   4376   4377     1   108.0100461 406.684800
   4365   4376   4378     1   108.0100461 406.684800
   4366   4365   4387     1   110.1100470 384.091200
   4366   4369   4370     1   109.8000471 387.438400
   4366   4369   4371     1   109.8000471 387.438400
   4367   4366   4369     1   110.5600475 386.601600
   4367   4366   4368     1   109.7500473 328.025600
   4368   4366   4369     1   110.5600475 386.601600
   4370   4369   4372     1   108.7700466 392.459200
   4370   4369   4371     1   107.5800459 329.699200
   4371   4369   4372     1   108.7700466 392.459200
   4372   4374   4375     1   106.5500460 417.563200
   4376   4365   4387     1   110.1100470 384.091200
   4376   4379   4380     1   109.8000471 387.438400
   4376   4379   4381     1   109.8000471 387.438400
   4377   4376   4379     1   110.5600475 386.601600
   4377   4376   4378     1   109.7500473 328.025600
   4378   4376   4379     1   110.5600475 386.601600
   4380   4379   4382     1   108.7700466 392.459200
   4380   4379   4381     1   107.5800459 329.699200
   4381   4379   4382     1   108.7700466 392.459200
   4382   4384   4385     1   106.5500460 417.563200
   4388   4391   4392     1   109.8000471 387.438400
   4388   4391   4393     1   109.8000471 387.438400
   4389   4388   4391     1   109.5600471 388.275200
   4389   4388   4418     1   109.7800468 425.094400
   4389   4388   4390     1   108.4600466 328.025600
   4390   4388   4391     1   109.5600471 388.275200
   4390   4388   4418     1   109.7800468 425.094400
   4391   4394   4395     1   110.5600475 386.601600
   4391   4394   4396     1   110.5600475 386.601600
   4392   4391   4394     1   109.8000471 387.438400
   4392   4391   4393     1   107.5800459 329.699200
   4393   4391   4394     1   109.8000471 387.438400
   4394   4397   4419     1   110.1100470 384.091200
   4395   4394   4397     1   108.0100461 406.684800
   4395   4394   4396     1   109.7500473 328.025600
   4396   4394   4397     1   108.0100461 406.684800
   4397   4398   4399     1   108.0100461 406.684800
   4397   4398   4400     1   108.0100461 406.684800
   4397   4408   4409     1   108.0100461 406.684800
   4397   4408   4410     1   108.0100461 406.684800
   4398   4401   4402     1   109.8000471 387.438400
   4398   4401   4403     1   109.8000471 387.438400
   4398   4397   4419     1   110.1100470 384.091200
   4399   4398   4401     1   110.5600475 386.601600
   4399   4398   4400     1   109.7500473 328.025600
   4400   4398   4401     1   110.5600475 386.601600
   4402   4401   4404     1   108.7700466 392.459200
   4402   4401   4403     1   107.5800459 329.699200
   4403   4401   4404     1   108.7700466 392.459200
   4404   4406   4407     1   106.5500460 417.563200
   4408   4411   4412     1   109.8000471 387.438400
   4408   4411   4413     1   109.8000471 387.438400
   4408   4397   4419     1   110.1100470 384.091200
   4409   4408   4411     1   110.5600475 386.601600
   4409   4408   4410     1   109.7500473 328.025600
   4410   4408   4411     1   110.5600475 386.601600
   4412   4411   4414     1   108.7700466 392.459200
   4412   4411   4413     1   107.5800459 329.699200
   4413   4411   4414     1   108.7700466 392.459200
   4414   4416   4417     1   106.5500460 417.563200
   4420   4423   4424     1   109.8000471 387.438400
   4420   4423   4425     1   109.8000471 387.438400
   4421   4420   4423     1   109.5600471 388.275200
   4421   4420   4450     1   109.7800468 425.094400
   4421   4420   4422     1   108.4600466 328.025600
   4422   4420   4423     1   109.5600471 388.275200
   4422   4420   4450     1   109.7800468 425.094400
   4423   4426   4427     1   110.5600475 386.601600
   4423   4426   4428     1   110.5600475 386.601600
   4424   4423   4426     1   109.8000471 387.438400
   4424   4423   4425     1   107.5800459 329.699200
   4425   4423   4426     1   109.8000471 387.438400
   4426   4429   4451     1   110.1100470 384.091200
   4427   4426   4429     1   108.0100461 406.684800
   4427   4426   4428     1   109.7500473 328.025600
   4428   4426   4429     1   108.0100461 406.684800
   4429   4430   4431     1   108.0100461 406.684800
   4429   4430   4432     1   108.0100461 406.684800
   4429   4440   4441     1   108.0100461 406.684800
   4429   4440   4442     1   108.0100461 406.684800
   4430   4429   4451     1   110.1100470 384.091200
   4430   4433   4434     1   109.8000471 387.438400
   4430   4433   4435     1   109.8000471 387.438400
   4431   4430   4433     1   110.5600475 386.601600
   4431   4430   4432     1   109.7500473 328.025600
   4432   4430   4433     1   110.5600475 386.601600
   4434   4433   4436     1   108.7700466 392.459200
   4434   4433   4435     1   107.5800459 329.699200
   4435   4433   4436     1   108.7700466 392.459200
   4436   4438   4439     1   106.5500460 417.563200
   4440   4429   4451     1   110.1100470 384.091200
   4440   4443   4444     1   109.8000471 387.438400
   4440   4443   4445     1   109.8000471 387.438400
   4441   4440   4443     1   110.5600475 386.601600
   4441   4440   4442     1   109.7500473 328.025600
   4442   4440   4443     1   110.5600475 386.601600
   4444   4443   4446     1   108.7700466 392.459200
   4444   4443   4445     1   107.5800459 329.699200
   4445   4443   4446     1   108.7700466 392.459200
   4446   4448   4449     1   106.5500460 417.563200
   4452   4455   4456     1   109.8000471 387.438400
   4452   4455   4457     1   109.8000471 387.438400
   4453   4452   4455     1   109.5600471 388.275200
   4453   4452   4482     1   109.7800468 425.094400
   4453   4452   4454     1   108.4600466 328.025600
   4454   4452   4455     1   109.5600471 388.275200
   4454   4452   4482     1   109.7800468 425.094400
   4455   4458   4459     1   110.5600475 386.601600
   4455   4458   4460     1   110.5600475 386.601600
   4456   4455   4458     1   109.8000471 387.438400
   4456   4455   4457     1   107.5800459 329.699200
   4457   4455   4458     1   109.8000471 387.438400
   4458   4461   4483     1   110.1100470 384.091200
   4459   4458   4461     1   108.0100461 406.684800
   4459   4458   4460     1   109.7500473 328.025600
   4460   4458   4461     1   108.0100461 406.684800
   4461   4462   4463     1   108.0100461 406.684800
   4461   4462   4464     1   108.0100461 406.684800
   4461   4472   4473     1   108.0100461 406.684800
   4461   4472   4474     1   108.0100461 406.684800
   4462   4465   4466     1   109.8000471 387.438400
   4462   4465   4467     1   109.8000471 387.438400
   4462   4461   4483     1   110.1100470 384.091200
   4463   4462   4465     1   110.5600475 386.601600
   4463   4462   4464     1   109.7500473 328.025600
   4464   4462   4465     1   110.5600475 386.601600
   4466   4465   4468     1   108.7700466 392.459200
   4466   4465   4467     1   107.5800459 329.699200
   4467   4465   4468     1   108.7700466 392.459200
   4468   4470   4471     1   106.5500460 417.563200
   4472   4475   4476     1   109.8000471 387.438400
   4472   4475   4477     1   109.8000471 387.438400
   4472   4461   4483     1   110.1100470 384.091200
   4473   4472   4475     1   110.5600475 386.601600
   4473   4472   4474     1   109.7500473 328.025600
   4474   4472   4475     1   110.5600475 386.601600
   4476   4475   4478     1   108.7700466 392.459200
   4476   4475   4477     1   107.5800459 329.699200
   4477   4475   4478     1   108.7700466 392.459200
   4478   4480   4481     1   106.5500460 417.563200
   4484   4487   4488     1   109.8000471 387.438400
   4484   4487   4489     1   109.8000471 387.438400
   4485   4484   4487     1   109.5600471 388.275200
   4485   4484   4514     1   109.7800468 425.094400
   4485   4484   4486     1   108.4600466 328.025600
   4486   4484   4487     1   109.5600471 388.275200
   4486   4484   4514     1   109.7800468 425.094400
   4487   4490   4491     1   110.5600475 386.601600
   4487   4490   4492     1   110.5600475 386.601600
   4488   4487   4490     1   109.8000471 387.438400
   4488   4487   4489     1   107.5800459 329.699200
   4489   4487   4490     1   109.8000471 387.438400
   4490   4493   4515     1   110.1100470 384.091200
   4491   4490   4493     1   108.0100461 406.684800
   4491   4490   4492     1   109.7500473 328.025600
   4492   4490   4493     1   108.0100461 406.684800
   4493   4494   4495     1   108.0100461 406.684800
   4493   4494   4496     1   108.0100461 406.684800
   4493   4504   4505     1   108.0100461 406.684800
   4493   4504   4506     1   108.0100461 406.684800
   4494   4493   4515     1   110.1100470 384.091200
   4494   4497   4498     1   109.8000471 387.438400
   4494   4497   4499     1   109.8000471 387.438400
   4495   4494   4497     1   110.5600475 386.601600
   4495   4494   4496     1   109.7500473 328.025600
   4496   4494   4497     1   110.5600475 386.601600
   4498   4497   4500     1   108.7700466 392.459200
   4498   4497   4499     1   107.5800459 329.699200
   4499   4497   4500     1   108.7700466 392.459200
   4500   4502   4503     1   106.5500460 417.563200
   4504   4493   4515     1   110.1100470 384.091200
   4504   4507   4508     1   109.8000471 387.438400
   4504   4507   4509     1   109.8000471 387.438400
   4505   4504   4507     1   110.5600475 386.601600
   4505   4504   4506     1   109.7500473 328.025600
   4506   4504   4507     1   110.5600475 386.601600
   4508   4507   4510     1   108.7700466 392.459200
   4508   4507   4509     1   107.5800459 329.699200
   4509   4507   4510     1   108.7700466 392.459200
   4510   4512   4513     1   106.5500460 417.563200
   4516   4519   4520     1   109.8000471 387.438400
   4516   4519   4521     1   109.8000471 387.438400
   4517   4516   4519     1   109.5600471 388.275200
   4517   4516   4546     1   109.7800468 425.094400
   4517   4516   4518     1   108.4600466 328.025600
   4518   4516   4519     1   109.5600471 388.275200
   4518   4516   4546     1   109.7800468 425.094400
   4519   4522   4523     1   110.5600475 386.601600
   4519   4522   4524     1   110.5600475 386.601600
   4520   4519   4522     1   109.8000471 387.438400
   4520   4519   4521     1   107.5800459 329.699200
   4521   4519   4522     1   109.8000471 387.438400
   4522   4525   4547     1   110.1100470 384.091200
   4523   4522   4525     1   108.0100461 406.684800
   4523   4522   4524     1   109.7500473 328.025600
   4524   4522   4525     1   108.0100461 406.684800
   4525   4526   4527     1   108.0100461 406.684800
   4525   4526   4528     1   108.0100461 406.684800
   4525   4536   4537     1   108.0100461 406.684800
   4525   4536   4538     1   108.0100461 406.684800
   4526   4529   4530     1   109.8000471 387.438400
   4526   4529   4531     1   109.8000471 387.438400
   4526   4525   4547     1   110.1100470 384.091200
   4527   4526   4529     1   110.5600475 386.601600
   4527   4526   4528     1   109.7500473 328.025600
   4528   4526   4529     1   110.5600475 386.601600
   4530   4529   4532     1   108.7700466 392.459200
   4530   4529   4531     1   107.5800459 329.699200
   4531   4529   4532     1   108.7700466 392.459200
   4532   4534   4535     1   106.5500460 417.563200
   4536   4539   4540     1   109.8000471 387.438400
   4536   4539   4541     1   109.8000471 387.438400
   4536   4525   4547     1   110.1100470 384.091200
   4537   4536   4539     1   110.5600475 386.601600
   4537   4536   4538     1   109.7500473 328.025600
   4538   4536   4539     1   110.5600475 386.601600
   4540   4539   4542     1   108.7700466 392.459200
   4540   4539   4541     1   107.5800459 329.699200
   4541   4539   4542     1   108.7700466 392.459200
   4542   4544   4545     1   106.5500460 417.563200
   4548   4551   4552     1   109.8000471 387.438400
   4548   4551   4553     1   109.8000471 387.438400
   4549   4548   4551     1   109.5600471 388.275200
   4549   4548   4578     1   109.7800468 425.094400
   4549   4548   4550     1   108.4600466 328.025600
   4550   4548   4551     1   109.5600471 388.275200
   4550   4548   4578     1   109.7800468 425.094400
   4551   4554   4555     1   110.5600475 386.601600
   4551   4554   4556     1   110.5600475 386.601600
   4552   4551   4554     1   109.8000471 387.438400
   4552   4551   4553     1   107.5800459 329.699200
   4553   4551   4554     1   109.8000471 387.438400
   4554   4557   4579     1   110.1100470 384.091200
   4555   4554   4557     1   108.0100461 406.684800
   4555   4554   4556     1   109.7500473 328.025600
   4556   4554   4557     1   108.0100461 406.684800
   4557   4558   4559     1   108.0100461 406.684800
   4557   4558   4560     1   108.0100461 406.684800
   4557   4568   4569     1   108.0100461 406.684800
   4557   4568   4570     1   108.0100461 406.684800
   4558   4557   4579     1   110.1100470 384.091200
   4558   4561   4562     1   109.8000471 387.438400
   4558   4561   4563     1   109.8000471 387.438400
   4559   4558   4561     1   110.5600475 386.601600
   4559   4558   4560     1   109.7500473 328.025600
   4560   4558   4561     1   110.5600475 386.601600
   4562   4561   4564     1   108.7700466 392.459200
   4562   4561   4563     1   107.5800459 329.699200
   4563   4561   4564     1   108.7700466 392.459200
   4564   4566   4567     1   106.5500460 417.563200
   4568   4557   4579     1   110.1100470 384.091200
   4568   4571   4572     1   109.8000471 387.438400
   4568   4571   4573     1   109.8000471 387.438400
   4569   4568   4571     1   110.5600475 386.601600
   4569   4568   4570     1   109.7500473 328.025600
   4570   4568   4571     1   110.5600475 386.601600
   4572   4571   4574     1   108.7700466 392.459200
   4572   4571   4573     1   107.5800459 329.699200
   4573   4571   4574     1   108.7700466 392.459200
   4574   4576   4577     1   106.5500460 417.563200
   4580   4583   4584     1   109.8000471 387.438400
   4580   4583   4585     1   109.8000471 387.438400
   4581   4580   4583     1   109.5600471 388.275200
   4581   4580   4610     1   109.7800468 425.094400
   4581   4580   4582     1   108.4600466 328.025600
   4582   4580   4583     1   109.5600471 388.275200
   4582   4580   4610     1   109.7800468 425.094400
   4583   4586   4587     1   110.5600475 386.601600
   4583   4586   4588     1   110.5600475 386.601600
   4584   4583   4586     1   109.8000471 387.438400
   4584   4583   4585     1   107.5800459 329.699200
   4585   4583   4586     1   109.8000471 387.438400
   4586   4589   4611     1   110.1100470 384.091200
   4587   4586   4589     1   108.0100461 406.684800
   4587   4586   4588     1   109.7500473 328.025600
   4588   4586   4589     1   108.0100461 406.684800
   4589   4590   4591     1   108.0100461 406.684800
   4589   4590   4592     1   108.0100461 406.684800
   4589   4600   4601     1   108.0100461 406.684800
   4589   4600   4602     1   108.0100461 406.684800
   4590   4593   4594     1   109.8000471 387.438400
   4590   4593   4595     1   109.8000471 387.438400
   4590   4589   4611     1   110.1100470 384.091200
   4591   4590   4593     1   110.5600475 386.601600
   4591   4590   4592     1   109.7500473 328.025600
   4592   4590   4593     1   110.5600475 386.601600
   4594   4593   4596     1   108.7700466 392.459200
   4594   4593   4595     1   107.5800459 329.699200
   4595   4593   4596     1   108.7700466 392.459200
   4596   4598   4599     1   106.5500460 417.563200
   4600   4603   4604     1   109.8000471 387.438400
   4600   4603   4605     1   109.8000471 387.438400
   4600   4589   4611     1   110.1100470 384.091200
   4601   4600   4603     1   110.5600475 386.601600
   4601   4600   4602     1   109.7500473 328.025600
   4602   4600   4603     1   110.5600475 386.601600
   4604   4603   4606     1   108.7700466 392.459200
   4604   4603   4605     1   107.5800459 329.699200
   4605   4603   4606     1   108.7700466 392.459200
   4606   4608   4609     1   106.5500460 417.563200
   4612   4615   4616     1   109.8000471 387.438400
   4612   4615   4617     1   109.8000471 387.438400
   4613   4612   4615     1   109.5600471 388.275200
   4613   4612   4642     1   109.7800468 425.094400
   4613   4612   4614     1   108.4600466 328.025600
   4614   4612   4615     1   109.5600471 388.275200
   4614   4612   4642     1   109.7800468 425.094400
   4615   4618   4619     1   110.5600475 386.601600
   4615   4618   4620     1   110.5600475 386.601600
   4616   4615   4618     1   109.8000471 387.438400
   4616   4615   4617     1   107.5800459 329.699200
   4617   4615   4618     1   109.8000471 387.438400
   4618   4621   4643     1   110.1100470 384.091200
   4619   4618   4621     1   108.0100461 406.684800
   4619   4618   4620     1   109.7500473 328.025600
   4620   4618   4621     1   108.0100461 406.684800
   4621   4622   4623     1   108.0100461 406.684800
   4621   4622   4624     1   108.0100461 406.684800
   4621   4632   4633     1   108.0100461 406.684800
   4621   4632   4634     1   108.0100461 406.684800
   4622   4621   4643     1   110.1100470 384.091200
   4622   4625   4626     1   109.8000471 387.438400
   4622   4625   4627     1   109.8000471 387.438400
   4623   4622   4625     1   110.5600475 386.601600
   4623   4622   4624     1   109.7500473 328.025600
   4624   4622   4625     1   110.5600475 386.601600
   4626   4625   4628     1   108.7700466 392.459200
   4626   4625   4627     1   107.5800459 329.699200
   4627   4625   4628     1   108.7700466 392.459200
   4628   4630   4631     1   106.5500460 417.563200
   4632   4621   4643     1   110.1100470 384.091200
   4632   4635   4636     1   109.8000471 387.438400
   4632   4635   4637     1   109.8000471 387.438400
   4633   4632   4635     1   110.5600475 386.601600
   4633   4632   4634     1   109.7500473 328.025600
   4634   4632   4635     1   110.5600475 386.601600
   4636   4635   4638     1   108.7700466 392.459200
   4636   4635   4637     1   107.5800459 329.699200
   4637   4635   4638     1   108.7700466 392.459200
   4638   4640   4641     1   106.5500460 417.563200
   4644   4647   4648     1   109.8000471 387.438400
   4644   4647   4649     1   109.8000471 387.438400
   4645   4644   4647     1   109.5600471 388.275200
   4645   4644   4674     1   109.7800468 425.094400
   4645   4644   4646     1   108.4600466 328.025600
   4646   4644   4647     1   109.5600471 388.275200
   4646   4644   4674     1   109.7800468 425.094400
   4647   4650   4651     1   110.5600475 386.601600
   4647   4650   4652     1   110.5600475 386.601600
   4648   4647   4650     1   109.8000471 387.438400
   4648   4647   4649     1   107.5800459 329.699200
   4649   4647   4650     1   109.8000471 387.438400
   4650   4653   4675     1   110.1100470 384.091200
   4651   4650   4653     1   108.0100461 406.684800
   4651   4650   4652     1   109.7500473 328.025600
   4652   4650   4653     1   108.0100461 406.684800
   4653   4654   4655     1   108.0100461 406.684800
   4653   4654   4656     1   108.0100461 406.684800
   4653   4664   4665     1   108.0100461 406.684800
   4653   4664   4666     1   108.0100461 406.684800
   4654   4657   4658     1   109.8000471 387.438400
   4654   4657   4659     1   109.8000471 387.438400
   4654   4653   4675     1   110.1100470 384.091200
   4655   4654   4657     1   110.5600475 386.601600
   4655   4654   4656     1   109.7500473 328.025600
   4656   4654   4657     1   110.5600475 386.601600
   4658   4657   4660     1   108.7700466 392.459200
   4658   4657   4659     1   107.5800459 329.699200
   4659   4657   4660     1   108.7700466 392.459200
   4660   4662   4663     1   106.5500460 417.563200
   4664   4667   4668     1   109.8000471 387.438400
   4664   4667   4669     1   109.8000471 387.438400
   4664   4653   4675     1   110.1100470 384.091200
   4665   4664   4667     1   110.5600475 386.601600
   4665   4664   4666     1   109.7500473 328.025600
   4666   4664   4667     1   110.5600475 386.601600
   4668   4667   4670     1   108.7700466 392.459200
   4668   4667   4669     1   107.5800459 329.699200
   4669   4667   4670     1   108.7700466 392.459200
   4670   4672   4673     1   106.5500460 417.563200
   4676   4679   4680     1   109.8000471 387.438400
   4676   4679   4681     1   109.8000471 387.438400
   4677   4676   4679     1   109.5600471 388.275200
   4677   4676   4706     1   109.7800468 425.094400
   4677   4676   4678     1   108.4600466 328.025600
   4678   4676   4679     1   109.5600471 388.275200
   4678   4676   4706     1   109.7800468 425.094400
   4679   4682   4683     1   110.5600475 386.601600
   4679   4682   4684     1   110.5600475 386.601600
   4680   4679   4682     1   109.8000471 387.438400
   4680   4679   4681     1   107.5800459 329.699200
   4681   4679   4682     1   109.8000471 387.438400
   4682   4685   4707     1   110.1100470 384.091200
   4683   4682   4685     1   108.0100461 406.684800
   4683   4682   4684     1   109.7500473 328.025600
   4684   4682   4685     1   108.0100461 406.684800
   4685   4686   4687     1   108.0100461 406.684800
   4685   4686   4688     1   108.0100461 406.684800
   4685   4696   4697     1   108.0100461 406.684800
   4685   4696   4698     1   108.0100461 406.684800
   4686   4685   4707     1   110.1100470 384.091200
   4686   4689   4690     1   109.8000471 387.438400
   4686   4689   4691     1   109.8000471 387.438400
   4687   4686   4689     1   110.5600475 386.601600
   4687   4686   4688     1   109.7500473 328.025600
   4688   4686   4689     1   110.5600475 386.601600
   4690   4689   4692     1   108.7700466 392.459200
   4690   4689   4691     1   107.5800459 329.699200
   4691   4689   4692     1   108.7700466 392.459200
   4692   4694   4695     1   106.5500460 417.563200
   4696   4685   4707     1   110.1100470 384.091200
   4696   4699   4700     1   109.8000471 387.438400
   4696   4699   4701     1   109.8000471 387.438400
   4697   4696   4699     1   110.5600475 386.601600
   4697   4696   4698     1   109.7500473 328.025600
   4698   4696   4699     1   110.5600475 386.601600
   4700   4699   4702     1   108.7700466 392.459200
   4700   4699   4701     1   107.5800459 329.699200
   4701   4699   4702     1   108.7700466 392.459200
   4702   4704   4705     1   106.5500460 417.563200
   4708   4711   4712     1   109.8000471 387.438400
   4708   4711   4713     1   109.8000471 387.438400
   4709   4708   4711     1   109.5600471 388.275200
   4709   4708   4738     1   109.7800468 425.094400
   4709   4708   4710     1   108.4600466 328.025600
   4710   4708   4711     1   109.5600471 388.275200
   4710   4708   4738     1   109.7800468 425.094400
   4711   4714   4715     1   110.5600475 386.601600
   4711   4714   4716     1   110.5600475 386.601600
   4712   4711   4714     1   109.8000471 387.438400
   4712   4711   4713     1   107.5800459 329.699200
   4713   4711   4714     1   109.8000471 387.438400
   4714   4717   4739     1   110.1100470 384.091200
   4715   4714   4717     1   108.0100461 406.684800
   4715   4714   4716     1   109.7500473 328.025600
   4716   4714   4717     1   108.0100461 406.684800
   4717   4718   4719     1   108.0100461 406.684800
   4717   4718   4720     1   108.0100461 406.684800
   4717   4728   4729     1   108.0100461 406.684800
   4717   4728   4730     1   108.0100461 406.684800
   4718   4721   4722     1   109.8000471 387.438400
   4718   4721   4723     1   109.8000471 387.438400
   4718   4717   4739     1   110.1100470 384.091200
   4719   4718   4721     1   110.5600475 386.601600
   4719   4718   4720     1   109.7500473 328.025600
   4720   4718   4721     1   110.5600475 386.601600
   4722   4721   4724     1   108.7700466 392.459200
   4722   4721   4723     1   107.5800459 329.699200
   4723   4721   4724     1   108.7700466 392.459200
   4724   4726   4727     1   106.5500460 417.563200
   4728   4731   4732     1   109.8000471 387.438400
   4728   4731   4733     1   109.8000471 387.438400
   4728   4717   4739     1   110.1100470 384.091200
   4729   4728   4731     1   110.5600475 386.601600
   4729   4728   4730     1   109.7500473 328.025600
   4730   4728   4731     1   110.5600475 386.601600
   4732   4731   4734     1   108.7700466 392.459200
   4732   4731   4733     1   107.5800459 329.699200
   4733   4731   4734     1   108.7700466 392.459200
   4734   4736   4737     1   106.5500460 417.563200
   4740   4743   4744     1   109.8000471 387.438400
   4740   4743   4745     1   109.8000471 387.438400
   4741   4740   4743     1   109.5600471 388.275200
   4741   4740   4770     1   109.7800468 425.094400
   4741   4740   4742     1   108.4600466 328.025600
   4742   4740   4743     1   109.5600471 388.275200
   4742   4740   4770     1   109.7800468 425.094400
   4743   4746   4747     1   110.5600475 386.601600
   4743   4746   4748     1   110.5600475 386.601600
   4744   4743   4746     1   109.8000471 387.438400
   4744   4743   4745     1   107.5800459 329.699200
   4745   4743   4746     1   109.8000471 387.438400
   4746   4749   4771     1   110.1100470 384.091200
   4747   4746   4749     1   108.0100461 406.684800
   4747   4746   4748     1   109.7500473 328.025600
   4748   4746   4749     1   108.0100461 406.684800
   4749   4750   4751     1   108.0100461 406.684800
   4749   4750   4752     1   108.0100461 406.684800
   4749   4760   4761     1   108.0100461 406.684800
   4749   4760   4762     1   108.0100461 406.684800
   4750   4749   4771     1   110.1100470 384.091200
   4750   4753   4754     1   109.8000471 387.438400
   4750   4753   4755     1   109.8000471 387.438400
   4751   4750   4753     1   110.5600475 386.601600
   4751   4750   4752     1   109.7500473 328.025600
   4752   4750   4753     1   110.5600475 386.601600
   4754   4753   4756     1   108.7700466 392.459200
   4754   4753   4755     1   107.5800459 329.699200
   4755   4753   4756     1   108.7700466 392.459200
   4756   4758   4759     1   106.5500460 417.563200
   4760   4749   4771     1   110.1100470 384.091200
   4760   4763   4764     1   109.8000471 387.438400
   4760   4763   4765     1   109.8000471 387.438400
   4761   4760   4763     1   110.5600475 386.601600
   4761   4760   4762     1   109.7500473 328.025600
   4762   4760   4763     1   110.5600475 386.601600
   4764   4763   4766     1   108.7700466 392.459200
   4764   4763   4765     1   107.5800459 329.699200
   4765   4763   4766     1   108.7700466 392.459200
   4766   4768   4769     1   106.5500460 417.563200
   4772   4775   4776     1   109.8000471 387.438400
   4772   4775   4777     1   109.8000471 387.438400
   4773   4772   4775     1   109.5600471 388.275200
   4773   4772   4802     1   109.7800468 425.094400
   4773   4772   4774     1   108.4600466 328.025600
   4774   4772   4775     1   109.5600471 388.275200
   4774   4772   4802     1   109.7800468 425.094400
   4775   4778   4779     1   110.5600475 386.601600
   4775   4778   4780     1   110.5600475 386.601600
   4776   4775   4778     1   109.8000471 387.438400
   4776   4775   4777     1   107.5800459 329.699200
   4777   4775   4778     1   109.8000471 387.438400
   4778   4781   4803     1   110.1100470 384.091200
   4779   4778   4781     1   108.0100461 406.684800
   4779   4778   4780     1   109.7500473 328.025600
   4780   4778   4781     1   108.0100461 406.684800
   4781   4782   4783     1   108.0100461 406.684800
   4781   4782   4784     1   108.0100461 406.684800
   4781   4792   4793     1   108.0100461 406.684800
   4781   4792   4794     1   108.0100461 406.684800
   4782   4785   4786     1   109.8000471 387.438400
   4782   4785   4787     1   109.8000471 387.438400
   4782   4781   4803     1   110.1100470 384.091200
   4783   4782   4785     1   110.5600475 386.601600
   4783   4782   4784     1   109.7500473 328.025600
   4784   4782   4785     1   110.5600475 386.601600
   4786   4785   4788     1   108.7700466 392.459200
   4786   4785   4787     1   107.5800459 329.699200
   4787   4785   4788     1   108.7700466 392.459200
   4788   4790   4791     1   106.5500460 417.563200
   4792   4795   4796     1   109.8000471 387.438400
   4792   4795   4797     1   109.8000471 387.438400
   4792   4781   4803     1   110.1100470 384.091200
   4793   4792   4795     1   110.5600475 386.601600
   4793   4792   4794     1   109.7500473 328.025600
   4794   4792   4795     1   110.5600475 386.601600
   4796   4795   4798     1   108.7700466 392.459200
   4796   4795   4797     1   107.5800459 329.699200
   4797   4795   4798     1   108.7700466 392.459200
   4798   4800   4801     1   106.5500460 417.563200
   4804   4807   4808     1   109.8000471 387.438400
   4804   4807   4809     1   109.8000471 387.438400
   4805   4804   4807     1   109.5600471 388.275200
   4805   4804   4834     1   109.7800468 425.094400
   4805   4804   4806     1   108.4600466 328.025600
   4806   4804   4807     1   109.5600471 388.275200
   4806   4804   4834     1   109.7800468 425.094400
   4807   4810   4811     1   110.5600475 386.601600
   4807   4810   4812     1   110.5600475 386.601600
   4808   4807   4810     1   109.8000471 387.438400
   4808   4807   4809     1   107.5800459 329.699200
   4809   4807   4810     1   109.8000471 387.438400
   4810   4813   4835     1   110.1100470 384.091200
   4811   4810   4813     1   108.0100461 406.684800
   4811   4810   4812     1   109.7500473 328.025600
   4812   4810   4813     1   108.0100461 406.684800
   4813   4814   4815     1   108.0100461 406.684800
   4813   4814   4816     1   108.0100461 406.684800
   4813   4824   4825     1   108.0100461 406.684800
   4813   4824   4826     1   108.0100461 406.684800
   4814   4813   4835     1   110.1100470 384.091200
   4814   4817   4818     1   109.8000471 387.438400
   4814   4817   4819     1   109.8000471 387.438400
   4815   4814   4817     1   110.5600475 386.601600
   4815   4814   4816     1   109.7500473 328.025600
   4816   4814   4817     1   110.5600475 386.601600
   4818   4817   4820     1   108.7700466 392.459200
   4818   4817   4819     1   107.5800459 329.699200
   4819   4817   4820     1   108.7700466 392.459200
   4820   4822   4823     1   106.5500460 417.563200
   4824   4813   4835     1   110.1100470 384.091200
   4824   4827   4828     1   109.8000471 387.438400
   4824   4827   4829     1   109.8000471 387.438400
   4825   4824   4827     1   110.5600475 386.601600
   4825   4824   4826     1   109.7500473 328.025600
   4826   4824   4827     1   110.5600475 386.601600
   4828   4827   4830     1   108.7700466 392.459200
   4828   4827   4829     1   107.5800459 329.699200
   4829   4827   4830     1   108.7700466 392.459200
   4830   4832   4833     1   106.5500460 417.563200
   4836   4839   4840     1   109.8000471 387.438400
   4836   4839   4841     1   109.8000471 387.438400
   4837   4836   4839     1   109.5600471 388.275200
   4837   4836   4866     1   109.7800468 425.094400
   4837   4836   4838     1   108.4600466 328.025600
   4838   4836   4839     1   109.5600471 388.275200
   4838   4836   4866     1   109.7800468 425.094400
   4839   4842   4843     1   110.5600475 386.601600
   4839   4842   4844     1   110.5600475 386.601600
   4840   4839   4842     1   109.8000471 387.438400
   4840   4839   4841     1   107.5800459 329.699200
   4841   4839   4842     1   109.8000471 387.438400
   4842   4845   4867     1   110.1100470 384.091200
   4843   4842   4845     1   108.0100461 406.684800
   4843   4842   4844     1   109.7500473 328.025600
   4844   4842   4845     1   108.0100461 406.684800
   4845   4846   4847     1   108.0100461 406.684800
   4845   4846   4848     1   108.0100461 406.684800
   4845   4856   4857     1   108.0100461 406.684800
   4845   4856   4858     1   108.0100461 406.684800
   4846   4849   4850     1   109.8000471 387.438400
   4846   4849   4851     1   109.8000471 387.438400
   4846   4845   4867     1   110.1100470 384.091200
   4847   4846   4849     1   110.5600475 386.601600
   4847   4846   4848     1   109.7500473 328.025600
   4848   4846   4849     1   110.5600475 386.601600
   4850   4849   4852     1   108.7700466 392.459200
   4850   4849   4851     1   107.5800459 329.699200
   4851   4849   4852     1   108.7700466 392.459200
   4852   4854   4855     1   106.5500460 417.563200
   4856   4859   4860     1   109.8000471 387.438400
   4856   4859   4861     1   109.8000471 387.438400
   4856   4845   4867     1   110.1100470 384.091200
   4857   4856   4859     1   110.5600475 386.601600
   4857   4856   4858     1   109.7500473 328.025600
   4858   4856   4859     1   110.5600475 386.601600
   4860   4859   4862     1   108.7700466 392.459200
   4860   4859   4861     1   107.5800459 329.699200
   4861   4859   4862     1   108.7700466 392.459200
   4862   4864   4865     1   106.5500460 417.563200
   4868   4871   4872     1   109.8000471 387.438400
   4868   4871   4873     1   109.8000471 387.438400
   4869   4868   4871     1   109.5600471 388.275200
   4869   4868   4898     1   109.7800468 425.094400
   4869   4868   4870     1   108.4600466 328.025600
   4870   4868   4871     1   109.5600471 388.275200
   4870   4868   4898     1   109.7800468 425.094400
   4871   4874   4875     1   110.5600475 386.601600
   4871   4874   4876     1   110.5600475 386.601600
   4872   4871   4874     1   109.8000471 387.438400
   4872   4871   4873     1   107.5800459 329.699200
   4873   4871   4874     1   109.8000471 387.438400
   4874   4877   4899     1   110.1100470 384.091200
   4875   4874   4877     1   108.0100461 406.684800
   4875   4874   4876     1   109.7500473 328.025600
   4876   4874   4877     1   108.0100461 406.684800
   4877   4878   4879     1   108.0100461 406.684800
   4877   4878   4880     1   108.0100461 406.684800
   4877   4888   4889     1   108.0100461 406.684800
   4877   4888   4890     1   108.0100461 406.684800
   4878   4877   4899     1   110.1100470 384.091200
   4878   4881   4882     1   109.8000471 387.438400
   4878   4881   4883     1   109.8000471 387.438400
   4879   4878   4881     1   110.5600475 386.601600
   4879   4878   4880     1   109.7500473 328.025600
   4880   4878   4881     1   110.5600475 386.601600
   4882   4881   4884     1   108.7700466 392.459200
   4882   4881   4883     1   107.5800459 329.699200
   4883   4881   4884     1   108.7700466 392.459200
   4884   4886   4887     1   106.5500460 417.563200
   4888   4877   4899     1   110.1100470 384.091200
   4888   4891   4892     1   109.8000471 387.438400
   4888   4891   4893     1   109.8000471 387.438400
   4889   4888   4891     1   110.5600475 386.601600
   4889   4888   4890     1   109.7500473 328.025600
   4890   4888   4891     1   110.5600475 386.601600
   4892   4891   4894     1   108.7700466 392.459200
   4892   4891   4893     1   107.5800459 329.699200
   4893   4891   4894     1   108.7700466 392.459200
   4894   4896   4897     1   106.5500460 417.563200
   4900   4903   4904     1   109.8000471 387.438400
   4900   4903   4905     1   109.8000471 387.438400
   4901   4900   4903     1   109.5600471 388.275200
   4901   4900   4930     1   109.7800468 425.094400
   4901   4900   4902     1   108.4600466 328.025600
   4902   4900   4903     1   109.5600471 388.275200
   4902   4900   4930     1   109.7800468 425.094400
   4903   4906   4907     1   110.5600475 386.601600
   4903   4906   4908     1   110.5600475 386.601600
   4904   4903   4906     1   109.8000471 387.438400
   4904   4903   4905     1   107.5800459 329.699200
   4905   4903   4906     1   109.8000471 387.438400
   4906   4909   4931     1   110.1100470 384.091200
   4907   4906   4909     1   108.0100461 406.684800
   4907   4906   4908     1   109.7500473 328.025600
   4908   4906   4909     1   108.0100461 406.684800
   4909   4910   4911     1   108.0100461 406.684800
   4909   4910   4912     1   108.0100461 406.684800
   4909   4920   4921     1   108.0100461 406.684800
   4909   4920   4922     1   108.0100461 406.684800
   4910   4913   4914     1   109.8000471 387.438400
   4910   4913   4915     1   109.8000471 387.438400
   4910   4909   4931     1   110.1100470 384.091200
   4911   4910   4913     1   110.5600475 386.601600
   4911   4910   4912     1   109.7500473 328.025600
   4912   4910   4913     1   110.5600475 386.601600
   4914   4913   4916     1   108.7700466 392.459200
   4914   4913   4915     1   107.5800459 329.699200
   4915   4913   4916     1   108.7700466 392.459200
   4916   4918   4919     1   106.5500460 417.563200
   4920   4923   4924     1   109.8000471 387.438400
   4920   4923   4925     1   109.8000471 387.438400
   4920   4909   4931     1   110.1100470 384.091200
   4921   4920   4923     1   110.5600475 386.601600
   4921   4920   4922     1   109.7500473 328.025600
   4922   4920   4923     1   110.5600475 386.601600
   4924   4923   4926     1   108.7700466 392.459200
   4924   4923   4925     1   107.5800459 329.699200
   4925   4923   4926     1   108.7700466 392.459200
   4926   4928   4929     1   106.5500460 417.563200
   4932   4935   4936     1   109.8000471 387.438400
   4932   4935   4937     1   109.8000471 387.438400
   4933   4932   4935     1   109.5600471 388.275200
   4933   4932   4962     1   109.7800468 425.094400
   4933   4932   4934     1   108.4600466 328.025600
   4934   4932   4935     1   109.5600471 388.275200
   4934   4932   4962     1   109.7800468 425.094400
   4935   4938   4939     1   110.5600475 386.601600
   4935   4938   4940     1   110.5600475 386.601600
   4936   4935   4938     1   109.8000471 387.438400
   4936   4935   4937     1   107.5800459 329.699200
   4937   4935   4938     1   109.8000471 387.438400
   4938   4941   4963     1   110.1100470 384.091200
   4939   4938   4941     1   108.0100461 406.684800
   4939   4938   4940     1   109.7500473 328.025600
   4940   4938   4941     1   108.0100461 406.684800
   4941   4942   4943     1   108.0100461 406.684800
   4941   4942   4944     1   108.0100461 406.684800
   4941   4952   4953     1   108.0100461 406.684800
   4941   4952   4954     1   108.0100461 406.684800
   4942   4941   4963     1   110.1100470 384.091200
   4942   4945   4946     1   109.8000471 387.438400
   4942   4945   4947     1   109.8000471 387.438400
   4943   4942   4945     1   110.5600475 386.601600
   4943   4942   4944     1   109.7500473 328.025600
   4944   4942   4945     1   110.5600475 386.601600
   4946   4945   4948     1   108.7700466 392.459200
   4946   4945   4947     1   107.5800459 329.699200
   4947   4945   4948     1   108.7700466 392.459200
   4948   4950   4951     1   106.5500460 417.563200
   4952   4941   4963     1   110.1100470 384.091200
   4952   4955   4956     1   109.8000471 387.438400
   4952   4955   4957     1   109.8000471 387.438400
   4953   4952   4955     1   110.5600475 386.601600
   4953   4952   4954     1   109.7500473 328.025600
   4954   4952   4955     1   110.5600475 386.601600
   4956   4955   4958     1   108.7700466 392.459200
   4956   4955   4957     1   107.5800459 329.699200
   4957   4955   4958     1   108.7700466 392.459200
   4958   4960   4961     1   106.5500460 417.563200
   4964   4967   4968     1   109.8000471 387.438400
   4964   4967   4969     1   109.8000471 387.438400
   4965   4964   4967     1   109.5600471 388.275200
   4965   4964   4994     1   109.7800468 425.094400
   4965   4964   4966     1   108.4600466 328.025600
   4966   4964   4967     1   109.5600471 388.275200
   4966   4964   4994     1   109.7800468 425.094400
   4967   4970   4971     1   110.5600475 386.601600
   4967   4970   4972     1   110.5600475 386.601600
   4968   4967   4970     1   109.8000471 387.438400
   4968   4967   4969     1   107.5800459 329.699200
   4969   4967   4970     1   109.8000471 387.438400
   4970   4973   4995     1   110.1100470 384.091200
   4971   4970   4973     1   108.0100461 406.684800
   4971   4970   4972     1   109.7500473 328.025600
   4972   4970   4973     1   108.0100461 406.684800
   4973   4974   4975     1   108.0100461 406.684800
   4973   4974   4976     1   108.0100461 406.684800
   4973   4984   4985     1   108.0100461 406.684800
   4973   4984   4986     1   108.0100461 406.684800
   4974   4977   4978     1   109.8000471 387.438400
   4974   4977   4979     1   109.8000471 387.438400
   4974   4973   4995     1   110.1100470 384.091200
   4975   4974   4977     1   110.5600475 386.601600
   4975   4974   4976     1   109.7500473 328.025600
   4976   4974   4977     1   110.5600475 386.601600
   4978   4977   4980     1   108.7700466 392.459200
   4978   4977   4979     1   107.5800459 329.699200
   4979   4977   4980     1   108.7700466 392.459200
   4980   4982   4983     1   106.5500460 417.563200
   4984   4987   4988     1   109.8000471 387.438400
   4984   4987   4989     1   109.8000471 387.438400
   4984   4973   4995     1   110.1100470 384.091200
   4985   4984   4987     1   110.5600475 386.601600
   4985   4984   4986     1   109.7500473 328.025600
   4986   4984   4987     1   110.5600475 386.601600
   4988   4987   4990     1   108.7700466 392.459200
   4988   4987   4989     1   107.5800459 329.699200
   4989   4987   4990     1   108.7700466 392.459200
   4990   4992   4993     1   106.5500460 417.563200
   4996   4999   5000     1   109.8000471 387.438400
   4996   4999   5001     1   109.8000471 387.438400
   4997   4996   4999     1   109.5600471 388.275200
   4997   4996   5026     1   109.7800468 425.094400
   4997   4996   4998     1   108.4600466 328.025600
   4998   4996   4999     1   109.5600471 388.275200
   4998   4996   5026     1   109.7800468 425.094400
   4999   5002   5003     1   110.5600475 386.601600
   4999   5002   5004     1   110.5600475 386.601600
   5000   4999   5002     1   109.8000471 387.438400
   5000   4999   5001     1   107.5800459 329.699200
   5001   4999   5002     1   109.8000471 387.438400
   5002   5005   5027     1   110.1100470 384.091200
   5003   5002   5005     1   108.0100461 406.684800
   5003   5002   5004     1   109.7500473 328.025600
   5004   5002   5005     1   108.0100461 406.684800
   5005   5006   5007     1   108.0100461 406.684800
   5005   5006   5008     1   108.0100461 406.684800
   5005   5016   5017     1   108.0100461 406.684800
   5005   5016   5018     1   108.0100461 406.684800
   5006   5005   5027     1   110.1100470 384.091200
   5006   5009   5010     1   109.8000471 387.438400
   5006   5009   5011     1   109.8000471 387.438400
   5007   5006   5009     1   110.5600475 386.601600
   5007   5006   5008     1   109.7500473 328.025600
   5008   5006   5009     1   110.5600475 386.601600
   5010   5009   5012     1   108.7700466 392.459200
   5010   5009   5011     1   107.5800459 329.699200
   5011   5009   5012     1   108.7700466 392.459200
   5012   5014   5015     1   106.5500460 417.563200
   5016   5005   5027     1   110.1100470 384.091200
   5016   5019   5020     1   109.8000471 387.438400
   5016   5019   5021     1   109.8000471 387.438400
   5017   5016   5019     1   110.5600475 386.601600
   5017   5016   5018     1   109.7500473 328.025600
   5018   5016   5019     1   110.5600475 386.601600
   5020   5019   5022     1   108.7700466 392.459200
   5020   5019   5021     1   107.5800459 329.699200
   5021   5019   5022     1   108.7700466 392.459200
   5022   5024   5025     1   106.5500460 417.563200
   5028   5031   5032     1   109.8000471 387.438400
   5028   5031   5033     1   109.8000471 387.438400
   5029   5028   5031     1   109.5600471 388.275200
   5029   5028   5058     1   109.7800468 425.094400
   5029   5028   5030     1   108.4600466 328.025600
   5030   5028   5031     1   109.5600471 388.275200
   5030   5028   5058     1   109.7800468 425.094400
   5031   5034   5035     1   110.5600475 386.601600
   5031   5034   5036     1   110.5600475 386.601600
   5032   5031   5034     1   109.8000471 387.438400
   5032   5031   5033     1   107.5800459 329.699200
   5033   5031   5034     1   109.8000471 387.438400
   5034   5037   5059     1   110.1100470 384.091200
   5035   5034   5037     1   108.0100461 406.684800
   5035   5034   5036     1   109.7500473 328.025600
   5036   5034   5037     1   108.0100461 406.684800
   5037   5038   5039     1   108.0100461 406.684800
   5037   5038   5040     1   108.0100461 406.684800
   5037   5048   5049     1   108.0100461 406.684800
   5037   5048   5050     1   108.0100461 406.684800
   5038   5041   5042     1   109.8000471 387.438400
   5038   5041   5043     1   109.8000471 387.438400
   5038   5037   5059     1   110.1100470 384.091200
   5039   5038   5041     1   110.5600475 386.601600
   5039   5038   5040     1   109.7500473 328.025600
   5040   5038   5041     1   110.5600475 386.601600
   5042   5041   5044     1   108.7700466 392.459200
   5042   5041   5043     1   107.5800459 329.699200
   5043   5041   5044     1   108.7700466 392.459200
   5044   5046   5047     1   106.5500460 417.563200
   5048   5051   5052     1   109.8000471 387.438400
   5048   5051   5053     1   109.8000471 387.438400
   5048   5037   5059     1   110.1100470 384.091200
   5049   5048   5051     1   110.5600475 386.601600
   5049   5048   5050     1   109.7500473 328.025600
   5050   5048   5051     1   110.5600475 386.601600
   5052   5051   5054     1   108.7700466 392.459200
   5052   5051   5053     1   107.5800459 329.699200
   5053   5051   5054     1   108.7700466 392.459200
   5054   5056   5057     1   106.5500460 417.563200
   5060   5063   5064     1   109.8000471 387.438400
   5060   5063   5065     1   109.8000471 387.438400
   5061   5060   5063     1   109.5600471 388.275200
   5061   5060   5090     1   109.7800468 425.094400
   5061   5060   5062     1   108.4600466 328.025600
   5062   5060   5063     1   109.5600471 388.275200
   5062   5060   5090     1   109.7800468 425.094400
   5063   5066   5067     1   110.5600475 386.601600
   5063   5066   5068     1   110.5600475 386.601600
   5064   5063   5066     1   109.8000471 387.438400
   5064   5063   5065     1   107.5800459 329.699200
   5065   5063   5066     1   109.8000471 387.438400
   5066   5069   5091     1   110.1100470 384.091200
   5067   5066   5069     1   108.0100461 406.684800
   5067   5066   5068     1   109.7500473 328.025600
   5068   5066   5069     1   108.0100461 406.684800
   5069   5070   5071     1   108.0100461 406.684800
   5069   5070   5072     1   108.0100461 406.684800
   5069   5080   5081     1   108.0100461 406.684800
   5069   5080   5082     1   108.0100461 406.684800
   5070   5069   5091     1   110.1100470 384.091200
   5070   5073   5074     1   109.8000471 387.438400
   5070   5073   5075     1   109.8000471 387.438400
   5071   5070   5073     1   110.5600475 386.601600
   5071   5070   5072     1   109.7500473 328.025600
   5072   5070   5073     1   110.5600475 386.601600
   5074   5073   5076     1   108.7700466 392.459200
   5074   5073   5075     1   107.5800459 329.699200
   5075   5073   5076     1   108.7700466 392.459200
   5076   5078   5079     1   106.5500460 417.563200
   5080   5069   5091     1   110.1100470 384.091200
   5080   5083   5084     1   109.8000471 387.438400
   5080   5083   5085     1   109.8000471 387.438400
   5081   5080   5083     1   110.5600475 386.601600
   5081   5080   5082     1   109.7500473 328.025600
   5082   5080   5083     1   110.5600475 386.601600
   5084   5083   5086     1   108.7700466 392.459200
   5084   5083   5085     1   107.5800459 329.699200
   5085   5083   5086     1   108.7700466 392.459200
   5086   5088   5089     1   106.5500460 417.563200
   5092   5095   5096     1   109.8000471 387.438400
   5092   5095   5097     1   109.8000471 387.438400
   5093   5092   5095     1   109.5600471 388.275200
   5093   5092   5122     1   109.7800468 425.094400
   5093   5092   5094     1   108.4600466 328.025600
   5094   5092   5095     1   109.5600471 388.275200
   5094   5092   5122     1   109.7800468 425.094400
   5095   5098   5099     1   110.5600475 386.601600
   5095   5098   5100     1   110.5600475 386.601600
   5096   5095   5098     1   109.8000471 387.438400
   5096   5095   5097     1   107.5800459 329.699200
   5097   5095   5098     1   109.8000471 387.438400
   5098   5101   5123     1   110.1100470 384.091200
   5099   5098   5101     1   108.0100461 406.684800
   5099   5098   5100     1   109.7500473 328.025600
   5100   5098   5101     1   108.0100461 406.684800
   5101   5102   5103     1   108.0100461 406.684800
   5101   5102   5104     1   108.0100461 406.684800
   5101   5112   5113     1   108.0100461 406.684800
   5101   5112   5114     1   108.0100461 406.684800
   5102   5105   5106     1   109.8000471 387.438400
   5102   5105   5107     1   109.8000471 387.438400
   5102   5101   5123     1   110.1100470 384.091200
   5103   5102   5105     1   110.5600475 386.601600
   5103   5102   5104     1   109.7500473 328.025600
   5104   5102   5105     1   110.5600475 386.601600
   5106   5105   5108     1   108.7700466 392.459200
   5106   5105   5107     1   107.5800459 329.699200
   5107   5105   5108     1   108.7700466 392.459200
   5108   5110   5111     1   106.5500460 417.563200
   5112   5115   5116     1   109.8000471 387.438400
   5112   5115   5117     1   109.8000471 387.438400
   5112   5101   5123     1   110.1100470 384.091200
   5113   5112   5115     1   110.5600475 386.601600
   5113   5112   5114     1   109.7500473 328.025600
   5114   5112   5115     1   110.5600475 386.601600
   5116   5115   5118     1   108.7700466 392.459200
   5116   5115   5117     1   107.5800459 329.699200
   5117   5115   5118     1   108.7700466 392.459200
   5118   5120   5121     1   106.5500460 417.563200
   5124   5127   5128     1   109.8000471 387.438400
   5124   5127   5129     1   109.8000471 387.438400
   5125   5124   5127     1   109.5600471 388.275200
   5125   5124   5154     1   109.7800468 425.094400
   5125   5124   5126     1   108.4600466 328.025600
   5126   5124   5127     1   109.5600471 388.275200
   5126   5124   5154     1   109.7800468 425.094400
   5127   5130   5131     1   110.5600475 386.601600
   5127   5130   5132     1   110.5600475 386.601600
   5128   5127   5130     1   109.8000471 387.438400
   5128   5127   5129     1   107.5800459 329.699200
   5129   5127   5130     1   109.8000471 387.438400
   5130   5133   5155     1   110.1100470 384.091200
   5131   5130   5133     1   108.0100461 406.684800
   5131   5130   5132     1   109.7500473 328.025600
   5132   5130   5133     1   108.0100461 406.684800
   5133   5134   5135     1   108.0100461 406.684800
   5133   5134   5136     1   108.0100461 406.684800
   5133   5144   5145     1   108.0100461 406.684800
   5133   5144   5146     1   108.0100461 406.684800
   5134   5133   5155     1   110.1100470 384.091200
   5134   5137   5138     1   109.8000471 387.438400
   5134   5137   5139     1   109.8000471 387.438400
   5135   5134   5137     1   110.5600475 386.601600
   5135   5134   5136     1   109.7500473 328.025600
   5136   5134   5137     1   110.5600475 386.601600
   5138   5137   5140     1   108.7700466 392.459200
   5138   5137   5139     1   107.5800459 329.699200
   5139   5137   5140     1   108.7700466 392.459200
   5140   5142   5143     1   106.5500460 417.563200
   5144   5133   5155     1   110.1100470 384.091200
   5144   5147   5148     1   109.8000471 387.438400
   5144   5147   5149     1   109.8000471 387.438400
   5145   5144   5147     1   110.5600475 386.601600
   5145   5144   5146     1   109.7500473 328.025600
   5146   5144   5147     1   110.5600475 386.601600
   5148   5147   5150     1   108.7700466 392.459200
   5148   5147   5149     1   107.5800459 329.699200
   5149   5147   5150     1   108.7700466 392.459200
   5150   5152   5153     1   106.5500460 417.563200
   5156   5159   5160     1   109.8000471 387.438400
   5156   5159   5161     1   109.8000471 387.438400
   5157   5156   5159     1   109.5600471 388.275200
   5157   5156   5186     1   109.7800468 425.094400
   5157   5156   5158     1   108.4600466 328.025600
   5158   5156   5159     1   109.5600471 388.275200
   5158   5156   5186     1   109.7800468 425.094400
   5159   5162   5163     1   110.5600475 386.601600
   5159   5162   5164     1   110.5600475 386.601600
   5160   5159   5162     1   109.8000471 387.438400
   5160   5159   5161     1   107.5800459 329.699200
   5161   5159   5162     1   109.8000471 387.438400
   5162   5165   5187     1   110.1100470 384.091200
   5163   5162   5165     1   108.0100461 406.684800
   5163   5162   5164     1   109.7500473 328.025600
   5164   5162   5165     1   108.0100461 406.684800
   5165   5166   5167     1   108.0100461 406.684800
   5165   5166   5168     1   108.0100461 406.684800
   5165   5176   5177     1   108.0100461 406.684800
   5165   5176   5178     1   108.0100461 406.684800
   5166   5169   5170     1   109.8000471 387.438400
   5166   5169   5171     1   109.8000471 387.438400
   5166   5165   5187     1   110.1100470 384.091200
   5167   5166   5169     1   110.5600475 386.601600
   5167   5166   5168     1   109.7500473 328.025600
   5168   5166   5169     1   110.5600475 386.601600
   5170   5169   5172     1   108.7700466 392.459200
   5170   5169   5171     1   107.5800459 329.699200
   5171   5169   5172     1   108.7700466 392.459200
   5172   5174   5175     1   106.5500460 417.563200
   5176   5179   5180     1   109.8000471 387.438400
   5176   5179   5181     1   109.8000471 387.438400
   5176   5165   5187     1   110.1100470 384.091200
   5177   5176   5179     1   110.5600475 386.601600
   5177   5176   5178     1   109.7500473 328.025600
   5178   5176   5179     1   110.5600475 386.601600
   5180   5179   5182     1   108.7700466 392.459200
   5180   5179   5181     1   107.5800459 329.699200
   5181   5179   5182     1   108.7700466 392.459200
   5182   5184   5185     1   106.5500460 417.563200
   5188   5191   5192     1   109.8000471 387.438400
   5188   5191   5193     1   109.8000471 387.438400
   5189   5188   5191     1   109.5600471 388.275200
   5189   5188   5218     1   109.7800468 425.094400
   5189   5188   5190     1   108.4600466 328.025600
   5190   5188   5191     1   109.5600471 388.275200
   5190   5188   5218     1   109.7800468 425.094400
   5191   5194   5195     1   110.5600475 386.601600
   5191   5194   5196     1   110.5600475 386.601600
   5192   5191   5194     1   109.8000471 387.438400
   5192   5191   5193     1   107.5800459 329.699200
   5193   5191   5194     1   109.8000471 387.438400
   5194   5197   5219     1   110.1100470 384.091200
   5195   5194   5197     1   108.0100461 406.684800
   5195   5194   5196     1   109.7500473 328.025600
   5196   5194   5197     1   108.0100461 406.684800
   5197   5198   5199     1   108.0100461 406.684800
   5197   5198   5200     1   108.0100461 406.684800
   5197   5208   5209     1   108.0100461 406.684800
   5197   5208   5210     1   108.0100461 406.684800
   5198   5197   5219     1   110.1100470 384.091200
   5198   5201   5202     1   109.8000471 387.438400
   5198   5201   5203     1   109.8000471 387.438400
   5199   5198   5201     1   110.5600475 386.601600
   5199   5198   5200     1   109.7500473 328.025600
   5200   5198   5201     1   110.5600475 386.601600
   5202   5201   5204     1   108.7700466 392.459200
   5202   5201   5203     1   107.5800459 329.699200
   5203   5201   5204     1   108.7700466 392.459200
   5204   5206   5207     1   106.5500460 417.563200
   5208   5197   5219     1   110.1100470 384.091200
   5208   5211   5212     1   109.8000471 387.438400
   5208   5211   5213     1   109.8000471 387.438400
   5209   5208   5211     1   110.5600475 386.601600
   5209   5208   5210     1   109.7500473 328.025600
   5210   5208   5211     1   110.5600475 386.601600
   5212   5211   5214     1   108.7700466 392.459200
   5212   5211   5213     1   107.5800459 329.699200
   5213   5211   5214     1   108.7700466 392.459200
   5214   5216   5217     1   106.5500460 417.563200
   5220   5223   5224     1   109.8000471 387.438400
   5220   5223   5225     1   109.8000471 387.438400
   5221   5220   5223     1   109.5600471 388.275200
   5221   5220   5250     1   109.7800468 425.094400
   5221   5220   5222     1   108.4600466 328.025600
   5222   5220   5223     1   109.5600471 388.275200
   5222   5220   5250     1   109.7800468 425.094400
   5223   5226   5227     1   110.5600475 386.601600
   5223   5226   5228     1   110.5600475 386.601600
   5224   5223   5226     1   109.8000471 387.438400
   5224   5223   5225     1   107.5800459 329.699200
   5225   5223   5226     1   109.8000471 387.438400
   5226   5229   5251     1   110.1100470 384.091200
   5227   5226   5229     1   108.0100461 406.684800
   5227   5226   5228     1   109.7500473 328.025600
   5228   5226   5229     1   108.0100461 406.684800
   5229   5230   5231     1   108.0100461 406.684800
   5229   5230   5232     1   108.0100461 406.684800
   5229   5240   5241     1   108.0100461 406.684800
   5229   5240   5242     1   108.0100461 406.684800
   5230   5233   5234     1   109.8000471 387.438400
   5230   5233   5235     1   109.8000471 387.438400
   5230   5229   5251     1   110.1100470 384.091200
   5231   5230   5233     1   110.5600475 386.601600
   5231   5230   5232     1   109.7500473 328.025600
   5232   5230   5233     1   110.5600475 386.601600
   5234   5233   5236     1   108.7700466 392.459200
   5234   5233   5235     1   107.5800459 329.699200
   5235   5233   5236     1   108.7700466 392.459200
   5236   5238   5239     1   106.5500460 417.563200
   5240   5243   5244     1   109.8000471 387.438400
   5240   5243   5245     1   109.8000471 387.438400
   5240   5229   5251     1   110.1100470 384.091200
   5241   5240   5243     1   110.5600475 386.601600
   5241   5240   5242     1   109.7500473 328.025600
   5242   5240   5243     1   110.5600475 386.601600
   5244   5243   5246     1   108.7700466 392.459200
   5244   5243   5245     1   107.5800459 329.699200
   5245   5243   5246     1   108.7700466 392.459200
   5246   5248   5249     1   106.5500460 417.563200
   5252   5255   5256     1   109.8000471 387.438400
   5252   5255   5257     1   109.8000471 387.438400
   5253   5252   5255     1   109.5600471 388.275200
   5253   5252   5282     1   109.7800468 425.094400
   5253   5252   5254     1   108.4600466 328.025600
   5254   5252   5255     1   109.5600471 388.275200
   5254   5252   5282     1   109.7800468 425.094400
   5255   5258   5259     1   110.5600475 386.601600
   5255   5258   5260     1   110.5600475 386.601600
   5256   5255   5258     1   109.8000471 387.438400
   5256   5255   5257     1   107.5800459 329.699200
   5257   5255   5258     1   109.8000471 387.438400
   5258   5261   5283     1   110.1100470 384.091200
   5259   5258   5261     1   108.0100461 406.684800
   5259   5258   5260     1   109.7500473 328.025600
   5260   5258   5261     1   108.0100461 406.684800
   5261   5262   5263     1   108.0100461 406.684800
   5261   5262   5264     1   108.0100461 406.684800
   5261   5272   5273     1   108.0100461 406.684800
   5261   5272   5274     1   108.0100461 406.684800
   5262   5261   5283     1   110.1100470 384.091200
   5262   5265   5266     1   109.8000471 387.438400
   5262   5265   5267     1   109.8000471 387.438400
   5263   5262   5265     1   110.5600475 386.601600
   5263   5262   5264     1   109.7500473 328.025600
   5264   5262   5265     1   110.5600475 386.601600
   5266   5265   5268     1   108.7700466 392.459200
   5266   5265   5267     1   107.5800459 329.699200
   5267   5265   5268     1   108.7700466 392.459200
   5268   5270   5271     1   106.5500460 417.563200
   5272   5261   5283     1   110.1100470 384.091200
   5272   5275   5276     1   109.8000471 387.438400
   5272   5275   5277     1   109.8000471 387.438400
   5273   5272   5275     1   110.5600475 386.601600
   5273   5272   5274     1   109.7500473 328.025600
   5274   5272   5275     1   110.5600475 386.601600
   5276   5275   5278     1   108.7700466 392.459200
   5276   5275   5277     1   107.5800459 329.699200
   5277   5275   5278     1   108.7700466 392.459200
   5278   5280   5281     1   106.5500460 417.563200
   5284   5287   5288     1   109.8000471 387.438400
   5284   5287   5289     1   109.8000471 387.438400
   5285   5284   5287     1   109.5600471 388.275200
   5285   5284   5314     1   109.7800468 425.094400
   5285   5284   5286     1   108.4600466 328.025600
   5286   5284   5287     1   109.5600471 388.275200
   5286   5284   5314     1   109.7800468 425.094400
   5287   5290   5291     1   110.5600475 386.601600
   5287   5290   5292     1   110.5600475 386.601600
   5288   5287   5290     1   109.8000471 387.438400
   5288   5287   5289     1   107.5800459 329.699200
   5289   5287   5290     1   109.8000471 387.438400
   5290   5293   5315     1   110.1100470 384.091200
   5291   5290   5293     1   108.0100461 406.684800
   5291   5290   5292     1   109.7500473 328.025600
   5292   5290   5293     1   108.0100461 406.684800
   5293   5294   5295     1   108.0100461 406.684800
   5293   5294   5296     1   108.0100461 406.684800
   5293   5304   5305     1   108.0100461 406.684800
   5293   5304   5306     1   108.0100461 406.684800
   5294   5297   5298     1   109.8000471 387.438400
   5294   5297   5299     1   109.8000471 387.438400
   5294   5293   5315     1   110.1100470 384.091200
   5295   5294   5297     1   110.5600475 386.601600
   5295   5294   5296     1   109.7500473 328.025600
   5296   5294   5297     1   110.5600475 386.601600
   5298   5297   5300     1   108.7700466 392.459200
   5298   5297   5299     1   107.5800459 329.699200
   5299   5297   5300     1   108.7700466 392.459200
   5300   5302   5303     1   106.5500460 417.563200
   5304   5307   5308     1   109.8000471 387.438400
   5304   5307   5309     1   109.8000471 387.438400
   5304   5293   5315     1   110.1100470 384.091200
   5305   5304   5307     1   110.5600475 386.601600
   5305   5304   5306     1   109.7500473 328.025600
   5306   5304   5307     1   110.5600475 386.601600
   5308   5307   5310     1   108.7700466 392.459200
   5308   5307   5309     1   107.5800459 329.699200
   5309   5307   5310     1   108.7700466 392.459200
   5310   5312   5313     1   106.5500460 417.563200
   5316   5319   5320     1   109.8000471 387.438400
   5316   5319   5321     1   109.8000471 387.438400
   5317   5316   5319     1   109.5600471 388.275200
   5317   5316   5346     1   109.7800468 425.094400
   5317   5316   5318     1   108.4600466 328.025600
   5318   5316   5319     1   109.5600471 388.275200
   5318   5316   5346     1   109.7800468 425.094400
   5319   5322   5323     1   110.5600475 386.601600
   5319   5322   5324     1   110.5600475 386.601600
   5320   5319   5322     1   109.8000471 387.438400
   5320   5319   5321     1   107.5800459 329.699200
   5321   5319   5322     1   109.8000471 387.438400
   5322   5325   5347     1   110.1100470 384.091200
   5323   5322   5325     1   108.0100461 406.684800
   5323   5322   5324     1   109.7500473 328.025600
   5324   5322   5325     1   108.0100461 406.684800
   5325   5326   5327     1   108.0100461 406.684800
   5325   5326   5328     1   108.0100461 406.684800
   5325   5336   5337     1   108.0100461 406.684800
   5325   5336   5338     1   108.0100461 406.684800
   5326   5325   5347     1   110.1100470 384.091200
   5326   5329   5330     1   109.8000471 387.438400
   5326   5329   5331     1   109.8000471 387.438400
   5327   5326   5329     1   110.5600475 386.601600
   5327   5326   5328     1   109.7500473 328.025600
   5328   5326   5329     1   110.5600475 386.601600
   5330   5329   5332     1   108.7700466 392.459200
   5330   5329   5331     1   107.5800459 329.699200
   5331   5329   5332     1   108.7700466 392.459200
   5332   5334   5335     1   106.5500460 417.563200
   5336   5325   5347     1   110.1100470 384.091200
   5336   5339   5340     1   109.8000471 387.438400
   5336   5339   5341     1   109.8000471 387.438400
   5337   5336   5339     1   110.5600475 386.601600
   5337   5336   5338     1   109.7500473 328.025600
   5338   5336   5339     1   110.5600475 386.601600
   5340   5339   5342     1   108.7700466 392.459200
   5340   5339   5341     1   107.5800459 329.699200
   5341   5339   5342     1   108.7700466 392.459200
   5342   5344   5345     1   106.5500460 417.563200
   5348   5351   5352     1   109.8000471 387.438400
   5348   5351   5353     1   109.8000471 387.438400
   5349   5348   5351     1   109.5600471 388.275200
   5349   5348   5378     1   109.7800468 425.094400
   5349   5348   5350     1   108.4600466 328.025600
   5350   5348   5351     1   109.5600471 388.275200
   5350   5348   5378     1   109.7800468 425.094400
   5351   5354   5355     1   110.5600475 386.601600
   5351   5354   5356     1   110.5600475 386.601600
   5352   5351   5354     1   109.8000471 387.438400
   5352   5351   5353     1   107.5800459 329.699200
   5353   5351   5354     1   109.8000471 387.438400
   5354   5357   5379     1   110.1100470 384.091200
   5355   5354   5357     1   108.0100461 406.684800
   5355   5354   5356     1   109.7500473 328.025600
   5356   5354   5357     1   108.0100461 406.684800
   5357   5358   5359     1   108.0100461 406.684800
   5357   5358   5360     1   108.0100461 406.684800
   5357   5368   5369     1   108.0100461 406.684800
   5357   5368   5370     1   108.0100461 406.684800
   5358   5361   5362     1   109.8000471 387.438400
   5358   5361   5363     1   109.8000471 387.438400
   5358   5357   5379     1   110.1100470 384.091200
   5359   5358   5361     1   110.5600475 386.601600
   5359   5358   5360     1   109.7500473 328.025600
   5360   5358   5361     1   110.5600475 386.601600
   5362   5361   5364     1   108.7700466 392.459200
   5362   5361   5363     1   107.5800459 329.699200
   5363   5361   5364     1   108.7700466 392.459200
   5364   5366   5367     1   106.5500460 417.563200
   5368   5371   5372     1   109.8000471 387.438400
   5368   5371   5373     1   109.8000471 387.438400
   5368   5357   5379     1   110.1100470 384.091200
   5369   5368   5371     1   110.5600475 386.601600
   5369   5368   5370     1   109.7500473 328.025600
   5370   5368   5371     1   110.5600475 386.601600
   5372   5371   5374     1   108.7700466 392.459200
   5372   5371   5373     1   107.5800459 329.699200
   5373   5371   5374     1   108.7700466 392.459200
   5374   5376   5377     1   106.5500460 417.563200
   5380   5383   5384     1   109.8000471 387.438400
   5380   5383   5385     1   109.8000471 387.438400
   5381   5380   5383     1   109.5600471 388.275200
   5381   5380   5410     1   109.7800468 425.094400
   5381   5380   5382     1   108.4600466 328.025600
   5382   5380   5383     1   109.5600471 388.275200
   5382   5380   5410     1   109.7800468 425.094400
   5383   5386   5387     1   110.5600475 386.601600
   5383   5386   5388     1   110.5600475 386.601600
   5384   5383   5386     1   109.8000471 387.438400
   5384   5383   5385     1   107.5800459 329.699200
   5385   5383   5386     1   109.8000471 387.438400
   5386   5389   5411     1   110.1100470 384.091200
   5387   5386   5389     1   108.0100461 406.684800
   5387   5386   5388     1   109.7500473 328.025600
   5388   5386   5389     1   108.0100461 406.684800
   5389   5390   5391     1   108.0100461 406.684800
   5389   5390   5392     1   108.0100461 406.684800
   5389   5400   5401     1   108.0100461 406.684800
   5389   5400   5402     1   108.0100461 406.684800
   5390   5389   5411     1   110.1100470 384.091200
   5390   5393   5394     1   109.8000471 387.438400
   5390   5393   5395     1   109.8000471 387.438400
   5391   5390   5393     1   110.5600475 386.601600
   5391   5390   5392     1   109.7500473 328.025600
   5392   5390   5393     1   110.5600475 386.601600
   5394   5393   5396     1   108.7700466 392.459200
   5394   5393   5395     1   107.5800459 329.699200
   5395   5393   5396     1   108.7700466 392.459200
   5396   5398   5399     1   106.5500460 417.563200
   5400   5389   5411     1   110.1100470 384.091200
   5400   5403   5404     1   109.8000471 387.438400
   5400   5403   5405     1   109.8000471 387.438400
   5401   5400   5403     1   110.5600475 386.601600
   5401   5400   5402     1   109.7500473 328.025600
   5402   5400   5403     1   110.5600475 386.601600
   5404   5403   5406     1   108.7700466 392.459200
   5404   5403   5405     1   107.5800459 329.699200
   5405   5403   5406     1   108.7700466 392.459200
   5406   5408   5409     1   106.5500460 417.563200
   5412   5415   5416     1   109.8000471 387.438400
   5412   5415   5417     1   109.8000471 387.438400
   5413   5412   5415     1   109.5600471 388.275200
   5413   5412   5442     1   109.7800468 425.094400
   5413   5412   5414     1   108.4600466 328.025600
   5414   5412   5415     1   109.5600471 388.275200
   5414   5412   5442     1   109.7800468 425.094400
   5415   5418   5419     1   110.5600475 386.601600
   5415   5418   5420     1   110.5600475 386.601600
   5416   5415   5418     1   109.8000471 387.438400
   5416   5415   5417     1   107.5800459 329.699200
   5417   5415   5418     1   109.8000471 387.438400
   5418   5421   5443     1   110.1100470 384.091200
   5419   5418   5421     1   108.0100461 406.684800
   5419   5418   5420     1   109.7500473 328.025600
   5420   5418   5421     1   108.0100461 406.684800
   5421   5422   5423     1   108.0100461 406.684800
   5421   5422   5424     1   108.0100461 406.684800
   5421   5432   5433     1   108.0100461 406.684800
   5421   5432   5434     1   108.0100461 406.684800
   5422   5425   5426     1   109.8000471 387.438400
   5422   5425   5427     1   109.8000471 387.438400
   5422   5421   5443     1   110.1100470 384.091200
   5423   5422   5425     1   110.5600475 386.601600
   5423   5422   5424     1   109.7500473 328.025600
   5424   5422   5425     1   110.5600475 386.601600
   5426   5425   5428     1   108.7700466 392.459200
   5426   5425   5427     1   107.5800459 329.699200
   5427   5425   5428     1   108.7700466 392.459200
   5428   5430   5431     1   106.5500460 417.563200
   5432   5435   5436     1   109.8000471 387.438400
   5432   5435   5437     1   109.8000471 387.438400
   5432   5421   5443     1   110.1100470 384.091200
   5433   5432   5435     1   110.5600475 386.601600
   5433   5432   5434     1   109.7500473 328.025600
   5434   5432   5435     1   110.5600475 386.601600
   5436   5435   5438     1   108.7700466 392.459200
   5436   5435   5437     1   107.5800459 329.699200
   5437   5435   5438     1   108.7700466 392.459200
   5438   5440   5441     1   106.5500460 417.563200
   5444   5447   5448     1   109.8000471 387.438400
   5444   5447   5449     1   109.8000471 387.438400
   5445   5444   5447     1   109.5600471 388.275200
   5445   5444   5474     1   109.7800468 425.094400
   5445   5444   5446     1   108.4600466 328.025600
   5446   5444   5447     1   109.5600471 388.275200
   5446   5444   5474     1   109.7800468 425.094400
   5447   5450   5451     1   110.5600475 386.601600
   5447   5450   5452     1   110.5600475 386.601600
   5448   5447   5450     1   109.8000471 387.438400
   5448   5447   5449     1   107.5800459 329.699200
   5449   5447   5450     1   109.8000471 387.438400
   5450   5453   5475     1   110.1100470 384.091200
   5451   5450   5453     1   108.0100461 406.684800
   5451   5450   5452     1   109.7500473 328.025600
   5452   5450   5453     1   108.0100461 406.684800
   5453   5454   5455     1   108.0100461 406.684800
   5453   5454   5456     1   108.0100461 406.684800
   5453   5464   5465     1   108.0100461 406.684800
   5453   5464   5466     1   108.0100461 406.684800
   5454   5453   5475     1   110.1100470 384.091200
   5454   5457   5458     1   109.8000471 387.438400
   5454   5457   5459     1   109.8000471 387.438400
   5455   5454   5457     1   110.5600475 386.601600
   5455   5454   5456     1   109.7500473 328.025600
   5456   5454   5457     1   110.5600475 386.601600
   5458   5457   5460     1   108.7700466 392.459200
   5458   5457   5459     1   107.5800459 329.699200
   5459   5457   5460     1   108.7700466 392.459200
   5460   5462   5463     1   106.5500460 417.563200
   5464   5453   5475     1   110.1100470 384.091200
   5464   5467   5468     1   109.8000471 387.438400
   5464   5467   5469     1   109.8000471 387.438400
   5465   5464   5467     1   110.5600475 386.601600
   5465   5464   5466     1   109.7500473 328.025600
   5466   5464   5467     1   110.5600475 386.601600
   5468   5467   5470     1   108.7700466 392.459200
   5468   5467   5469     1   107.5800459 329.699200
   5469   5467   5470     1   108.7700466 392.459200
   5470   5472   5473     1   106.5500460 417.563200
   5476   5479   5480     1   109.8000471 387.438400
   5476   5479   5481     1   109.8000471 387.438400
   5477   5476   5479     1   109.5600471 388.275200
   5477   5476   5506     1   109.7800468 425.094400
   5477   5476   5478     1   108.4600466 328.025600
   5478   5476   5479     1   109.5600471 388.275200
   5478   5476   5506     1   109.7800468 425.094400
   5479   5482   5483     1   110.5600475 386.601600
   5479   5482   5484     1   110.5600475 386.601600
   5480   5479   5482     1   109.8000471 387.438400
   5480   5479   5481     1   107.5800459 329.699200
   5481   5479   5482     1   109.8000471 387.438400
   5482   5485   5507     1   110.1100470 384.091200
   5483   5482   5485     1   108.0100461 406.684800
   5483   5482   5484     1   109.7500473 328.025600
   5484   5482   5485     1   108.0100461 406.684800
   5485   5486   5487     1   108.0100461 406.684800
   5485   5486   5488     1   108.0100461 406.684800
   5485   5496   5497     1   108.0100461 406.684800
   5485   5496   5498     1   108.0100461 406.684800
   5486   5489   5490     1   109.8000471 387.438400
   5486   5489   5491     1   109.8000471 387.438400
   5486   5485   5507     1   110.1100470 384.091200
   5487   5486   5489     1   110.5600475 386.601600
   5487   5486   5488     1   109.7500473 328.025600
   5488   5486   5489     1   110.5600475 386.601600
   5490   5489   5492     1   108.7700466 392.459200
   5490   5489   5491     1   107.5800459 329.699200
   5491   5489   5492     1   108.7700466 392.459200
   5492   5494   5495     1   106.5500460 417.563200
   5496   5499   5500     1   109.8000471 387.438400
   5496   5499   5501     1   109.8000471 387.438400
   5496   5485   5507     1   110.1100470 384.091200
   5497   5496   5499     1   110.5600475 386.601600
   5497   5496   5498     1   109.7500473 328.025600
   5498   5496   5499     1   110.5600475 386.601600
   5500   5499   5502     1   108.7700466 392.459200
   5500   5499   5501     1   107.5800459 329.699200
   5501   5499   5502     1   108.7700466 392.459200
   5502   5504   5505     1   106.5500460 417.563200
   5508   5511   5512     1   109.8000471 387.438400
   5508   5511   5513     1   109.8000471 387.438400
   5509   5508   5511     1   109.5600471 388.275200
   5509   5508   5538     1   109.7800468 425.094400
   5509   5508   5510     1   108.4600466 328.025600
   5510   5508   5511     1   109.5600471 388.275200
   5510   5508   5538     1   109.7800468 425.094400
   5511   5514   5515     1   110.5600475 386.601600
   5511   5514   5516     1   110.5600475 386.601600
   5512   5511   5514     1   109.8000471 387.438400
   5512   5511   5513     1   107.5800459 329.699200
   5513   5511   5514     1   109.8000471 387.438400
   5514   5517   5539     1   110.1100470 384.091200
   5515   5514   5517     1   108.0100461 406.684800
   5515   5514   5516     1   109.7500473 328.025600
   5516   5514   5517     1   108.0100461 406.684800
   5517   5518   5519     1   108.0100461 406.684800
   5517   5518   5520     1   108.0100461 406.684800
   5517   5528   5529     1   108.0100461 406.684800
   5517   5528   5530     1   108.0100461 406.684800
   5518   5517   5539     1   110.1100470 384.091200
   5518   5521   5522     1   109.8000471 387.438400
   5518   5521   5523     1   109.8000471 387.438400
   5519   5518   5521     1   110.5600475 386.601600
   5519   5518   5520     1   109.7500473 328.025600
   5520   5518   5521     1   110.5600475 386.601600
   5522   5521   5524     1   108.7700466 392.459200
   5522   5521   5523     1   107.5800459 329.699200
   5523   5521   5524     1   108.7700466 392.459200
   5524   5526   5527     1   106.5500460 417.563200
   5528   5517   5539     1   110.1100470 384.091200
   5528   5531   5532     1   109.8000471 387.438400
   5528   5531   5533     1   109.8000471 387.438400
   5529   5528   5531     1   110.5600475 386.601600
   5529   5528   5530     1   109.7500473 328.025600
   5530   5528   5531     1   110.5600475 386.601600
   5532   5531   5534     1   108.7700466 392.459200
   5532   5531   5533     1   107.5800459 329.699200
   5533   5531   5534     1   108.7700466 392.459200
   5534   5536   5537     1   106.5500460 417.563200
   5540   5543   5544     1   109.8000471 387.438400
   5540   5543   5545     1   109.8000471 387.438400
   5541   5540   5543     1   109.5600471 388.275200
   5541   5540   5570     1   109.7800468 425.094400
   5541   5540   5542     1   108.4600466 328.025600
   5542   5540   5543     1   109.5600471 388.275200
   5542   5540   5570     1   109.7800468 425.094400
   5543   5546   5547     1   110.5600475 386.601600
   5543   5546   5548     1   110.5600475 386.601600
   5544   5543   5546     1   109.8000471 387.438400
   5544   5543   5545     1   107.5800459 329.699200
   5545   5543   5546     1   109.8000471 387.438400
   5546   5549   5571     1   110.1100470 384.091200
   5547   5546   5549     1   108.0100461 406.684800
   5547   5546   5548     1   109.7500473 328.025600
   5548   5546   5549     1   108.0100461 406.684800
   5549   5550   5551     1   108.0100461 406.684800
   5549   5550   5552     1   108.0100461 406.684800
   5549   5560   5561     1   108.0100461 406.684800
   5549   5560   5562     1   108.0100461 406.684800
   5550   5553   5554     1   109.8000471 387.438400
   5550   5553   5555     1   109.8000471 387.438400
   5550   5549   5571     1   110.1100470 384.091200
   5551   5550   5553     1   110.5600475 386.601600
   5551   5550   5552     1   109.7500473 328.025600
   5552   5550   5553     1   110.5600475 386.601600
   5554   5553   5556     1   108.7700466 392.459200
   5554   5553   5555     1   107.5800459 329.699200
   5555   5553   5556     1   108.7700466 392.459200
   5556   5558   5559     1   106.5500460 417.563200
   5560   5563   5564     1   109.8000471 387.438400
   5560   5563   5565     1   109.8000471 387.438400
   5560   5549   5571     1   110.1100470 384.091200
   5561   5560   5563     1   110.5600475 386.601600
   5561   5560   5562     1   109.7500473 328.025600
   5562   5560   5563     1   110.5600475 386.601600
   5564   5563   5566     1   108.7700466 392.459200
   5564   5563   5565     1   107.5800459 329.699200
   5565   5563   5566     1   108.7700466 392.459200
   5566   5568   5569     1   106.5500460 417.563200
   5572   5575   5576     1   109.8000471 387.438400
   5572   5575   5577     1   109.8000471 387.438400
   5573   5572   5575     1   109.5600471 388.275200
   5573   5572   5602     1   109.7800468 425.094400
   5573   5572   5574     1   108.4600466 328.025600
   5574   5572   5575     1   109.5600471 388.275200
   5574   5572   5602     1   109.7800468 425.094400
   5575   5578   5579     1   110.5600475 386.601600
   5575   5578   5580     1   110.5600475 386.601600
   5576   5575   5578     1   109.8000471 387.438400
   5576   5575   5577     1   107.5800459 329.699200
   5577   5575   5578     1   109.8000471 387.438400
   5578   5581   5603     1   110.1100470 384.091200
   5579   5578   5581     1   108.0100461 406.684800
   5579   5578   5580     1   109.7500473 328.025600
   5580   5578   5581     1   108.0100461 406.684800
   5581   5582   5583     1   108.0100461 406.684800
   5581   5582   5584     1   108.0100461 406.684800
   5581   5592   5593     1   108.0100461 406.684800
   5581   5592   5594     1   108.0100461 406.684800
   5582   5581   5603     1   110.1100470 384.091200
   5582   5585   5586     1   109.8000471 387.438400
   5582   5585   5587     1   109.8000471 387.438400
   5583   5582   5585     1   110.5600475 386.601600
   5583   5582   5584     1   109.7500473 328.025600
   5584   5582   5585     1   110.5600475 386.601600
   5586   5585   5588     1   108.7700466 392.459200
   5586   5585   5587     1   107.5800459 329.699200
   5587   5585   5588     1   108.7700466 392.459200
   5588   5590   5591     1   106.5500460 417.563200
   5592   5581   5603     1   110.1100470 384.091200
   5592   5595   5596     1   109.8000471 387.438400
   5592   5595   5597     1   109.8000471 387.438400
   5593   5592   5595     1   110.5600475 386.601600
   5593   5592   5594     1   109.7500473 328.025600
   5594   5592   5595     1   110.5600475 386.601600
   5596   5595   5598     1   108.7700466 392.459200
   5596   5595   5597     1   107.5800459 329.699200
   5597   5595   5598     1   108.7700466 392.459200
   5598   5600   5601     1   106.5500460 417.563200
   5604   5607   5608     1   109.8000471 387.438400
   5604   5607   5609     1   109.8000471 387.438400
   5605   5604   5607     1   109.5600471 388.275200
   5605   5604   5634     1   109.7800468 425.094400
   5605   5604   5606     1   108.4600466 328.025600
   5606   5604   5607     1   109.5600471 388.275200
   5606   5604   5634     1   109.7800468 425.094400
   5607   5610   5611     1   110.5600475 386.601600
   5607   5610   5612     1   110.5600475 386.601600
   5608   5607   5610     1   109.8000471 387.438400
   5608   5607   5609     1   107.5800459 329.699200
   5609   5607   5610     1   109.8000471 387.438400
   5610   5613   5635     1   110.1100470 384.091200
   5611   5610   5613     1   108.0100461 406.684800
   5611   5610   5612     1   109.7500473 328.025600
   5612   5610   5613     1   108.0100461 406.684800
   5613   5614   5615     1   108.0100461 406.684800
   5613   5614   5616     1   108.0100461 406.684800
   5613   5624   5625     1   108.0100461 406.684800
   5613   5624   5626     1   108.0100461 406.684800
   5614   5617   5618     1   109.8000471 387.438400
   5614   5617   5619     1   109.8000471 387.438400
   5614   5613   5635     1   110.1100470 384.091200
   5615   5614   5617     1   110.5600475 386.601600
   5615   5614   5616     1   109.7500473 328.025600
   5616   5614   5617     1   110.5600475 386.601600
   5618   5617   5620     1   108.7700466 392.459200
   5618   5617   5619     1   107.5800459 329.699200
   5619   5617   5620     1   108.7700466 392.459200
   5620   5622   5623     1   106.5500460 417.563200
   5624   5627   5628     1   109.8000471 387.438400
   5624   5627   5629     1   109.8000471 387.438400
   5624   5613   5635     1   110.1100470 384.091200
   5625   5624   5627     1   110.5600475 386.601600
   5625   5624   5626     1   109.7500473 328.025600
   5626   5624   5627     1   110.5600475 386.601600
   5628   5627   5630     1   108.7700466 392.459200
   5628   5627   5629     1   107.5800459 329.699200
   5629   5627   5630     1   108.7700466 392.459200
   5630   5632   5633     1   106.5500460 417.563200
   5636   5639   5640     1   109.8000471 387.438400
   5636   5639   5641     1   109.8000471 387.438400
   5637   5636   5639     1   109.5600471 388.275200
   5637   5636   5666     1   109.7800468 425.094400
   5637   5636   5638     1   108.4600466 328.025600
   5638   5636   5639     1   109.5600471 388.275200
   5638   5636   5666     1   109.7800468 425.094400
   5639   5642   5643     1   110.5600475 386.601600
   5639   5642   5644     1   110.5600475 386.601600
   5640   5639   5642     1   109.8000471 387.438400
   5640   5639   5641     1   107.5800459 329.699200
   5641   5639   5642     1   109.8000471 387.438400
   5642   5645   5667     1   110.1100470 384.091200
   5643   5642   5645     1   108.0100461 406.684800
   5643   5642   5644     1   109.7500473 328.025600
   5644   5642   5645     1   108.0100461 406.684800
   5645   5646   5647     1   108.0100461 406.684800
   5645   5646   5648     1   108.0100461 406.684800
   5645   5656   5657     1   108.0100461 406.684800
   5645   5656   5658     1   108.0100461 406.684800
   5646   5645   5667     1   110.1100470 384.091200
   5646   5649   5650     1   109.8000471 387.438400
   5646   5649   5651     1   109.8000471 387.438400
   5647   5646   5649     1   110.5600475 386.601600
   5647   5646   5648     1   109.7500473 328.025600
   5648   5646   5649     1   110.5600475 386.601600
   5650   5649   5652     1   108.7700466 392.459200
   5650   5649   5651     1   107.5800459 329.699200
   5651   5649   5652     1   108.7700466 392.459200
   5652   5654   5655     1   106.5500460 417.563200
   5656   5645   5667     1   110.1100470 384.091200
   5656   5659   5660     1   109.8000471 387.438400
   5656   5659   5661     1   109.8000471 387.438400
   5657   5656   5659     1   110.5600475 386.601600
   5657   5656   5658     1   109.7500473 328.025600
   5658   5656   5659     1   110.5600475 386.601600
   5660   5659   5662     1   108.7700466 392.459200
   5660   5659   5661     1   107.5800459 329.699200
   5661   5659   5662     1   108.7700466 392.459200
   5662   5664   5665     1   106.5500460 417.563200
   5668   5671   5672     1   109.8000471 387.438400
   5668   5671   5673     1   109.8000471 387.438400
   5669   5668   5671     1   109.5600471 388.275200
   5669   5668   5698     1   109.7800468 425.094400
   5669   5668   5670     1   108.4600466 328.025600
   5670   5668   5671     1   109.5600471 388.275200
   5670   5668   5698     1   109.7800468 425.094400
   5671   5674   5675     1   110.5600475 386.601600
   5671   5674   5676     1   110.5600475 386.601600
   5672   5671   5674     1   109.8000471 387.438400
   5672   5671   5673     1   107.5800459 329.699200
   5673   5671   5674     1   109.8000471 387.438400
   5674   5677   5699     1   110.1100470 384.091200
   5675   5674   5677     1   108.0100461 406.684800
   5675   5674   5676     1   109.7500473 328.025600
   5676   5674   5677     1   108.0100461 406.684800
   5677   5678   5679     1   108.0100461 406.684800
   5677   5678   5680     1   108.0100461 406.684800
   5677   5688   5689     1   108.0100461 406.684800
   5677   5688   5690     1   108.0100461 406.684800
   5678   5681   5682     1   109.8000471 387.438400
   5678   5681   5683     1   109.8000471 387.438400
   5678   5677   5699     1   110.1100470 384.091200
   5679   5678   5681     1   110.5600475 386.601600
   5679   5678   5680     1   109.7500473 328.025600
   5680   5678   5681     1   110.5600475 386.601600
   5682   5681   5684     1   108.7700466 392.459200
   5682   5681   5683     1   107.5800459 329.699200
   5683   5681   5684     1   108.7700466 392.459200
   5684   5686   5687     1   106.5500460 417.563200
   5688   5691   5692     1   109.8000471 387.438400
   5688   5691   5693     1   109.8000471 387.438400
   5688   5677   5699     1   110.1100470 384.091200
   5689   5688   5691     1   110.5600475 386.601600
   5689   5688   5690     1   109.7500473 328.025600
   5690   5688   5691     1   110.5600475 386.601600
   5692   5691   5694     1   108.7700466 392.459200
   5692   5691   5693     1   107.5800459 329.699200
   5693   5691   5694     1   108.7700466 392.459200
   5694   5696   5697     1   106.5500460 417.563200
   5700   5703   5704     1   109.8000471 387.438400
   5700   5703   5705     1   109.8000471 387.438400
   5701   5700   5703     1   109.5600471 388.275200
   5701   5700   5730     1   109.7800468 425.094400
   5701   5700   5702     1   108.4600466 328.025600
   5702   5700   5703     1   109.5600471 388.275200
   5702   5700   5730     1   109.7800468 425.094400
   5703   5706   5707     1   110.5600475 386.601600
   5703   5706   5708     1   110.5600475 386.601600
   5704   5703   5706     1   109.8000471 387.438400
   5704   5703   5705     1   107.5800459 329.699200
   5705   5703   5706     1   109.8000471 387.438400
   5706   5709   5731     1   110.1100470 384.091200
   5707   5706   5709     1   108.0100461 406.684800
   5707   5706   5708     1   109.7500473 328.025600
   5708   5706   5709     1   108.0100461 406.684800
   5709   5710   5711     1   108.0100461 406.684800
   5709   5710   5712     1   108.0100461 406.684800
   5709   5720   5721     1   108.0100461 406.684800
   5709   5720   5722     1   108.0100461 406.684800
   5710   5709   5731     1   110.1100470 384.091200
   5710   5713   5714     1   109.8000471 387.438400
   5710   5713   5715     1   109.8000471 387.438400
   5711   5710   5713     1   110.5600475 386.601600
   5711   5710   5712     1   109.7500473 328.025600
   5712   5710   5713     1   110.5600475 386.601600
   5714   5713   5716     1   108.7700466 392.459200
   5714   5713   5715     1   107.5800459 329.699200
   5715   5713   5716     1   108.7700466 392.459200
   5716   5718   5719     1   106.5500460 417.563200
   5720   5709   5731     1   110.1100470 384.091200
   5720   5723   5724     1   109.8000471 387.438400
   5720   5723   5725     1   109.8000471 387.438400
   5721   5720   5723     1   110.5600475 386.601600
   5721   5720   5722     1   109.7500473 328.025600
   5722   5720   5723     1   110.5600475 386.601600
   5724   5723   5726     1   108.7700466 392.459200
   5724   5723   5725     1   107.5800459 329.699200
   5725   5723   5726     1   108.7700466 392.459200
   5726   5728   5729     1   106.5500460 417.563200
   5732   5735   5736     1   109.8000471 387.438400
   5732   5735   5737     1   109.8000471 387.438400
   5733   5732   5735     1   109.5600471 388.275200
   5733   5732   5762     1   109.7800468 425.094400
   5733   5732   5734     1   108.4600466 328.025600
   5734   5732   5735     1   109.5600471 388.275200
   5734   5732   5762     1   109.7800468 425.094400
   5735   5738   5739     1   110.5600475 386.601600
   5735   5738   5740     1   110.5600475 386.601600
   5736   5735   5738     1   109.8000471 387.438400
   5736   5735   5737     1   107.5800459 329.699200
   5737   5735   5738     1   109.8000471 387.438400
   5738   5741   5763     1   110.1100470 384.091200
   5739   5738   5741     1   108.0100461 406.684800
   5739   5738   5740     1   109.7500473 328.025600
   5740   5738   5741     1   108.0100461 406.684800
   5741   5742   5743     1   108.0100461 406.684800
   5741   5742   5744     1   108.0100461 406.684800
   5741   5752   5753     1   108.0100461 406.684800
   5741   5752   5754     1   108.0100461 406.684800
   5742   5745   5746     1   109.8000471 387.438400
   5742   5745   5747     1   109.8000471 387.438400
   5742   5741   5763     1   110.1100470 384.091200
   5743   5742   5745     1   110.5600475 386.601600
   5743   5742   5744     1   109.7500473 328.025600
   5744   5742   5745     1   110.5600475 386.601600
   5746   5745   5748     1   108.7700466 392.459200
   5746   5745   5747     1   107.5800459 329.699200
   5747   5745   5748     1   108.7700466 392.459200
   5748   5750   5751     1   106.5500460 417.563200
   5752   5755   5756     1   109.8000471 387.438400
   5752   5755   5757     1   109.8000471 387.438400
   5752   5741   5763     1   110.1100470 384.091200
   5753   5752   5755     1   110.5600475 386.601600
   5753   5752   5754     1   109.7500473 328.025600
   5754   5752   5755     1   110.5600475 386.601600
   5756   5755   5758     1   108.7700466 392.459200
   5756   5755   5757     1   107.5800459 329.699200
   5757   5755   5758     1   108.7700466 392.459200
   5758   5760   5761     1   106.5500460 417.563200
   5764   5767   5768     1   109.8000471 387.438400
   5764   5767   5769     1   109.8000471 387.438400
   5765   5764   5767     1   109.5600471 388.275200
   5765   5764   5794     1   109.7800468 425.094400
   5765   5764   5766     1   108.4600466 328.025600
   5766   5764   5767     1   109.5600471 388.275200
   5766   5764   5794     1   109.7800468 425.094400
   5767   5770   5771     1   110.5600475 386.601600
   5767   5770   5772     1   110.5600475 386.601600
   5768   5767   5770     1   109.8000471 387.438400
   5768   5767   5769     1   107.5800459 329.699200
   5769   5767   5770     1   109.8000471 387.438400
   5770   5773   5795     1   110.1100470 384.091200
   5771   5770   5773     1   108.0100461 406.684800
   5771   5770   5772     1   109.7500473 328.025600
   5772   5770   5773     1   108.0100461 406.684800
   5773   5774   5775     1   108.0100461 406.684800
   5773   5774   5776     1   108.0100461 406.684800
   5773   5784   5785     1   108.0100461 406.684800
   5773   5784   5786     1   108.0100461 406.684800
   5774   5773   5795     1   110.1100470 384.091200
   5774   5777   5778     1   109.8000471 387.438400
   5774   5777   5779     1   109.8000471 387.438400
   5775   5774   5777     1   110.5600475 386.601600
   5775   5774   5776     1   109.7500473 328.025600
   5776   5774   5777     1   110.5600475 386.601600
   5778   5777   5780     1   108.7700466 392.459200
   5778   5777   5779     1   107.5800459 329.699200
   5779   5777   5780     1   108.7700466 392.459200
   5780   5782   5783     1   106.5500460 417.563200
   5784   5773   5795     1   110.1100470 384.091200
   5784   5787   5788     1   109.8000471 387.438400
   5784   5787   5789     1   109.8000471 387.438400
   5785   5784   5787     1   110.5600475 386.601600
   5785   5784   5786     1   109.7500473 328.025600
   5786   5784   5787     1   110.5600475 386.601600
   5788   5787   5790     1   108.7700466 392.459200
   5788   5787   5789     1   107.5800459 329.699200
   5789   5787   5790     1   108.7700466 392.459200
   5790   5792   5793     1   106.5500460 417.563200
   5796   5799   5800     1   109.8000471 387.438400
   5796   5799   5801     1   109.8000471 387.438400
   5797   5796   5799     1   109.5600471 388.275200
   5797   5796   5826     1   109.7800468 425.094400
   5797   5796   5798     1   108.4600466 328.025600
   5798   5796   5799     1   109.5600471 388.275200
   5798   5796   5826     1   109.7800468 425.094400
   5799   5802   5803     1   110.5600475 386.601600
   5799   5802   5804     1   110.5600475 386.601600
   5800   5799   5802     1   109.8000471 387.438400
   5800   5799   5801     1   107.5800459 329.699200
   5801   5799   5802     1   109.8000471 387.438400
   5802   5805   5827     1   110.1100470 384.091200
   5803   5802   5805     1   108.0100461 406.684800
   5803   5802   5804     1   109.7500473 328.025600
   5804   5802   5805     1   108.0100461 406.684800
   5805   5806   5807     1   108.0100461 406.684800
   5805   5806   5808     1   108.0100461 406.684800
   5805   5816   5817     1   108.0100461 406.684800
   5805   5816   5818     1   108.0100461 406.684800
   5806   5809   5810     1   109.8000471 387.438400
   5806   5809   5811     1   109.8000471 387.438400
   5806   5805   5827     1   110.1100470 384.091200
   5807   5806   5809     1   110.5600475 386.601600
   5807   5806   5808     1   109.7500473 328.025600
   5808   5806   5809     1   110.5600475 386.601600
   5810   5809   5812     1   108.7700466 392.459200
   5810   5809   5811     1   107.5800459 329.699200
   5811   5809   5812     1   108.7700466 392.459200
   5812   5814   5815     1   106.5500460 417.563200
   5816   5819   5820     1   109.8000471 387.438400
   5816   5819   5821     1   109.8000471 387.438400
   5816   5805   5827     1   110.1100470 384.091200
   5817   5816   5819     1   110.5600475 386.601600
   5817   5816   5818     1   109.7500473 328.025600
   5818   5816   5819     1   110.5600475 386.601600
   5820   5819   5822     1   108.7700466 392.459200
   5820   5819   5821     1   107.5800459 329.699200
   5821   5819   5822     1   108.7700466 392.459200
   5822   5824   5825     1   106.5500460 417.563200
   5828   5831   5832     1   109.8000471 387.438400
   5828   5831   5833     1   109.8000471 387.438400
   5829   5828   5831     1   109.5600471 388.275200
   5829   5828   5858     1   109.7800468 425.094400
   5829   5828   5830     1   108.4600466 328.025600
   5830   5828   5831     1   109.5600471 388.275200
   5830   5828   5858     1   109.7800468 425.094400
   5831   5834   5835     1   110.5600475 386.601600
   5831   5834   5836     1   110.5600475 386.601600
   5832   5831   5834     1   109.8000471 387.438400
   5832   5831   5833     1   107.5800459 329.699200
   5833   5831   5834     1   109.8000471 387.438400
   5834   5837   5859     1   110.1100470 384.091200
   5835   5834   5837     1   108.0100461 406.684800
   5835   5834   5836     1   109.7500473 328.025600
   5836   5834   5837     1   108.0100461 406.684800
   5837   5838   5839     1   108.0100461 406.684800
   5837   5838   5840     1   108.0100461 406.684800
   5837   5848   5849     1   108.0100461 406.684800
   5837   5848   5850     1   108.0100461 406.684800
   5838   5837   5859     1   110.1100470 384.091200
   5838   5841   5842     1   109.8000471 387.438400
   5838   5841   5843     1   109.8000471 387.438400
   5839   5838   5841     1   110.5600475 386.601600
   5839   5838   5840     1   109.7500473 328.025600
   5840   5838   5841     1   110.5600475 386.601600
   5842   5841   5844     1   108.7700466 392.459200
   5842   5841   5843     1   107.5800459 329.699200
   5843   5841   5844     1   108.7700466 392.459200
   5844   5846   5847     1   106.5500460 417.563200
   5848   5837   5859     1   110.1100470 384.091200
   5848   5851   5852     1   109.8000471 387.438400
   5848   5851   5853     1   109.8000471 387.438400
   5849   5848   5851     1   110.5600475 386.601600
   5849   5848   5850     1   109.7500473 328.025600
   5850   5848   5851     1   110.5600475 386.601600
   5852   5851   5854     1   108.7700466 392.459200
   5852   5851   5853     1   107.5800459 329.699200
   5853   5851   5854     1   108.7700466 392.459200
   5854   5856   5857     1   106.5500460 417.563200
   5860   5863   5864     1   109.8000471 387.438400
   5860   5863   5865     1   109.8000471 387.438400
   5861   5860   5863     1   109.5600471 388.275200
   5861   5860   5890     1   109.7800468 425.094400
   5861   5860   5862     1   108.4600466 328.025600
   5862   5860   5863     1   109.5600471 388.275200
   5862   5860   5890     1   109.7800468 425.094400
   5863   5866   5867     1   110.5600475 386.601600
   5863   5866   5868     1   110.5600475 386.601600
   5864   5863   5866     1   109.8000471 387.438400
   5864   5863   5865     1   107.5800459 329.699200
   5865   5863   5866     1   109.8000471 387.438400
   5866   5869   5891     1   110.1100470 384.091200
   5867   5866   5869     1   108.0100461 406.684800
   5867   5866   5868     1   109.7500473 328.025600
   5868   5866   5869     1   108.0100461 406.684800
   5869   5870   5871     1   108.0100461 406.684800
   5869   5870   5872     1   108.0100461 406.684800
   5869   5880   5881     1   108.0100461 406.684800
   5869   5880   5882     1   108.0100461 406.684800
   5870   5873   5874     1   109.8000471 387.438400
   5870   5873   5875     1   109.8000471 387.438400
   5870   5869   5891     1   110.1100470 384.091200
   5871   5870   5873     1   110.5600475 386.601600
   5871   5870   5872     1   109.7500473 328.025600
   5872   5870   5873     1   110.5600475 386.601600
   5874   5873   5876     1   108.7700466 392.459200
   5874   5873   5875     1   107.5800459 329.699200
   5875   5873   5876     1   108.7700466 392.459200
   5876   5878   5879     1   106.5500460 417.563200
   5880   5883   5884     1   109.8000471 387.438400
   5880   5883   5885     1   109.8000471 387.438400
   5880   5869   5891     1   110.1100470 384.091200
   5881   5880   5883     1   110.5600475 386.601600
   5881   5880   5882     1   109.7500473 328.025600
   5882   5880   5883     1   110.5600475 386.601600
   5884   5883   5886     1   108.7700466 392.459200
   5884   5883   5885     1   107.5800459 329.699200
   5885   5883   5886     1   108.7700466 392.459200
   5886   5888   5889     1   106.5500460 417.563200

[ dihedrals ]
;    ai     aj     ak     al funct         c0         c1         c2         c3         c4         c5
      1      2     14     26     1  0.0000000  0.6508444  3
      1      5     17     20     1  0.0000000  0.6508444  3
      1      8     11     23     1  0.0000000  0.6508444  3
      2      1      5     17     1  0.0000000  0.6508444  3
      2      1      8     11     1  0.0000000  0.6508444  3
      2     14     26    118     1  0.0000000  0.6508444  3
      5      1      2     14     1  0.0000000  0.6508444  3
      5      1      8     11     1  0.0000000  0.6508444  3
      5     17     20     58     1  0.0000000  0.6508444  3
      8      1      2     14     1  0.0000000  0.6508444  3
      8      1      5     17     1  0.0000000  0.6508444  3
      8     11     23     88     1  0.0000000  0.6508444  3
     11     23     88     79     1  180.0000771  0.4184000  2
     11     23     88     79     1  0.0000000  1.6024720  3
     14     26    118    109     1  180.0000771  0.4184000  2
     14     26    118    109     1  0.0000000  1.6024720  3
     17     20     58     49     1  180.0000771  0.4184000  2
     17     20     58     49     1  0.0000000  1.6024720  3
     20     58     49     40     1  180.0000771  0.4184000  2
     20     58     49     40     1  0.0000000  1.6024720  3
     23     88     79     70     1  180.0000771  0.4184000  2
     23     88     79     70     1  0.0000000  1.6024720  3
     26    118    109    100     1  180.0000771  0.4184000  2
     26    118    109    100     1  0.0000000  1.6024720  3
     30     31     43     55     1  0.0000000  0.6508444  3
     30     34     46     52     1  0.0000000  0.6508444  3
     30     37     40     49     1  0.0000000  0.6508444  3
     31     30     34     46     1  0.0000000  0.6508444  3
     31     30     37     40     1  0.0000000  0.6508444  3
     31     43     55    178     1  0.0000000  0.6508444  3
     34     30     31     43     1  0.0000000  0.6508444  3
     34     30     37     40     1  0.0000000  0.6508444  3
     34     46     52    148     1  0.0000000  0.6508444  3
     37     30     31     43     1  0.0000000  0.6508444  3
     37     30     34     46     1  0.0000000  0.6508444  3
     37     40     49     58     1  0.0000000  0.6508444  3
     43     55    178    169     1  180.0000771  0.4184000  2
     43     55    178    169     1  0.0000000  1.6024720  3
     46     52    148    139     1  180.0000771  0.4184000  2
     46     52    148    139     1  0.0000000  1.6024720  3
     52    148    139    130     1  180.0000771  0.4184000  2
     52    148    139    130     1  0.0000000  1.6024720  3
     55    178    169    160     1  180.0000771  0.4184000  2
     55    178    169    160     1  0.0000000  1.6024720  3
     60     61     73     85     1  0.0000000  0.6508444  3
     60     64     76     82     1  0.0000000  0.6508444  3
     60     67     70     79     1  0.0000000  0.6508444  3
     61     60     64     76     1  0.0000000  0.6508444  3
     61     60     67     70     1  0.0000000  0.6508444  3
     61     73     85    238     1  0.0000000  0.6508444  3
     64     60     61     73     1  0.0000000  0.6508444  3
     64     60     67     70     1  0.0000000  0.6508444  3
     64     76     82    208     1  0.0000000  0.6508444  3
     67     60     61     73     1  0.0000000  0.6508444  3
     67     60     64     76     1  0.0000000  0.6508444  3
     67     70     79     88     1  0.0000000  0.6508444  3
     73     85    238    229     1  180.0000771  0.4184000  2
     73     85    238    229     1  0.0000000  1.6024720  3
     76     82    208    199     1  180.0000771  0.4184000  2
     76     82    208    199     1  0.0000000  1.6024720  3
     82    208    199    190     1  180.0000771  0.4184000  2
     82    208    199    190     1  0.0000000  1.6024720  3
     85    238    229    220     1  180.0000771  0.4184000  2
     85    238    229    220     1  0.0000000  1.6024720  3
     90     91    103    115     1  0.0000000  0.6508444  3
     90     94    106    112     1  0.0000000  0.6508444  3
     90     97    100    109     1  0.0000000  0.6508444  3
     91     90     94    106     1  0.0000000  0.6508444  3
     91     90     97    100     1  0.0000000  0.6508444  3
     91    103    115    298     1  0.0000000  0.6508444  3
     94     90     91    103     1  0.0000000  0.6508444  3
     94     90     97    100     1  0.0000000  0.6508444  3
     94    106    112    268     1  0.0000000  0.6508444  3
     97     90     91    103     1  0.0000000  0.6508444  3
     97     90     94    106     1  0.0000000  0.6508444  3
     97    100    109    118     1  0.0000000  0.6508444  3
    103    115    298    289     1  180.0000771  0.4184000  2
    103    115    298    289     1  0.0000000  1.6024720  3
    106    112    268    259     1  180.0000771  0.4184000  2
    106    112    268    259     1  0.0000000  1.6024720  3
    112    268    259    250     1  180.0000771  0.4184000  2
    112    268    259    250     1  0.0000000  1.6024720  3
    115    298    289    280     1  180.0000771  0.4184000  2
    115    298    289    280     1  0.0000000  1.6024720  3
    120    121    133    145     1  0.0000000  0.6508444  3
    120    124    136    142     1  0.0000000  0.6508444  3
    120    127    130    139     1  0.0000000  0.6508444  3
    121    120    124    136     1  0.0000000  0.6508444  3
    121    120    127    130     1  0.0000000  0.6508444  3
    121    133    145    358     1  0.0000000  0.6508444  3
    124    120    121    133     1  0.0000000  0.6508444  3
    124    120    127    130     1  0.0000000  0.6508444  3
    124    136    142    328     1  0.0000000  0.6508444  3
    127    120    121    133     1  0.0000000  0.6508444  3
    127    120    124    136     1  0.0000000  0.6508444  3
    127    130    139    148     1  0.0000000  0.6508444  3
    133    145    358    349     1  180.0000771  0.4184000  2
    133    145    358    349     1  0.0000000  1.6024720  3
    136    142    328    319     1  180.0000771  0.4184000  2
    136    142    328    319     1  0.0000000  1.6024720  3
    142    328    319    310     1  180.0000771  0.4184000  2
    142    328    319    310     1  0.0000000  1.6024720  3
    145    358    349    340     1  180.0000771  0.4184000  2
    145    358    349    340     1  0.0000000  1.6024720  3
    150    151    163    175     1  0.0000000  0.6508444  3
    150    154    166    172     1  0.0000000  0.6508444  3
    150    157    160    169     1  0.0000000  0.6508444  3
    151    150    154    166     1  0.0000000  0.6508444  3
    151    150    157    160     1  0.0000000  0.6508444  3
    151    163    175    418     1  0.0000000  0.6508444  3
    154    150    151    163     1  0.0000000  0.6508444  3
    154    150    157    160     1  0.0000000  0.6508444  3
    154    166    172    388     1  0.0000000  0.6508444  3
    157    150    151    163     1  0.0000000  0.6508444  3
    157    150    154    166     1  0.0000000  0.6508444  3
    157    160    169    178     1  0.0000000  0.6508444  3
    163    175    418    409     1  180.0000771  0.4184000  2
    163    175    418    409     1  0.0000000  1.6024720  3
    166    172    388    379     1  180.0000771  0.4184000  2
    166    172    388    379     1  0.0000000  1.6024720  3
    172    388    379    370     1  180.0000771  0.4184000  2
    172    388    379    370     1  0.0000000  1.6024720  3
    175    418    409    400     1  180.0000771  0.4184000  2
    175    418    409    400     1  0.0000000  1.6024720  3
    180    181    193    205     1  0.0000000  0.6508444  3
    180    184    196    202     1  0.0000000  0.6508444  3
    180    187    190    199     1  0.0000000  0.6508444  3
    181    180    184    196     1  0.0000000  0.6508444  3
    181    180    187    190     1  0.0000000  0.6508444  3
    181    193    205    478     1  0.0000000  0.6508444  3
    184    180    181    193     1  0.0000000  0.6508444  3
    184    180    187    190     1  0.0000000  0.6508444  3
    184    196    202    448     1  0.0000000  0.6508444  3
    187    180    181    193     1  0.0000000  0.6508444  3
    187    180    184    196     1  0.0000000  0.6508444  3
    187    190    199    208     1  0.0000000  0.6508444  3
    193    205    478    469     1  180.0000771  0.4184000  2
    193    205    478    469     1  0.0000000  1.6024720  3
    196    202    448    439     1  180.0000771  0.4184000  2
    196    202    448    439     1  0.0000000  1.6024720  3
    202    448    439    430     1  180.0000771  0.4184000  2
    202    448    439    430     1  0.0000000  1.6024720  3
    205    478    469    460     1  180.0000771  0.4184000  2
    205    478    469    460     1  0.0000000  1.6024720  3
    210    211    223    235     1  0.0000000  0.6508444  3
    210    214    226    232     1  0.0000000  0.6508444  3
    210    217    220    229     1  0.0000000  0.6508444  3
    211    210    214    226     1  0.0000000  0.6508444  3
    211    210    217    220     1  0.0000000  0.6508444  3
    211    223    235    538     1  0.0000000  0.6508444  3
    214    210    211    223     1  0.0000000  0.6508444  3
    214    210    217    220     1  0.0000000  0.6508444  3
    214    226    232    508     1  0.0000000  0.6508444  3
    217    210    211    223     1  0.0000000  0.6508444  3
    217    210    214    226     1  0.0000000  0.6508444  3
    217    220    229    238     1  0.0000000  0.6508444  3
    223    235    538    529     1  180.0000771  0.4184000  2
    223    235    538    529     1  0.0000000  1.6024720  3
    226    232    508    499     1  180.0000771  0.4184000  2
    226    232    508    499     1  0.0000000  1.6024720  3
    232    508    499    490     1  180.0000771  0.4184000  2
    232    508    499    490     1  0.0000000  1.6024720  3
    235    538    529    520     1  180.0000771  0.4184000  2
    235    538    529    520     1  0.0000000  1.6024720  3
    240    241    253    265     1  0.0000000  0.6508444  3
    240    244    256    262     1  0.0000000  0.6508444  3
    240    247    250    259     1  0.0000000  0.6508444  3
    241    240    244    256     1  0.0000000  0.6508444  3
    241    240    247    250     1  0.0000000  0.6508444  3
    241    253    265    598     1  0.0000000  0.6508444  3
    244    240    241    253     1  0.0000000  0.6508444  3
    244    240    247    250     1  0.0000000  0.6508444  3
    244    256    262    568     1  0.0000000  0.6508444  3
    247    240    241    253     1  0.0000000  0.6508444  3
    247    240    244    256     1  0.0000000  0.6508444  3
    247    250    259    268     1  0.0000000  0.6508444  3
    253    265    598    589     1  180.0000771  0.4184000  2
    253    265    598    589     1  0.0000000  1.6024720  3
    256    262    568    559     1  180.0000771  0.4184000  2
    256    262    568    559     1  0.0000000  1.6024720  3
    262    568    559    550     1  180.0000771  0.4184000  2
    262    568    559    550     1  0.0000000  1.6024720  3
    265    598    589    580     1  180.0000771  0.4184000  2
    265    598    589    580     1  0.0000000  1.6024720  3
    270    271    283    295     1  0.0000000  0.6508444  3
    270    274    286    292     1  0.0000000  0.6508444  3
    270    277    280    289     1  0.0000000  0.6508444  3
    271    270    274    286     1  0.0000000  0.6508444  3
    271    270    277    280     1  0.0000000  0.6508444  3
    271    283    295    658     1  0.0000000  0.6508444  3
    274    270    271    283     1  0.0000000  0.6508444  3
    274    270    277    280     1  0.0000000  0.6508444  3
    274    286    292    628     1  0.0000000  0.6508444  3
    277    270    271    283     1  0.0000000  0.6508444  3
    277    270    274    286     1  0.0000000  0.6508444  3
    277    280    289    298     1  0.0000000  0.6508444  3
    283    295    658    649     1  180.0000771  0.4184000  2
    283    295    658    649     1  0.0000000  1.6024720  3
    286    292    628    619     1  180.0000771  0.4184000  2
    286    292    628    619     1  0.0000000  1.6024720  3
    292    628    619    610     1  180.0000771  0.4184000  2
    292    628    619    610     1  0.0000000  1.6024720  3
    295    658    649    640     1  180.0000771  0.4184000  2
    295    658    649    640     1  0.0000000  1.6024720  3
    300    301    313    325     1  0.0000000  0.6508444  3
    300    304    316    322     1  0.0000000  0.6508444  3
    300    307    310    319     1  0.0000000  0.6508444  3
    301    300    304    316     1  0.0000000  0.6508444  3
    301    300    307    310     1  0.0000000  0.6508444  3
    301    313    325    718     1  0.0000000  0.6508444  3
    304    300    301    313     1  0.0000000  0.6508444  3
    304    300    307    310     1  0.0000000  0.6508444  3
    304    316    322    688     1  0.0000000  0.6508444  3
    307    300    301    313     1  0.0000000  0.6508444  3
    307    300    304    316     1  0.0000000  0.6508444  3
    307    310    319    328     1  0.0000000  0.6508444  3
    313    325    718    709     1  180.0000771  0.4184000  2
    313    325    718    709     1  0.0000000  1.6024720  3
    316    322    688    679     1  180.0000771  0.4184000  2
    316    322    688    679     1  0.0000000  1.6024720  3
    322    688    679    670     1  180.0000771  0.4184000  2
    322    688    679    670     1  0.0000000  1.6024720  3
    325    718    709    700     1  180.0000771  0.4184000  2
    325    718    709    700     1  0.0000000  1.6024720  3
    330    331    343    355     1  0.0000000  0.6508444  3
    330    334    346    352     1  0.0000000  0.6508444  3
    330    337    340    349     1  0.0000000  0.6508444  3
    331    330    334    346     1  0.0000000  0.6508444  3
    331    330    337    340     1  0.0000000  0.6508444  3
    331    343    355    778     1  0.0000000  0.6508444  3
    334    330    331    343     1  0.0000000  0.6508444  3
    334    330    337    340     1  0.0000000  0.6508444  3
    334    346    352    748     1  0.0000000  0.6508444  3
    337    330    331    343     1  0.0000000  0.6508444  3
    337    330    334    346     1  0.0000000  0.6508444  3
    337    340    349    358     1  0.0000000  0.6508444  3
    343    355    778    769     1  180.0000771  0.4184000  2
    343    355    778    769     1  0.0000000  1.6024720  3
    346    352    748    739     1  180.0000771  0.4184000  2
    346    352    748    739     1  0.0000000  1.6024720  3
    352    748    739    730     1  180.0000771  0.4184000  2
    352    748    739    730     1  0.0000000  1.6024720  3
    355    778    769    760     1  180.0000771  0.4184000  2
    355    778    769    760     1  0.0000000  1.6024720  3
    360    361    373    385     1  0.0000000  0.6508444  3
    360    364    376    382     1  0.0000000  0.6508444  3
    360    367    370    379     1  0.0000000  0.6508444  3
    361    360    364    376     1  0.0000000  0.6508444  3
    361    360    367    370     1  0.0000000  0.6508444  3
    361    373    385    838     1  0.0000000  0.6508444  3
    364    360    361    373     1  0.0000000  0.6508444  3
    364    360    367    370     1  0.0000000  0.6508444  3
    364    376    382    808     1  0.0000000  0.6508444  3
    367    360    361    373     1  0.0000000  0.6508444  3
    367    360    364    376     1  0.0000000  0.6508444  3
    367    370    379    388     1  0.0000000  0.6508444  3
    373    385    838    829     1  180.0000771  0.4184000  2
    373    385    838    829     1  0.0000000  1.6024720  3
    376    382    808    799     1  180.0000771  0.4184000  2
    376    382    808    799     1  0.0000000  1.6024720  3
    382    808    799    790     1  180.0000771  0.4184000  2
    382    808    799    790     1  0.0000000  1.6024720  3
    385    838    829    820     1  180.0000771  0.4184000  2
    385    838    829    820     1  0.0000000  1.6024720  3
    390    391    403    415     1  0.0000000  0.6508444  3
    390    394    406    412     1  0.0000000  0.6508444  3
    390    397    400    409     1  0.0000000  0.6508444  3
    391    390    394    406     1  0.0000000  0.6508444  3
    391    390    397    400     1  0.0000000  0.6508444  3
    391    403    415    898     1  0.0000000  0.6508444  3
    394    390    391    403     1  0.0000000  0.6508444  3
    394    390    397    400     1  0.0000000  0.6508444  3
    394    406    412    868     1  0.0000000  0.6508444  3
    397    390    391    403     1  0.0000000  0.6508444  3
    397    390    394    406     1  0.0000000  0.6508444  3
    397    400    409    418     1  0.0000000  0.6508444  3
    403    415    898    889     1  180.0000771  0.4184000  2
    403    415    898    889     1  0.0000000  1.6024720  3
    406    412    868    859     1  180.0000771  0.4184000  2
    406    412    868    859     1  0.0000000  1.6024720  3
    412    868    859    850     1  180.0000771  0.4184000  2
    412    868    859    850     1  0.0000000  1.6024720  3
    415    898    889    880     1  180.0000771  0.4184000  2
    415    898    889    880     1  0.0000000  1.6024720  3
    420    421    433    445     1  0.0000000  0.6508444  3
    420    424    436    442     1  0.0000000  0.6508444  3
    420    427    430    439     1  0.0000000  0.6508444  3
    421    420    424    436     1  0.0000000  0.6508444  3
    421    420    427    430     1  0.0000000  0.6508444  3
    421    433    445    958     1  0.0000000  0.6508444  3
    424    420    421    433     1  0.0000000  0.6508444  3
    424    420    427    430     1  0.0000000  0.6508444  3
    424    436    442    928     1  0.0000000  0.6508444  3
    427    420    421    433     1  0.0000000  0.6508444  3
    427    420    424    436     1  0.0000000  0.6508444  3
    427    430    439    448     1  0.0000000  0.6508444  3
    433    445    958    949     1  180.0000771  0.4184000  2
    433    445    958    949     1  0.0000000  1.6024720  3
    436    442    928    919     1  180.0000771  0.4184000  2
    436    442    928    919     1  0.0000000  1.6024720  3
    442    928    919    910     1  180.0000771  0.4184000  2
    442    928    919    910     1  0.0000000  1.6024720  3
    445    958    949    940     1  180.0000771  0.4184000  2
    445    958    949    940     1  0.0000000  1.6024720  3
    450    451    463    475     1  0.0000000  0.6508444  3
    450    454    466    472     1  0.0000000  0.6508444  3
    450    457    460    469     1  0.0000000  0.6508444  3
    451    450    454    466     1  0.0000000  0.6508444  3
    451    450    457    460     1  0.0000000  0.6508444  3
    451    463    475   1018     1  0.0000000  0.6508444  3
    454    450    451    463     1  0.0000000  0.6508444  3
    454    450    457    460     1  0.0000000  0.6508444  3
    454    466    472    988     1  0.0000000  0.6508444  3
    457    450    451    463     1  0.0000000  0.6508444  3
    457    450    454    466     1  0.0000000  0.6508444  3
    457    460    469    478     1  0.0000000  0.6508444  3
    463    475   1018   1009     1  180.0000771  0.4184000  2
    463    475   1018   1009     1  0.0000000  1.6024720  3
    466    472    988    979     1  180.0000771  0.4184000  2
    466    472    988    979     1  0.0000000  1.6024720  3
    472    988    979    970     1  180.0000771  0.4184000  2
    472    988    979    970     1  0.0000000  1.6024720  3
    475   1018   1009   1000     1  180.0000771  0.4184000  2
    475   1018   1009   1000     1  0.0000000  1.6024720  3
    480    481    493    505     1  0.0000000  0.6508444  3
    480    484    496    502     1  0.0000000  0.6508444  3
    480    487    490    499     1  0.0000000  0.6508444  3
    481    480    484    496     1  0.0000000  0.6508444  3
    481    480    487    490     1  0.0000000  0.6508444  3
    481    493    505   1078     1  0.0000000  0.6508444  3
    484    480    481    493     1  0.0000000  0.6508444  3
    484    480    487    490     1  0.0000000  0.6508444  3
    484    496    502   1048     1  0.0000000  0.6508444  3
    487    480    481    493     1  0.0000000  0.6508444  3
    487    480    484    496     1  0.0000000  0.6508444  3
    487    490    499    508     1  0.0000000  0.6508444  3
    493    505   1078   1069     1  180.0000771  0.4184000  2
    493    505   1078   1069     1  0.0000000  1.6024720  3
    496    502   1048   1039     1  180.0000771  0.4184000  2
    496    502   1048   1039     1  0.0000000  1.6024720  3
    502   1048   1039   1030     1  180.0000771  0.4184000  2
    502   1048   1039   1030     1  0.0000000  1.6024720  3
    505   1078   1069   1060     1  180.0000771  0.4184000  2
    505   1078   1069   1060     1  0.0000000  1.6024720  3
    510    511    523    535     1  0.0000000  0.6508444  3
    510    514    526    532     1  0.0000000  0.6508444  3
    510    517    520    529     1  0.0000000  0.6508444  3
    511    510    514    526     1  0.0000000  0.6508444  3
    511    510    517    520     1  0.0000000  0.6508444  3
    511    523    535   1138     1  0.0000000  0.6508444  3
    514    510    511    523     1  0.0000000  0.6508444  3
    514    510    517    520     1  0.0000000  0.6508444  3
    514    526    532   1108     1  0.0000000  0.6508444  3
    517    510    511    523     1  0.0000000  0.6508444  3
    517    510    514    526     1  0.0000000  0.6508444  3
    517    520    529    538     1  0.0000000  0.6508444  3
    523    535   1138   1129     1  180.0000771  0.4184000  2
    523    535   1138   1129     1  0.0000000  1.6024720  3
    526    532   1108   1099     1  180.0000771  0.4184000  2
    526    532   1108   1099     1  0.0000000  1.6024720  3
    532   1108   1099   1090     1  180.0000771  0.4184000  2
    532   1108   1099   1090     1  0.0000000  1.6024720  3
    535   1138   1129   1120     1  180.0000771  0.4184000  2
    535   1138   1129   1120     1  0.0000000  1.6024720  3
    540    541    553    565     1  0.0000000  0.6508444  3
    540    544    556    562     1  0.0000000  0.6508444  3
    540    547    550    559     1  0.0000000  0.6508444  3
    541    540    544    556     1  0.0000000  0.6508444  3
    541    540    547    550     1  0.0000000  0.6508444  3
    541    553    565   1198     1  0.0000000  0.6508444  3
    544    540    541    553     1  0.0000000  0.6508444  3
    544    540    547    550     1  0.0000000  0.6508444  3
    544    556    562   1168     1  0.0000000  0.6508444  3
    547    540    541    553     1  0.0000000  0.6508444  3
    547    540    544    556     1  0.0000000  0.6508444  3
    547    550    559    568     1  0.0000000  0.6508444  3
    553    565   1198   1189     1  180.0000771  0.4184000  2
    553    565   1198   1189     1  0.0000000  1.6024720  3
    556    562   1168   1159     1  180.0000771  0.4184000  2
    556    562   1168   1159     1  0.0000000  1.6024720  3
    562   1168   1159   1150     1  180.0000771  0.4184000  2
    562   1168   1159   1150     1  0.0000000  1.6024720  3
    565   1198   1189   1180     1  180.0000771  0.4184000  2
    565   1198   1189   1180     1  0.0000000  1.6024720  3
    570    571    583    595     1  0.0000000  0.6508444  3
    570    574    586    592     1  0.0000000  0.6508444  3
    570    577    580    589     1  0.0000000  0.6508444  3
    571    570    574    586     1  0.0000000  0.6508444  3
    571    570    577    580     1  0.0000000  0.6508444  3
    571    583    595   1258     1  0.0000000  0.6508444  3
    574    570    571    583     1  0.0000000  0.6508444  3
    574    570    577    580     1  0.0000000  0.6508444  3
    574    586    592   1228     1  0.0000000  0.6508444  3
    577    570    571    583     1  0.0000000  0.6508444  3
    577    570    574    586     1  0.0000000  0.6508444  3
    577    580    589    598     1  0.0000000  0.6508444  3
    583    595   1258   1249     1  180.0000771  0.4184000  2
    583    595   1258   1249     1  0.0000000  1.6024720  3
    586    592   1228   1219     1  180.0000771  0.4184000  2
    586    592   1228   1219     1  0.0000000  1.6024720  3
    592   1228   1219   1210     1  180.0000771  0.4184000  2
    592   1228   1219   1210     1  0.0000000  1.6024720  3
    595   1258   1249   1240     1  180.0000771  0.4184000  2
    595   1258   1249   1240     1  0.0000000  1.6024720  3
    600    601    613    625     1  0.0000000  0.6508444  3
    600    604    616    622     1  0.0000000  0.6508444  3
    600    607    610    619     1  0.0000000  0.6508444  3
    601    600    604    616     1  0.0000000  0.6508444  3
    601    600    607    610     1  0.0000000  0.6508444  3
    601    613    625   1318     1  0.0000000  0.6508444  3
    604    600    601    613     1  0.0000000  0.6508444  3
    604    600    607    610     1  0.0000000  0.6508444  3
    604    616    622   1288     1  0.0000000  0.6508444  3
    607    600    601    613     1  0.0000000  0.6508444  3
    607    600    604    616     1  0.0000000  0.6508444  3
    607    610    619    628     1  0.0000000  0.6508444  3
    613    625   1318   1309     1  180.0000771  0.4184000  2
    613    625   1318   1309     1  0.0000000  1.6024720  3
    616    622   1288   1279     1  180.0000771  0.4184000  2
    616    622   1288   1279     1  0.0000000  1.6024720  3
    622   1288   1279   1270     1  180.0000771  0.4184000  2
    622   1288   1279   1270     1  0.0000000  1.6024720  3
    625   1318   1309   1300     1  180.0000771  0.4184000  2
    625   1318   1309   1300     1  0.0000000  1.6024720  3
    630    631    643    655     1  0.0000000  0.6508444  3
    630    634    646    652     1  0.0000000  0.6508444  3
    630    637    640    649     1  0.0000000  0.6508444  3
    631    630    634    646     1  0.0000000  0.6508444  3
    631    630    637    640     1  0.0000000  0.6508444  3
    631    643    655   1378     1  0.0000000  0.6508444  3
    634    630    631    643     1  0.0000000  0.6508444  3
    634    630    637    640     1  0.0000000  0.6508444  3
    634    646    652   1348     1  0.0000000  0.6508444  3
    637    630    631    643     1  0.0000000  0.6508444  3
    637    630    634    646     1  0.0000000  0.6508444  3
    637    640    649    658     1  0.0000000  0.6508444  3
    643    655   1378   1369     1  180.0000771  0.4184000  2
    643    655   1378   1369     1  0.0000000  1.6024720  3
    646    652   1348   1339     1  180.0000771  0.4184000  2
    646    652   1348   1339     1  0.0000000  1.6024720  3
    652   1348   1339   1330     1  180.0000771  0.4184000  2
    652   1348   1339   1330     1  0.0000000  1.6024720  3
    655   1378   1369   1360     1  180.0000771  0.4184000  2
    655   1378   1369   1360     1  0.0000000  1.6024720  3
    660    661    673    685     1  0.0000000  0.6508444  3
    660    664    676    682     1  0.0000000  0.6508444  3
    660    667    670    679     1  0.0000000  0.6508444  3
    661    660    664    676     1  0.0000000  0.6508444  3
    661    660    667    670     1  0.0000000  0.6508444  3
    661    673    685   1438     1  0.0000000  0.6508444  3
    664    660    661    673     1  0.0000000  0.6508444  3
    664    660    667    670     1  0.0000000  0.6508444  3
    664    676    682   1408     1  0.0000000  0.6508444  3
    667    660    661    673     1  0.0000000  0.6508444  3
    667    660    664    676     1  0.0000000  0.6508444  3
    667    670    679    688     1  0.0000000  0.6508444  3
    673    685   1438   1429     1  180.0000771  0.4184000  2
    673    685   1438   1429     1  0.0000000  1.6024720  3
    676    682   1408   1399     1  180.0000771  0.4184000  2
    676    682   1408   1399     1  0.0000000  1.6024720  3
    682   1408   1399   1390     1  180.0000771  0.4184000  2
    682   1408   1399   1390     1  0.0000000  1.6024720  3
    685   1438   1429   1420     1  180.0000771  0.4184000  2
    685   1438   1429   1420     1  0.0000000  1.6024720  3
    690    691    703    715     1  0.0000000  0.6508444  3
    690    694    706    712     1  0.0000000  0.6508444  3
    690    697    700    709     1  0.0000000  0.6508444  3
    691    690    694    706     1  0.0000000  0.6508444  3
    691    690    697    700     1  0.0000000  0.6508444  3
    691    703    715   1498     1  0.0000000  0.6508444  3
    694    690    691    703     1  0.0000000  0.6508444  3
    694    690    697    700     1  0.0000000  0.6508444  3
    694    706    712   1468     1  0.0000000  0.6508444  3
    697    690    691    703     1  0.0000000  0.6508444  3
    697    690    694    706     1  0.0000000  0.6508444  3
    697    700    709    718     1  0.0000000  0.6508444  3
    703    715   1498   1489     1  180.0000771  0.4184000  2
    703    715   1498   1489     1  0.0000000  1.6024720  3
    706    712   1468   1459     1  180.0000771  0.4184000  2
    706    712   1468   1459     1  0.0000000  1.6024720  3
    712   1468   1459   1450     1  180.0000771  0.4184000  2
    712   1468   1459   1450     1  0.0000000  1.6024720  3
    715   1498   1489   1480     1  180.0000771  0.4184000  2
    715   1498   1489   1480     1  0.0000000  1.6024720  3
    720    721    733    745     1  0.0000000  0.6508444  3
    720    724    736    742     1  0.0000000  0.6508444  3
    720    727    730    739     1  0.0000000  0.6508444  3
    721    720    724    736     1  0.0000000  0.6508444  3
    721    720    727    730     1  0.0000000  0.6508444  3
    721    733    745   1558     1  0.0000000  0.6508444  3
    724    720    721    733     1  0.0000000  0.6508444  3
    724    720    727    730     1  0.0000000  0.6508444  3
    724    736    742   1528     1  0.0000000  0.6508444  3
    727    720    721    733     1  0.0000000  0.6508444  3
    727    720    724    736     1  0.0000000  0.6508444  3
    727    730    739    748     1  0.0000000  0.6508444  3
    733    745   1558   1549     1  180.0000771  0.4184000  2
    733    745   1558   1549     1  0.0000000  1.6024720  3
    736    742   1528   1519     1  180.0000771  0.4184000  2
    736    742   1528   1519     1  0.0000000  1.6024720  3
    742   1528   1519   1510     1  180.0000771  0.4184000  2
    742   1528   1519   1510     1  0.0000000  1.6024720  3
    745   1558   1549   1540     1  180.0000771  0.4184000  2
    745   1558   1549   1540     1  0.0000000  1.6024720  3
    750    751    763    775     1  0.0000000  0.6508444  3
    750    754    766    772     1  0.0000000  0.6508444  3
    750    757    760    769     1  0.0000000  0.6508444  3
    751    750    754    766     1  0.0000000  0.6508444  3
    751    750    757    760     1  0.0000000  0.6508444  3
    751    763    775   1618     1  0.0000000  0.6508444  3
    754    750    751    763     1  0.0000000  0.6508444  3
    754    750    757    760     1  0.0000000  0.6508444  3
    754    766    772   1588     1  0.0000000  0.6508444  3
    757    750    751    763     1  0.0000000  0.6508444  3
    757    750    754    766     1  0.0000000  0.6508444  3
    757    760    769    778     1  0.0000000  0.6508444  3
    763    775   1618   1609     1  180.0000771  0.4184000  2
    763    775   1618   1609     1  0.0000000  1.6024720  3
    766    772   1588   1579     1  180.0000771  0.4184000  2
    766    772   1588   1579     1  0.0000000  1.6024720  3
    772   1588   1579   1570     1  180.0000771  0.4184000  2
    772   1588   1579   1570     1  0.0000000  1.6024720  3
    775   1618   1609   1600     1  180.0000771  0.4184000  2
    775   1618   1609   1600     1  0.0000000  1.6024720  3
    780    781    793    805     1  0.0000000  0.6508444  3
    780    784    796    802     1  0.0000000  0.6508444  3
    780    787    790    799     1  0.0000000  0.6508444  3
    781    780    784    796     1  0.0000000  0.6508444  3
    781    780    787    790     1  0.0000000  0.6508444  3
    781    793    805   1678     1  0.0000000  0.6508444  3
    784    780    781    793     1  0.0000000  0.6508444  3
    784    780    787    790     1  0.0000000  0.6508444  3
    784    796    802   1648     1  0.0000000  0.6508444  3
    787    780    781    793     1  0.0000000  0.6508444  3
    787    780    784    796     1  0.0000000  0.6508444  3
    787    790    799    808     1  0.0000000  0.6508444  3
    793    805   1678   1669     1  180.0000771  0.4184000  2
    793    805   1678   1669     1  0.0000000  1.6024720  3
    796    802   1648   1639     1  180.0000771  0.4184000  2
    796    802   1648   1639     1  0.0000000  1.6024720  3
    802   1648   1639   1630     1  180.0000771  0.4184000  2
    802   1648   1639   1630     1  0.0000000  1.6024720  3
    805   1678   1669   1660     1  180.0000771  0.4184000  2
    805   1678   1669   1660     1  0.0000000  1.6024720  3
    810    811    823    835     1  0.0000000  0.6508444  3
    810    814    826    832     1  0.0000000  0.6508444  3
    810    817    820    829     1  0.0000000  0.6508444  3
    811    810    814    826     1  0.0000000  0.6508444  3
    811    810    817    820     1  0.0000000  0.6508444  3
    811    823    835   1738     1  0.0000000  0.6508444  3
    814    810    811    823     1  0.0000000  0.6508444  3
    814    810    817    820     1  0.0000000  0.6508444  3
    814    826    832   1708     1  0.0000000  0.6508444  3
    817    810    811    823     1  0.0000000  0.6508444  3
    817    810    814    826     1  0.0000000  0.6508444  3
    817    820    829    838     1  0.0000000  0.6508444  3
    823    835   1738   1729     1  180.0000771  0.4184000  2
    823    835   1738   1729     1  0.0000000  1.6024720  3
    826    832   1708   1699     1  180.0000771  0.4184000  2
    826    832   1708   1699     1  0.0000000  1.6024720  3
    832   1708   1699   1690     1  180.0000771  0.4184000  2
    832   1708   1699   1690     1  0.0000000  1.6024720  3
    835   1738   1729   1720     1  180.0000771  0.4184000  2
    835   1738   1729   1720     1  0.0000000  1.6024720  3
    840    841    853    865     1  0.0000000  0.6508444  3
    840    844    856    862     1  0.0000000  0.6508444  3
    840    847    850    859     1  0.0000000  0.6508444  3
    841    840    844    856     1  0.0000000  0.6508444  3
    841    840    847    850     1  0.0000000  0.6508444  3
    841    853    865   1798     1  0.0000000  0.6508444  3
    844    840    841    853     1  0.0000000  0.6508444  3
    844    840    847    850     1  0.0000000  0.6508444  3
    844    856    862   1768     1  0.0000000  0.6508444  3
    847    840    841    853     1  0.0000000  0.6508444  3
    847    840    844    856     1  0.0000000  0.6508444  3
    847    850    859    868     1  0.0000000  0.6508444  3
    853    865   1798   1789     1  180.0000771  0.4184000  2
    853    865   1798   1789     1  0.0000000  1.6024720  3
    856    862   1768   1759     1  180.0000771  0.4184000  2
    856    862   1768   1759     1  0.0000000  1.6024720  3
    862   1768   1759   1750     1  180.0000771  0.4184000  2
    862   1768   1759   1750     1  0.0000000  1.6024720  3
    865   1798   1789   1780     1  180.0000771  0.4184000  2
    865   1798   1789   1780     1  0.0000000  1.6024720  3
    870    871    883    895     1  0.0000000  0.6508444  3
    870    874    886    892     1  0.0000000  0.6508444  3
    870    877    880    889     1  0.0000000  0.6508444  3
    871    870    874    886     1  0.0000000  0.6508444  3
    871    870    877    880     1  0.0000000  0.6508444  3
    871    883    895   1858     1  0.0000000  0.6508444  3
    874    870    871    883     1  0.0000000  0.6508444  3
    874    870    877    880     1  0.0000000  0.6508444  3
    874    886    892   1828     1  0.0000000  0.6508444  3
    877    870    871    883     1  0.0000000  0.6508444  3
    877    870    874    886     1  0.0000000  0.6508444  3
    877    880    889    898     1  0.0000000  0.6508444  3
    883    895   1858   1849     1  180.0000771  0.4184000  2
    883    895   1858   1849     1  0.0000000  1.6024720  3
    886    892   1828   1819     1  180.0000771  0.4184000  2
    886    892   1828   1819     1  0.0000000  1.6024720  3
    892   1828   1819   1810     1  180.0000771  0.4184000  2
    892   1828   1819   1810     1  0.0000000  1.6024720  3
    895   1858   1849   1840     1  180.0000771  0.4184000  2
    895   1858   1849   1840     1  0.0000000  1.6024720  3
    900    901    913    925     1  0.0000000  0.6508444  3
    900    904    916    922     1  0.0000000  0.6508444  3
    900    907    910    919     1  0.0000000  0.6508444  3
    901    900    904    916     1  0.0000000  0.6508444  3
    901    900    907    910     1  0.0000000  0.6508444  3
    901    913    925   1918     1  0.0000000  0.6508444  3
    904    900    901    913     1  0.0000000  0.6508444  3
    904    900    907    910     1  0.0000000  0.6508444  3
    904    916    922   1888     1  0.0000000  0.6508444  3
    907    900    901    913     1  0.0000000  0.6508444  3
    907    900    904    916     1  0.0000000  0.6508444  3
    907    910    919    928     1  0.0000000  0.6508444  3
    913    925   1918   1909     1  180.0000771  0.4184000  2
    913    925   1918   1909     1  0.0000000  1.6024720  3
    916    922   1888   1879     1  180.0000771  0.4184000  2
    916    922   1888   1879     1  0.0000000  1.6024720  3
    922   1888   1879   1870     1  180.0000771  0.4184000  2
    922   1888   1879   1870     1  0.0000000  1.6024720  3
    925   1918   1909   1900     1  180.0000771  0.4184000  2
    925   1918   1909   1900     1  0.0000000  1.6024720  3
    930    931    943    955     1  0.0000000  0.6508444  3
    930    934    946    952     1  0.0000000  0.6508444  3
    930    937    940    949     1  0.0000000  0.6508444  3
    931    930    934    946     1  0.0000000  0.6508444  3
    931    930    937    940     1  0.0000000  0.6508444  3
    931    943    955   1978     1  0.0000000  0.6508444  3
    934    930    931    943     1  0.0000000  0.6508444  3
    934    930    937    940     1  0.0000000  0.6508444  3
    934    946    952   1948     1  0.0000000  0.6508444  3
    937    930    931    943     1  0.0000000  0.6508444  3
    937    930    934    946     1  0.0000000  0.6508444  3
    937    940    949    958     1  0.0000000  0.6508444  3
    943    955   1978   1969     1  180.0000771  0.4184000  2
    943    955   1978   1969     1  0.0000000  1.6024720  3
    946    952   1948   1939     1  180.0000771  0.4184000  2
    946    952   1948   1939     1  0.0000000  1.6024720  3
    952   1948   1939   1930     1  180.0000771  0.4184000  2
    952   1948   1939   1930     1  0.0000000  1.6024720  3
    955   1978   1969   1960     1  180.0000771  0.4184000  2
    955   1978   1969   1960     1  0.0000000  1.6024720  3
    960    961    973    985     1  0.0000000  0.6508444  3
    960    964    976    982     1  0.0000000  0.6508444  3
    960    967    970    979     1  0.0000000  0.6508444  3
    961    960    964    976     1  0.0000000  0.6508444  3
    961    960    967    970     1  0.0000000  0.6508444  3
    961    973    985   2038     1  0.0000000  0.6508444  3
    964    960    961    973     1  0.0000000  0.6508444  3
    964    960    967    970     1  0.0000000  0.6508444  3
    964    976    982   2008     1  0.0000000  0.6508444  3
    967    960    961    973     1  0.0000000  0.6508444  3
    967    960    964    976     1  0.0000000  0.6508444  3
    967    970    979    988     1  0.0000000  0.6508444  3
    973    985   2038   2029     1  180.0000771  0.4184000  2
    973    985   2038   2029     1  0.0000000  1.6024720  3
    976    982   2008   1999     1  180.0000771  0.4184000  2
    976    982   2008   1999     1  0.0000000  1.6024720  3
    982   2008   1999   1990     1  180.0000771  0.4184000  2
    982   2008   1999   1990     1  0.0000000  1.6024720  3
    985   2038   2029   2020     1  180.0000771  0.4184000  2
    985   2038   2029   2020     1  0.0000000  1.6024720  3
    990    991   1003   1015     1  0.0000000  0.6508444  3
    990    994   1006   1012     1  0.0000000  0.6508444  3
    990    997   1000   1009     1  0.0000000  0.6508444  3
    991    990    994   1006     1  0.0000000  0.6508444  3
    991    990    997   1000     1  0.0000000  0.6508444  3
    991   1003   1015   2098     1  0.0000000  0.6508444  3
    994    990    991   1003     1  0.0000000  0.6508444  3
    994    990    997   1000     1  0.0000000  0.6508444  3
    994   1006   1012   2068     1  0.0000000  0.6508444  3
    997    990    991   1003     1  0.0000000  0.6508444  3
    997    990    994   1006     1  0.0000000  0.6508444  3
    997   1000   1009   1018     1  0.0000000  0.6508444  3
   1003   1015   2098   2089     1  180.0000771  0.4184000  2
   1003   1015   2098   2089     1  0.0000000  1.6024720  3
   1006   1012   2068   2059     1  180.0000771  0.4184000  2
   1006   1012   2068   2059     1  0.0000000  1.6024720  3
   1012   2068   2059   2050     1  180.0000771  0.4184000  2
   1012   2068   2059   2050     1  0.0000000  1.6024720  3
   1015   2098   2089   2080     1  180.0000771  0.4184000  2
   1015   2098   2089   2080     1  0.0000000  1.6024720  3
   1020   1021   1033   1045     1  0.0000000  0.6508444  3
   1020   1024   1036   1042     1  0.0000000  0.6508444  3
   1020   1027   1030   1039     1  0.0000000  0.6508444  3
   1021   1020   1024   1036     1  0.0000000  0.6508444  3
   1021   1020   1027   1030     1  0.0000000  0.6508444  3
   1021   1033   1045   2158     1  0.0000000  0.6508444  3
   1024   1020   1021   1033     1  0.0000000  0.6508444  3
   1024   1020   1027   1030     1  0.0000000  0.6508444  3
   1024   1036   1042   2128     1  0.0000000  0.6508444  3
   1027   1020   1021   1033     1  0.0000000  0.6508444  3
   1027   1020   1024   1036     1  0.0000000  0.6508444  3
   1027   1030   1039   1048     1  0.0000000  0.6508444  3
   1033   1045   2158   2149     1  180.0000771  0.4184000  2
   1033   1045   2158   2149     1  0.0000000  1.6024720  3
   1036   1042   2128   2119     1  180.0000771  0.4184000  2
   1036   1042   2128   2119     1  0.0000000  1.6024720  3
   1042   2128   2119   2110     1  180.0000771  0.4184000  2
   1042   2128   2119   2110     1  0.0000000  1.6024720  3
   1045   2158   2149   2140     1  180.0000771  0.4184000  2
   1045   2158   2149   2140     1  0.0000000  1.6024720  3
   1050   1051   1063   1075     1  0.0000000  0.6508444  3
   1050   1054   1066   1072     1  0.0000000  0.6508444  3
   1050   1057   1060   1069     1  0.0000000  0.6508444  3
   1051   1050   1054   1066     1  0.0000000  0.6508444  3
   1051   1050   1057   1060     1  0.0000000  0.6508444  3
   1051   1063   1075   2218     1  0.0000000  0.6508444  3
   1054   1050   1051   1063     1  0.0000000  0.6508444  3
   1054   1050   1057   1060     1  0.0000000  0.6508444  3
   1054   1066   1072   2188     1  0.0000000  0.6508444  3
   1057   1050   1051   1063     1  0.0000000  0.6508444  3
   1057   1050   1054   1066     1  0.0000000  0.6508444  3
   1057   1060   1069   1078     1  0.0000000  0.6508444  3
   1063   1075   2218   2209     1  180.0000771  0.4184000  2
   1063   1075   2218   2209     1  0.0000000  1.6024720  3
   1066   1072   2188   2179     1  180.0000771  0.4184000  2
   1066   1072   2188   2179     1  0.0000000  1.6024720  3
   1072   2188   2179   2170     1  180.0000771  0.4184000  2
   1072   2188   2179   2170     1  0.0000000  1.6024720  3
   1075   2218   2209   2200     1  180.0000771  0.4184000  2
   1075   2218   2209   2200     1  0.0000000  1.6024720  3
   1080   1081   1093   1105     1  0.0000000  0.6508444  3
   1080   1084   1096   1102     1  0.0000000  0.6508444  3
   1080   1087   1090   1099     1  0.0000000  0.6508444  3
   1081   1080   1084   1096     1  0.0000000  0.6508444  3
   1081   1080   1087   1090     1  0.0000000  0.6508444  3
   1081   1093   1105   2278     1  0.0000000  0.6508444  3
   1084   1080   1081   1093     1  0.0000000  0.6508444  3
   1084   1080   1087   1090     1  0.0000000  0.6508444  3
   1084   1096   1102   2248     1  0.0000000  0.6508444  3
   1087   1080   1081   1093     1  0.0000000  0.6508444  3
   1087   1080   1084   1096     1  0.0000000  0.6508444  3
   1087   1090   1099   1108     1  0.0000000  0.6508444  3
   1093   1105   2278   2269     1  180.0000771  0.4184000  2
   1093   1105   2278   2269     1  0.0000000  1.6024720  3
   1096   1102   2248   2239     1  180.0000771  0.4184000  2
   1096   1102   2248   2239     1  0.0000000  1.6024720  3
   1102   2248   2239   2230     1  180.0000771  0.4184000  2
   1102   2248   2239   2230     1  0.0000000  1.6024720  3
   1105   2278   2269   2260     1  180.0000771  0.4184000  2
   1105   2278   2269   2260     1  0.0000000  1.6024720  3
   1110   1111   1123   1135     1  0.0000000  0.6508444  3
   1110   1114   1126   1132     1  0.0000000  0.6508444  3
   1110   1117   1120   1129     1  0.0000000  0.6508444  3
   1111   1110   1114   1126     1  0.0000000  0.6508444  3
   1111   1110   1117   1120     1  0.0000000  0.6508444  3
   1111   1123   1135   2338     1  0.0000000  0.6508444  3
   1114   1110   1111   1123     1  0.0000000  0.6508444  3
   1114   1110   1117   1120     1  0.0000000  0.6508444  3
   1114   1126   1132   2308     1  0.0000000  0.6508444  3
   1117   1110   1111   1123     1  0.0000000  0.6508444  3
   1117   1110   1114   1126     1  0.0000000  0.6508444  3
   1117   1120   1129   1138     1  0.0000000  0.6508444  3
   1123   1135   2338   2329     1  180.0000771  0.4184000  2
   1123   1135   2338   2329     1  0.0000000  1.6024720  3
   1126   1132   2308   2299     1  180.0000771  0.4184000  2
   1126   1132   2308   2299     1  0.0000000  1.6024720  3
   1132   2308   2299   2290     1  180.0000771  0.4184000  2
   1132   2308   2299   2290     1  0.0000000  1.6024720  3
   1135   2338   2329   2320     1  180.0000771  0.4184000  2
   1135   2338   2329   2320     1  0.0000000  1.6024720  3
   1140   1141   1153   1165     1  0.0000000  0.6508444  3
   1140   1144   1156   1162     1  0.0000000  0.6508444  3
   1140   1147   1150   1159     1  0.0000000  0.6508444  3
   1141   1140   1144   1156     1  0.0000000  0.6508444  3
   1141   1140   1147   1150     1  0.0000000  0.6508444  3
   1141   1153   1165   2398     1  0.0000000  0.6508444  3
   1144   1140   1141   1153     1  0.0000000  0.6508444  3
   1144   1140   1147   1150     1  0.0000000  0.6508444  3
   1144   1156   1162   2368     1  0.0000000  0.6508444  3
   1147   1140   1141   1153     1  0.0000000  0.6508444  3
   1147   1140   1144   1156     1  0.0000000  0.6508444  3
   1147   1150   1159   1168     1  0.0000000  0.6508444  3
   1153   1165   2398   2389     1  180.0000771  0.4184000  2
   1153   1165   2398   2389     1  0.0000000  1.6024720  3
   1156   1162   2368   2359     1  180.0000771  0.4184000  2
   1156   1162   2368   2359     1  0.0000000  1.6024720  3
   1162   2368   2359   2350     1  180.0000771  0.4184000  2
   1162   2368   2359   2350     1  0.0000000  1.6024720  3
   1165   2398   2389   2380     1  180.0000771  0.4184000  2
   1165   2398   2389   2380     1  0.0000000  1.6024720  3
   1170   1171   1183   1195     1  0.0000000  0.6508444  3
   1170   1174   1186   1192     1  0.0000000  0.6508444  3
   1170   1177   1180   1189     1  0.0000000  0.6508444  3
   1171   1170   1174   1186     1  0.0000000  0.6508444  3
   1171   1170   1177   1180     1  0.0000000  0.6508444  3
   1171   1183   1195   2458     1  0.0000000  0.6508444  3
   1174   1170   1171   1183     1  0.0000000  0.6508444  3
   1174   1170   1177   1180     1  0.0000000  0.6508444  3
   1174   1186   1192   2428     1  0.0000000  0.6508444  3
   1177   1170   1171   1183     1  0.0000000  0.6508444  3
   1177   1170   1174   1186     1  0.0000000  0.6508444  3
   1177   1180   1189   1198     1  0.0000000  0.6508444  3
   1183   1195   2458   2449     1  180.0000771  0.4184000  2
   1183   1195   2458   2449     1  0.0000000  1.6024720  3
   1186   1192   2428   2419     1  180.0000771  0.4184000  2
   1186   1192   2428   2419     1  0.0000000  1.6024720  3
   1192   2428   2419   2410     1  180.0000771  0.4184000  2
   1192   2428   2419   2410     1  0.0000000  1.6024720  3
   1195   2458   2449   2440     1  180.0000771  0.4184000  2
   1195   2458   2449   2440     1  0.0000000  1.6024720  3
   1200   1201   1213   1225     1  0.0000000  0.6508444  3
   1200   1204   1216   1222     1  0.0000000  0.6508444  3
   1200   1207   1210   1219     1  0.0000000  0.6508444  3
   1201   1200   1204   1216     1  0.0000000  0.6508444  3
   1201   1200   1207   1210     1  0.0000000  0.6508444  3
   1201   1213   1225   2518     1  0.0000000  0.6508444  3
   1204   1200   1201   1213     1  0.0000000  0.6508444  3
   1204   1200   1207   1210     1  0.0000000  0.6508444  3
   1204   1216   1222   2488     1  0.0000000  0.6508444  3
   1207   1200   1201   1213     1  0.0000000  0.6508444  3
   1207   1200   1204   1216     1  0.0000000  0.6508444  3
   1207   1210   1219   1228     1  0.0000000  0.6508444  3
   1213   1225   2518   2509     1  180.0000771  0.4184000  2
   1213   1225   2518   2509     1  0.0000000  1.6024720  3
   1216   1222   2488   2479     1  180.0000771  0.4184000  2
   1216   1222   2488   2479     1  0.0000000  1.6024720  3
   1222   2488   2479   2470     1  180.0000771  0.4184000  2
   1222   2488   2479   2470     1  0.0000000  1.6024720  3
   1225   2518   2509   2500     1  180.0000771  0.4184000  2
   1225   2518   2509   2500     1  0.0000000  1.6024720  3
   1230   1231   1243   1255     1  0.0000000  0.6508444  3
   1230   1234   1246   1252     1  0.0000000  0.6508444  3
   1230   1237   1240   1249     1  0.0000000  0.6508444  3
   1231   1230   1234   1246     1  0.0000000  0.6508444  3
   1231   1230   1237   1240     1  0.0000000  0.6508444  3
   1231   1243   1255   2578     1  0.0000000  0.6508444  3
   1234   1230   1231   1243     1  0.0000000  0.6508444  3
   1234   1230   1237   1240     1  0.0000000  0.6508444  3
   1234   1246   1252   2548     1  0.0000000  0.6508444  3
   1237   1230   1231   1243     1  0.0000000  0.6508444  3
   1237   1230   1234   1246     1  0.0000000  0.6508444  3
   1237   1240   1249   1258     1  0.0000000  0.6508444  3
   1243   1255   2578   2569     1  180.0000771  0.4184000  2
   1243   1255   2578   2569     1  0.0000000  1.6024720  3
   1246   1252   2548   2539     1  180.0000771  0.4184000  2
   1246   1252   2548   2539     1  0.0000000  1.6024720  3
   1252   2548   2539   2530     1  180.0000771  0.4184000  2
   1252   2548   2539   2530     1  0.0000000  1.6024720  3
   1255   2578   2569   2560     1  180.0000771  0.4184000  2
   1255   2578   2569   2560     1  0.0000000  1.6024720  3
   1260   1261   1273   1285     1  0.0000000  0.6508444  3
   1260   1264   1276   1282     1  0.0000000  0.6508444  3
   1260   1267   1270   1279     1  0.0000000  0.6508444  3
   1261   1260   1264   1276     1  0.0000000  0.6508444  3
   1261   1260   1267   1270     1  0.0000000  0.6508444  3
   1261   1273   1285   2638     1  0.0000000  0.6508444  3
   1264   1260   1261   1273     1  0.0000000  0.6508444  3
   1264   1260   1267   1270     1  0.0000000  0.6508444  3
   1264   1276   1282   2608     1  0.0000000  0.6508444  3
   1267   1260   1261   1273     1  0.0000000  0.6508444  3
   1267   1260   1264   1276     1  0.0000000  0.6508444  3
   1267   1270   1279   1288     1  0.0000000  0.6508444  3
   1273   1285   2638   2629     1  180.0000771  0.4184000  2
   1273   1285   2638   2629     1  0.0000000  1.6024720  3
   1276   1282   2608   2599     1  180.0000771  0.4184000  2
   1276   1282   2608   2599     1  0.0000000  1.6024720  3
   1282   2608   2599   2590     1  180.0000771  0.4184000  2
   1282   2608   2599   2590     1  0.0000000  1.6024720  3
   1285   2638   2629   2620     1  180.0000771  0.4184000  2
   1285   2638   2629   2620     1  0.0000000  1.6024720  3
   1290   1291   1303   1315     1  0.0000000  0.6508444  3
   1290   1294   1306   1312     1  0.0000000  0.6508444  3
   1290   1297   1300   1309     1  0.0000000  0.6508444  3
   1291   1290   1294   1306     1  0.0000000  0.6508444  3
   1291   1290   1297   1300     1  0.0000000  0.6508444  3
   1291   1303   1315   2698     1  0.0000000  0.6508444  3
   1294   1290   1291   1303     1  0.0000000  0.6508444  3
   1294   1290   1297   1300     1  0.0000000  0.6508444  3
   1294   1306   1312   2668     1  0.0000000  0.6508444  3
   1297   1290   1291   1303     1  0.0000000  0.6508444  3
   1297   1290   1294   1306     1  0.0000000  0.6508444  3
   1297   1300   1309   1318     1  0.0000000  0.6508444  3
   1303   1315   2698   2689     1  180.0000771  0.4184000  2
   1303   1315   2698   2689     1  0.0000000  1.6024720  3
   1306   1312   2668   2659     1  180.0000771  0.4184000  2
   1306   1312   2668   2659     1  0.0000000  1.6024720  3
   1312   2668   2659   2650     1  180.0000771  0.4184000  2
   1312   2668   2659   2650     1  0.0000000  1.6024720  3
   1315   2698   2689   2680     1  180.0000771  0.4184000  2
   1315   2698   2689   2680     1  0.0000000  1.6024720  3
   1320   1321   1333   1345     1  0.0000000  0.6508444  3
   1320   1324   1336   1342     1  0.0000000  0.6508444  3
   1320   1327   1330   1339     1  0.0000000  0.6508444  3
   1321   1320   1324   1336     1  0.0000000  0.6508444  3
   1321   1320   1327   1330     1  0.0000000  0.6508444  3
   1321   1333   1345   2758     1  0.0000000  0.6508444  3
   1324   1320   1321   1333     1  0.0000000  0.6508444  3
   1324   1320   1327   1330     1  0.0000000  0.6508444  3
   1324   1336   1342   2728     1  0.0000000  0.6508444  3
   1327   1320   1321   1333     1  0.0000000  0.6508444  3
   1327   1320   1324   1336     1  0.0000000  0.6508444  3
   1327   1330   1339   1348     1  0.0000000  0.6508444  3
   1333   1345   2758   2749     1  180.0000771  0.4184000  2
   1333   1345   2758   2749     1  0.0000000  1.6024720  3
   1336   1342   2728   2719     1  180.0000771  0.4184000  2
   1336   1342   2728   2719     1  0.0000000  1.6024720  3
   1342   2728   2719   2710     1  180.0000771  0.4184000  2
   1342   2728   2719   2710     1  0.0000000  1.6024720  3
   1345   2758   2749   2740     1  180.0000771  0.4184000  2
   1345   2758   2749   2740     1  0.0000000  1.6024720  3
   1350   1351   1363   1375     1  0.0000000  0.6508444  3
   1350   1354   1366   1372     1  0.0000000  0.6508444  3
   1350   1357   1360   1369     1  0.0000000  0.6508444  3
   1351   1350   1354   1366     1  0.0000000  0.6508444  3
   1351   1350   1357   1360     1  0.0000000  0.6508444  3
   1351   1363   1375   2818     1  0.0000000  0.6508444  3
   1354   1350   1351   1363     1  0.0000000  0.6508444  3
   1354   1350   1357   1360     1  0.0000000  0.6508444  3
   1354   1366   1372   2788     1  0.0000000  0.6508444  3
   1357   1350   1351   1363     1  0.0000000  0.6508444  3
   1357   1350   1354   1366     1  0.0000000  0.6508444  3
   1357   1360   1369   1378     1  0.0000000  0.6508444  3
   1363   1375   2818   2809     1  180.0000771  0.4184000  2
   1363   1375   2818   2809     1  0.0000000  1.6024720  3
   1366   1372   2788   2779     1  180.0000771  0.4184000  2
   1366   1372   2788   2779     1  0.0000000  1.6024720  3
   1372   2788   2779   2770     1  180.0000771  0.4184000  2
   1372   2788   2779   2770     1  0.0000000  1.6024720  3
   1375   2818   2809   2800     1  180.0000771  0.4184000  2
   1375   2818   2809   2800     1  0.0000000  1.6024720  3
   1380   1381   1393   1405     1  0.0000000  0.6508444  3
   1380   1384   1396   1402     1  0.0000000  0.6508444  3
   1380   1387   1390   1399     1  0.0000000  0.6508444  3
   1381   1380   1384   1396     1  0.0000000  0.6508444  3
   1381   1380   1387   1390     1  0.0000000  0.6508444  3
   1381   1393   1405   2882     1  0.0000000  0.6508444  3
   1384   1380   1381   1393     1  0.0000000  0.6508444  3
   1384   1380   1387   1390     1  0.0000000  0.6508444  3
   1384   1396   1402   2850     1  0.0000000  0.6508444  3
   1387   1380   1381   1393     1  0.0000000  0.6508444  3
   1387   1380   1384   1396     1  0.0000000  0.6508444  3
   1387   1390   1399   1408     1  0.0000000  0.6508444  3
   1393   1405   2882   2852     1  180.0000771  0.4184000  2
   1393   1405   2882   2852     1  0.0000000  1.6024720  3
   1396   1402   2850   2820     1  180.0000771  0.4184000  2
   1396   1402   2850   2820     1  0.0000000  1.6024720  3
   1402   2850   2820   2823     1  180.0000771  0.4184000  2
   1402   2850   2820   2823     1  0.0000000  1.6024720  3
   1405   2882   2852   2855     1  180.0000771  0.4184000  2
   1405   2882   2852   2855     1  0.0000000  1.6024720  3
   1410   1411   1423   1435     1  0.0000000  0.6508444  3
   1410   1414   1426   1432     1  0.0000000  0.6508444  3
   1410   1417   1420   1429     1  0.0000000  0.6508444  3
   1411   1410   1414   1426     1  0.0000000  0.6508444  3
   1411   1410   1417   1420     1  0.0000000  0.6508444  3
   1411   1423   1435   2946     1  0.0000000  0.6508444  3
   1414   1410   1411   1423     1  0.0000000  0.6508444  3
   1414   1410   1417   1420     1  0.0000000  0.6508444  3
   1414   1426   1432   2914     1  0.0000000  0.6508444  3
   1417   1410   1411   1423     1  0.0000000  0.6508444  3
   1417   1410   1414   1426     1  0.0000000  0.6508444  3
   1417   1420   1429   1438     1  0.0000000  0.6508444  3
   1423   1435   2946   2916     1  180.0000771  0.4184000  2
   1423   1435   2946   2916     1  0.0000000  1.6024720  3
   1426   1432   2914   2884     1  180.0000771  0.4184000  2
   1426   1432   2914   2884     1  0.0000000  1.6024720  3
   1432   2914   2884   2887     1  180.0000771  0.4184000  2
   1432   2914   2884   2887     1  0.0000000  1.6024720  3
   1435   2946   2916   2919     1  180.0000771  0.4184000  2
   1435   2946   2916   2919     1  0.0000000  1.6024720  3
   1440   1441   1453   1465     1  0.0000000  0.6508444  3
   1440   1444   1456   1462     1  0.0000000  0.6508444  3
   1440   1447   1450   1459     1  0.0000000  0.6508444  3
   1441   1440   1444   1456     1  0.0000000  0.6508444  3
   1441   1440   1447   1450     1  0.0000000  0.6508444  3
   1441   1453   1465   3010     1  0.0000000  0.6508444  3
   1444   1440   1441   1453     1  0.0000000  0.6508444  3
   1444   1440   1447   1450     1  0.0000000  0.6508444  3
   1444   1456   1462   2978     1  0.0000000  0.6508444  3
   1447   1440   1441   1453     1  0.0000000  0.6508444  3
   1447   1440   1444   1456     1  0.0000000  0.6508444  3
   1447   1450   1459   1468     1  0.0000000  0.6508444  3
   1453   1465   3010   2980     1  180.0000771  0.4184000  2
   1453   1465   3010   2980     1  0.0000000  1.6024720  3
   1456   1462   2978   2948     1  180.0000771  0.4184000  2
   1456   1462   2978   2948     1  0.0000000  1.6024720  3
   1462   2978   2948   2951     1  180.0000771  0.4184000  2
   1462   2978   2948   2951     1  0.0000000  1.6024720  3
   1465   3010   2980   2983     1  180.0000771  0.4184000  2
   1465   3010   2980   2983     1  0.0000000  1.6024720  3
   1470   1471   1483   1495     1  0.0000000  0.6508444  3
   1470   1474   1486   1492     1  0.0000000  0.6508444  3
   1470   1477   1480   1489     1  0.0000000  0.6508444  3
   1471   1470   1474   1486     1  0.0000000  0.6508444  3
   1471   1470   1477   1480     1  0.0000000  0.6508444  3
   1471   1483   1495   3074     1  0.0000000  0.6508444  3
   1474   1470   1471   1483     1  0.0000000  0.6508444  3
   1474   1470   1477   1480     1  0.0000000  0.6508444  3
   1474   1486   1492   3042     1  0.0000000  0.6508444  3
   1477   1470   1471   1483     1  0.0000000  0.6508444  3
   1477   1470   1474   1486     1  0.0000000  0.6508444  3
   1477   1480   1489   1498     1  0.0000000  0.6508444  3
   1483   1495   3074   3044     1  180.0000771  0.4184000  2
   1483   1495   3074   3044     1  0.0000000  1.6024720  3
   1486   1492   3042   3012     1  180.0000771  0.4184000  2
   1486   1492   3042   3012     1  0.0000000  1.6024720  3
   1492   3042   3012   3015     1  180.0000771  0.4184000  2
   1492   3042   3012   3015     1  0.0000000  1.6024720  3
   1495   3074   3044   3047     1  180.0000771  0.4184000  2
   1495   3074   3044   3047     1  0.0000000  1.6024720  3
   1500   1501   1513   1525     1  0.0000000  0.6508444  3
   1500   1504   1516   1522     1  0.0000000  0.6508444  3
   1500   1507   1510   1519     1  0.0000000  0.6508444  3
   1501   1500   1504   1516     1  0.0000000  0.6508444  3
   1501   1500   1507   1510     1  0.0000000  0.6508444  3
   1501   1513   1525   3138     1  0.0000000  0.6508444  3
   1504   1500   1501   1513     1  0.0000000  0.6508444  3
   1504   1500   1507   1510     1  0.0000000  0.6508444  3
   1504   1516   1522   3106     1  0.0000000  0.6508444  3
   1507   1500   1501   1513     1  0.0000000  0.6508444  3
   1507   1500   1504   1516     1  0.0000000  0.6508444  3
   1507   1510   1519   1528     1  0.0000000  0.6508444  3
   1513   1525   3138   3108     1  180.0000771  0.4184000  2
   1513   1525   3138   3108     1  0.0000000  1.6024720  3
   1516   1522   3106   3076     1  180.0000771  0.4184000  2
   1516   1522   3106   3076     1  0.0000000  1.6024720  3
   1522   3106   3076   3079     1  180.0000771  0.4184000  2
   1522   3106   3076   3079     1  0.0000000  1.6024720  3
   1525   3138   3108   3111     1  180.0000771  0.4184000  2
   1525   3138   3108   3111     1  0.0000000  1.6024720  3
   1530   1531   1543   1555     1  0.0000000  0.6508444  3
   1530   1534   1546   1552     1  0.0000000  0.6508444  3
   1530   1537   1540   1549     1  0.0000000  0.6508444  3
   1531   1530   1534   1546     1  0.0000000  0.6508444  3
   1531   1530   1537   1540     1  0.0000000  0.6508444  3
   1531   1543   1555   3202     1  0.0000000  0.6508444  3
   1534   1530   1531   1543     1  0.0000000  0.6508444  3
   1534   1530   1537   1540     1  0.0000000  0.6508444  3
   1534   1546   1552   3170     1  0.0000000  0.6508444  3
   1537   1530   1531   1543     1  0.0000000  0.6508444  3
   1537   1530   1534   1546     1  0.0000000  0.6508444  3
   1537   1540   1549   1558     1  0.0000000  0.6508444  3
   1543   1555   3202   3172     1  180.0000771  0.4184000  2
   1543   1555   3202   3172     1  0.0000000  1.6024720  3
   1546   1552   3170   3140     1  180.0000771  0.4184000  2
   1546   1552   3170   3140     1  0.0000000  1.6024720  3
   1552   3170   3140   3143     1  180.0000771  0.4184000  2
   1552   3170   3140   3143     1  0.0000000  1.6024720  3
   1555   3202   3172   3175     1  180.0000771  0.4184000  2
   1555   3202   3172   3175     1  0.0000000  1.6024720  3
   1560   1561   1573   1585     1  0.0000000  0.6508444  3
   1560   1564   1576   1582     1  0.0000000  0.6508444  3
   1560   1567   1570   1579     1  0.0000000  0.6508444  3
   1561   1560   1564   1576     1  0.0000000  0.6508444  3
   1561   1560   1567   1570     1  0.0000000  0.6508444  3
   1561   1573   1585   3266     1  0.0000000  0.6508444  3
   1564   1560   1561   1573     1  0.0000000  0.6508444  3
   1564   1560   1567   1570     1  0.0000000  0.6508444  3
   1564   1576   1582   3234     1  0.0000000  0.6508444  3
   1567   1560   1561   1573     1  0.0000000  0.6508444  3
   1567   1560   1564   1576     1  0.0000000  0.6508444  3
   1567   1570   1579   1588     1  0.0000000  0.6508444  3
   1573   1585   3266   3236     1  180.0000771  0.4184000  2
   1573   1585   3266   3236     1  0.0000000  1.6024720  3
   1576   1582   3234   3204     1  180.0000771  0.4184000  2
   1576   1582   3234   3204     1  0.0000000  1.6024720  3
   1582   3234   3204   3207     1  180.0000771  0.4184000  2
   1582   3234   3204   3207     1  0.0000000  1.6024720  3
   1585   3266   3236   3239     1  180.0000771  0.4184000  2
   1585   3266   3236   3239     1  0.0000000  1.6024720  3
   1590   1591   1603   1615     1  0.0000000  0.6508444  3
   1590   1594   1606   1612     1  0.0000000  0.6508444  3
   1590   1597   1600   1609     1  0.0000000  0.6508444  3
   1591   1590   1594   1606     1  0.0000000  0.6508444  3
   1591   1590   1597   1600     1  0.0000000  0.6508444  3
   1591   1603   1615   3330     1  0.0000000  0.6508444  3
   1594   1590   1591   1603     1  0.0000000  0.6508444  3
   1594   1590   1597   1600     1  0.0000000  0.6508444  3
   1594   1606   1612   3298     1  0.0000000  0.6508444  3
   1597   1590   1591   1603     1  0.0000000  0.6508444  3
   1597   1590   1594   1606     1  0.0000000  0.6508444  3
   1597   1600   1609   1618     1  0.0000000  0.6508444  3
   1603   1615   3330   3300     1  180.0000771  0.4184000  2
   1603   1615   3330   3300     1  0.0000000  1.6024720  3
   1606   1612   3298   3268     1  180.0000771  0.4184000  2
   1606   1612   3298   3268     1  0.0000000  1.6024720  3
   1612   3298   3268   3271     1  180.0000771  0.4184000  2
   1612   3298   3268   3271     1  0.0000000  1.6024720  3
   1615   3330   3300   3303     1  180.0000771  0.4184000  2
   1615   3330   3300   3303     1  0.0000000  1.6024720  3
   1620   1621   1633   1645     1  0.0000000  0.6508444  3
   1620   1624   1636   1642     1  0.0000000  0.6508444  3
   1620   1627   1630   1639     1  0.0000000  0.6508444  3
   1621   1620   1624   1636     1  0.0000000  0.6508444  3
   1621   1620   1627   1630     1  0.0000000  0.6508444  3
   1621   1633   1645   3394     1  0.0000000  0.6508444  3
   1624   1620   1621   1633     1  0.0000000  0.6508444  3
   1624   1620   1627   1630     1  0.0000000  0.6508444  3
   1624   1636   1642   3362     1  0.0000000  0.6508444  3
   1627   1620   1621   1633     1  0.0000000  0.6508444  3
   1627   1620   1624   1636     1  0.0000000  0.6508444  3
   1627   1630   1639   1648     1  0.0000000  0.6508444  3
   1633   1645   3394   3364     1  180.0000771  0.4184000  2
   1633   1645   3394   3364     1  0.0000000  1.6024720  3
   1636   1642   3362   3332     1  180.0000771  0.4184000  2
   1636   1642   3362   3332     1  0.0000000  1.6024720  3
   1642   3362   3332   3335     1  180.0000771  0.4184000  2
   1642   3362   3332   3335     1  0.0000000  1.6024720  3
   1645   3394   3364   3367     1  180.0000771  0.4184000  2
   1645   3394   3364   3367     1  0.0000000  1.6024720  3
   1650   1651   1663   1675     1  0.0000000  0.6508444  3
   1650   1654   1666   1672     1  0.0000000  0.6508444  3
   1650   1657   1660   1669     1  0.0000000  0.6508444  3
   1651   1650   1654   1666     1  0.0000000  0.6508444  3
   1651   1650   1657   1660     1  0.0000000  0.6508444  3
   1651   1663   1675   3458     1  0.0000000  0.6508444  3
   1654   1650   1651   1663     1  0.0000000  0.6508444  3
   1654   1650   1657   1660     1  0.0000000  0.6508444  3
   1654   1666   1672   3426     1  0.0000000  0.6508444  3
   1657   1650   1651   1663     1  0.0000000  0.6508444  3
   1657   1650   1654   1666     1  0.0000000  0.6508444  3
   1657   1660   1669   1678     1  0.0000000  0.6508444  3
   1663   1675   3458   3428     1  180.0000771  0.4184000  2
   1663   1675   3458   3428     1  0.0000000  1.6024720  3
   1666   1672   3426   3396     1  180.0000771  0.4184000  2
   1666   1672   3426   3396     1  0.0000000  1.6024720  3
   1672   3426   3396   3399     1  180.0000771  0.4184000  2
   1672   3426   3396   3399     1  0.0000000  1.6024720  3
   1675   3458   3428   3431     1  180.0000771  0.4184000  2
   1675   3458   3428   3431     1  0.0000000  1.6024720  3
   1680   1681   1693   1705     1  0.0000000  0.6508444  3
   1680   1684   1696   1702     1  0.0000000  0.6508444  3
   1680   1687   1690   1699     1  0.0000000  0.6508444  3
   1681   1680   1684   1696     1  0.0000000  0.6508444  3
   1681   1680   1687   1690     1  0.0000000  0.6508444  3
   1681   1693   1705   3522     1  0.0000000  0.6508444  3
   1684   1680   1681   1693     1  0.0000000  0.6508444  3
   1684   1680   1687   1690     1  0.0000000  0.6508444  3
   1684   1696   1702   3490     1  0.0000000  0.6508444  3
   1687   1680   1681   1693     1  0.0000000  0.6508444  3
   1687   1680   1684   1696     1  0.0000000  0.6508444  3
   1687   1690   1699   1708     1  0.0000000  0.6508444  3
   1693   1705   3522   3492     1  180.0000771  0.4184000  2
   1693   1705   3522   3492     1  0.0000000  1.6024720  3
   1696   1702   3490   3460     1  180.0000771  0.4184000  2
   1696   1702   3490   3460     1  0.0000000  1.6024720  3
   1702   3490   3460   3463     1  180.0000771  0.4184000  2
   1702   3490   3460   3463     1  0.0000000  1.6024720  3
   1705   3522   3492   3495     1  180.0000771  0.4184000  2
   1705   3522   3492   3495     1  0.0000000  1.6024720  3
   1710   1711   1723   1735     1  0.0000000  0.6508444  3
   1710   1714   1726   1732     1  0.0000000  0.6508444  3
   1710   1717   1720   1729     1  0.0000000  0.6508444  3
   1711   1710   1714   1726     1  0.0000000  0.6508444  3
   1711   1710   1717   1720     1  0.0000000  0.6508444  3
   1711   1723   1735   3586     1  0.0000000  0.6508444  3
   1714   1710   1711   1723     1  0.0000000  0.6508444  3
   1714   1710   1717   1720     1  0.0000000  0.6508444  3
   1714   1726   1732   3554     1  0.0000000  0.6508444  3
   1717   1710   1711   1723     1  0.0000000  0.6508444  3
   1717   1710   1714   1726     1  0.0000000  0.6508444  3
   1717   1720   1729   1738     1  0.0000000  0.6508444  3
   1723   1735   3586   3556     1  180.0000771  0.4184000  2
   1723   1735   3586   3556     1  0.0000000  1.6024720  3
   1726   1732   3554   3524     1  180.0000771  0.4184000  2
   1726   1732   3554   3524     1  0.0000000  1.6024720  3
   1732   3554   3524   3527     1  180.0000771  0.4184000  2
   1732   3554   3524   3527     1  0.0000000  1.6024720  3
   1735   3586   3556   3559     1  180.0000771  0.4184000  2
   1735   3586   3556   3559     1  0.0000000  1.6024720  3
   1740   1741   1753   1765     1  0.0000000  0.6508444  3
   1740   1744   1756   1762     1  0.0000000  0.6508444  3
   1740   1747   1750   1759     1  0.0000000  0.6508444  3
   1741   1740   1744   1756     1  0.0000000  0.6508444  3
   1741   1740   1747   1750     1  0.0000000  0.6508444  3
   1741   1753   1765   3650     1  0.0000000  0.6508444  3
   1744   1740   1741   1753     1  0.0000000  0.6508444  3
   1744   1740   1747   1750     1  0.0000000  0.6508444  3
   1744   1756   1762   3618     1  0.0000000  0.6508444  3
   1747   1740   1741   1753     1  0.0000000  0.6508444  3
   1747   1740   1744   1756     1  0.0000000  0.6508444  3
   1747   1750   1759   1768     1  0.0000000  0.6508444  3
   1753   1765   3650   3620     1  180.0000771  0.4184000  2
   1753   1765   3650   3620     1  0.0000000  1.6024720  3
   1756   1762   3618   3588     1  180.0000771  0.4184000  2
   1756   1762   3618   3588     1  0.0000000  1.6024720  3
   1762   3618   3588   3591     1  180.0000771  0.4184000  2
   1762   3618   3588   3591     1  0.0000000  1.6024720  3
   1765   3650   3620   3623     1  180.0000771  0.4184000  2
   1765   3650   3620   3623     1  0.0000000  1.6024720  3
   1770   1771   1783   1795     1  0.0000000  0.6508444  3
   1770   1774   1786   1792     1  0.0000000  0.6508444  3
   1770   1777   1780   1789     1  0.0000000  0.6508444  3
   1771   1770   1774   1786     1  0.0000000  0.6508444  3
   1771   1770   1777   1780     1  0.0000000  0.6508444  3
   1771   1783   1795   3714     1  0.0000000  0.6508444  3
   1774   1770   1771   1783     1  0.0000000  0.6508444  3
   1774   1770   1777   1780     1  0.0000000  0.6508444  3
   1774   1786   1792   3682     1  0.0000000  0.6508444  3
   1777   1770   1771   1783     1  0.0000000  0.6508444  3
   1777   1770   1774   1786     1  0.0000000  0.6508444  3
   1777   1780   1789   1798     1  0.0000000  0.6508444  3
   1783   1795   3714   3684     1  180.0000771  0.4184000  2
   1783   1795   3714   3684     1  0.0000000  1.6024720  3
   1786   1792   3682   3652     1  180.0000771  0.4184000  2
   1786   1792   3682   3652     1  0.0000000  1.6024720  3
   1792   3682   3652   3655     1  180.0000771  0.4184000  2
   1792   3682   3652   3655     1  0.0000000  1.6024720  3
   1795   3714   3684   3687     1  180.0000771  0.4184000  2
   1795   3714   3684   3687     1  0.0000000  1.6024720  3
   1800   1801   1813   1825     1  0.0000000  0.6508444  3
   1800   1804   1816   1822     1  0.0000000  0.6508444  3
   1800   1807   1810   1819     1  0.0000000  0.6508444  3
   1801   1800   1804   1816     1  0.0000000  0.6508444  3
   1801   1800   1807   1810     1  0.0000000  0.6508444  3
   1801   1813   1825   3778     1  0.0000000  0.6508444  3
   1804   1800   1801   1813     1  0.0000000  0.6508444  3
   1804   1800   1807   1810     1  0.0000000  0.6508444  3
   1804   1816   1822   3746     1  0.0000000  0.6508444  3
   1807   1800   1801   1813     1  0.0000000  0.6508444  3
   1807   1800   1804   1816     1  0.0000000  0.6508444  3
   1807   1810   1819   1828     1  0.0000000  0.6508444  3
   1813   1825   3778   3748     1  180.0000771  0.4184000  2
   1813   1825   3778   3748     1  0.0000000  1.6024720  3
   1816   1822   3746   3716     1  180.0000771  0.4184000  2
   1816   1822   3746   3716     1  0.0000000  1.6024720  3
   1822   3746   3716   3719     1  180.0000771  0.4184000  2
   1822   3746   3716   3719     1  0.0000000  1.6024720  3
   1825   3778   3748   3751     1  180.0000771  0.4184000  2
   1825   3778   3748   3751     1  0.0000000  1.6024720  3
   1830   1831   1843   1855     1  0.0000000  0.6508444  3
   1830   1834   1846   1852     1  0.0000000  0.6508444  3
   1830   1837   1840   1849     1  0.0000000  0.6508444  3
   1831   1830   1834   1846     1  0.0000000  0.6508444  3
   1831   1830   1837   1840     1  0.0000000  0.6508444  3
   1831   1843   1855   3842     1  0.0000000  0.6508444  3
   1834   1830   1831   1843     1  0.0000000  0.6508444  3
   1834   1830   1837   1840     1  0.0000000  0.6508444  3
   1834   1846   1852   3810     1  0.0000000  0.6508444  3
   1837   1830   1831   1843     1  0.0000000  0.6508444  3
   1837   1830   1834   1846     1  0.0000000  0.6508444  3
   1837   1840   1849   1858     1  0.0000000  0.6508444  3
   1843   1855   3842   3812     1  180.0000771  0.4184000  2
   1843   1855   3842   3812     1  0.0000000  1.6024720  3
   1846   1852   3810   3780     1  180.0000771  0.4184000  2
   1846   1852   3810   3780     1  0.0000000  1.6024720  3
   1852   3810   3780   3783     1  180.0000771  0.4184000  2
   1852   3810   3780   3783     1  0.0000000  1.6024720  3
   1855   3842   3812   3815     1  180.0000771  0.4184000  2
   1855   3842   3812   3815     1  0.0000000  1.6024720  3
   1860   1861   1873   1885     1  0.0000000  0.6508444  3
   1860   1864   1876   1882     1  0.0000000  0.6508444  3
   1860   1867   1870   1879     1  0.0000000  0.6508444  3
   1861   1860   1864   1876     1  0.0000000  0.6508444  3
   1861   1860   1867   1870     1  0.0000000  0.6508444  3
   1861   1873   1885   3906     1  0.0000000  0.6508444  3
   1864   1860   1861   1873     1  0.0000000  0.6508444  3
   1864   1860   1867   1870     1  0.0000000  0.6508444  3
   1864   1876   1882   3874     1  0.0000000  0.6508444  3
   1867   1860   1861   1873     1  0.0000000  0.6508444  3
   1867   1860   1864   1876     1  0.0000000  0.6508444  3
   1867   1870   1879   1888     1  0.0000000  0.6508444  3
   1873   1885   3906   3876     1  180.0000771  0.4184000  2
   1873   1885   3906   3876     1  0.0000000  1.6024720  3
   1876   1882   3874   3844     1  180.0000771  0.4184000  2
   1876   1882   3874   3844     1  0.0000000  1.6024720  3
   1882   3874   3844   3847     1  180.0000771  0.4184000  2
   1882   3874   3844   3847     1  0.0000000  1.6024720  3
   1885   3906   3876   3879     1  180.0000771  0.4184000  2
   1885   3906   3876   3879     1  0.0000000  1.6024720  3
   1890   1891   1903   1915     1  0.0000000  0.6508444  3
   1890   1894   1906   1912     1  0.0000000  0.6508444  3
   1890   1897   1900   1909     1  0.0000000  0.6508444  3
   1891   1890   1894   1906     1  0.0000000  0.6508444  3
   1891   1890   1897   1900     1  0.0000000  0.6508444  3
   1891   1903   1915   3970     1  0.0000000  0.6508444  3
   1894   1890   1891   1903     1  0.0000000  0.6508444  3
   1894   1890   1897   1900     1  0.0000000  0.6508444  3
   1894   1906   1912   3938     1  0.0000000  0.6508444  3
   1897   1890   1891   1903     1  0.0000000  0.6508444  3
   1897   1890   1894   1906     1  0.0000000  0.6508444  3
   1897   1900   1909   1918     1  0.0000000  0.6508444  3
   1903   1915   3970   3940     1  180.0000771  0.4184000  2
   1903   1915   3970   3940     1  0.0000000  1.6024720  3
   1906   1912   3938   3908     1  180.0000771  0.4184000  2
   1906   1912   3938   3908     1  0.0000000  1.6024720  3
   1912   3938   3908   3911     1  180.0000771  0.4184000  2
   1912   3938   3908   3911     1  0.0000000  1.6024720  3
   1915   3970   3940   3943     1  180.0000771  0.4184000  2
   1915   3970   3940   3943     1  0.0000000  1.6024720  3
   1920   1921   1933   1945     1  0.0000000  0.6508444  3
   1920   1924   1936   1942     1  0.0000000  0.6508444  3
   1920   1927   1930   1939     1  0.0000000  0.6508444  3
   1921   1920   1924   1936     1  0.0000000  0.6508444  3
   1921   1920   1927   1930     1  0.0000000  0.6508444  3
   1921   1933   1945   4034     1  0.0000000  0.6508444  3
   1924   1920   1921   1933     1  0.0000000  0.6508444  3
   1924   1920   1927   1930     1  0.0000000  0.6508444  3
   1924   1936   1942   4002     1  0.0000000  0.6508444  3
   1927   1920   1921   1933     1  0.0000000  0.6508444  3
   1927   1920   1924   1936     1  0.0000000  0.6508444  3
   1927   1930   1939   1948     1  0.0000000  0.6508444  3
   1933   1945   4034   4004     1  180.0000771  0.4184000  2
   1933   1945   4034   4004     1  0.0000000  1.6024720  3
   1936   1942   4002   3972     1  180.0000771  0.4184000  2
   1936   1942   4002   3972     1  0.0000000  1.6024720  3
   1942   4002   3972   3975     1  180.0000771  0.4184000  2
   1942   4002   3972   3975     1  0.0000000  1.6024720  3
   1945   4034   4004   4007     1  180.0000771  0.4184000  2
   1945   4034   4004   4007     1  0.0000000  1.6024720  3
   1950   1951   1963   1975     1  0.0000000  0.6508444  3
   1950   1954   1966   1972     1  0.0000000  0.6508444  3
   1950   1957   1960   1969     1  0.0000000  0.6508444  3
   1951   1950   1954   1966     1  0.0000000  0.6508444  3
   1951   1950   1957   1960     1  0.0000000  0.6508444  3
   1951   1963   1975   4098     1  0.0000000  0.6508444  3
   1954   1950   1951   1963     1  0.0000000  0.6508444  3
   1954   1950   1957   1960     1  0.0000000  0.6508444  3
   1954   1966   1972   4066     1  0.0000000  0.6508444  3
   1957   1950   1951   1963     1  0.0000000  0.6508444  3
   1957   1950   1954   1966     1  0.0000000  0.6508444  3
   1957   1960   1969   1978     1  0.0000000  0.6508444  3
   1963   1975   4098   4068     1  180.0000771  0.4184000  2
   1963   1975   4098   4068     1  0.0000000  1.6024720  3
   1966   1972   4066   4036     1  180.0000771  0.4184000  2
   1966   1972   4066   4036     1  0.0000000  1.6024720  3
   1972   4066   4036   4039     1  180.0000771  0.4184000  2
   1972   4066   4036   4039     1  0.0000000  1.6024720  3
   1975   4098   4068   4071     1  180.0000771  0.4184000  2
   1975   4098   4068   4071     1  0.0000000  1.6024720  3
   1980   1981   1993   2005     1  0.0000000  0.6508444  3
   1980   1984   1996   2002     1  0.0000000  0.6508444  3
   1980   1987   1990   1999     1  0.0000000  0.6508444  3
   1981   1980   1984   1996     1  0.0000000  0.6508444  3
   1981   1980   1987   1990     1  0.0000000  0.6508444  3
   1981   1993   2005   4162     1  0.0000000  0.6508444  3
   1984   1980   1981   1993     1  0.0000000  0.6508444  3
   1984   1980   1987   1990     1  0.0000000  0.6508444  3
   1984   1996   2002   4130     1  0.0000000  0.6508444  3
   1987   1980   1981   1993     1  0.0000000  0.6508444  3
   1987   1980   1984   1996     1  0.0000000  0.6508444  3
   1987   1990   1999   2008     1  0.0000000  0.6508444  3
   1993   2005   4162   4132     1  180.0000771  0.4184000  2
   1993   2005   4162   4132     1  0.0000000  1.6024720  3
   1996   2002   4130   4100     1  180.0000771  0.4184000  2
   1996   2002   4130   4100     1  0.0000000  1.6024720  3
   2002   4130   4100   4103     1  180.0000771  0.4184000  2
   2002   4130   4100   4103     1  0.0000000  1.6024720  3
   2005   4162   4132   4135     1  180.0000771  0.4184000  2
   2005   4162   4132   4135     1  0.0000000  1.6024720  3
   2010   2011   2023   2035     1  0.0000000  0.6508444  3
   2010   2014   2026   2032     1  0.0000000  0.6508444  3
   2010   2017   2020   2029     1  0.0000000  0.6508444  3
   2011   2010   2014   2026     1  0.0000000  0.6508444  3
   2011   2010   2017   2020     1  0.0000000  0.6508444  3
   2011   2023   2035   4226     1  0.0000000  0.6508444  3
   2014   2010   2011   2023     1  0.0000000  0.6508444  3
   2014   2010   2017   2020     1  0.0000000  0.6508444  3
   2014   2026   2032   4194     1  0.0000000  0.6508444  3
   2017   2010   2011   2023     1  0.0000000  0.6508444  3
   2017   2010   2014   2026     1  0.0000000  0.6508444  3
   2017   2020   2029   2038     1  0.0000000  0.6508444  3
   2023   2035   4226   4196     1  180.0000771  0.4184000  2
   2023   2035   4226   4196     1  0.0000000  1.6024720  3
   2026   2032   4194   4164     1  180.0000771  0.4184000  2
   2026   2032   4194   4164     1  0.0000000  1.6024720  3
   2032   4194   4164   4167     1  180.0000771  0.4184000  2
   2032   4194   4164   4167     1  0.0000000  1.6024720  3
   2035   4226   4196   4199     1  180.0000771  0.4184000  2
   2035   4226   4196   4199     1  0.0000000  1.6024720  3
   2040   2041   2053   2065     1  0.0000000  0.6508444  3
   2040   2044   2056   2062     1  0.0000000  0.6508444  3
   2040   2047   2050   2059     1  0.0000000  0.6508444  3
   2041   2040   2044   2056     1  0.0000000  0.6508444  3
   2041   2040   2047   2050     1  0.0000000  0.6508444  3
   2041   2053   2065   4290     1  0.0000000  0.6508444  3
   2044   2040   2041   2053     1  0.0000000  0.6508444  3
   2044   2040   2047   2050     1  0.0000000  0.6508444  3
   2044   2056   2062   4258     1  0.0000000  0.6508444  3
   2047   2040   2041   2053     1  0.0000000  0.6508444  3
   2047   2040   2044   2056     1  0.0000000  0.6508444  3
   2047   2050   2059   2068     1  0.0000000  0.6508444  3
   2053   2065   4290   4260     1  180.0000771  0.4184000  2
   2053   2065   4290   4260     1  0.0000000  1.6024720  3
   2056   2062   4258   4228     1  180.0000771  0.4184000  2
   2056   2062   4258   4228     1  0.0000000  1.6024720  3
   2062   4258   4228   4231     1  180.0000771  0.4184000  2
   2062   4258   4228   4231     1  0.0000000  1.6024720  3
   2065   4290   4260   4263     1  180.0000771  0.4184000  2
   2065   4290   4260   4263     1  0.0000000  1.6024720  3
   2070   2071   2083   2095     1  0.0000000  0.6508444  3
   2070   2074   2086   2092     1  0.0000000  0.6508444  3
   2070   2077   2080   2089     1  0.0000000  0.6508444  3
   2071   2070   2074   2086     1  0.0000000  0.6508444  3
   2071   2070   2077   2080     1  0.0000000  0.6508444  3
   2071   2083   2095   4354     1  0.0000000  0.6508444  3
   2074   2070   2071   2083     1  0.0000000  0.6508444  3
   2074   2070   2077   2080     1  0.0000000  0.6508444  3
   2074   2086   2092   4322     1  0.0000000  0.6508444  3
   2077   2070   2071   2083     1  0.0000000  0.6508444  3
   2077   2070   2074   2086     1  0.0000000  0.6508444  3
   2077   2080   2089   2098     1  0.0000000  0.6508444  3
   2083   2095   4354   4324     1  180.0000771  0.4184000  2
   2083   2095   4354   4324     1  0.0000000  1.6024720  3
   2086   2092   4322   4292     1  180.0000771  0.4184000  2
   2086   2092   4322   4292     1  0.0000000  1.6024720  3
   2092   4322   4292   4295     1  180.0000771  0.4184000  2
   2092   4322   4292   4295     1  0.0000000  1.6024720  3
   2095   4354   4324   4327     1  180.0000771  0.4184000  2
   2095   4354   4324   4327     1  0.0000000  1.6024720  3
   2100   2101   2113   2125     1  0.0000000  0.6508444  3
   2100   2104   2116   2122     1  0.0000000  0.6508444  3
   2100   2107   2110   2119     1  0.0000000  0.6508444  3
   2101   2100   2104   2116     1  0.0000000  0.6508444  3
   2101   2100   2107   2110     1  0.0000000  0.6508444  3
   2101   2113   2125   4418     1  0.0000000  0.6508444  3
   2104   2100   2101   2113     1  0.0000000  0.6508444  3
   2104   2100   2107   2110     1  0.0000000  0.6508444  3
   2104   2116   2122   4386     1  0.0000000  0.6508444  3
   2107   2100   2101   2113     1  0.0000000  0.6508444  3
   2107   2100   2104   2116     1  0.0000000  0.6508444  3
   2107   2110   2119   2128     1  0.0000000  0.6508444  3
   2113   2125   4418   4388     1  180.0000771  0.4184000  2
   2113   2125   4418   4388     1  0.0000000  1.6024720  3
   2116   2122   4386   4356     1  180.0000771  0.4184000  2
   2116   2122   4386   4356     1  0.0000000  1.6024720  3
   2122   4386   4356   4359     1  180.0000771  0.4184000  2
   2122   4386   4356   4359     1  0.0000000  1.6024720  3
   2125   4418   4388   4391     1  180.0000771  0.4184000  2
   2125   4418   4388   4391     1  0.0000000  1.6024720  3
   2130   2131   2143   2155     1  0.0000000  0.6508444  3
   2130   2134   2146   2152     1  0.0000000  0.6508444  3
   2130   2137   2140   2149     1  0.0000000  0.6508444  3
   2131   2130   2134   2146     1  0.0000000  0.6508444  3
   2131   2130   2137   2140     1  0.0000000  0.6508444  3
   2131   2143   2155   4482     1  0.0000000  0.6508444  3
   2134   2130   2131   2143     1  0.0000000  0.6508444  3
   2134   2130   2137   2140     1  0.0000000  0.6508444  3
   2134   2146   2152   4450     1  0.0000000  0.6508444  3
   2137   2130   2131   2143     1  0.0000000  0.6508444  3
   2137   2130   2134   2146     1  0.0000000  0.6508444  3
   2137   2140   2149   2158     1  0.0000000  0.6508444  3
   2143   2155   4482   4452     1  180.0000771  0.4184000  2
   2143   2155   4482   4452     1  0.0000000  1.6024720  3
   2146   2152   4450   4420     1  180.0000771  0.4184000  2
   2146   2152   4450   4420     1  0.0000000  1.6024720  3
   2152   4450   4420   4423     1  180.0000771  0.4184000  2
   2152   4450   4420   4423     1  0.0000000  1.6024720  3
   2155   4482   4452   4455     1  180.0000771  0.4184000  2
   2155   4482   4452   4455     1  0.0000000  1.6024720  3
   2160   2161   2173   2185     1  0.0000000  0.6508444  3
   2160   2164   2176   2182     1  0.0000000  0.6508444  3
   2160   2167   2170   2179     1  0.0000000  0.6508444  3
   2161   2160   2164   2176     1  0.0000000  0.6508444  3
   2161   2160   2167   2170     1  0.0000000  0.6508444  3
   2161   2173   2185   4546     1  0.0000000  0.6508444  3
   2164   2160   2161   2173     1  0.0000000  0.6508444  3
   2164   2160   2167   2170     1  0.0000000  0.6508444  3
   2164   2176   2182   4514     1  0.0000000  0.6508444  3
   2167   2160   2161   2173     1  0.0000000  0.6508444  3
   2167   2160   2164   2176     1  0.0000000  0.6508444  3
   2167   2170   2179   2188     1  0.0000000  0.6508444  3
   2173   2185   4546   4516     1  180.0000771  0.4184000  2
   2173   2185   4546   4516     1  0.0000000  1.6024720  3
   2176   2182   4514   4484     1  180.0000771  0.4184000  2
   2176   2182   4514   4484     1  0.0000000  1.6024720  3
   2182   4514   4484   4487     1  180.0000771  0.4184000  2
   2182   4514   4484   4487     1  0.0000000  1.6024720  3
   2185   4546   4516   4519     1  180.0000771  0.4184000  2
   2185   4546   4516   4519     1  0.0000000  1.6024720  3
   2190   2191   2203   2215     1  0.0000000  0.6508444  3
   2190   2194   2206   2212     1  0.0000000  0.6508444  3
   2190   2197   2200   2209     1  0.0000000  0.6508444  3
   2191   2190   2194   2206     1  0.0000000  0.6508444  3
   2191   2190   2197   2200     1  0.0000000  0.6508444  3
   2191   2203   2215   4610     1  0.0000000  0.6508444  3
   2194   2190   2191   2203     1  0.0000000  0.6508444  3
   2194   2190   2197   2200     1  0.0000000  0.6508444  3
   2194   2206   2212   4578     1  0.0000000  0.6508444  3
   2197   2190   2191   2203     1  0.0000000  0.6508444  3
   2197   2190   2194   2206     1  0.0000000  0.6508444  3
   2197   2200   2209   2218     1  0.0000000  0.6508444  3
   2203   2215   4610   4580     1  180.0000771  0.4184000  2
   2203   2215   4610   4580     1  0.0000000  1.6024720  3
   2206   2212   4578   4548     1  180.0000771  0.4184000  2
   2206   2212   4578   4548     1  0.0000000  1.6024720  3
   2212   4578   4548   4551     1  180.0000771  0.4184000  2
   2212   4578   4548   4551     1  0.0000000  1.6024720  3
   2215   4610   4580   4583     1  180.0000771  0.4184000  2
   2215   4610   4580   4583     1  0.0000000  1.6024720  3
   2220   2221   2233   2245     1  0.0000000  0.6508444  3
   2220   2224   2236   2242     1  0.0000000  0.6508444  3
   2220   2227   2230   2239     1  0.0000000  0.6508444  3
   2221   2220   2224   2236     1  0.0000000  0.6508444  3
   2221   2220   2227   2230     1  0.0000000  0.6508444  3
   2221   2233   2245   4674     1  0.0000000  0.6508444  3
   2224   2220   2221   2233     1  0.0000000  0.6508444  3
   2224   2220   2227   2230     1  0.0000000  0.6508444  3
   2224   2236   2242   4642     1  0.0000000  0.6508444  3
   2227   2220   2221   2233     1  0.0000000  0.6508444  3
   2227   2220   2224   2236     1  0.0000000  0.6508444  3
   2227   2230   2239   2248     1  0.0000000  0.6508444  3
   2233   2245   4674   4644     1  180.0000771  0.4184000  2
   2233   2245   4674   4644     1  0.0000000  1.6024720  3
   2236   2242   4642   4612     1  180.0000771  0.4184000  2
   2236   2242   4642   4612     1  0.0000000  1.6024720  3
   2242   4642   4612   4615     1  180.0000771  0.4184000  2
   2242   4642   4612   4615     1  0.0000000  1.6024720  3
   2245   4674   4644   4647     1  180.0000771  0.4184000  2
   2245   4674   4644   4647     1  0.0000000  1.6024720  3
   2250   2251   2263   2275     1  0.0000000  0.6508444  3
   2250   2254   2266   2272     1  0.0000000  0.6508444  3
   2250   2257   2260   2269     1  0.0000000  0.6508444  3
   2251   2250   2254   2266     1  0.0000000  0.6508444  3
   2251   2250   2257   2260     1  0.0000000  0.6508444  3
   2251   2263   2275   4738     1  0.0000000  0.6508444  3
   2254   2250   2251   2263     1  0.0000000  0.6508444  3
   2254   2250   2257   2260     1  0.0000000  0.6508444  3
   2254   2266   2272   4706     1  0.0000000  0.6508444  3
   2257   2250   2251   2263     1  0.0000000  0.6508444  3
   2257   2250   2254   2266     1  0.0000000  0.6508444  3
   2257   2260   2269   2278     1  0.0000000  0.6508444  3
   2263   2275   4738   4708     1  180.0000771  0.4184000  2
   2263   2275   4738   4708     1  0.0000000  1.6024720  3
   2266   2272   4706   4676     1  180.0000771  0.4184000  2
   2266   2272   4706   4676     1  0.0000000  1.6024720  3
   2272   4706   4676   4679     1  180.0000771  0.4184000  2
   2272   4706   4676   4679     1  0.0000000  1.6024720  3
   2275   4738   4708   4711     1  180.0000771  0.4184000  2
   2275   4738   4708   4711     1  0.0000000  1.6024720  3
   2280   2281   2293   2305     1  0.0000000  0.6508444  3
   2280   2284   2296   2302     1  0.0000000  0.6508444  3
   2280   2287   2290   2299     1  0.0000000  0.6508444  3
   2281   2280   2284   2296     1  0.0000000  0.6508444  3
   2281   2280   2287   2290     1  0.0000000  0.6508444  3
   2281   2293   2305   4802     1  0.0000000  0.6508444  3
   2284   2280   2281   2293     1  0.0000000  0.6508444  3
   2284   2280   2287   2290     1  0.0000000  0.6508444  3
   2284   2296   2302   4770     1  0.0000000  0.6508444  3
   2287   2280   2281   2293     1  0.0000000  0.6508444  3
   2287   2280   2284   2296     1  0.0000000  0.6508444  3
   2287   2290   2299   2308     1  0.0000000  0.6508444  3
   2293   2305   4802   4772     1  180.0000771  0.4184000  2
   2293   2305   4802   4772     1  0.0000000  1.6024720  3
   2296   2302   4770   4740     1  180.0000771  0.4184000  2
   2296   2302   4770   4740     1  0.0000000  1.6024720  3
   2302   4770   4740   4743     1  180.0000771  0.4184000  2
   2302   4770   4740   4743     1  0.0000000  1.6024720  3
   2305   4802   4772   4775     1  180.0000771  0.4184000  2
   2305   4802   4772   4775     1  0.0000000  1.6024720  3
   2310   2311   2323   2335     1  0.0000000  0.6508444  3
   2310   2314   2326   2332     1  0.0000000  0.6508444  3
   2310   2317   2320   2329     1  0.0000000  0.6508444  3
   2311   2310   2314   2326     1  0.0000000  0.6508444  3
   2311   2310   2317   2320     1  0.0000000  0.6508444  3
   2311   2323   2335   4866     1  0.0000000  0.6508444  3
   2314   2310   2311   2323     1  0.0000000  0.6508444  3
   2314   2310   2317   2320     1  0.0000000  0.6508444  3
   2314   2326   2332   4834     1  0.0000000  0.6508444  3
   2317   2310   2311   2323     1  0.0000000  0.6508444  3
   2317   2310   2314   2326     1  0.0000000  0.6508444  3
   2317   2320   2329   2338     1  0.0000000  0.6508444  3
   2323   2335   4866   4836     1  180.0000771  0.4184000  2
   2323   2335   4866   4836     1  0.0000000  1.6024720  3
   2326   2332   4834   4804     1  180.0000771  0.4184000  2
   2326   2332   4834   4804     1  0.0000000  1.6024720  3
   2332   4834   4804   4807     1  180.0000771  0.4184000  2
   2332   4834   4804   4807     1  0.0000000  1.6024720  3
   2335   4866   4836   4839     1  180.0000771  0.4184000  2
   2335   4866   4836   4839     1  0.0000000  1.6024720  3
   2340   2341   2353   2365     1  0.0000000  0.6508444  3
   2340   2344   2356   2362     1  0.0000000  0.6508444  3
   2340   2347   2350   2359     1  0.0000000  0.6508444  3
   2341   2340   2344   2356     1  0.0000000  0.6508444  3
   2341   2340   2347   2350     1  0.0000000  0.6508444  3
   2341   2353   2365   4930     1  0.0000000  0.6508444  3
   2344   2340   2341   2353     1  0.0000000  0.6508444  3
   2344   2340   2347   2350     1  0.0000000  0.6508444  3
   2344   2356   2362   4898     1  0.0000000  0.6508444  3
   2347   2340   2341   2353     1  0.0000000  0.6508444  3
   2347   2340   2344   2356     1  0.0000000  0.6508444  3
   2347   2350   2359   2368     1  0.0000000  0.6508444  3
   2353   2365   4930   4900     1  180.0000771  0.4184000  2
   2353   2365   4930   4900     1  0.0000000  1.6024720  3
   2356   2362   4898   4868     1  180.0000771  0.4184000  2
   2356   2362   4898   4868     1  0.0000000  1.6024720  3
   2362   4898   4868   4871     1  180.0000771  0.4184000  2
   2362   4898   4868   4871     1  0.0000000  1.6024720  3
   2365   4930   4900   4903     1  180.0000771  0.4184000  2
   2365   4930   4900   4903     1  0.0000000  1.6024720  3
   2370   2371   2383   2395     1  0.0000000  0.6508444  3
   2370   2374   2386   2392     1  0.0000000  0.6508444  3
   2370   2377   2380   2389     1  0.0000000  0.6508444  3
   2371   2370   2374   2386     1  0.0000000  0.6508444  3
   2371   2370   2377   2380     1  0.0000000  0.6508444  3
   2371   2383   2395   4994     1  0.0000000  0.6508444  3
   2374   2370   2371   2383     1  0.0000000  0.6508444  3
   2374   2370   2377   2380     1  0.0000000  0.6508444  3
   2374   2386   2392   4962     1  0.0000000  0.6508444  3
   2377   2370   2371   2383     1  0.0000000  0.6508444  3
   2377   2370   2374   2386     1  0.0000000  0.6508444  3
   2377   2380   2389   2398     1  0.0000000  0.6508444  3
   2383   2395   4994   4964     1  180.0000771  0.4184000  2
   2383   2395   4994   4964     1  0.0000000  1.6024720  3
   2386   2392   4962   4932     1  180.0000771  0.4184000  2
   2386   2392   4962   4932     1  0.0000000  1.6024720  3
   2392   4962   4932   4935     1  180.0000771  0.4184000  2
   2392   4962   4932   4935     1  0.0000000  1.6024720  3
   2395   4994   4964   4967     1  180.0000771  0.4184000  2
   2395   4994   4964   4967     1  0.0000000  1.6024720  3
   2400   2401   2413   2425     1  0.0000000  0.6508444  3
   2400   2404   2416   2422     1  0.0000000  0.6508444  3
   2400   2407   2410   2419     1  0.0000000  0.6508444  3
   2401   2400   2404   2416     1  0.0000000  0.6508444  3
   2401   2400   2407   2410     1  0.0000000  0.6508444  3
   2401   2413   2425   5058     1  0.0000000  0.6508444  3
   2404   2400   2401   2413     1  0.0000000  0.6508444  3
   2404   2400   2407   2410     1  0.0000000  0.6508444  3
   2404   2416   2422   5026     1  0.0000000  0.6508444  3
   2407   2400   2401   2413     1  0.0000000  0.6508444  3
   2407   2400   2404   2416     1  0.0000000  0.6508444  3
   2407   2410   2419   2428     1  0.0000000  0.6508444  3
   2413   2425   5058   5028     1  180.0000771  0.4184000  2
   2413   2425   5058   5028     1  0.0000000  1.6024720  3
   2416   2422   5026   4996     1  180.0000771  0.4184000  2
   2416   2422   5026   4996     1  0.0000000  1.6024720  3
   2422   5026   4996   4999     1  180.0000771  0.4184000  2
   2422   5026   4996   4999     1  0.0000000  1.6024720  3
   2425   5058   5028   5031     1  180.0000771  0.4184000  2
   2425   5058   5028   5031     1  0.0000000  1.6024720  3
   2430   2431   2443   2455     1  0.0000000  0.6508444  3
   2430   2434   2446   2452     1  0.0000000  0.6508444  3
   2430   2437   2440   2449     1  0.0000000  0.6508444  3
   2431   2430   2434   2446     1  0.0000000  0.6508444  3
   2431   2430   2437   2440     1  0.0000000  0.6508444  3
   2431   2443   2455   5122     1  0.0000000  0.6508444  3
   2434   2430   2431   2443     1  0.0000000  0.6508444  3
   2434   2430   2437   2440     1  0.0000000  0.6508444  3
   2434   2446   2452   5090     1  0.0000000  0.6508444  3
   2437   2430   2431   2443     1  0.0000000  0.6508444  3
   2437   2430   2434   2446     1  0.0000000  0.6508444  3
   2437   2440   2449   2458     1  0.0000000  0.6508444  3
   2443   2455   5122   5092     1  180.0000771  0.4184000  2
   2443   2455   5122   5092     1  0.0000000  1.6024720  3
   2446   2452   5090   5060     1  180.0000771  0.4184000  2
   2446   2452   5090   5060     1  0.0000000  1.6024720  3
   2452   5090   5060   5063     1  180.0000771  0.4184000  2
   2452   5090   5060   5063     1  0.0000000  1.6024720  3
   2455   5122   5092   5095     1  180.0000771  0.4184000  2
   2455   5122   5092   5095     1  0.0000000  1.6024720  3
   2460   2461   2473   2485     1  0.0000000  0.6508444  3
   2460   2464   2476   2482     1  0.0000000  0.6508444  3
   2460   2467   2470   2479     1  0.0000000  0.6508444  3
   2461   2460   2464   2476     1  0.0000000  0.6508444  3
   2461   2460   2467   2470     1  0.0000000  0.6508444  3
   2461   2473   2485   5186     1  0.0000000  0.6508444  3
   2464   2460   2461   2473     1  0.0000000  0.6508444  3
   2464   2460   2467   2470     1  0.0000000  0.6508444  3
   2464   2476   2482   5154     1  0.0000000  0.6508444  3
   2467   2460   2461   2473     1  0.0000000  0.6508444  3
   2467   2460   2464   2476     1  0.0000000  0.6508444  3
   2467   2470   2479   2488     1  0.0000000  0.6508444  3
   2473   2485   5186   5156     1  180.0000771  0.4184000  2
   2473   2485   5186   5156     1  0.0000000  1.6024720  3
   2476   2482   5154   5124     1  180.0000771  0.4184000  2
   2476   2482   5154   5124     1  0.0000000  1.6024720  3
   2482   5154   5124   5127     1  180.0000771  0.4184000  2
   2482   5154   5124   5127     1  0.0000000  1.6024720  3
   2485   5186   5156   5159     1  180.0000771  0.4184000  2
   2485   5186   5156   5159     1  0.0000000  1.6024720  3
   2490   2491   2503   2515     1  0.0000000  0.6508444  3
   2490   2494   2506   2512     1  0.0000000  0.6508444  3
   2490   2497   2500   2509     1  0.0000000  0.6508444  3
   2491   2490   2494   2506     1  0.0000000  0.6508444  3
   2491   2490   2497   2500     1  0.0000000  0.6508444  3
   2491   2503   2515   5250     1  0.0000000  0.6508444  3
   2494   2490   2491   2503     1  0.0000000  0.6508444  3
   2494   2490   2497   2500     1  0.0000000  0.6508444  3
   2494   2506   2512   5218     1  0.0000000  0.6508444  3
   2497   2490   2491   2503     1  0.0000000  0.6508444  3
   2497   2490   2494   2506     1  0.0000000  0.6508444  3
   2497   2500   2509   2518     1  0.0000000  0.6508444  3
   2503   2515   5250   5220     1  180.0000771  0.4184000  2
   2503   2515   5250   5220     1  0.0000000  1.6024720  3
   2506   2512   5218   5188     1  180.0000771  0.4184000  2
   2506   2512   5218   5188     1  0.0000000  1.6024720  3
   2512   5218   5188   5191     1  180.0000771  0.4184000  2
   2512   5218   5188   5191     1  0.0000000  1.6024720  3
   2515   5250   5220   5223     1  180.0000771  0.4184000  2
   2515   5250   5220   5223     1  0.0000000  1.6024720  3
   2520   2521   2533   2545     1  0.0000000  0.6508444  3
   2520   2524   2536   2542     1  0.0000000  0.6508444  3
   2520   2527   2530   2539     1  0.0000000  0.6508444  3
   2521   2520   2524   2536     1  0.0000000  0.6508444  3
   2521   2520   2527   2530     1  0.0000000  0.6508444  3
   2521   2533   2545   5314     1  0.0000000  0.6508444  3
   2524   2520   2521   2533     1  0.0000000  0.6508444  3
   2524   2520   2527   2530     1  0.0000000  0.6508444  3
   2524   2536   2542   5282     1  0.0000000  0.6508444  3
   2527   2520   2521   2533     1  0.0000000  0.6508444  3
   2527   2520   2524   2536     1  0.0000000  0.6508444  3
   2527   2530   2539   2548     1  0.0000000  0.6508444  3
   2533   2545   5314   5284     1  180.0000771  0.4184000  2
   2533   2545   5314   5284     1  0.0000000  1.6024720  3
   2536   2542   5282   5252     1  180.0000771  0.4184000  2
   2536   2542   5282   5252     1  0.0000000  1.6024720  3
   2542   5282   5252   5255     1  180.0000771  0.4184000  2
   2542   5282   5252   5255     1  0.0000000  1.6024720  3
   2545   5314   5284   5287     1  180.0000771  0.4184000  2
   2545   5314   5284   5287     1  0.0000000  1.6024720  3
   2550   2551   2563   2575     1  0.0000000  0.6508444  3
   2550   2554   2566   2572     1  0.0000000  0.6508444  3
   2550   2557   2560   2569     1  0.0000000  0.6508444  3
   2551   2550   2554   2566     1  0.0000000  0.6508444  3
   2551   2550   2557   2560     1  0.0000000  0.6508444  3
   2551   2563   2575   5378     1  0.0000000  0.6508444  3
   2554   2550   2551   2563     1  0.0000000  0.6508444  3
   2554   2550   2557   2560     1  0.0000000  0.6508444  3
   2554   2566   2572   5346     1  0.0000000  0.6508444  3
   2557   2550   2551   2563     1  0.0000000  0.6508444  3
   2557   2550   2554   2566     1  0.0000000  0.6508444  3
   2557   2560   2569   2578     1  0.0000000  0.6508444  3
   2563   2575   5378   5348     1  180.0000771  0.4184000  2
   2563   2575   5378   5348     1  0.0000000  1.6024720  3
   2566   2572   5346   5316     1  180.0000771  0.4184000  2
   2566   2572   5346   5316     1  0.0000000  1.6024720  3
   2572   5346   5316   5319     1  180.0000771  0.4184000  2
   2572   5346   5316   5319     1  0.0000000  1.6024720  3
   2575   5378   5348   5351     1  180.0000771  0.4184000  2
   2575   5378   5348   5351     1  0.0000000  1.6024720  3
   2580   2581   2593   2605     1  0.0000000  0.6508444  3
   2580   2584   2596   2602     1  0.0000000  0.6508444  3
   2580   2587   2590   2599     1  0.0000000  0.6508444  3
   2581   2580   2584   2596     1  0.0000000  0.6508444  3
   2581   2580   2587   2590     1  0.0000000  0.6508444  3
   2581   2593   2605   5442     1  0.0000000  0.6508444  3
   2584   2580   2581   2593     1  0.0000000  0.6508444  3
   2584   2580   2587   2590     1  0.0000000  0.6508444  3
   2584   2596   2602   5410     1  0.0000000  0.6508444  3
   2587   2580   2581   2593     1  0.0000000  0.6508444  3
   2587   2580   2584   2596     1  0.0000000  0.6508444  3
   2587   2590   2599   2608     1  0.0000000  0.6508444  3
   2593   2605   5442   5412     1  180.0000771  0.4184000  2
   2593   2605   5442   5412     1  0.0000000  1.6024720  3
   2596   2602   5410   5380     1  180.0000771  0.4184000  2
   2596   2602   5410   5380     1  0.0000000  1.6024720  3
   2602   5410   5380   5383     1  180.0000771  0.4184000  2
   2602   5410   5380   5383     1  0.0000000  1.6024720  3
   2605   5442   5412   5415     1  180.0000771  0.4184000  2
   2605   5442   5412   5415     1  0.0000000  1.6024720  3
   2610   2611   2623   2635     1  0.0000000  0.6508444  3
   2610   2614   2626   2632     1  0.0000000  0.6508444  3
   2610   2617   2620   2629     1  0.0000000  0.6508444  3
   2611   2610   2614   2626     1  0.0000000  0.6508444  3
   2611   2610   2617   2620     1  0.0000000  0.6508444  3
   2611   2623   2635   5506     1  0.0000000  0.6508444  3
   2614   2610   2611   2623     1  0.0000000  0.6508444  3
   2614   2610   2617   2620     1  0.0000000  0.6508444  3
   2614   2626   2632   5474     1  0.0000000  0.6508444  3
   2617   2610   2611   2623     1  0.0000000  0.6508444  3
   2617   2610   2614   2626     1  0.0000000  0.6508444  3
   2617   2620   2629   2638     1  0.0000000  0.6508444  3
   2623   2635   5506   5476     1  180.0000771  0.4184000  2
   2623   2635   5506   5476     1  0.0000000  1.6024720  3
   2626   2632   5474   5444     1  180.0000771  0.4184000  2
   2626   2632   5474   5444     1  0.0000000  1.6024720  3
   2632   5474   5444   5447     1  180.0000771  0.4184000  2
   2632   5474   5444   5447     1  0.0000000  1.6024720  3
   2635   5506   5476   5479     1  180.0000771  0.4184000  2
   2635   5506   5476   5479     1  0.0000000  1.6024720  3
   2640   2641   2653   2665     1  0.0000000  0.6508444  3
   2640   2644   2656   2662     1  0.0000000  0.6508444  3
   2640   2647   2650   2659     1  0.0000000  0.6508444  3
   2641   2640   2644   2656     1  0.0000000  0.6508444  3
   2641   2640   2647   2650     1  0.0000000  0.6508444  3
   2641   2653   2665   5570     1  0.0000000  0.6508444  3
   2644   2640   2641   2653     1  0.0000000  0.6508444  3
   2644   2640   2647   2650     1  0.0000000  0.6508444  3
   2644   2656   2662   5538     1  0.0000000  0.6508444  3
   2647   2640   2641   2653     1  0.0000000  0.6508444  3
   2647   2640   2644   2656     1  0.0000000  0.6508444  3
   2647   2650   2659   2668     1  0.0000000  0.6508444  3
   2653   2665   5570   5540     1  180.0000771  0.4184000  2
   2653   2665   5570   5540     1  0.0000000  1.6024720  3
   2656   2662   5538   5508     1  180.0000771  0.4184000  2
   2656   2662   5538   5508     1  0.0000000  1.6024720  3
   2662   5538   5508   5511     1  180.0000771  0.4184000  2
   2662   5538   5508   5511     1  0.0000000  1.6024720  3
   2665   5570   5540   5543     1  180.0000771  0.4184000  2
   2665   5570   5540   5543     1  0.0000000  1.6024720  3
   2670   2671   2683   2695     1  0.0000000  0.6508444  3
   2670   2674   2686   2692     1  0.0000000  0.6508444  3
   2670   2677   2680   2689     1  0.0000000  0.6508444  3
   2671   2670   2674   2686     1  0.0000000  0.6508444  3
   2671   2670   2677   2680     1  0.0000000  0.6508444  3
   2671   2683   2695   5634     1  0.0000000  0.6508444  3
   2674   2670   2671   2683     1  0.0000000  0.6508444  3
   2674   2670   2677   2680     1  0.0000000  0.6508444  3
   2674   2686   2692   5602     1  0.0000000  0.6508444  3
   2677   2670   2671   2683     1  0.0000000  0.6508444  3
   2677   2670   2674   2686     1  0.0000000  0.6508444  3
   2677   2680   2689   2698     1  0.0000000  0.6508444  3
   2683   2695   5634   5604     1  180.0000771  0.4184000  2
   2683   2695   5634   5604     1  0.0000000  1.6024720  3
   2686   2692   5602   5572     1  180.0000771  0.4184000  2
   2686   2692   5602   5572     1  0.0000000  1.6024720  3
   2692   5602   5572   5575     1  180.0000771  0.4184000  2
   2692   5602   5572   5575     1  0.0000000  1.6024720  3
   2695   5634   5604   5607     1  180.0000771  0.4184000  2
   2695   5634   5604   5607     1  0.0000000  1.6024720  3
   2700   2701   2713   2725     1  0.0000000  0.6508444  3
   2700   2704   2716   2722     1  0.0000000  0.6508444  3
   2700   2707   2710   2719     1  0.0000000  0.6508444  3
   2701   2700   2704   2716     1  0.0000000  0.6508444  3
   2701   2700   2707   2710     1  0.0000000  0.6508444  3
   2701   2713   2725   5698     1  0.0000000  0.6508444  3
   2704   2700   2701   2713     1  0.0000000  0.6508444  3
   2704   2700   2707   2710     1  0.0000000  0.6508444  3
   2704   2716   2722   5666     1  0.0000000  0.6508444  3
   2707   2700   2701   2713     1  0.0000000  0.6508444  3
   2707   2700   2704   2716     1  0.0000000  0.6508444  3
   2707   2710   2719   2728     1  0.0000000  0.6508444  3
   2713   2725   5698   5668     1  180.0000771  0.4184000  2
   2713   2725   5698   5668     1  0.0000000  1.6024720  3
   2716   2722   5666   5636     1  180.0000771  0.4184000  2
   2716   2722   5666   5636     1  0.0000000  1.6024720  3
   2722   5666   5636   5639     1  180.0000771  0.4184000  2
   2722   5666   5636   5639     1  0.0000000  1.6024720  3
   2725   5698   5668   5671     1  180.0000771  0.4184000  2
   2725   5698   5668   5671     1  0.0000000  1.6024720  3
   2730   2731   2743   2755     1  0.0000000  0.6508444  3
   2730   2734   2746   2752     1  0.0000000  0.6508444  3
   2730   2737   2740   2749     1  0.0000000  0.6508444  3
   2731   2730   2734   2746     1  0.0000000  0.6508444  3
   2731   2730   2737   2740     1  0.0000000  0.6508444  3
   2731   2743   2755   5762     1  0.0000000  0.6508444  3
   2734   2730   2731   2743     1  0.0000000  0.6508444  3
   2734   2730   2737   2740     1  0.0000000  0.6508444  3
   2734   2746   2752   5730     1  0.0000000  0.6508444  3
   2737   2730   2731   2743     1  0.0000000  0.6508444  3
   2737   2730   2734   2746     1  0.0000000  0.6508444  3
   2737   2740   2749   2758     1  0.0000000  0.6508444  3
   2743   2755   5762   5732     1  180.0000771  0.4184000  2
   2743   2755   5762   5732     1  0.0000000  1.6024720  3
   2746   2752   5730   5700     1  180.0000771  0.4184000  2
   2746   2752   5730   5700     1  0.0000000  1.6024720  3
   2752   5730   5700   5703     1  180.0000771  0.4184000  2
   2752   5730   5700   5703     1  0.0000000  1.6024720  3
   2755   5762   5732   5735     1  180.0000771  0.4184000  2
   2755   5762   5732   5735     1  0.0000000  1.6024720  3
   2760   2761   2773   2785     1  0.0000000  0.6508444  3
   2760   2764   2776   2782     1  0.0000000  0.6508444  3
   2760   2767   2770   2779     1  0.0000000  0.6508444  3
   2761   2760   2764   2776     1  0.0000000  0.6508444  3
   2761   2760   2767   2770     1  0.0000000  0.6508444  3
   2761   2773   2785   5826     1  0.0000000  0.6508444  3
   2764   2760   2761   2773     1  0.0000000  0.6508444  3
   2764   2760   2767   2770     1  0.0000000  0.6508444  3
   2764   2776   2782   5794     1  0.0000000  0.6508444  3
   2767   2760   2761   2773     1  0.0000000  0.6508444  3
   2767   2760   2764   2776     1  0.0000000  0.6508444  3
   2767   2770   2779   2788     1  0.0000000  0.6508444  3
   2773   2785   5826   5796     1  180.0000771  0.4184000  2
   2773   2785   5826   5796     1  0.0000000  1.6024720  3
   2776   2782   5794   5764     1  180.0000771  0.4184000  2
   2776   2782   5794   5764     1  0.0000000  1.6024720  3
   2782   5794   5764   5767     1  180.0000771  0.4184000  2
   2782   5794   5764   5767     1  0.0000000  1.6024720  3
   2785   5826   5796   5799     1  180.0000771  0.4184000  2
   2785   5826   5796   5799     1  0.0000000  1.6024720  3
   2790   2791   2803   2815     1  0.0000000  0.6508444  3
   2790   2794   2806   2812     1  0.0000000  0.6508444  3
   2790   2797   2800   2809     1  0.0000000  0.6508444  3
   2791   2790   2794   2806     1  0.0000000  0.6508444  3
   2791   2790   2797   2800     1  0.0000000  0.6508444  3
   2791   2803   2815   5890     1  0.0000000  0.6508444  3
   2794   2790   2791   2803     1  0.0000000  0.6508444  3
   2794   2790   2797   2800     1  0.0000000  0.6508444  3
   2794   2806   2812   5858     1  0.0000000  0.6508444  3
   2797   2790   2791   2803     1  0.0000000  0.6508444  3
   2797   2790   2794   2806     1  0.0000000  0.6508444  3
   2797   2800   2809   2818     1  0.0000000  0.6508444  3
   2803   2815   5890   5860     1  180.0000771  0.4184000  2
   2803   2815   5890   5860     1  0.0000000  1.6024720  3
   2806   2812   5858   5828     1  180.0000771  0.4184000  2
   2806   2812   5858   5828     1  0.0000000  1.6024720  3
   2812   5858   5828   5831     1  180.0000771  0.4184000  2
   2812   5858   5828   5831     1  0.0000000  1.6024720  3
   2815   5890   5860   5863     1  180.0000771  0.4184000  2
   2815   5890   5860   5863     1  0.0000000  1.6024720  3
   2820   2823   2826   2829     1  0.0000000  0.6508444  3
   2823   2826   2829   2830     1  0.0000000  0.6508444  3
   2823   2826   2829   2840     1  0.0000000  0.6508444  3
   2826   2823   2820   2850     1  0.0000000  0.6508444  3
   2826   2829   2830   2833     1  0.0000000  0.6508444  3
   2826   2829   2840   2843     1  0.0000000  0.6508444  3
   2829   2830   2833   2836     1  0.0000000  0.6508444  3
   2829   2840   2843   2846     1  0.0000000  0.6508444  3
   2830   2829   2840   2843     1  0.0000000  0.6508444  3
   2830   2833   2836   2837     1  180.0000771  0.0000000  2
   2830   2833   2836   2838     1  180.0000771  0.0000000  2
   2833   2830   2829   2840     1  0.0000000  0.6508444  3
   2840   2843   2846   2847     1  180.0000771  0.0000000  2
   2840   2843   2846   2848     1  180.0000771  0.0000000  2
   2852   2855   2858   2861     1  0.0000000  0.6508444  3
   2855   2858   2861   2862     1  0.0000000  0.6508444  3
   2855   2858   2861   2872     1  0.0000000  0.6508444  3
   2858   2861   2862   2865     1  0.0000000  0.6508444  3
   2858   2861   2872   2875     1  0.0000000  0.6508444  3
   2858   2855   2852   2882     1  0.0000000  0.6508444  3
   2861   2862   2865   2868     1  0.0000000  0.6508444  3
   2861   2872   2875   2878     1  0.0000000  0.6508444  3
   2862   2865   2868   2869     1  180.0000771  0.0000000  2
   2862   2865   2868   2870     1  180.0000771  0.0000000  2
   2862   2861   2872   2875     1  0.0000000  0.6508444  3
   2865   2862   2861   2872     1  0.0000000  0.6508444  3
   2872   2875   2878   2879     1  180.0000771  0.0000000  2
   2872   2875   2878   2880     1  180.0000771  0.0000000  2
   2884   2887   2890   2893     1  0.0000000  0.6508444  3
   2887   2890   2893   2894     1  0.0000000  0.6508444  3
   2887   2890   2893   2904     1  0.0000000  0.6508444  3
   2890   2887   2884   2914     1  0.0000000  0.6508444  3
   2890   2893   2894   2897     1  0.0000000  0.6508444  3
   2890   2893   2904   2907     1  0.0000000  0.6508444  3
   2893   2894   2897   2900     1  0.0000000  0.6508444  3
   2893   2904   2907   2910     1  0.0000000  0.6508444  3
   2894   2893   2904   2907     1  0.0000000  0.6508444  3
   2894   2897   2900   2901     1  180.0000771  0.0000000  2
   2894   2897   2900   2902     1  180.0000771  0.0000000  2
   2897   2894   2893   2904     1  0.0000000  0.6508444  3
   2904   2907   2910   2911     1  180.0000771  0.0000000  2
   2904   2907   2910   2912     1  180.0000771  0.0000000  2
   2916   2919   2922   2925     1  0.0000000  0.6508444  3
   2919   2922   2925   2926     1  0.0000000  0.6508444  3
   2919   2922   2925   2936     1  0.0000000  0.6508444  3
   2922   2925   2926   2929     1  0.0000000  0.6508444  3
   2922   2925   2936   2939     1  0.0000000  0.6508444  3
   2922   2919   2916   2946     1  0.0000000  0.6508444  3
   2925   2926   2929   2932     1  0.0000000  0.6508444  3
   2925   2936   2939   2942     1  0.0000000  0.6508444  3
   2926   2929   2932   2933     1  180.0000771  0.0000000  2
   2926   2929   2932   2934     1  180.0000771  0.0000000  2
   2926   2925   2936   2939     1  0.0000000  0.6508444  3
   2929   2926   2925   2936     1  0.0000000  0.6508444  3
   2936   2939   2942   2943     1  180.0000771  0.0000000  2
   2936   2939   2942   2944     1  180.0000771  0.0000000  2
   2948   2951   2954   2957     1  0.0000000  0.6508444  3
   2951   2954   2957   2958     1  0.0000000  0.6508444  3
   2951   2954   2957   2968     1  0.0000000  0.6508444  3
   2954   2951   2948   2978     1  0.0000000  0.6508444  3
   2954   2957   2958   2961     1  0.0000000  0.6508444  3
   2954   2957   2968   2971     1  0.0000000  0.6508444  3
   2957   2958   2961   2964     1  0.0000000  0.6508444  3
   2957   2968   2971   2974     1  0.0000000  0.6508444  3
   2958   2957   2968   2971     1  0.0000000  0.6508444  3
   2958   2961   2964   2965     1  180.0000771  0.0000000  2
   2958   2961   2964   2966     1  180.0000771  0.0000000  2
   2961   2958   2957   2968     1  0.0000000  0.6508444  3
   2968   2971   2974   2975     1  180.0000771  0.0000000  2
   2968   2971   2974   2976     1  180.0000771  0.0000000  2
   2980   2983   2986   2989     1  0.0000000  0.6508444  3
   2983   2986   2989   2990     1  0.0000000  0.6508444  3
   2983   2986   2989   3000     1  0.0000000  0.6508444  3
   2986   2989   2990   2993     1  0.0000000  0.6508444  3
   2986   2989   3000   3003     1  0.0000000  0.6508444  3
   2986   2983   2980   3010     1  0.0000000  0.6508444  3
   2989   2990   2993   2996     1  0.0000000  0.6508444  3
   2989   3000   3003   3006     1  0.0000000  0.6508444  3
   2990   2993   2996   2997     1  180.0000771  0.0000000  2
   2990   2993   2996   2998     1  180.0000771  0.0000000  2
   2990   2989   3000   3003     1  0.0000000  0.6508444  3
   2993   2990   2989   3000     1  0.0000000  0.6508444  3
   3000   3003   3006   3007     1  180.0000771  0.0000000  2
   3000   3003   3006   3008     1  180.0000771  0.0000000  2
   3012   3015   3018   3021     1  0.0000000  0.6508444  3
   3015   3018   3021   3022     1  0.0000000  0.6508444  3
   3015   3018   3021   3032     1  0.0000000  0.6508444  3
   3018   3015   3012   3042     1  0.0000000  0.6508444  3
   3018   3021   3022   3025     1  0.0000000  0.6508444  3
   3018   3021   3032   3035     1  0.0000000  0.6508444  3
   3021   3022   3025   3028     1  0.0000000  0.6508444  3
   3021   3032   3035   3038     1  0.0000000  0.6508444  3
   3022   3021   3032   3035     1  0.0000000  0.6508444  3
   3022   3025   3028   3029     1  180.0000771  0.0000000  2
   3022   3025   3028   3030     1  180.0000771  0.0000000  2
   3025   3022   3021   3032     1  0.0000000  0.6508444  3
   3032   3035   3038   3039     1  180.0000771  0.0000000  2
   3032   3035   3038   3040     1  180.0000771  0.0000000  2
   3044   3047   3050   3053     1  0.0000000  0.6508444  3
   3047   3050   3053   3054     1  0.0000000  0.6508444  3
   3047   3050   3053   3064     1  0.0000000  0.6508444  3
   3050   3053   3054   3057     1  0.0000000  0.6508444  3
   3050   3053   3064   3067     1  0.0000000  0.6508444  3
   3050   3047   3044   3074     1  0.0000000  0.6508444  3
   3053   3054   3057   3060     1  0.0000000  0.6508444  3
   3053   3064   3067   3070     1  0.0000000  0.6508444  3
   3054   3057   3060   3061     1  180.0000771  0.0000000  2
   3054   3057   3060   3062     1  180.0000771  0.0000000  2
   3054   3053   3064   3067     1  0.0000000  0.6508444  3
   3057   3054   3053   3064     1  0.0000000  0.6508444  3
   3064   3067   3070   3071     1  180.0000771  0.0000000  2
   3064   3067   3070   3072     1  180.0000771  0.0000000  2
   3076   3079   3082   3085     1  0.0000000  0.6508444  3
   3079   3082   3085   3086     1  0.0000000  0.6508444  3
   3079   3082   3085   3096     1  0.0000000  0.6508444  3
   3082   3079   3076   3106     1  0.0000000  0.6508444  3
   3082   3085   3086   3089     1  0.0000000  0.6508444  3
   3082   3085   3096   3099     1  0.0000000  0.6508444  3
   3085   3086   3089   3092     1  0.0000000  0.6508444  3
   3085   3096   3099   3102     1  0.0000000  0.6508444  3
   3086   3085   3096   3099     1  0.0000000  0.6508444  3
   3086   3089   3092   3093     1  180.0000771  0.0000000  2
   3086   3089   3092   3094     1  180.0000771  0.0000000  2
   3089   3086   3085   3096     1  0.0000000  0.6508444  3
   3096   3099   3102   3103     1  180.0000771  0.0000000  2
   3096   3099   3102   3104     1  180.0000771  0.0000000  2
   3108   3111   3114   3117     1  0.0000000  0.6508444  3
   3111   3114   3117   3118     1  0.0000000  0.6508444  3
   3111   3114   3117   3128     1  0.0000000  0.6508444  3
   3114   3117   3118   3121     1  0.0000000  0.6508444  3
   3114   3117   3128   3131     1  0.0000000  0.6508444  3
   3114   3111   3108   3138     1  0.0000000  0.6508444  3
   3117   3118   3121   3124     1  0.0000000  0.6508444  3
   3117   3128   3131   3134     1  0.0000000  0.6508444  3
   3118   3121   3124   3125     1  180.0000771  0.0000000  2
   3118   3121   3124   3126     1  180.0000771  0.0000000  2
   3118   3117   3128   3131     1  0.0000000  0.6508444  3
   3121   3118   3117   3128     1  0.0000000  0.6508444  3
   3128   3131   3134   3135     1  180.0000771  0.0000000  2
   3128   3131   3134   3136     1  180.0000771  0.0000000  2
   3140   3143   3146   3149     1  0.0000000  0.6508444  3
   3143   3146   3149   3150     1  0.0000000  0.6508444  3
   3143   3146   3149   3160     1  0.0000000  0.6508444  3
   3146   3143   3140   3170     1  0.0000000  0.6508444  3
   3146   3149   3150   3153     1  0.0000000  0.6508444  3
   3146   3149   3160   3163     1  0.0000000  0.6508444  3
   3149   3150   3153   3156     1  0.0000000  0.6508444  3
   3149   3160   3163   3166     1  0.0000000  0.6508444  3
   3150   3149   3160   3163     1  0.0000000  0.6508444  3
   3150   3153   3156   3157     1  180.0000771  0.0000000  2
   3150   3153   3156   3158     1  180.0000771  0.0000000  2
   3153   3150   3149   3160     1  0.0000000  0.6508444  3
   3160   3163   3166   3167     1  180.0000771  0.0000000  2
   3160   3163   3166   3168     1  180.0000771  0.0000000  2
   3172   3175   3178   3181     1  0.0000000  0.6508444  3
   3175   3178   3181   3182     1  0.0000000  0.6508444  3
   3175   3178   3181   3192     1  0.0000000  0.6508444  3
   3178   3181   3182   3185     1  0.0000000  0.6508444  3
   3178   3181   3192   3195     1  0.0000000  0.6508444  3
   3178   3175   3172   3202     1  0.0000000  0.6508444  3
   3181   3182   3185   3188     1  0.0000000  0.6508444  3
   3181   3192   3195   3198     1  0.0000000  0.6508444  3
   3182   3185   3188   3189     1  180.0000771  0.0000000  2
   3182   3185   3188   3190     1  180.0000771  0.0000000  2
   3182   3181   3192   3195     1  0.0000000  0.6508444  3
   3185   3182   3181   3192     1  0.0000000  0.6508444  3
   3192   3195   3198   3199     1  180.0000771  0.0000000  2
   3192   3195   3198   3200     1  180.0000771  0.0000000  2
   3204   3207   3210   3213     1  0.0000000  0.6508444  3
   3207   3210   3213   3214     1  0.0000000  0.6508444  3
   3207   3210   3213   3224     1  0.0000000  0.6508444  3
   3210   3207   3204   3234     1  0.0000000  0.6508444  3
   3210   3213   3214   3217     1  0.0000000  0.6508444  3
   3210   3213   3224   3227     1  0.0000000  0.6508444  3
   3213   3214   3217   3220     1  0.0000000  0.6508444  3
   3213   3224   3227   3230     1  0.0000000  0.6508444  3
   3214   3213   3224   3227     1  0.0000000  0.6508444  3
   3214   3217   3220   3221     1  180.0000771  0.0000000  2
   3214   3217   3220   3222     1  180.0000771  0.0000000  2
   3217   3214   3213   3224     1  0.0000000  0.6508444  3
   3224   3227   3230   3231     1  180.0000771  0.0000000  2
   3224   3227   3230   3232     1  180.0000771  0.0000000  2
   3236   3239   3242   3245     1  0.0000000  0.6508444  3
   3239   3242   3245   3246     1  0.0000000  0.6508444  3
   3239   3242   3245   3256     1  0.0000000  0.6508444  3
   3242   3245   3246   3249     1  0.0000000  0.6508444  3
   3242   3245   3256   3259     1  0.0000000  0.6508444  3
   3242   3239   3236   3266     1  0.0000000  0.6508444  3
   3245   3246   3249   3252     1  0.0000000  0.6508444  3
   3245   3256   3259   3262     1  0.0000000  0.6508444  3
   3246   3249   3252   3253     1  180.0000771  0.0000000  2
   3246   3249   3252   3254     1  180.0000771  0.0000000  2
   3246   3245   3256   3259     1  0.0000000  0.6508444  3
   3249   3246   3245   3256     1  0.0000000  0.6508444  3
   3256   3259   3262   3263     1  180.0000771  0.0000000  2
   3256   3259   3262   3264     1  180.0000771  0.0000000  2
   3268   3271   3274   3277     1  0.0000000  0.6508444  3
   3271   3274   3277   3278     1  0.0000000  0.6508444  3
   3271   3274   3277   3288     1  0.0000000  0.6508444  3
   3274   3271   3268   3298     1  0.0000000  0.6508444  3
   3274   3277   3278   3281     1  0.0000000  0.6508444  3
   3274   3277   3288   3291     1  0.0000000  0.6508444  3
   3277   3278   3281   3284     1  0.0000000  0.6508444  3
   3277   3288   3291   3294     1  0.0000000  0.6508444  3
   3278   3277   3288   3291     1  0.0000000  0.6508444  3
   3278   3281   3284   3285     1  180.0000771  0.0000000  2
   3278   3281   3284   3286     1  180.0000771  0.0000000  2
   3281   3278   3277   3288     1  0.0000000  0.6508444  3
   3288   3291   3294   3295     1  180.0000771  0.0000000  2
   3288   3291   3294   3296     1  180.0000771  0.0000000  2
   3300   3303   3306   3309     1  0.0000000  0.6508444  3
   3303   3306   3309   3310     1  0.0000000  0.6508444  3
   3303   3306   3309   3320     1  0.0000000  0.6508444  3
   3306   3309   3310   3313     1  0.0000000  0.6508444  3
   3306   3309   3320   3323     1  0.0000000  0.6508444  3
   3306   3303   3300   3330     1  0.0000000  0.6508444  3
   3309   3310   3313   3316     1  0.0000000  0.6508444  3
   3309   3320   3323   3326     1  0.0000000  0.6508444  3
   3310   3313   3316   3317     1  180.0000771  0.0000000  2
   3310   3313   3316   3318     1  180.0000771  0.0000000  2
   3310   3309   3320   3323     1  0.0000000  0.6508444  3
   3313   3310   3309   3320     1  0.0000000  0.6508444  3
   3320   3323   3326   3327     1  180.0000771  0.0000000  2
   3320   3323   3326   3328     1  180.0000771  0.0000000  2
   3332   3335   3338   3341     1  0.0000000  0.6508444  3
   3335   3338   3341   3342     1  0.0000000  0.6508444  3
   3335   3338   3341   3352     1  0.0000000  0.6508444  3
   3338   3335   3332   3362     1  0.0000000  0.6508444  3
   3338   3341   3342   3345     1  0.0000000  0.6508444  3
   3338   3341   3352   3355     1  0.0000000  0.6508444  3
   3341   3342   3345   3348     1  0.0000000  0.6508444  3
   3341   3352   3355   3358     1  0.0000000  0.6508444  3
   3342   3341   3352   3355     1  0.0000000  0.6508444  3
   3342   3345   3348   3349     1  180.0000771  0.0000000  2
   3342   3345   3348   3350     1  180.0000771  0.0000000  2
   3345   3342   3341   3352     1  0.0000000  0.6508444  3
   3352   3355   3358   3359     1  180.0000771  0.0000000  2
   3352   3355   3358   3360     1  180.0000771  0.0000000  2
   3364   3367   3370   3373     1  0.0000000  0.6508444  3
   3367   3370   3373   3374     1  0.0000000  0.6508444  3
   3367   3370   3373   3384     1  0.0000000  0.6508444  3
   3370   3373   3374   3377     1  0.0000000  0.6508444  3
   3370   3373   3384   3387     1  0.0000000  0.6508444  3
   3370   3367   3364   3394     1  0.0000000  0.6508444  3
   3373   3374   3377   3380     1  0.0000000  0.6508444  3
   3373   3384   3387   3390     1  0.0000000  0.6508444  3
   3374   3377   3380   3381     1  180.0000771  0.0000000  2
   3374   3377   3380   3382     1  180.0000771  0.0000000  2
   3374   3373   3384   3387     1  0.0000000  0.6508444  3
   3377   3374   3373   3384     1  0.0000000  0.6508444  3
   3384   3387   3390   3391     1  180.0000771  0.0000000  2
   3384   3387   3390   3392     1  180.0000771  0.0000000  2
   3396   3399   3402   3405     1  0.0000000  0.6508444  3
   3399   3402   3405   3406     1  0.0000000  0.6508444  3
   3399   3402   3405   3416     1  0.0000000  0.6508444  3
   3402   3399   3396   3426     1  0.0000000  0.6508444  3
   3402   3405   3406   3409     1  0.0000000  0.6508444  3
   3402   3405   3416   3419     1  0.0000000  0.6508444  3
   3405   3406   3409   3412     1  0.0000000  0.6508444  3
   3405   3416   3419   3422     1  0.0000000  0.6508444  3
   3406   3405   3416   3419     1  0.0000000  0.6508444  3
   3406   3409   3412   3413     1  180.0000771  0.0000000  2
   3406   3409   3412   3414     1  180.0000771  0.0000000  2
   3409   3406   3405   3416     1  0.0000000  0.6508444  3
   3416   3419   3422   3423     1  180.0000771  0.0000000  2
   3416   3419   3422   3424     1  180.0000771  0.0000000  2
   3428   3431   3434   3437     1  0.0000000  0.6508444  3
   3431   3434   3437   3438     1  0.0000000  0.6508444  3
   3431   3434   3437   3448     1  0.0000000  0.6508444  3
   3434   3437   3438   3441     1  0.0000000  0.6508444  3
   3434   3437   3448   3451     1  0.0000000  0.6508444  3
   3434   3431   3428   3458     1  0.0000000  0.6508444  3
   3437   3438   3441   3444     1  0.0000000  0.6508444  3
   3437   3448   3451   3454     1  0.0000000  0.6508444  3
   3438   3441   3444   3445     1  180.0000771  0.0000000  2
   3438   3441   3444   3446     1  180.0000771  0.0000000  2
   3438   3437   3448   3451     1  0.0000000  0.6508444  3
   3441   3438   3437   3448     1  0.0000000  0.6508444  3
   3448   3451   3454   3455     1  180.0000771  0.0000000  2
   3448   3451   3454   3456     1  180.0000771  0.0000000  2
   3460   3463   3466   3469     1  0.0000000  0.6508444  3
   3463   3466   3469   3470     1  0.0000000  0.6508444  3
   3463   3466   3469   3480     1  0.0000000  0.6508444  3
   3466   3463   3460   3490     1  0.0000000  0.6508444  3
   3466   3469   3470   3473     1  0.0000000  0.6508444  3
   3466   3469   3480   3483     1  0.0000000  0.6508444  3
   3469   3470   3473   3476     1  0.0000000  0.6508444  3
   3469   3480   3483   3486     1  0.0000000  0.6508444  3
   3470   3469   3480   3483     1  0.0000000  0.6508444  3
   3470   3473   3476   3477     1  180.0000771  0.0000000  2
   3470   3473   3476   3478     1  180.0000771  0.0000000  2
   3473   3470   3469   3480     1  0.0000000  0.6508444  3
   3480   3483   3486   3487     1  180.0000771  0.0000000  2
   3480   3483   3486   3488     1  180.0000771  0.0000000  2
   3492   3495   3498   3501     1  0.0000000  0.6508444  3
   3495   3498   3501   3502     1  0.0000000  0.6508444  3
   3495   3498   3501   3512     1  0.0000000  0.6508444  3
   3498   3501   3502   3505     1  0.0000000  0.6508444  3
   3498   3501   3512   3515     1  0.0000000  0.6508444  3
   3498   3495   3492   3522     1  0.0000000  0.6508444  3
   3501   3502   3505   3508     1  0.0000000  0.6508444  3
   3501   3512   3515   3518     1  0.0000000  0.6508444  3
   3502   3505   3508   3509     1  180.0000771  0.0000000  2
   3502   3505   3508   3510     1  180.0000771  0.0000000  2
   3502   3501   3512   3515     1  0.0000000  0.6508444  3
   3505   3502   3501   3512     1  0.0000000  0.6508444  3
   3512   3515   3518   3519     1  180.0000771  0.0000000  2
   3512   3515   3518   3520     1  180.0000771  0.0000000  2
   3524   3527   3530   3533     1  0.0000000  0.6508444  3
   3527   3530   3533   3534     1  0.0000000  0.6508444  3
   3527   3530   3533   3544     1  0.0000000  0.6508444  3
   3530   3527   3524   3554     1  0.0000000  0.6508444  3
   3530   3533   3534   3537     1  0.0000000  0.6508444  3
   3530   3533   3544   3547     1  0.0000000  0.6508444  3
   3533   3534   3537   3540     1  0.0000000  0.6508444  3
   3533   3544   3547   3550     1  0.0000000  0.6508444  3
   3534   3533   3544   3547     1  0.0000000  0.6508444  3
   3534   3537   3540   3541     1  180.0000771  0.0000000  2
   3534   3537   3540   3542     1  180.0000771  0.0000000  2
   3537   3534   3533   3544     1  0.0000000  0.6508444  3
   3544   3547   3550   3551     1  180.0000771  0.0000000  2
   3544   3547   3550   3552     1  180.0000771  0.0000000  2
   3556   3559   3562   3565     1  0.0000000  0.6508444  3
   3559   3562   3565   3566     1  0.0000000  0.6508444  3
   3559   3562   3565   3576     1  0.0000000  0.6508444  3
   3562   3565   3566   3569     1  0.0000000  0.6508444  3
   3562   3565   3576   3579     1  0.0000000  0.6508444  3
   3562   3559   3556   3586     1  0.0000000  0.6508444  3
   3565   3566   3569   3572     1  0.0000000  0.6508444  3
   3565   3576   3579   3582     1  0.0000000  0.6508444  3
   3566   3569   3572   3573     1  180.0000771  0.0000000  2
   3566   3569   3572   3574     1  180.0000771  0.0000000  2
   3566   3565   3576   3579     1  0.0000000  0.6508444  3
   3569   3566   3565   3576     1  0.0000000  0.6508444  3
   3576   3579   3582   3583     1  180.0000771  0.0000000  2
   3576   3579   3582   3584     1  180.0000771  0.0000000  2
   3588   3591   3594   3597     1  0.0000000  0.6508444  3
   3591   3594   3597   3598     1  0.0000000  0.6508444  3
   3591   3594   3597   3608     1  0.0000000  0.6508444  3
   3594   3591   3588   3618     1  0.0000000  0.6508444  3
   3594   3597   3598   3601     1  0.0000000  0.6508444  3
   3594   3597   3608   3611     1  0.0000000  0.6508444  3
   3597   3598   3601   3604     1  0.0000000  0.6508444  3
   3597   3608   3611   3614     1  0.0000000  0.6508444  3
   3598   3597   3608   3611     1  0.0000000  0.6508444  3
   3598   3601   3604   3605     1  180.0000771  0.0000000  2
   3598   3601   3604   3606     1  180.0000771  0.0000000  2
   3601   3598   3597   3608     1  0.0000000  0.6508444  3
   3608   3611   3614   3615     1  180.0000771  0.0000000  2
   3608   3611   3614   3616     1  180.0000771  0.0000000  2
   3620   3623   3626   3629     1  0.0000000  0.6508444  3
   3623   3626   3629   3630     1  0.0000000  0.6508444  3
   3623   3626   3629   3640     1  0.0000000  0.6508444  3
   3626   3629   3630   3633     1  0.0000000  0.6508444  3
   3626   3629   3640   3643     1  0.0000000  0.6508444  3
   3626   3623   3620   3650     1  0.0000000  0.6508444  3
   3629   3630   3633   3636     1  0.0000000  0.6508444  3
   3629   3640   3643   3646     1  0.0000000  0.6508444  3
   3630   3633   3636   3637     1  180.0000771  0.0000000  2
   3630   3633   3636   3638     1  180.0000771  0.0000000  2
   3630   3629   3640   3643     1  0.0000000  0.6508444  3
   3633   3630   3629   3640     1  0.0000000  0.6508444  3
   3640   3643   3646   3647     1  180.0000771  0.0000000  2
   3640   3643   3646   3648     1  180.0000771  0.0000000  2
   3652   3655   3658   3661     1  0.0000000  0.6508444  3
   3655   3658   3661   3662     1  0.0000000  0.6508444  3
   3655   3658   3661   3672     1  0.0000000  0.6508444  3
   3658   3655   3652   3682     1  0.0000000  0.6508444  3
   3658   3661   3662   3665     1  0.0000000  0.6508444  3
   3658   3661   3672   3675     1  0.0000000  0.6508444  3
   3661   3662   3665   3668     1  0.0000000  0.6508444  3
   3661   3672   3675   3678     1  0.0000000  0.6508444  3
   3662   3661   3672   3675     1  0.0000000  0.6508444  3
   3662   3665   3668   3669     1  180.0000771  0.0000000  2
   3662   3665   3668   3670     1  180.0000771  0.0000000  2
   3665   3662   3661   3672     1  0.0000000  0.6508444  3
   3672   3675   3678   3679     1  180.0000771  0.0000000  2
   3672   3675   3678   3680     1  180.0000771  0.0000000  2
   3684   3687   3690   3693     1  0.0000000  0.6508444  3
   3687   3690   3693   3694     1  0.0000000  0.6508444  3
   3687   3690   3693   3704     1  0.0000000  0.6508444  3
   3690   3693   3694   3697     1  0.0000000  0.6508444  3
   3690   3693   3704   3707     1  0.0000000  0.6508444  3
   3690   3687   3684   3714     1  0.0000000  0.6508444  3
   3693   3694   3697   3700     1  0.0000000  0.6508444  3
   3693   3704   3707   3710     1  0.0000000  0.6508444  3
   3694   3697   3700   3701     1  180.0000771  0.0000000  2
   3694   3697   3700   3702     1  180.0000771  0.0000000  2
   3694   3693   3704   3707     1  0.0000000  0.6508444  3
   3697   3694   3693   3704     1  0.0000000  0.6508444  3
   3704   3707   3710   3711     1  180.0000771  0.0000000  2
   3704   3707   3710   3712     1  180.0000771  0.0000000  2
   3716   3719   3722   3725     1  0.0000000  0.6508444  3
   3719   3722   3725   3726     1  0.0000000  0.6508444  3
   3719   3722   3725   3736     1  0.0000000  0.6508444  3
   3722   3719   3716   3746     1  0.0000000  0.6508444  3
   3722   3725   3726   3729     1  0.0000000  0.6508444  3
   3722   3725   3736   3739     1  0.0000000  0.6508444  3
   3725   3726   3729   3732     1  0.0000000  0.6508444  3
   3725   3736   3739   3742     1  0.0000000  0.6508444  3
   3726   3725   3736   3739     1  0.0000000  0.6508444  3
   3726   3729   3732   3733     1  180.0000771  0.0000000  2
   3726   3729   3732   3734     1  180.0000771  0.0000000  2
   3729   3726   3725   3736     1  0.0000000  0.6508444  3
   3736   3739   3742   3743     1  180.0000771  0.0000000  2
   3736   3739   3742   3744     1  180.0000771  0.0000000  2
   3748   3751   3754   3757     1  0.0000000  0.6508444  3
   3751   3754   3757   3758     1  0.0000000  0.6508444  3
   3751   3754   3757   3768     1  0.0000000  0.6508444  3
   3754   3757   3758   3761     1  0.0000000  0.6508444  3
   3754   3757   3768   3771     1  0.0000000  0.6508444  3
   3754   3751   3748   3778     1  0.0000000  0.6508444  3
   3757   3758   3761   3764     1  0.0000000  0.6508444  3
   3757   3768   3771   3774     1  0.0000000  0.6508444  3
   3758   3761   3764   3765     1  180.0000771  0.0000000  2
   3758   3761   3764   3766     1  180.0000771  0.0000000  2
   3758   3757   3768   3771     1  0.0000000  0.6508444  3
   3761   3758   3757   3768     1  0.0000000  0.6508444  3
   3768   3771   3774   3775     1  180.0000771  0.0000000  2
   3768   3771   3774   3776     1  180.0000771  0.0000000  2
   3780   3783   3786   3789     1  0.0000000  0.6508444  3
   3783   3786   3789   3790     1  0.0000000  0.6508444  3
   3783   3786   3789   3800     1  0.0000000  0.6508444  3
   3786   3783   3780   3810     1  0.0000000  0.6508444  3
   3786   3789   3790   3793     1  0.0000000  0.6508444  3
   3786   3789   3800   3803     1  0.0000000  0.6508444  3
   3789   3790   3793   3796     1  0.0000000  0.6508444  3
   3789   3800   3803   3806     1  0.0000000  0.6508444  3
   3790   3789   3800   3803     1  0.0000000  0.6508444  3
   3790   3793   3796   3797     1  180.0000771  0.0000000  2
   3790   3793   3796   3798     1  180.0000771  0.0000000  2
   3793   3790   3789   3800     1  0.0000000  0.6508444  3
   3800   3803   3806   3807     1  180.0000771  0.0000000  2
   3800   3803   3806   3808     1  180.0000771  0.0000000  2
   3812   3815   3818   3821     1  0.0000000  0.6508444  3
   3815   3818   3821   3822     1  0.0000000  0.6508444  3
   3815   3818   3821   3832     1  0.0000000  0.6508444  3
   3818   3821   3822   3825     1  0.0000000  0.6508444  3
   3818   3821   3832   3835     1  0.0000000  0.6508444  3
   3818   3815   3812   3842     1  0.0000000  0.6508444  3
   3821   3822   3825   3828     1  0.0000000  0.6508444  3
   3821   3832   3835   3838     1  0.0000000  0.6508444  3
   3822   3825   3828   3829     1  180.0000771  0.0000000  2
   3822   3825   3828   3830     1  180.0000771  0.0000000  2
   3822   3821   3832   3835     1  0.0000000  0.6508444  3
   3825   3822   3821   3832     1  0.0000000  0.6508444  3
   3832   3835   3838   3839     1  180.0000771  0.0000000  2
   3832   3835   3838   3840     1  180.0000771  0.0000000  2
   3844   3847   3850   3853     1  0.0000000  0.6508444  3
   3847   3850   3853   3854     1  0.0000000  0.6508444  3
   3847   3850   3853   3864     1  0.0000000  0.6508444  3
   3850   3847   3844   3874     1  0.0000000  0.6508444  3
   3850   3853   3854   3857     1  0.0000000  0.6508444  3
   3850   3853   3864   3867     1  0.0000000  0.6508444  3
   3853   3854   3857   3860     1  0.0000000  0.6508444  3
   3853   3864   3867   3870     1  0.0000000  0.6508444  3
   3854   3853   3864   3867     1  0.0000000  0.6508444  3
   3854   3857   3860   3861     1  180.0000771  0.0000000  2
   3854   3857   3860   3862     1  180.0000771  0.0000000  2
   3857   3854   3853   3864     1  0.0000000  0.6508444  3
   3864   3867   3870   3871     1  180.0000771  0.0000000  2
   3864   3867   3870   3872     1  180.0000771  0.0000000  2
   3876   3879   3882   3885     1  0.0000000  0.6508444  3
   3879   3882   3885   3886     1  0.0000000  0.6508444  3
   3879   3882   3885   3896     1  0.0000000  0.6508444  3
   3882   3885   3886   3889     1  0.0000000  0.6508444  3
   3882   3885   3896   3899     1  0.0000000  0.6508444  3
   3882   3879   3876   3906     1  0.0000000  0.6508444  3
   3885   3886   3889   3892     1  0.0000000  0.6508444  3
   3885   3896   3899   3902     1  0.0000000  0.6508444  3
   3886   3889   3892   3893     1  180.0000771  0.0000000  2
   3886   3889   3892   3894     1  180.0000771  0.0000000  2
   3886   3885   3896   3899     1  0.0000000  0.6508444  3
   3889   3886   3885   3896     1  0.0000000  0.6508444  3
   3896   3899   3902   3903     1  180.0000771  0.0000000  2
   3896   3899   3902   3904     1  180.0000771  0.0000000  2
   3908   3911   3914   3917     1  0.0000000  0.6508444  3
   3911   3914   3917   3918     1  0.0000000  0.6508444  3
   3911   3914   3917   3928     1  0.0000000  0.6508444  3
   3914   3911   3908   3938     1  0.0000000  0.6508444  3
   3914   3917   3918   3921     1  0.0000000  0.6508444  3
   3914   3917   3928   3931     1  0.0000000  0.6508444  3
   3917   3918   3921   3924     1  0.0000000  0.6508444  3
   3917   3928   3931   3934     1  0.0000000  0.6508444  3
   3918   3917   3928   3931     1  0.0000000  0.6508444  3
   3918   3921   3924   3925     1  180.0000771  0.0000000  2
   3918   3921   3924   3926     1  180.0000771  0.0000000  2
   3921   3918   3917   3928     1  0.0000000  0.6508444  3
   3928   3931   3934   3935     1  180.0000771  0.0000000  2
   3928   3931   3934   3936     1  180.0000771  0.0000000  2
   3940   3943   3946   3949     1  0.0000000  0.6508444  3
   3943   3946   3949   3950     1  0.0000000  0.6508444  3
   3943   3946   3949   3960     1  0.0000000  0.6508444  3
   3946   3949   3950   3953     1  0.0000000  0.6508444  3
   3946   3949   3960   3963     1  0.0000000  0.6508444  3
   3946   3943   3940   3970     1  0.0000000  0.6508444  3
   3949   3950   3953   3956     1  0.0000000  0.6508444  3
   3949   3960   3963   3966     1  0.0000000  0.6508444  3
   3950   3953   3956   3957     1  180.0000771  0.0000000  2
   3950   3953   3956   3958     1  180.0000771  0.0000000  2
   3950   3949   3960   3963     1  0.0000000  0.6508444  3
   3953   3950   3949   3960     1  0.0000000  0.6508444  3
   3960   3963   3966   3967     1  180.0000771  0.0000000  2
   3960   3963   3966   3968     1  180.0000771  0.0000000  2
   3972   3975   3978   3981     1  0.0000000  0.6508444  3
   3975   3978   3981   3982     1  0.0000000  0.6508444  3
   3975   3978   3981   3992     1  0.0000000  0.6508444  3
   3978   3975   3972   4002     1  0.0000000  0.6508444  3
   3978   3981   3982   3985     1  0.0000000  0.6508444  3
   3978   3981   3992   3995     1  0.0000000  0.6508444  3
   3981   3982   3985   3988     1  0.0000000  0.6508444  3
   3981   3992   3995   3998     1  0.0000000  0.6508444  3
   3982   3981   3992   3995     1  0.0000000  0.6508444  3
   3982   3985   3988   3989     1  180.0000771  0.0000000  2
   3982   3985   3988   3990     1  180.0000771  0.0000000  2
   3985   3982   3981   3992     1  0.0000000  0.6508444  3
   3992   3995   3998   3999     1  180.0000771  0.0000000  2
   3992   3995   3998   4000     1  180.0000771  0.0000000  2
   4004   4007   4010   4013     1  0.0000000  0.6508444  3
   4007   4010   4013   4014     1  0.0000000  0.6508444  3
   4007   4010   4013   4024     1  0.0000000  0.6508444  3
   4010   4013   4014   4017     1  0.0000000  0.6508444  3
   4010   4013   4024   4027     1  0.0000000  0.6508444  3
   4010   4007   4004   4034     1  0.0000000  0.6508444  3
   4013   4014   4017   4020     1  0.0000000  0.6508444  3
   4013   4024   4027   4030     1  0.0000000  0.6508444  3
   4014   4017   4020   4021     1  180.0000771  0.0000000  2
   4014   4017   4020   4022     1  180.0000771  0.0000000  2
   4014   4013   4024   4027     1  0.0000000  0.6508444  3
   4017   4014   4013   4024     1  0.0000000  0.6508444  3
   4024   4027   4030   4031     1  180.0000771  0.0000000  2
   4024   4027   4030   4032     1  180.0000771  0.0000000  2
   4036   4039   4042   4045     1  0.0000000  0.6508444  3
   4039   4042   4045   4046     1  0.0000000  0.6508444  3
   4039   4042   4045   4056     1  0.0000000  0.6508444  3
   4042   4039   4036   4066     1  0.0000000  0.6508444  3
   4042   4045   4046   4049     1  0.0000000  0.6508444  3
   4042   4045   4056   4059     1  0.0000000  0.6508444  3
   4045   4046   4049   4052     1  0.0000000  0.6508444  3
   4045   4056   4059   4062     1  0.0000000  0.6508444  3
   4046   4045   4056   4059     1  0.0000000  0.6508444  3
   4046   4049   4052   4053     1  180.0000771  0.0000000  2
   4046   4049   4052   4054     1  180.0000771  0.0000000  2
   4049   4046   4045   4056     1  0.0000000  0.6508444  3
   4056   4059   4062   4063     1  180.0000771  0.0000000  2
   4056   4059   4062   4064     1  180.0000771  0.0000000  2
   4068   4071   4074   4077     1  0.0000000  0.6508444  3
   4071   4074   4077   4078     1  0.0000000  0.6508444  3
   4071   4074   4077   4088     1  0.0000000  0.6508444  3
   4074   4077   4078   4081     1  0.0000000  0.6508444  3
   4074   4077   4088   4091     1  0.0000000  0.6508444  3
   4074   4071   4068   4098     1  0.0000000  0.6508444  3
   4077   4078   4081   4084     1  0.0000000  0.6508444  3
   4077   4088   4091   4094     1  0.0000000  0.6508444  3
   4078   4081   4084   4085     1  180.0000771  0.0000000  2
   4078   4081   4084   4086     1  180.0000771  0.0000000  2
   4078   4077   4088   4091     1  0.0000000  0.6508444  3
   4081   4078   4077   4088     1  0.0000000  0.6508444  3
   4088   4091   4094   4095     1  180.0000771  0.0000000  2
   4088   4091   4094   4096     1  180.0000771  0.0000000  2
   4100   4103   4106   4109     1  0.0000000  0.6508444  3
   4103   4106   4109   4110     1  0.0000000  0.6508444  3
   4103   4106   4109   4120     1  0.0000000  0.6508444  3
   4106   4103   4100   4130     1  0.0000000  0.6508444  3
   4106   4109   4110   4113     1  0.0000000  0.6508444  3
   4106   4109   4120   4123     1  0.0000000  0.6508444  3
   4109   4110   4113   4116     1  0.0000000  0.6508444  3
   4109   4120   4123   4126     1  0.0000000  0.6508444  3
   4110   4109   4120   4123     1  0.0000000  0.6508444  3
   4110   4113   4116   4117     1  180.0000771  0.0000000  2
   4110   4113   4116   4118     1  180.0000771  0.0000000  2
   4113   4110   4109   4120     1  0.0000000  0.6508444  3
   4120   4123   4126   4127     1  180.0000771  0.0000000  2
   4120   4123   4126   4128     1  180.0000771  0.0000000  2
   4132   4135   4138   4141     1  0.0000000  0.6508444  3
   4135   4138   4141   4142     1  0.0000000  0.6508444  3
   4135   4138   4141   4152     1  0.0000000  0.6508444  3
   4138   4141   4142   4145     1  0.0000000  0.6508444  3
   4138   4141   4152   4155     1  0.0000000  0.6508444  3
   4138   4135   4132   4162     1  0.0000000  0.6508444  3
   4141   4142   4145   4148     1  0.0000000  0.6508444  3
   4141   4152   4155   4158     1  0.0000000  0.6508444  3
   4142   4145   4148   4149     1  180.0000771  0.0000000  2
   4142   4145   4148   4150     1  180.0000771  0.0000000  2
   4142   4141   4152   4155     1  0.0000000  0.6508444  3
   4145   4142   4141   4152     1  0.0000000  0.6508444  3
   4152   4155   4158   4159     1  180.0000771  0.0000000  2
   4152   4155   4158   4160     1  180.0000771  0.0000000  2
   4164   4167   4170   4173     1  0.0000000  0.6508444  3
   4167   4170   4173   4174     1  0.0000000  0.6508444  3
   4167   4170   4173   4184     1  0.0000000  0.6508444  3
   4170   4167   4164   4194     1  0.0000000  0.6508444  3
   4170   4173   4174   4177     1  0.0000000  0.6508444  3
   4170   4173   4184   4187     1  0.0000000  0.6508444  3
   4173   4174   4177   4180     1  0.0000000  0.6508444  3
   4173   4184   4187   4190     1  0.0000000  0.6508444  3
   4174   4173   4184   4187     1  0.0000000  0.6508444  3
   4174   4177   4180   4181     1  180.0000771  0.0000000  2
   4174   4177   4180   4182     1  180.0000771  0.0000000  2
   4177   4174   4173   4184     1  0.0000000  0.6508444  3
   4184   4187   4190   4191     1  180.0000771  0.0000000  2
   4184   4187   4190   4192     1  180.0000771  0.0000000  2
   4196   4199   4202   4205     1  0.0000000  0.6508444  3
   4199   4202   4205   4206     1  0.0000000  0.6508444  3
   4199   4202   4205   4216     1  0.0000000  0.6508444  3
   4202   4205   4206   4209     1  0.0000000  0.6508444  3
   4202   4205   4216   4219     1  0.0000000  0.6508444  3
   4202   4199   4196   4226     1  0.0000000  0.6508444  3
   4205   4206   4209   4212     1  0.0000000  0.6508444  3
   4205   4216   4219   4222     1  0.0000000  0.6508444  3
   4206   4209   4212   4213     1  180.0000771  0.0000000  2
   4206   4209   4212   4214     1  180.0000771  0.0000000  2
   4206   4205   4216   4219     1  0.0000000  0.6508444  3
   4209   4206   4205   4216     1  0.0000000  0.6508444  3
   4216   4219   4222   4223     1  180.0000771  0.0000000  2
   4216   4219   4222   4224     1  180.0000771  0.0000000  2
   4228   4231   4234   4237     1  0.0000000  0.6508444  3
   4231   4234   4237   4238     1  0.0000000  0.6508444  3
   4231   4234   4237   4248     1  0.0000000  0.6508444  3
   4234   4231   4228   4258     1  0.0000000  0.6508444  3
   4234   4237   4238   4241     1  0.0000000  0.6508444  3
   4234   4237   4248   4251     1  0.0000000  0.6508444  3
   4237   4238   4241   4244     1  0.0000000  0.6508444  3
   4237   4248   4251   4254     1  0.0000000  0.6508444  3
   4238   4237   4248   4251     1  0.0000000  0.6508444  3
   4238   4241   4244   4245     1  180.0000771  0.0000000  2
   4238   4241   4244   4246     1  180.0000771  0.0000000  2
   4241   4238   4237   4248     1  0.0000000  0.6508444  3
   4248   4251   4254   4255     1  180.0000771  0.0000000  2
   4248   4251   4254   4256     1  180.0000771  0.0000000  2
   4260   4263   4266   4269     1  0.0000000  0.6508444  3
   4263   4266   4269   4270     1  0.0000000  0.6508444  3
   4263   4266   4269   4280     1  0.0000000  0.6508444  3
   4266   4269   4270   4273     1  0.0000000  0.6508444  3
   4266   4269   4280   4283     1  0.0000000  0.6508444  3
   4266   4263   4260   4290     1  0.0000000  0.6508444  3
   4269   4270   4273   4276     1  0.0000000  0.6508444  3
   4269   4280   4283   4286     1  0.0000000  0.6508444  3
   4270   4273   4276   4277     1  180.0000771  0.0000000  2
   4270   4273   4276   4278     1  180.0000771  0.0000000  2
   4270   4269   4280   4283     1  0.0000000  0.6508444  3
   4273   4270   4269   4280     1  0.0000000  0.6508444  3
   4280   4283   4286   4287     1  180.0000771  0.0000000  2
   4280   4283   4286   4288     1  180.0000771  0.0000000  2
   4292   4295   4298   4301     1  0.0000000  0.6508444  3
   4295   4298   4301   4302     1  0.0000000  0.6508444  3
   4295   4298   4301   4312     1  0.0000000  0.6508444  3
   4298   4295   4292   4322     1  0.0000000  0.6508444  3
   4298   4301   4302   4305     1  0.0000000  0.6508444  3
   4298   4301   4312   4315     1  0.0000000  0.6508444  3
   4301   4302   4305   4308     1  0.0000000  0.6508444  3
   4301   4312   4315   4318     1  0.0000000  0.6508444  3
   4302   4301   4312   4315     1  0.0000000  0.6508444  3
   4302   4305   4308   4309     1  180.0000771  0.0000000  2
   4302   4305   4308   4310     1  180.0000771  0.0000000  2
   4305   4302   4301   4312     1  0.0000000  0.6508444  3
   4312   4315   4318   4319     1  180.0000771  0.0000000  2
   4312   4315   4318   4320     1  180.0000771  0.0000000  2
   4324   4327   4330   4333     1  0.0000000  0.6508444  3
   4327   4330   4333   4334     1  0.0000000  0.6508444  3
   4327   4330   4333   4344     1  0.0000000  0.6508444  3
   4330   4333   4334   4337     1  0.0000000  0.6508444  3
   4330   4333   4344   4347     1  0.0000000  0.6508444  3
   4330   4327   4324   4354     1  0.0000000  0.6508444  3
   4333   4334   4337   4340     1  0.0000000  0.6508444  3
   4333   4344   4347   4350     1  0.0000000  0.6508444  3
   4334   4337   4340   4341     1  180.0000771  0.0000000  2
   4334   4337   4340   4342     1  180.0000771  0.0000000  2
   4334   4333   4344   4347     1  0.0000000  0.6508444  3
   4337   4334   4333   4344     1  0.0000000  0.6508444  3
   4344   4347   4350   4351     1  180.0000771  0.0000000  2
   4344   4347   4350   4352     1  180.0000771  0.0000000  2
   4356   4359   4362   4365     1  0.0000000  0.6508444  3
   4359   4362   4365   4366     1  0.0000000  0.6508444  3
   4359   4362   4365   4376     1  0.0000000  0.6508444  3
   4362   4359   4356   4386     1  0.0000000  0.6508444  3
   4362   4365   4366   4369     1  0.0000000  0.6508444  3
   4362   4365   4376   4379     1  0.0000000  0.6508444  3
   4365   4366   4369   4372     1  0.0000000  0.6508444  3
   4365   4376   4379   4382     1  0.0000000  0.6508444  3
   4366   4365   4376   4379     1  0.0000000  0.6508444  3
   4366   4369   4372   4373     1  180.0000771  0.0000000  2
   4366   4369   4372   4374     1  180.0000771  0.0000000  2
   4369   4366   4365   4376     1  0.0000000  0.6508444  3
   4376   4379   4382   4383     1  180.0000771  0.0000000  2
   4376   4379   4382   4384     1  180.0000771  0.0000000  2
   4388   4391   4394   4397     1  0.0000000  0.6508444  3
   4391   4394   4397   4398     1  0.0000000  0.6508444  3
   4391   4394   4397   4408     1  0.0000000  0.6508444  3
   4394   4397   4398   4401     1  0.0000000  0.6508444  3
   4394   4397   4408   4411     1  0.0000000  0.6508444  3
   4394   4391   4388   4418     1  0.0000000  0.6508444  3
   4397   4398   4401   4404     1  0.0000000  0.6508444  3
   4397   4408   4411   4414     1  0.0000000  0.6508444  3
   4398   4401   4404   4405     1  180.0000771  0.0000000  2
   4398   4401   4404   4406     1  180.0000771  0.0000000  2
   4398   4397   4408   4411     1  0.0000000  0.6508444  3
   4401   4398   4397   4408     1  0.0000000  0.6508444  3
   4408   4411   4414   4415     1  180.0000771  0.0000000  2
   4408   4411   4414   4416     1  180.0000771  0.0000000  2
   4420   4423   4426   4429     1  0.0000000  0.6508444  3
   4423   4426   4429   4430     1  0.0000000  0.6508444  3
   4423   4426   4429   4440     1  0.0000000  0.6508444  3
   4426   4423   4420   4450     1  0.0000000  0.6508444  3
   4426   4429   4430   4433     1  0.0000000  0.6508444  3
   4426   4429   4440   4443     1  0.0000000  0.6508444  3
   4429   4430   4433   4436     1  0.0000000  0.6508444  3
   4429   4440   4443   4446     1  0.0000000  0.6508444  3
   4430   4429   4440   4443     1  0.0000000  0.6508444  3
   4430   4433   4436   4437     1  180.0000771  0.0000000  2
   4430   4433   4436   4438     1  180.0000771  0.0000000  2
   4433   4430   4429   4440     1  0.0000000  0.6508444  3
   4440   4443   4446   4447     1  180.0000771  0.0000000  2
   4440   4443   4446   4448     1  180.0000771  0.0000000  2
   4452   4455   4458   4461     1  0.0000000  0.6508444  3
   4455   4458   4461   4462     1  0.0000000  0.6508444  3
   4455   4458   4461   4472     1  0.0000000  0.6508444  3
   4458   4461   4462   4465     1  0.0000000  0.6508444  3
   4458   4461   4472   4475     1  0.0000000  0.6508444  3
   4458   4455   4452   4482     1  0.0000000  0.6508444  3
   4461   4462   4465   4468     1  0.0000000  0.6508444  3
   4461   4472   4475   4478     1  0.0000000  0.6508444  3
   4462   4465   4468   4469     1  180.0000771  0.0000000  2
   4462   4465   4468   4470     1  180.0000771  0.0000000  2
   4462   4461   4472   4475     1  0.0000000  0.6508444  3
   4465   4462   4461   4472     1  0.0000000  0.6508444  3
   4472   4475   4478   4479     1  180.0000771  0.0000000  2
   4472   4475   4478   4480     1  180.0000771  0.0000000  2
   4484   4487   4490   4493     1  0.0000000  0.6508444  3
   4487   4490   4493   4494     1  0.0000000  0.6508444  3
   4487   4490   4493   4504     1  0.0000000  0.6508444  3
   4490   4487   4484   4514     1  0.0000000  0.6508444  3
   4490   4493   4494   4497     1  0.0000000  0.6508444  3
   4490   4493   4504   4507     1  0.0000000  0.6508444  3
   4493   4494   4497   4500     1  0.0000000  0.6508444  3
   4493   4504   4507   4510     1  0.0000000  0.6508444  3
   4494   4493   4504   4507     1  0.0000000  0.6508444  3
   4494   4497   4500   4501     1  180.0000771  0.0000000  2
   4494   4497   4500   4502     1  180.0000771  0.0000000  2
   4497   4494   4493   4504     1  0.0000000  0.6508444  3
   4504   4507   4510   4511     1  180.0000771  0.0000000  2
   4504   4507   4510   4512     1  180.0000771  0.0000000  2
   4516   4519   4522   4525     1  0.0000000  0.6508444  3
   4519   4522   4525   4526     1  0.0000000  0.6508444  3
   4519   4522   4525   4536     1  0.0000000  0.6508444  3
   4522   4525   4526   4529     1  0.0000000  0.6508444  3
   4522   4525   4536   4539     1  0.0000000  0.6508444  3
   4522   4519   4516   4546     1  0.0000000  0.6508444  3
   4525   4526   4529   4532     1  0.0000000  0.6508444  3
   4525   4536   4539   4542     1  0.0000000  0.6508444  3
   4526   4529   4532   4533     1  180.0000771  0.0000000  2
   4526   4529   4532   4534     1  180.0000771  0.0000000  2
   4526   4525   4536   4539     1  0.0000000  0.6508444  3
   4529   4526   4525   4536     1  0.0000000  0.6508444  3
   4536   4539   4542   4543     1  180.0000771  0.0000000  2
   4536   4539   4542   4544     1  180.0000771  0.0000000  2
   4548   4551   4554   4557     1  0.0000000  0.6508444  3
   4551   4554   4557   4558     1  0.0000000  0.6508444  3
   4551   4554   4557   4568     1  0.0000000  0.6508444  3
   4554   4551   4548   4578     1  0.0000000  0.6508444  3
   4554   4557   4558   4561     1  0.0000000  0.6508444  3
   4554   4557   4568   4571     1  0.0000000  0.6508444  3
   4557   4558   4561   4564     1  0.0000000  0.6508444  3
   4557   4568   4571   4574     1  0.0000000  0.6508444  3
   4558   4557   4568   4571     1  0.0000000  0.6508444  3
   4558   4561   4564   4565     1  180.0000771  0.0000000  2
   4558   4561   4564   4566     1  180.0000771  0.0000000  2
   4561   4558   4557   4568     1  0.0000000  0.6508444  3
   4568   4571   4574   4575     1  180.0000771  0.0000000  2
   4568   4571   4574   4576     1  180.0000771  0.0000000  2
   4580   4583   4586   4589     1  0.0000000  0.6508444  3
   4583   4586   4589   4590     1  0.0000000  0.6508444  3
   4583   4586   4589   4600     1  0.0000000  0.6508444  3
   4586   4589   4590   4593     1  0.0000000  0.6508444  3
   4586   4589   4600   4603     1  0.0000000  0.6508444  3
   4586   4583   4580   4610     1  0.0000000  0.6508444  3
   4589   4590   4593   4596     1  0.0000000  0.6508444  3
   4589   4600   4603   4606     1  0.0000000  0.6508444  3
   4590   4593   4596   4597     1  180.0000771  0.0000000  2
   4590   4593   4596   4598     1  180.0000771  0.0000000  2
   4590   4589   4600   4603     1  0.0000000  0.6508444  3
   4593   4590   4589   4600     1  0.0000000  0.6508444  3
   4600   4603   4606   4607     1  180.0000771  0.0000000  2
   4600   4603   4606   4608     1  180.0000771  0.0000000  2
   4612   4615   4618   4621     1  0.0000000  0.6508444  3
   4615   4618   4621   4622     1  0.0000000  0.6508444  3
   4615   4618   4621   4632     1  0.0000000  0.6508444  3
   4618   4615   4612   4642     1  0.0000000  0.6508444  3
   4618   4621   4622   4625     1  0.0000000  0.6508444  3
   4618   4621   4632   4635     1  0.0000000  0.6508444  3
   4621   4622   4625   4628     1  0.0000000  0.6508444  3
   4621   4632   4635   4638     1  0.0000000  0.6508444  3
   4622   4621   4632   4635     1  0.0000000  0.6508444  3
   4622   4625   4628   4629     1  180.0000771  0.0000000  2
   4622   4625   4628   4630     1  180.0000771  0.0000000  2
   4625   4622   4621   4632     1  0.0000000  0.6508444  3
   4632   4635   4638   4639     1  180.0000771  0.0000000  2
   4632   4635   4638   4640     1  180.0000771  0.0000000  2
   4644   4647   4650   4653     1  0.0000000  0.6508444  3
   4647   4650   4653   4654     1  0.0000000  0.6508444  3
   4647   4650   4653   4664     1  0.0000000  0.6508444  3
   4650   4653   4654   4657     1  0.0000000  0.6508444  3
   4650   4653   4664   4667     1  0.0000000  0.6508444  3
   4650   4647   4644   4674     1  0.0000000  0.6508444  3
   4653   4654   4657   4660     1  0.0000000  0.6508444  3
   4653   4664   4667   4670     1  0.0000000  0.6508444  3
   4654   4657   4660   4661     1  180.0000771  0.0000000  2
   4654   4657   4660   4662     1  180.0000771  0.0000000  2
   4654   4653   4664   4667     1  0.0000000  0.6508444  3
   4657   4654   4653   4664     1  0.0000000  0.6508444  3
   4664   4667   4670   4671     1  180.0000771  0.0000000  2
   4664   4667   4670   4672     1  180.0000771  0.0000000  2
   4676   4679   4682   4685     1  0.0000000  0.6508444  3
   4679   4682   4685   4686     1  0.0000000  0.6508444  3
   4679   4682   4685   4696     1  0.0000000  0.6508444  3
   4682   4679   4676   4706     1  0.0000000  0.6508444  3
   4682   4685   4686   4689     1  0.0000000  0.6508444  3
   4682   4685   4696   4699     1  0.0000000  0.6508444  3
   4685   4686   4689   4692     1  0.0000000  0.6508444  3
   4685   4696   4699   4702     1  0.0000000  0.6508444  3
   4686   4685   4696   4699     1  0.0000000  0.6508444  3
   4686   4689   4692   4693     1  180.0000771  0.0000000  2
   4686   4689   4692   4694     1  180.0000771  0.0000000  2
   4689   4686   4685   4696     1  0.0000000  0.6508444  3
   4696   4699   4702   4703     1  180.0000771  0.0000000  2
   4696   4699   4702   4704     1  180.0000771  0.0000000  2
   4708   4711   4714   4717     1  0.0000000  0.6508444  3
   4711   4714   4717   4718     1  0.0000000  0.6508444  3
   4711   4714   4717   4728     1  0.0000000  0.6508444  3
   4714   4717   4718   4721     1  0.0000000  0.6508444  3
   4714   4717   4728   4731     1  0.0000000  0.6508444  3
   4714   4711   4708   4738     1  0.0000000  0.6508444  3
   4717   4718   4721   4724     1  0.0000000  0.6508444  3
   4717   4728   4731   4734     1  0.0000000  0.6508444  3
   4718   4721   4724   4725     1  180.0000771  0.0000000  2
   4718   4721   4724   4726     1  180.0000771  0.0000000  2
   4718   4717   4728   4731     1  0.0000000  0.6508444  3
   4721   4718   4717   4728     1  0.0000000  0.6508444  3
   4728   4731   4734   4735     1  180.0000771  0.0000000  2
   4728   4731   4734   4736     1  180.0000771  0.0000000  2
   4740   4743   4746   4749     1  0.0000000  0.6508444  3
   4743   4746   4749   4750     1  0.0000000  0.6508444  3
   4743   4746   4749   4760     1  0.0000000  0.6508444  3
   4746   4743   4740   4770     1  0.0000000  0.6508444  3
   4746   4749   4750   4753     1  0.0000000  0.6508444  3
   4746   4749   4760   4763     1  0.0000000  0.6508444  3
   4749   4750   4753   4756     1  0.0000000  0.6508444  3
   4749   4760   4763   4766     1  0.0000000  0.6508444  3
   4750   4749   4760   4763     1  0.0000000  0.6508444  3
   4750   4753   4756   4757     1  180.0000771  0.0000000  2
   4750   4753   4756   4758     1  180.0000771  0.0000000  2
   4753   4750   4749   4760     1  0.0000000  0.6508444  3
   4760   4763   4766   4767     1  180.0000771  0.0000000  2
   4760   4763   4766   4768     1  180.0000771  0.0000000  2
   4772   4775   4778   4781     1  0.0000000  0.6508444  3
   4775   4778   4781   4782     1  0.0000000  0.6508444  3
   4775   4778   4781   4792     1  0.0000000  0.6508444  3
   4778   4781   4782   4785     1  0.0000000  0.6508444  3
   4778   4781   4792   4795     1  0.0000000  0.6508444  3
   4778   4775   4772   4802     1  0.0000000  0.6508444  3
   4781   4782   4785   4788     1  0.0000000  0.6508444  3
   4781   4792   4795   4798     1  0.0000000  0.6508444  3
   4782   4785   4788   4789     1  180.0000771  0.0000000  2
   4782   4785   4788   4790     1  180.0000771  0.0000000  2
   4782   4781   4792   4795     1  0.0000000  0.6508444  3
   4785   4782   4781   4792     1  0.0000000  0.6508444  3
   4792   4795   4798   4799     1  180.0000771  0.0000000  2
   4792   4795   4798   4800     1  180.0000771  0.0000000  2
   4804   4807   4810   4813     1  0.0000000  0.6508444  3
   4807   4810   4813   4814     1  0.0000000  0.6508444  3
   4807   4810   4813   4824     1  0.0000000  0.6508444  3
   4810   4807   4804   4834     1  0.0000000  0.6508444  3
   4810   4813   4814   4817     1  0.0000000  0.6508444  3
   4810   4813   4824   4827     1  0.0000000  0.6508444  3
   4813   4814   4817   4820     1  0.0000000  0.6508444  3
   4813   4824   4827   4830     1  0.0000000  0.6508444  3
   4814   4813   4824   4827     1  0.0000000  0.6508444  3
   4814   4817   4820   4821     1  180.0000771  0.0000000  2
   4814   4817   4820   4822     1  180.0000771  0.0000000  2
   4817   4814   4813   4824     1  0.0000000  0.6508444  3
   4824   4827   4830   4831     1  180.0000771  0.0000000  2
   4824   4827   4830   4832     1  180.0000771  0.0000000  2
   4836   4839   4842   4845     1  0.0000000  0.6508444  3
   4839   4842   4845   4846     1  0.0000000  0.6508444  3
   4839   4842   4845   4856     1  0.0000000  0.6508444  3
   4842   4845   4846   4849     1  0.0000000  0.6508444  3
   4842   4845   4856   4859     1  0.0000000  0.6508444  3
   4842   4839   4836   4866     1  0.0000000  0.6508444  3
   4845   4846   4849   4852     1  0.0000000  0.6508444  3
   4845   4856   4859   4862     1  0.0000000  0.6508444  3
   4846   4849   4852   4853     1  180.0000771  0.0000000  2
   4846   4849   4852   4854     1  180.0000771  0.0000000  2
   4846   4845   4856   4859     1  0.0000000  0.6508444  3
   4849   4846   4845   4856     1  0.0000000  0.6508444  3
   4856   4859   4862   4863     1  180.0000771  0.0000000  2
   4856   4859   4862   4864     1  180.0000771  0.0000000  2
   4868   4871   4874   4877     1  0.0000000  0.6508444  3
   4871   4874   4877   4878     1  0.0000000  0.6508444  3
   4871   4874   4877   4888     1  0.0000000  0.6508444  3
   4874   4871   4868   4898     1  0.0000000  0.6508444  3
   4874   4877   4878   4881     1  0.0000000  0.6508444  3
   4874   4877   4888   4891     1  0.0000000  0.6508444  3
   4877   4878   4881   4884     1  0.0000000  0.6508444  3
   4877   4888   4891   4894     1  0.0000000  0.6508444  3
   4878   4877   4888   4891     1  0.0000000  0.6508444  3
   4878   4881   4884   4885     1  180.0000771  0.0000000  2
   4878   4881   4884   4886     1  180.0000771  0.0000000  2
   4881   4878   4877   4888     1  0.0000000  0.6508444  3
   4888   4891   4894   4895     1  180.0000771  0.0000000  2
   4888   4891   4894   4896     1  180.0000771  0.0000000  2
   4900   4903   4906   4909     1  0.0000000  0.6508444  3
   4903   4906   4909   4910     1  0.0000000  0.6508444  3
   4903   4906   4909   4920     1  0.0000000  0.6508444  3
   4906   4909   4910   4913     1  0.0000000  0.6508444  3
   4906   4909   4920   4923     1  0.0000000  0.6508444  3
   4906   4903   4900   4930     1  0.0000000  0.6508444  3
   4909   4910   4913   4916     1  0.0000000  0.6508444  3
   4909   4920   4923   4926     1  0.0000000  0.6508444  3
   4910   4913   4916   4917     1  180.0000771  0.0000000  2
   4910   4913   4916   4918     1  180.0000771  0.0000000  2
   4910   4909   4920   4923     1  0.0000000  0.6508444  3
   4913   4910   4909   4920     1  0.0000000  0.6508444  3
   4920   4923   4926   4927     1  180.0000771  0.0000000  2
   4920   4923   4926   4928     1  180.0000771  0.0000000  2
   4932   4935   4938   4941     1  0.0000000  0.6508444  3
   4935   4938   4941   4942     1  0.0000000  0.6508444  3
   4935   4938   4941   4952     1  0.0000000  0.6508444  3
   4938   4935   4932   4962     1  0.0000000  0.6508444  3
   4938   4941   4942   4945     1  0.0000000  0.6508444  3
   4938   4941   4952   4955     1  0.0000000  0.6508444  3
   4941   4942   4945   4948     1  0.0000000  0.6508444  3
   4941   4952   4955   4958     1  0.0000000  0.6508444  3
   4942   4941   4952   4955     1  0.0000000  0.6508444  3
   4942   4945   4948   4949     1  180.0000771  0.0000000  2
   4942   4945   4948   4950     1  180.0000771  0.0000000  2
   4945   4942   4941   4952     1  0.0000000  0.6508444  3
   4952   4955   4958   4959     1  180.0000771  0.0000000  2
   4952   4955   4958   4960     1  180.0000771  0.0000000  2
   4964   4967   4970   4973     1  0.0000000  0.6508444  3
   4967   4970   4973   4974     1  0.0000000  0.6508444  3
   4967   4970   4973   4984     1  0.0000000  0.6508444  3
   4970   4973   4974   4977     1  0.0000000  0.6508444  3
   4970   4973   4984   4987     1  0.0000000  0.6508444  3
   4970   4967   4964   4994     1  0.0000000  0.6508444  3
   4973   4974   4977   4980     1  0.0000000  0.6508444  3
   4973   4984   4987   4990     1  0.0000000  0.6508444  3
   4974   4977   4980   4981     1  180.0000771  0.0000000  2
   4974   4977   4980   4982     1  180.0000771  0.0000000  2
   4974   4973   4984   4987     1  0.0000000  0.6508444  3
   4977   4974   4973   4984     1  0.0000000  0.6508444  3
   4984   4987   4990   4991     1  180.0000771  0.0000000  2
   4984   4987   4990   4992     1  180.0000771  0.0000000  2
   4996   4999   5002   5005     1  0.0000000  0.6508444  3
   4999   5002   5005   5006     1  0.0000000  0.6508444  3
   4999   5002   5005   5016     1  0.0000000  0.6508444  3
   5002   4999   4996   5026     1  0.0000000  0.6508444  3
   5002   5005   5006   5009     1  0.0000000  0.6508444  3
   5002   5005   5016   5019     1  0.0000000  0.6508444  3
   5005   5006   5009   5012     1  0.0000000  0.6508444  3
   5005   5016   5019   5022     1  0.0000000  0.6508444  3
   5006   5005   5016   5019     1  0.0000000  0.6508444  3
   5006   5009   5012   5013     1  180.0000771  0.0000000  2
   5006   5009   5012   5014     1  180.0000771  0.0000000  2
   5009   5006   5005   5016     1  0.0000000  0.6508444  3
   5016   5019   5022   5023     1  180.0000771  0.0000000  2
   5016   5019   5022   5024     1  180.0000771  0.0000000  2
   5028   5031   5034   5037     1  0.0000000  0.6508444  3
   5031   5034   5037   5038     1  0.0000000  0.6508444  3
   5031   5034   5037   5048     1  0.0000000  0.6508444  3
   5034   5037   5038   5041     1  0.0000000  0.6508444  3
   5034   5037   5048   5051     1  0.0000000  0.6508444  3
   5034   5031   5028   5058     1  0.0000000  0.6508444  3
   5037   5038   5041   5044     1  0.0000000  0.6508444  3
   5037   5048   5051   5054     1  0.0000000  0.6508444  3
   5038   5041   5044   5045     1  180.0000771  0.0000000  2
   5038   5041   5044   5046     1  180.0000771  0.0000000  2
   5038   5037   5048   5051     1  0.0000000  0.6508444  3
   5041   5038   5037   5048     1  0.0000000  0.6508444  3
   5048   5051   5054   5055     1  180.0000771  0.0000000  2
   5048   5051   5054   5056     1  180.0000771  0.0000000  2
   5060   5063   5066   5069     1  0.0000000  0.6508444  3
   5063   5066   5069   5070     1  0.0000000  0.6508444  3
   5063   5066   5069   5080     1  0.0000000  0.6508444  3
   5066   5063   5060   5090     1  0.0000000  0.6508444  3
   5066   5069   5070   5073     1  0.0000000  0.6508444  3
   5066   5069   5080   5083     1  0.0000000  0.6508444  3
   5069   5070   5073   5076     1  0.0000000  0.6508444  3
   5069   5080   5083   5086     1  0.0000000  0.6508444  3
   5070   5069   5080   5083     1  0.0000000  0.6508444  3
   5070   5073   5076   5077     1  180.0000771  0.0000000  2
   5070   5073   5076   5078     1  180.0000771  0.0000000  2
   5073   5070   5069   5080     1  0.0000000  0.6508444  3
   5080   5083   5086   5087     1  180.0000771  0.0000000  2
   5080   5083   5086   5088     1  180.0000771  0.0000000  2
   5092   5095   5098   5101     1  0.0000000  0.6508444  3
   5095   5098   5101   5102     1  0.0000000  0.6508444  3
   5095   5098   5101   5112     1  0.0000000  0.6508444  3
   5098   5101   5102   5105     1  0.0000000  0.6508444  3
   5098   5101   5112   5115     1  0.0000000  0.6508444  3
   5098   5095   5092   5122     1  0.0000000  0.6508444  3
   5101   5102   5105   5108     1  0.0000000  0.6508444  3
   5101   5112   5115   5118     1  0.0000000  0.6508444  3
   5102   5105   5108   5109     1  180.0000771  0.0000000  2
   5102   5105   5108   5110     1  180.0000771  0.0000000  2
   5102   5101   5112   5115     1  0.0000000  0.6508444  3
   5105   5102   5101   5112     1  0.0000000  0.6508444  3
   5112   5115   5118   5119     1  180.0000771  0.0000000  2
   5112   5115   5118   5120     1  180.0000771  0.0000000  2
   5124   5127   5130   5133     1  0.0000000  0.6508444  3
   5127   5130   5133   5134     1  0.0000000  0.6508444  3
   5127   5130   5133   5144     1  0.0000000  0.6508444  3
   5130   5127   5124   5154     1  0.0000000  0.6508444  3
   5130   5133   5134   5137     1  0.0000000  0.6508444  3
   5130   5133   5144   5147     1  0.0000000  0.6508444  3
   5133   5134   5137   5140     1  0.0000000  0.6508444  3
   5133   5144   5147   5150     1  0.0000000  0.6508444  3
   5134   5133   5144   5147     1  0.0000000  0.6508444  3
   5134   5137   5140   5141     1  180.0000771  0.0000000  2
   5134   5137   5140   5142     1  180.0000771  0.0000000  2
   5137   5134   5133   5144     1  0.0000000  0.6508444  3
   5144   5147   5150   5151     1  180.0000771  0.0000000  2
   5144   5147   5150   5152     1  180.0000771  0.0000000  2
   5156   5159   5162   5165     1  0.0000000  0.6508444  3
   5159   5162   5165   5166     1  0.0000000  0.6508444  3
   5159   5162   5165   5176     1  0.0000000  0.6508444  3
   5162   5165   5166   5169     1  0.0000000  0.6508444  3
   5162   5165   5176   5179     1  0.0000000  0.6508444  3
   5162   5159   5156   5186     1  0.0000000  0.6508444  3
   5165   5166   5169   5172     1  0.0000000  0.6508444  3
   5165   5176   5179   5182     1  0.0000000  0.6508444  3
   5166   5169   5172   5173     1  180.0000771  0.0000000  2
   5166   5169   5172   5174     1  180.0000771  0.0000000  2
   5166   5165   5176   5179     1  0.0000000  0.6508444  3
   5169   5166   5165   5176     1  0.0000000  0.6508444  3
   5176   5179   5182   5183     1  180.0000771  0.0000000  2
   5176   5179   5182   5184     1  180.0000771  0.0000000  2
   5188   5191   5194   5197     1  0.0000000  0.6508444  3
   5191   5194   5197   5198     1  0.0000000  0.6508444  3
   5191   5194   5197   5208     1  0.0000000  0.6508444  3
   5194   5191   5188   5218     1  0.0000000  0.6508444  3
   5194   5197   5198   5201     1  0.0000000  0.6508444  3
   5194   5197   5208   5211     1  0.0000000  0.6508444  3
   5197   5198   5201   5204     1  0.0000000  0.6508444  3
   5197   5208   5211   5214     1  0.0000000  0.6508444  3
   5198   5197   5208   5211     1  0.0000000  0.6508444  3
   5198   5201   5204   5205     1  180.0000771  0.0000000  2
   5198   5201   5204   5206     1  180.0000771  0.0000000  2
   5201   5198   5197   5208     1  0.0000000  0.6508444  3
   5208   5211   5214   5215     1  180.0000771  0.0000000  2
   5208   5211   5214   5216     1  180.0000771  0.0000000  2
   5220   5223   5226   5229     1  0.0000000  0.6508444  3
   5223   5226   5229   5230     1  0.0000000  0.6508444  3
   5223   5226   5229   5240     1  0.0000000  0.6508444  3
   5226   5229   5230   5233     1  0.0000000  0.6508444  3
   5226   5229   5240   5243     1  0.0000000  0.6508444  3
   5226   5223   5220   5250     1  0.0000000  0.6508444  3
   5229   5230   5233   5236     1  0.0000000  0.6508444  3
   5229   5240   5243   5246     1  0.0000000  0.6508444  3
   5230   5233   5236   5237     1  180.0000771  0.0000000  2
   5230   5233   5236   5238     1  180.0000771  0.0000000  2
   5230   5229   5240   5243     1  0.0000000  0.6508444  3
   5233   5230   5229   5240     1  0.0000000  0.6508444  3
   5240   5243   5246   5247     1  180.0000771  0.0000000  2
   5240   5243   5246   5248     1  180.0000771  0.0000000  2
   5252   5255   5258   5261     1  0.0000000  0.6508444  3
   5255   5258   5261   5262     1  0.0000000  0.6508444  3
   5255   5258   5261   5272     1  0.0000000  0.6508444  3
   5258   5255   5252   5282     1  0.0000000  0.6508444  3
   5258   5261   5262   5265     1  0.0000000  0.6508444  3
   5258   5261   5272   5275     1  0.0000000  0.6508444  3
   5261   5262   5265   5268     1  0.0000000  0.6508444  3
   5261   5272   5275   5278     1  0.0000000  0.6508444  3
   5262   5261   5272   5275     1  0.0000000  0.6508444  3
   5262   5265   5268   5269     1  180.0000771  0.0000000  2
   5262   5265   5268   5270     1  180.0000771  0.0000000  2
   5265   5262   5261   5272     1  0.0000000  0.6508444  3
   5272   5275   5278   5279     1  180.0000771  0.0000000  2
   5272   5275   5278   5280     1  180.0000771  0.0000000  2
   5284   5287   5290   5293     1  0.0000000  0.6508444  3
   5287   5290   5293   5294     1  0.0000000  0.6508444  3
   5287   5290   5293   5304     1  0.0000000  0.6508444  3
   5290   5293   5294   5297     1  0.0000000  0.6508444  3
   5290   5293   5304   5307     1  0.0000000  0.6508444  3
   5290   5287   5284   5314     1  0.0000000  0.6508444  3
   5293   5294   5297   5300     1  0.0000000  0.6508444  3
   5293   5304   5307   5310     1  0.0000000  0.6508444  3
   5294   5297   5300   5301     1  180.0000771  0.0000000  2
   5294   5297   5300   5302     1  180.0000771  0.0000000  2
   5294   5293   5304   5307     1  0.0000000  0.6508444  3
   5297   5294   5293   5304     1  0.0000000  0.6508444  3
   5304   5307   5310   5311     1  180.0000771  0.0000000  2
   5304   5307   5310   5312     1  180.0000771  0.0000000  2
   5316   5319   5322   5325     1  0.0000000  0.6508444  3
   5319   5322   5325   5326     1  0.0000000  0.6508444  3
   5319   5322   5325   5336     1  0.0000000  0.6508444  3
   5322   5319   5316   5346     1  0.0000000  0.6508444  3
   5322   5325   5326   5329     1  0.0000000  0.6508444  3
   5322   5325   5336   5339     1  0.0000000  0.6508444  3
   5325   5326   5329   5332     1  0.0000000  0.6508444  3
   5325   5336   5339   5342     1  0.0000000  0.6508444  3
   5326   5325   5336   5339     1  0.0000000  0.6508444  3
   5326   5329   5332   5333     1  180.0000771  0.0000000  2
   5326   5329   5332   5334     1  180.0000771  0.0000000  2
   5329   5326   5325   5336     1  0.0000000  0.6508444  3
   5336   5339   5342   5343     1  180.0000771  0.0000000  2
   5336   5339   5342   5344     1  180.0000771  0.0000000  2
   5348   5351   5354   5357     1  0.0000000  0.6508444  3
   5351   5354   5357   5358     1  0.0000000  0.6508444  3
   5351   5354   5357   5368     1  0.0000000  0.6508444  3
   5354   5357   5358   5361     1  0.0000000  0.6508444  3
   5354   5357   5368   5371     1  0.0000000  0.6508444  3
   5354   5351   5348   5378     1  0.0000000  0.6508444  3
   5357   5358   5361   5364     1  0.0000000  0.6508444  3
   5357   5368   5371   5374     1  0.0000000  0.6508444  3
   5358   5361   5364   5365     1  180.0000771  0.0000000  2
   5358   5361   5364   5366     1  180.0000771  0.0000000  2
   5358   5357   5368   5371     1  0.0000000  0.6508444  3
   5361   5358   5357   5368     1  0.0000000  0.6508444  3
   5368   5371   5374   5375     1  180.0000771  0.0000000  2
   5368   5371   5374   5376     1  180.0000771  0.0000000  2
   5380   5383   5386   5389     1  0.0000000  0.6508444  3
   5383   5386   5389   5390     1  0.0000000  0.6508444  3
   5383   5386   5389   5400     1  0.0000000  0.6508444  3
   5386   5383   5380   5410     1  0.0000000  0.6508444  3
   5386   5389   5390   5393     1  0.0000000  0.6508444  3
   5386   5389   5400   5403     1  0.0000000  0.6508444  3
   5389   5390   5393   5396     1  0.0000000  0.6508444  3
   5389   5400   5403   5406     1  0.0000000  0.6508444  3
   5390   5389   5400   5403     1  0.0000000  0.6508444  3
   5390   5393   5396   5397     1  180.0000771  0.0000000  2
   5390   5393   5396   5398     1  180.0000771  0.0000000  2
   5393   5390   5389   5400     1  0.0000000  0.6508444  3
   5400   5403   5406   5407     1  180.0000771  0.0000000  2
   5400   5403   5406   5408     1  180.0000771  0.0000000  2
   5412   5415   5418   5421     1  0.0000000  0.6508444  3
   5415   5418   5421   5422     1  0.0000000  0.6508444  3
   5415   5418   5421   5432     1  0.0000000  0.6508444  3
   5418   5421   5422   5425     1  0.0000000  0.6508444  3
   5418   5421   5432   5435     1  0.0000000  0.6508444  3
   5418   5415   5412   5442     1  0.0000000  0.6508444  3
   5421   5422   5425   5428     1  0.0000000  0.6508444  3
   5421   5432   5435   5438     1  0.0000000  0.6508444  3
   5422   5425   5428   5429     1  180.0000771  0.0000000  2
   5422   5425   5428   5430     1  180.0000771  0.0000000  2
   5422   5421   5432   5435     1  0.0000000  0.6508444  3
   5425   5422   5421   5432     1  0.0000000  0.6508444  3
   5432   5435   5438   5439     1  180.0000771  0.0000000  2
   5432   5435   5438   5440     1  180.0000771  0.0000000  2
   5444   5447   5450   5453     1  0.0000000  0.6508444  3
   5447   5450   5453   5454     1  0.0000000  0.6508444  3
   5447   5450   5453   5464     1  0.0000000  0.6508444  3
   5450   5447   5444   5474     1  0.0000000  0.6508444  3
   5450   5453   5454   5457     1  0.0000000  0.6508444  3
   5450   5453   5464   5467     1  0.0000000  0.6508444  3
   5453   5454   5457   5460     1  0.0000000  0.6508444  3
   5453   5464   5467   5470     1  0.0000000  0.6508444  3
   5454   5453   5464   5467     1  0.0000000  0.6508444  3
   5454   5457   5460   5461     1  180.0000771  0.0000000  2
   5454   5457   5460   5462     1  180.0000771  0.0000000  2
   5457   5454   5453   5464     1  0.0000000  0.6508444  3
   5464   5467   5470   5471     1  180.0000771  0.0000000  2
   5464   5467   5470   5472     1  180.0000771  0.0000000  2
   5476   5479   5482   5485     1  0.0000000  0.6508444  3
   5479   5482   5485   5486     1  0.0000000  0.6508444  3
   5479   5482   5485   5496     1  0.0000000  0.6508444  3
   5482   5485   5486   5489     1  0.0000000  0.6508444  3
   5482   5485   5496   5499     1  0.0000000  0.6508444  3
   5482   5479   5476   5506     1  0.0000000  0.6508444  3
   5485   5486   5489   5492     1  0.0000000  0.6508444  3
   5485   5496   5499   5502     1  0.0000000  0.6508444  3
   5486   5489   5492   5493     1  180.0000771  0.0000000  2
   5486   5489   5492   5494     1  180.0000771  0.0000000  2
   5486   5485   5496   5499     1  0.0000000  0.6508444  3
   5489   5486   5485   5496     1  0.0000000  0.6508444  3
   5496   5499   5502   5503     1  180.0000771  0.0000000  2
   5496   5499   5502   5504     1  180.0000771  0.0000000  2
   5508   5511   5514   5517     1  0.0000000  0.6508444  3
   5511   5514   5517   5518     1  0.0000000  0.6508444  3
   5511   5514   5517   5528     1  0.0000000  0.6508444  3
   5514   5511   5508   5538     1  0.0000000  0.6508444  3
   5514   5517   5518   5521     1  0.0000000  0.6508444  3
   5514   5517   5528   5531     1  0.0000000  0.6508444  3
   5517   5518   5521   5524     1  0.0000000  0.6508444  3
   5517   5528   5531   5534     1  0.0000000  0.6508444  3
   5518   5517   5528   5531     1  0.0000000  0.6508444  3
   5518   5521   5524   5525     1  180.0000771  0.0000000  2
   5518   5521   5524   5526     1  180.0000771  0.0000000  2
   5521   5518   5517   5528     1  0.0000000  0.6508444  3
   5528   5531   5534   5535     1  180.0000771  0.0000000  2
   5528   5531   5534   5536     1  180.0000771  0.0000000  2
   5540   5543   5546   5549     1  0.0000000  0.6508444  3
   5543   5546   5549   5550     1  0.0000000  0.6508444  3
   5543   5546   5549   5560     1  0.0000000  0.6508444  3
   5546   5549   5550   5553     1  0.0000000  0.6508444  3
   5546   5549   5560   5563     1  0.0000000  0.6508444  3
   5546   5543   5540   5570     1  0.0000000  0.6508444  3
   5549   5550   5553   5556     1  0.0000000  0.6508444  3
   5549   5560   5563   5566     1  0.0000000  0.6508444  3
   5550   5553   5556   5557     1  180.0000771  0.0000000  2
   5550   5553   5556   5558     1  180.0000771  0.0000000  2
   5550   5549   5560   5563     1  0.0000000  0.6508444  3
   5553   5550   5549   5560     1  0.0000000  0.6508444  3
   5560   5563   5566   5567     1  180.0000771  0.0000000  2
   5560   5563   5566   5568     1  180.0000771  0.0000000  2
   5572   5575   5578   5581     1  0.0000000  0.6508444  3
   5575   5578   5581   5582     1  0.0000000  0.6508444  3
   5575   5578   5581   5592     1  0.0000000  0.6508444  3
   5578   5575   5572   5602     1  0.0000000  0.6508444  3
   5578   5581   5582   5585     1  0.0000000  0.6508444  3
   5578   5581   5592   5595     1  0.0000000  0.6508444  3
   5581   5582   5585   5588     1  0.0000000  0.6508444  3
   5581   5592   5595   5598     1  0.0000000  0.6508444  3
   5582   5581   5592   5595     1  0.0000000  0.6508444  3
   5582   5585   5588   5589     1  180.0000771  0.0000000  2
   5582   5585   5588   5590     1  180.0000771  0.0000000  2
   5585   5582   5581   5592     1  0.0000000  0.6508444  3
   5592   5595   5598   5599     1  180.0000771  0.0000000  2
   5592   5595   5598   5600     1  180.0000771  0.0000000  2
   5604   5607   5610   5613     1  0.0000000  0.6508444  3
   5607   5610   5613   5614     1  0.0000000  0.6508444  3
   5607   5610   5613   5624     1  0.0000000  0.6508444  3
   5610   5613   5614   5617     1  0.0000000  0.6508444  3
   5610   5613   5624   5627     1  0.0000000  0.6508444  3
   5610   5607   5604   5634     1  0.0000000  0.6508444  3
   5613   5614   5617   5620     1  0.0000000  0.6508444  3
   5613   5624   5627   5630     1  0.0000000  0.6508444  3
   5614   5617   5620   5621     1  180.0000771  0.0000000  2
   5614   5617   5620   5622     1  180.0000771  0.0000000  2
   5614   5613   5624   5627     1  0.0000000  0.6508444  3
   5617   5614   5613   5624     1  0.0000000  0.6508444  3
   5624   5627   5630   5631     1  180.0000771  0.0000000  2
   5624   5627   5630   5632     1  180.0000771  0.0000000  2
   5636   5639   5642   5645     1  0.0000000  0.6508444  3
   5639   5642   5645   5646     1  0.0000000  0.6508444  3
   5639   5642   5645   5656     1  0.0000000  0.6508444  3
   5642   5639   5636   5666     1  0.0000000  0.6508444  3
   5642   5645   5646   5649     1  0.0000000  0.6508444  3
   5642   5645   5656   5659     1  0.0000000  0.6508444  3
   5645   5646   5649   5652     1  0.0000000  0.6508444  3
   5645   5656   5659   5662     1  0.0000000  0.6508444  3
   5646   5645   5656   5659     1  0.0000000  0.6508444  3
   5646   5649   5652   5653     1  180.0000771  0.0000000  2
   5646   5649   5652   5654     1  180.0000771  0.0000000  2
   5649   5646   5645   5656     1  0.0000000  0.6508444  3
   5656   5659   5662   5663     1  180.0000771  0.0000000  2
   5656   5659   5662   5664     1  180.0000771  0.0000000  2
   5668   5671   5674   5677     1  0.0000000  0.6508444  3
   5671   5674   5677   5678     1  0.0000000  0.6508444  3
   5671   5674   5677   5688     1  0.0000000  0.6508444  3
   5674   5677   5678   5681     1  0.0000000  0.6508444  3
   5674   5677   5688   5691     1  0.0000000  0.6508444  3
   5674   5671   5668   5698     1  0.0000000  0.6508444  3
   5677   5678   5681   5684     1  0.0000000  0.6508444  3
   5677   5688   5691   5694     1  0.0000000  0.6508444  3
   5678   5681   5684   5685     1  180.0000771  0.0000000  2
   5678   5681   5684   5686     1  180.0000771  0.0000000  2
   5678   5677   5688   5691     1  0.0000000  0.6508444  3
   5681   5678   5677   5688     1  0.0000000  0.6508444  3
   5688   5691   5694   5695     1  180.0000771  0.0000000  2
   5688   5691   5694   5696     1  180.0000771  0.0000000  2
   5700   5703   5706   5709     1  0.0000000  0.6508444  3
   5703   5706   5709   5710     1  0.0000000  0.6508444  3
   5703   5706   5709   5720     1  0.0000000  0.6508444  3
   5706   5703   5700   5730     1  0.0000000  0.6508444  3
   5706   5709   5710   5713     1  0.0000000  0.6508444  3
   5706   5709   5720   5723     1  0.0000000  0.6508444  3
   5709   5710   5713   5716     1  0.0000000  0.6508444  3
   5709   5720   5723   5726     1  0.0000000  0.6508444  3
   5710   5709   5720   5723     1  0.0000000  0.6508444  3
   5710   5713   5716   5717     1  180.0000771  0.0000000  2
   5710   5713   5716   5718     1  180.0000771  0.0000000  2
   5713   5710   5709   5720     1  0.0000000  0.6508444  3
   5720   5723   5726   5727     1  180.0000771  0.0000000  2
   5720   5723   5726   5728     1  180.0000771  0.0000000  2
   5732   5735   5738   5741     1  0.0000000  0.6508444  3
   5735   5738   5741   5742     1  0.0000000  0.6508444  3
   5735   5738   5741   5752     1  0.0000000  0.6508444  3
   5738   5741   5742   5745     1  0.0000000  0.6508444  3
   5738   5741   5752   5755     1  0.0000000  0.6508444  3
   5738   5735   5732   5762     1  0.0000000  0.6508444  3
   5741   5742   5745   5748     1  0.0000000  0.6508444  3
   5741   5752   5755   5758     1  0.0000000  0.6508444  3
   5742   5745   5748   5749     1  180.0000771  0.0000000  2
   5742   5745   5748   5750     1  180.0000771  0.0000000  2
   5742   5741   5752   5755     1  0.0000000  0.6508444  3
   5745   5742   5741   5752     1  0.0000000  0.6508444  3
   5752   5755   5758   5759     1  180.0000771  0.0000000  2
   5752   5755   5758   5760     1  180.0000771  0.0000000  2
   5764   5767   5770   5773     1  0.0000000  0.6508444  3
   5767   5770   5773   5774     1  0.0000000  0.6508444  3
   5767   5770   5773   5784     1  0.0000000  0.6508444  3
   5770   5767   5764   5794     1  0.0000000  0.6508444  3
   5770   5773   5774   5777     1  0.0000000  0.6508444  3
   5770   5773   5784   5787     1  0.0000000  0.6508444  3
   5773   5774   5777   5780     1  0.0000000  0.6508444  3
   5773   5784   5787   5790     1  0.0000000  0.6508444  3
   5774   5773   5784   5787     1  0.0000000  0.6508444  3
   5774   5777   5780   5781     1  180.0000771  0.0000000  2
   5774   5777   5780   5782     1  180.0000771  0.0000000  2
   5777   5774   5773   5784     1  0.0000000  0.6508444  3
   5784   5787   5790   5791     1  180.0000771  0.0000000  2
   5784   5787   5790   5792     1  180.0000771  0.0000000  2
   5796   5799   5802   5805     1  0.0000000  0.6508444  3
   5799   5802   5805   5806     1  0.0000000  0.6508444  3
   5799   5802   5805   5816     1  0.0000000  0.6508444  3
   5802   5805   5806   5809     1  0.0000000  0.6508444  3
   5802   5805   5816   5819     1  0.0000000  0.6508444  3
   5802   5799   5796   5826     1  0.0000000  0.6508444  3
   5805   5806   5809   5812     1  0.0000000  0.6508444  3
   5805   5816   5819   5822     1  0.0000000  0.6508444  3
   5806   5809   5812   5813     1  180.0000771  0.0000000  2
   5806   5809   5812   5814     1  180.0000771  0.0000000  2
   5806   5805   5816   5819     1  0.0000000  0.6508444  3
   5809   5806   5805   5816     1  0.0000000  0.6508444  3
   5816   5819   5822   5823     1  180.0000771  0.0000000  2
   5816   5819   5822   5824     1  180.0000771  0.0000000  2
   5828   5831   5834   5837     1  0.0000000  0.6508444  3
   5831   5834   5837   5838     1  0.0000000  0.6508444  3
   5831   5834   5837   5848     1  0.0000000  0.6508444  3
   5834   5831   5828   5858     1  0.0000000  0.6508444  3
   5834   5837   5838   5841     1  0.0000000  0.6508444  3
   5834   5837   5848   5851     1  0.0000000  0.6508444  3
   5837   5838   5841   5844     1  0.0000000  0.6508444  3
   5837   5848   5851   5854     1  0.0000000  0.6508444  3
   5838   5837   5848   5851     1  0.0000000  0.6508444  3
   5838   5841   5844   5845     1  180.0000771  0.0000000  2
   5838   5841   5844   5846     1  180.0000771  0.0000000  2
   5841   5838   5837   5848     1  0.0000000  0.6508444  3
   5848   5851   5854   5855     1  180.0000771  0.0000000  2
   5848   5851   5854   5856     1  180.0000771  0.0000000  2
   5860   5863   5866   5869     1  0.0000000  0.6508444  3
   5863   5866   5869   5870     1  0.0000000  0.6508444  3
   5863   5866   5869   5880     1  0.0000000  0.6508444  3
   5866   5869   5870   5873     1  0.0000000  0.6508444  3
   5866   5869   5880   5883     1  0.0000000  0.6508444  3
   5866   5863   5860   5890     1  0.0000000  0.6508444  3
   5869   5870   5873   5876     1  0.0000000  0.6508444  3
   5869   5880   5883   5886     1  0.0000000  0.6508444  3
   5870   5873   5876   5877     1  180.0000771  0.0000000  2
   5870   5873   5876   5878     1  180.0000771  0.0000000  2
   5870   5869   5880   5883     1  0.0000000  0.6508444  3
   5873   5870   5869   5880     1  0.0000000  0.6508444  3
   5880   5883   5886   5887     1  180.0000771  0.0000000  2
   5880   5883   5886   5888     1  180.0000771  0.0000000  2
   2833   2837   2836   2838     4  180.0000771  4.6024000  2
   2843   2847   2846   2848     4  180.0000771  4.6024000  2
   2865   2869   2868   2870     4  180.0000771  4.6024000  2
   2875   2879   2878   2880     4  180.0000771  4.6024000  2
   2897   2901   2900   2902     4  180.0000771  4.6024000  2
   2907   2911   2910   2912     4  180.0000771  4.6024000  2
   2929   2933   2932   2934     4  180.0000771  4.6024000  2
   2939   2943   2942   2944     4  180.0000771  4.6024000  2
   2961   2965   2964   2966     4  180.0000771  4.6024000  2
   2971   2975   2974   2976     4  180.0000771  4.6024000  2
   2993   2997   2996   2998     4  180.0000771  4.6024000  2
   3003   3007   3006   3008     4  180.0000771  4.6024000  2
   3025   3029   3028   3030     4  180.0000771  4.6024000  2
   3035   3039   3038   3040     4  180.0000771  4.6024000  2
   3057   3061   3060   3062     4  180.0000771  4.6024000  2
   3067   3071   3070   3072     4  180.0000771  4.6024000  2
   3089   3093   3092   3094     4  180.0000771  4.6024000  2
   3099   3103   3102   3104     4  180.0000771  4.6024000  2
   3121   3125   3124   3126     4  180.0000771  4.6024000  2
   3131   3135   3134   3136     4  180.0000771  4.6024000  2
   3153   3157   3156   3158     4  180.0000771  4.6024000  2
   3163   3167   3166   3168     4  180.0000771  4.6024000  2
   3185   3189   3188   3190     4  180.0000771  4.6024000  2
   3195   3199   3198   3200     4  180.0000771  4.6024000  2
   3217   3221   3220   3222     4  180.0000771  4.6024000  2
   3227   3231   3230   3232     4  180.0000771  4.6024000  2
   3249   3253   3252   3254     4  180.0000771  4.6024000  2
   3259   3263   3262   3264     4  180.0000771  4.6024000  2
   3281   3285   3284   3286     4  180.0000771  4.6024000  2
   3291   3295   3294   3296     4  180.0000771  4.6024000  2
   3313   3317   3316   3318     4  180.0000771  4.6024000  2
   3323   3327   3326   3328     4  180.0000771  4.6024000  2
   3345   3349   3348   3350     4  180.0000771  4.6024000  2
   3355   3359   3358   3360     4  180.0000771  4.6024000  2
   3377   3381   3380   3382     4  180.0000771  4.6024000  2
   3387   3391   3390   3392     4  180.0000771  4.6024000  2
   3409   3413   3412   3414     4  180.0000771  4.6024000  2
   3419   3423   3422   3424     4  180.0000771  4.6024000  2
   3441   3445   3444   3446     4  180.0000771  4.6024000  2
   3451   3455   3454   3456     4  180.0000771  4.6024000  2
   3473   3477   3476   3478     4  180.0000771  4.6024000  2
   3483   3487   3486   3488     4  180.0000771  4.6024000  2
   3505   3509   3508   3510     4  180.0000771  4.6024000  2
   3515   3519   3518   3520     4  180.0000771  4.6024000  2
   3537   3541   3540   3542     4  180.0000771  4.6024000  2
   3547   3551   3550   3552     4  180.0000771  4.6024000  2
   3569   3573   3572   3574     4  180.0000771  4.6024000  2
   3579   3583   3582   3584     4  180.0000771  4.6024000  2
   3601   3605   3604   3606     4  180.0000771  4.6024000  2
   3611   3615   3614   3616     4  180.0000771  4.6024000  2
   3633   3637   3636   3638     4  180.0000771  4.6024000  2
   3643   3647   3646   3648     4  180.0000771  4.6024000  2
   3665   3669   3668   3670     4  180.0000771  4.6024000  2
   3675   3679   3678   3680     4  180.0000771  4.6024000  2
   3697   3701   3700   3702     4  180.0000771  4.6024000  2
   3707   3711   3710   3712     4  180.0000771  4.6024000  2
   3729   3733   3732   3734     4  180.0000771  4.6024000  2
   3739   3743   3742   3744     4  180.0000771  4.6024000  2
   3761   3765   3764   3766     4  180.0000771  4.6024000  2
   3771   3775   3774   3776     4  180.0000771  4.6024000  2
   3793   3797   3796   3798     4  180.0000771  4.6024000  2
   3803   3807   3806   3808     4  180.0000771  4.6024000  2
   3825   3829   3828   3830     4  180.0000771  4.6024000  2
   3835   3839   3838   3840     4  180.0000771  4.6024000  2
   3857   3861   3860   3862     4  180.0000771  4.6024000  2
   3867   3871   3870   3872     4  180.0000771  4.6024000  2
   3889   3893   3892   3894     4  180.0000771  4.6024000  2
   3899   3903   3902   3904     4  180.0000771  4.6024000  2
   3921   3925   3924   3926     4  180.0000771  4.6024000  2
   3931   3935   3934   3936     4  180.0000771  4.6024000  2
   3953   3957   3956   3958     4  180.0000771  4.6024000  2
   3963   3967   3966   3968     4  180.0000771  4.6024000  2
   3985   3989   3988   3990     4  180.0000771  4.6024000  2
   3995   3999   3998   4000     4  180.0000771  4.6024000  2
   4017   4021   4020   4022     4  180.0000771  4.6024000  2
   4027   4031   4030   4032     4  180.0000771  4.6024000  2
   4049   4053   4052   4054     4  180.0000771  4.6024000  2
   4059   4063   4062   4064     4  180.0000771  4.6024000  2
   4081   4085   4084   4086     4  180.0000771  4.6024000  2
   4091   4095   4094   4096     4  180.0000771  4.6024000  2
   4113   4117   4116   4118     4  180.0000771  4.6024000  2
   4123   4127   4126   4128     4  180.0000771  4.6024000  2
   4145   4149   4148   4150     4  180.0000771  4.6024000  2
   4155   4159   4158   4160     4  180.0000771  4.6024000  2
   4177   4181   4180   4182     4  180.0000771  4.6024000  2
   4187   4191   4190   4192     4  180.0000771  4.6024000  2
   4209   4213   4212   4214     4  180.0000771  4.6024000  2
   4219   4223   4222   4224     4  180.0000771  4.6024000  2
   4241   4245   4244   4246     4  180.0000771  4.6024000  2
   4251   4255   4254   4256     4  180.0000771  4.6024000  2
   4273   4277   4276   4278     4  180.0000771  4.6024000  2
   4283   4287   4286   4288     4  180.0000771  4.6024000  2
   4305   4309   4308   4310     4  180.0000771  4.6024000  2
   4315   4319   4318   4320     4  180.0000771  4.6024000  2
   4337   4341   4340   4342     4  180.0000771  4.6024000  2
   4347   4351   4350   4352     4  180.0000771  4.6024000  2
   4369   4373   4372   4374     4  180.0000771  4.6024000  2
   4379   4383   4382   4384     4  180.0000771  4.6024000  2
   4401   4405   4404   4406     4  180.0000771  4.6024000  2
   4411   4415   4414   4416     4  180.0000771  4.6024000  2
   4433   4437   4436   4438     4  180.0000771  4.6024000  2
   4443   4447   4446   4448     4  180.0000771  4.6024000  2
   4465   4469   4468   4470     4  180.0000771  4.6024000  2
   4475   4479   4478   4480     4  180.0000771  4.6024000  2
   4497   4501   4500   4502     4  180.0000771  4.6024000  2
   4507   4511   4510   4512     4  180.0000771  4.6024000  2
   4529   4533   4532   4534     4  180.0000771  4.6024000  2
   4539   4543   4542   4544     4  180.0000771  4.6024000  2
   4561   4565   4564   4566     4  180.0000771  4.6024000  2
   4571   4575   4574   4576     4  180.0000771  4.6024000  2
   4593   4597   4596   4598     4  180.0000771  4.6024000  2
   4603   4607   4606   4608     4  180.0000771  4.6024000  2
   4625   4629   4628   4630     4  180.0000771  4.6024000  2
   4635   4639   4638   4640     4  180.0000771  4.6024000  2
   4657   4661   4660   4662     4  180.0000771  4.6024000  2
   4667   4671   4670   4672     4  180.0000771  4.6024000  2
   4689   4693   4692   4694     4  180.0000771  4.6024000  2
   4699   4703   4702   4704     4  180.0000771  4.6024000  2
   4721   4725   4724   4726     4  180.0000771  4.6024000  2
   4731   4735   4734   4736     4  180.0000771  4.6024000  2
   4753   4757   4756   4758     4  180.0000771  4.6024000  2
   4763   4767   4766   4768     4  180.0000771  4.6024000  2
   4785   4789   4788   4790     4  180.0000771  4.6024000  2
   4795   4799   4798   4800     4  180.0000771  4.6024000  2
   4817   4821   4820   4822     4  180.0000771  4.6024000  2
   4827   4831   4830   4832     4  180.0000771  4.6024000  2
   4849   4853   4852   4854     4  180.0000771  4.6024000  2
   4859   4863   4862   4864     4  180.0000771  4.6024000  2
   4881   4885   4884   4886     4  180.0000771  4.6024000  2
   4891   4895   4894   4896     4  180.0000771  4.6024000  2
   4913   4917   4916   4918     4  180.0000771  4.6024000  2
   4923   4927   4926   4928     4  180.0000771  4.6024000  2
   4945   4949   4948   4950     4  180.0000771  4.6024000  2
   4955   4959   4958   4960     4  180.0000771  4.6024000  2
   4977   4981   4980   4982     4  180.0000771  4.6024000  2
   4987   4991   4990   4992     4  180.0000771  4.6024000  2
   5009   5013   5012   5014     4  180.0000771  4.6024000  2
   5019   5023   5022   5024     4  180.0000771  4.6024000  2
   5041   5045   5044   5046     4  180.0000771  4.6024000  2
   5051   5055   5054   5056     4  180.0000771  4.6024000  2
   5073   5077   5076   5078     4  180.0000771  4.6024000  2
   5083   5087   5086   5088     4  180.0000771  4.6024000  2
   5105   5109   5108   5110     4  180.0000771  4.6024000  2
   5115   5119   5118   5120     4  180.0000771  4.6024000  2
   5137   5141   5140   5142     4  180.0000771  4.6024000  2
   5147   5151   5150   5152     4  180.0000771  4.6024000  2
   5169   5173   5172   5174     4  180.0000771  4.6024000  2
   5179   5183   5182   5184     4  180.0000771  4.6024000  2
   5201   5205   5204   5206     4  180.0000771  4.6024000  2
   5211   5215   5214   5216     4  180.0000771  4.6024000  2
   5233   5237   5236   5238     4  180.0000771  4.6024000  2
   5243   5247   5246   5248     4  180.0000771  4.6024000  2
   5265   5269   5268   5270     4  180.0000771  4.6024000  2
   5275   5279   5278   5280     4  180.0000771  4.6024000  2
   5297   5301   5300   5302     4  180.0000771  4.6024000  2
   5307   5311   5310   5312     4  180.0000771  4.6024000  2
   5329   5333   5332   5334     4  180.0000771  4.6024000  2
   5339   5343   5342   5344     4  180.0000771  4.6024000  2
   5361   5365   5364   5366     4  180.0000771  4.6024000  2
   5371   5375   5374   5376     4  180.0000771  4.6024000  2
   5393   5397   5396   5398     4  180.0000771  4.6024000  2
   5403   5407   5406   5408     4  180.0000771  4.6024000  2
   5425   5429   5428   5430     4  180.0000771  4.6024000  2
   5435   5439   5438   5440     4  180.0000771  4.6024000  2
   5457   5461   5460   5462     4  180.0000771  4.6024000  2
   5467   5471   5470   5472     4  180.0000771  4.6024000  2
   5489   5493   5492   5494     4  180.0000771  4.6024000  2
   5499   5503   5502   5504     4  180.0000771  4.6024000  2
   5521   5525   5524   5526     4  180.0000771  4.6024000  2
   5531   5535   5534   5536     4  180.0000771  4.6024000  2
   5553   5557   5556   5558     4  180.0000771  4.6024000  2
   5563   5567   5566   5568     4  180.0000771  4.6024000  2
   5585   5589   5588   5590     4  180.0000771  4.6024000  2
   5595   5599   5598   5600     4  180.0000771  4.6024000  2
   5617   5621   5620   5622     4  180.0000771  4.6024000  2
   5627   5631   5630   5632     4  180.0000771  4.6024000  2
   5649   5653   5652   5654     4  180.0000771  4.6024000  2
   5659   5663   5662   5664     4  180.0000771  4.6024000  2
   5681   5685   5684   5686     4  180.0000771  4.6024000  2
   5691   5695   5694   5696     4  180.0000771  4.6024000  2
   5713   5717   5716   5718     4  180.0000771  4.6024000  2
   5723   5727   5726   5728     4  180.0000771  4.6024000  2
   5745   5749   5748   5750     4  180.0000771  4.6024000  2
   5755   5759   5758   5760     4  180.0000771  4.6024000  2
   5777   5781   5780   5782     4  180.0000771  4.6024000  2
   5787   5791   5790   5792     4  180.0000771  4.6024000  2
   5809   5813   5812   5814     4  180.0000771  4.6024000  2
   5819   5823   5822   5824     4  180.0000771  4.6024000  2
   5841   5845   5844   5846     4  180.0000771  4.6024000  2
   5851   5855   5854   5856     4  180.0000771  4.6024000  2
   5873   5877   5876   5878     4  180.0000771  4.6024000  2
   5883   5887   5886   5888     4  180.0000771  4.6024000  2
      1      2     14     15     1  0.0000000  0.6508444  3
      1      2     14     16     1  0.0000000  0.6508444  3
      1      5     17     18     1  0.0000000  0.6508444  3
      1      5     17     19     1  0.0000000  0.6508444  3
      1      8     11     12     1  0.0000000  0.6508444  3
      1      8     11     13     1  0.0000000  0.6508444  3
      2      1      5      6     1  0.0000000  0.6508444  3
      2      1      5      7     1  0.0000000  0.6508444  3
      2      1      8      9     1  0.0000000  0.6508444  3
      2      1      8     10     1  0.0000000  0.6508444  3
      2     14     26     27     1  0.0000000  0.6508444  3
      2     14     26     28     1  0.0000000  0.6508444  3
      5      1      2      3     1  0.0000000  0.6508444  3
      8      1      2      3     1  0.0000000  0.6508444  3
     29      1      2      3     1  0.0000000  0.6508444  3
      3      2     14     26     1  0.0000000  0.6508444  3
      3      2     14     15     1  0.0000000  0.6508444  3
      3      2     14     16     1  0.0000000  0.6508444  3
      5      1      2      4     1  0.0000000  0.6508444  3
      8      1      2      4     1  0.0000000  0.6508444  3
     29      1      2      4     1  0.0000000  0.6508444  3
      4      2     14     26     1  0.0000000  0.6508444  3
      4      2     14     15     1  0.0000000  0.6508444  3
      4      2     14     16     1  0.0000000  0.6508444  3
      5      1      8      9     1  0.0000000  0.6508444  3
      5      1      8     10     1  0.0000000  0.6508444  3
      5     17     20     21     1  0.0000000  0.6508444  3
      5     17     20     22     1  0.0000000  0.6508444  3
      8      1      5      6     1  0.0000000  0.6508444  3
     29      1      5      6     1  0.0000000  0.6508444  3
      6      5     17     20     1  0.0000000  0.6508444  3
      6      5     17     18     1  0.0000000  0.6508444  3
      6      5     17     19     1  0.0000000  0.6508444  3
      8      1      5      7     1  0.0000000  0.6508444  3
     29      1      5      7     1  0.0000000  0.6508444  3
      7      5     17     20     1  0.0000000  0.6508444  3
      7      5     17     18     1  0.0000000  0.6508444  3
      7      5     17     19     1  0.0000000  0.6508444  3
      8     11     23     24     1  0.0000000  0.6508444  3
      8     11     23     25     1  0.0000000  0.6508444  3
     29      1      8      9     1  0.0000000  0.6508444  3
      9      8     11     23     1  0.0000000  0.6508444  3
      9      8     11     12     1  0.0000000  0.6508444  3
      9      8     11     13     1  0.0000000  0.6508444  3
     29      1      8     10     1  0.0000000  0.6508444  3
     10      8     11     23     1  0.0000000  0.6508444  3
     10      8     11     12     1  0.0000000  0.6508444  3
     10      8     11     13     1  0.0000000  0.6508444  3
     29      1      8     11     1  0.0000000  0.6508444  3
     12     11     23     88     1  0.0000000  1.0460000  1
     12     11     23     88     1  0.0000000  0.0000000  3
     12     11     23     24     1  0.0000000  0.6508444  3
     12     11     23     25     1  0.0000000  0.6508444  3
     13     11     23     88     1  0.0000000  1.0460000  1
     13     11     23     88     1  0.0000000  0.0000000  3
     13     11     23     24     1  0.0000000  0.6508444  3
     13     11     23     25     1  0.0000000  0.6508444  3
     29      1      2     14     1  0.0000000  0.6508444  3
     15     14     26    118     1  0.0000000  1.0460000  1
     15     14     26    118     1  0.0000000  0.0000000  3
     15     14     26     27     1  0.0000000  0.6508444  3
     15     14     26     28     1  0.0000000  0.6508444  3
     16     14     26    118     1  0.0000000  1.0460000  1
     16     14     26    118     1  0.0000000  0.0000000  3
     16     14     26     27     1  0.0000000  0.6508444  3
     16     14     26     28     1  0.0000000  0.6508444  3
     29      1      5     17     1  0.0000000  0.6508444  3
     18     17     20     58     1  0.0000000  1.0460000  1
     18     17     20     58     1  0.0000000  0.0000000  3
     18     17     20     21     1  0.0000000  0.6508444  3
     18     17     20     22     1  0.0000000  0.6508444  3
     19     17     20     58     1  0.0000000  1.0460000  1
     19     17     20     58     1  0.0000000  0.0000000  3
     19     17     20     21     1  0.0000000  0.6508444  3
     19     17     20     22     1  0.0000000  0.6508444  3
     20     58     49     50     1  0.0000000  1.6038667  3
     20     58     49     51     1  0.0000000  1.6038667  3
     21     20     58     49     1  0.0000000  1.6038667  3
     22     20     58     49     1  0.0000000  1.6038667  3
     23     88     79     80     1  0.0000000  1.6038667  3
     23     88     79     81     1  0.0000000  1.6038667  3
     24     23     88     79     1  0.0000000  1.6038667  3
     25     23     88     79     1  0.0000000  1.6038667  3
     26    118    109    110     1  0.0000000  1.6038667  3
     26    118    109    111     1  0.0000000  1.6038667  3
     27     26    118    109     1  0.0000000  1.6038667  3
     28     26    118    109     1  0.0000000  1.6038667  3
     30     31     43     44     1  0.0000000  0.6508444  3
     30     31     43     45     1  0.0000000  0.6508444  3
     30     34     46     47     1  0.0000000  0.6508444  3
     30     34     46     48     1  0.0000000  0.6508444  3
     30     37     40     41     1  0.0000000  0.6508444  3
     30     37     40     42     1  0.0000000  0.6508444  3
     31     30     34     35     1  0.0000000  0.6508444  3
     31     30     34     36     1  0.0000000  0.6508444  3
     31     30     37     38     1  0.0000000  0.6508444  3
     31     30     37     39     1  0.0000000  0.6508444  3
     31     43     55     56     1  0.0000000  0.6508444  3
     31     43     55     57     1  0.0000000  0.6508444  3
     32     31     30     34     1  0.0000000  0.6508444  3
     32     31     30     37     1  0.0000000  0.6508444  3
     32     31     30     59     1  0.0000000  0.6508444  3
     32     31     43     55     1  0.0000000  0.6508444  3
     32     31     43     44     1  0.0000000  0.6508444  3
     32     31     43     45     1  0.0000000  0.6508444  3
     33     31     30     34     1  0.0000000  0.6508444  3
     33     31     30     37     1  0.0000000  0.6508444  3
     33     31     30     59     1  0.0000000  0.6508444  3
     33     31     43     55     1  0.0000000  0.6508444  3
     33     31     43     44     1  0.0000000  0.6508444  3
     33     31     43     45     1  0.0000000  0.6508444  3
     34     30     37     38     1  0.0000000  0.6508444  3
     34     30     37     39     1  0.0000000  0.6508444  3
     34     46     52     53     1  0.0000000  0.6508444  3
     34     46     52     54     1  0.0000000  0.6508444  3
     35     34     30     37     1  0.0000000  0.6508444  3
     35     34     30     59     1  0.0000000  0.6508444  3
     35     34     46     52     1  0.0000000  0.6508444  3
     35     34     46     47     1  0.0000000  0.6508444  3
     35     34     46     48     1  0.0000000  0.6508444  3
     36     34     30     37     1  0.0000000  0.6508444  3
     36     34     30     59     1  0.0000000  0.6508444  3
     36     34     46     52     1  0.0000000  0.6508444  3
     36     34     46     47     1  0.0000000  0.6508444  3
     36     34     46     48     1  0.0000000  0.6508444  3
     37     40     49     50     1  0.0000000  0.6508444  3
     37     40     49     51     1  0.0000000  0.6508444  3
     38     37     30     59     1  0.0000000  0.6508444  3
     38     37     40     49     1  0.0000000  0.6508444  3
     38     37     40     41     1  0.0000000  0.6508444  3
     38     37     40     42     1  0.0000000  0.6508444  3
     39     37     30     59     1  0.0000000  0.6508444  3
     39     37     40     49     1  0.0000000  0.6508444  3
     39     37     40     41     1  0.0000000  0.6508444  3
     39     37     40     42     1  0.0000000  0.6508444  3
     40     37     30     59     1  0.0000000  0.6508444  3
     41     40     49     58     1  0.0000000  1.0460000  1
     41     40     49     58     1  0.0000000  0.0000000  3
     41     40     49     50     1  0.0000000  0.6508444  3
     41     40     49     51     1  0.0000000  0.6508444  3
     42     40     49     58     1  0.0000000  1.0460000  1
     42     40     49     58     1  0.0000000  0.0000000  3
     42     40     49     50     1  0.0000000  0.6508444  3
     42     40     49     51     1  0.0000000  0.6508444  3
     43     31     30     59     1  0.0000000  0.6508444  3
     44     43     55    178     1  0.0000000  1.0460000  1
     44     43     55    178     1  0.0000000  0.0000000  3
     44     43     55     56     1  0.0000000  0.6508444  3
     44     43     55     57     1  0.0000000  0.6508444  3
     45     43     55    178     1  0.0000000  1.0460000  1
     45     43     55    178     1  0.0000000  0.0000000  3
     45     43     55     56     1  0.0000000  0.6508444  3
     45     43     55     57     1  0.0000000  0.6508444  3
     46     34     30     59     1  0.0000000  0.6508444  3
     47     46     52    148     1  0.0000000  1.0460000  1
     47     46     52    148     1  0.0000000  0.0000000  3
     47     46     52     53     1  0.0000000  0.6508444  3
     47     46     52     54     1  0.0000000  0.6508444  3
     48     46     52    148     1  0.0000000  1.0460000  1
     48     46     52    148     1  0.0000000  0.0000000  3
     48     46     52     53     1  0.0000000  0.6508444  3
     48     46     52     54     1  0.0000000  0.6508444  3
     52    148    139    140     1  0.0000000  1.6038667  3
     52    148    139    141     1  0.0000000  1.6038667  3
     53     52    148    139     1  0.0000000  1.6038667  3
     54     52    148    139     1  0.0000000  1.6038667  3
     55    178    169    170     1  0.0000000  1.6038667  3
     55    178    169    171     1  0.0000000  1.6038667  3
     56     55    178    169     1  0.0000000  1.6038667  3
     57     55    178    169     1  0.0000000  1.6038667  3
     60     61     73     74     1  0.0000000  0.6508444  3
     60     61     73     75     1  0.0000000  0.6508444  3
     60     64     76     77     1  0.0000000  0.6508444  3
     60     64     76     78     1  0.0000000  0.6508444  3
     60     67     70     71     1  0.0000000  0.6508444  3
     60     67     70     72     1  0.0000000  0.6508444  3
     61     60     64     65     1  0.0000000  0.6508444  3
     61     60     64     66     1  0.0000000  0.6508444  3
     61     60     67     68     1  0.0000000  0.6508444  3
     61     60     67     69     1  0.0000000  0.6508444  3
     61     73     85     86     1  0.0000000  0.6508444  3
     61     73     85     87     1  0.0000000  0.6508444  3
     62     61     60     64     1  0.0000000  0.6508444  3
     62     61     60     67     1  0.0000000  0.6508444  3
     62     61     60     89     1  0.0000000  0.6508444  3
     62     61     73     85     1  0.0000000  0.6508444  3
     62     61     73     74     1  0.0000000  0.6508444  3
     62     61     73     75     1  0.0000000  0.6508444  3
     63     61     60     64     1  0.0000000  0.6508444  3
     63     61     60     67     1  0.0000000  0.6508444  3
     63     61     60     89     1  0.0000000  0.6508444  3
     63     61     73     85     1  0.0000000  0.6508444  3
     63     61     73     74     1  0.0000000  0.6508444  3
     63     61     73     75     1  0.0000000  0.6508444  3
     64     60     67     68     1  0.0000000  0.6508444  3
     64     60     67     69     1  0.0000000  0.6508444  3
     64     76     82     83     1  0.0000000  0.6508444  3
     64     76     82     84     1  0.0000000  0.6508444  3
     65     64     60     67     1  0.0000000  0.6508444  3
     65     64     60     89     1  0.0000000  0.6508444  3
     65     64     76     82     1  0.0000000  0.6508444  3
     65     64     76     77     1  0.0000000  0.6508444  3
     65     64     76     78     1  0.0000000  0.6508444  3
     66     64     60     67     1  0.0000000  0.6508444  3
     66     64     60     89     1  0.0000000  0.6508444  3
     66     64     76     82     1  0.0000000  0.6508444  3
     66     64     76     77     1  0.0000000  0.6508444  3
     66     64     76     78     1  0.0000000  0.6508444  3
     67     70     79     80     1  0.0000000  0.6508444  3
     67     70     79     81     1  0.0000000  0.6508444  3
     68     67     60     89     1  0.0000000  0.6508444  3
     68     67     70     79     1  0.0000000  0.6508444  3
     68     67     70     71     1  0.0000000  0.6508444  3
     68     67     70     72     1  0.0000000  0.6508444  3
     69     67     60     89     1  0.0000000  0.6508444  3
     69     67     70     79     1  0.0000000  0.6508444  3
     69     67     70     71     1  0.0000000  0.6508444  3
     69     67     70     72     1  0.0000000  0.6508444  3
     70     67     60     89     1  0.0000000  0.6508444  3
     71     70     79     88     1  0.0000000  1.0460000  1
     71     70     79     88     1  0.0000000  0.0000000  3
     71     70     79     80     1  0.0000000  0.6508444  3
     71     70     79     81     1  0.0000000  0.6508444  3
     72     70     79     88     1  0.0000000  1.0460000  1
     72     70     79     88     1  0.0000000  0.0000000  3
     72     70     79     80     1  0.0000000  0.6508444  3
     72     70     79     81     1  0.0000000  0.6508444  3
     73     61     60     89     1  0.0000000  0.6508444  3
     74     73     85    238     1  0.0000000  1.0460000  1
     74     73     85    238     1  0.0000000  0.0000000  3
     74     73     85     86     1  0.0000000  0.6508444  3
     74     73     85     87     1  0.0000000  0.6508444  3
     75     73     85    238     1  0.0000000  1.0460000  1
     75     73     85    238     1  0.0000000  0.0000000  3
     75     73     85     86     1  0.0000000  0.6508444  3
     75     73     85     87     1  0.0000000  0.6508444  3
     76     64     60     89     1  0.0000000  0.6508444  3
     77     76     82    208     1  0.0000000  1.0460000  1
     77     76     82    208     1  0.0000000  0.0000000  3
     77     76     82     83     1  0.0000000  0.6508444  3
     77     76     82     84     1  0.0000000  0.6508444  3
     78     76     82    208     1  0.0000000  1.0460000  1
     78     76     82    208     1  0.0000000  0.0000000  3
     78     76     82     83     1  0.0000000  0.6508444  3
     78     76     82     84     1  0.0000000  0.6508444  3
     82    208    199    200     1  0.0000000  1.6038667  3
     82    208    199    201     1  0.0000000  1.6038667  3
     83     82    208    199     1  0.0000000  1.6038667  3
     84     82    208    199     1  0.0000000  1.6038667  3
     85    238    229    230     1  0.0000000  1.6038667  3
     85    238    229    231     1  0.0000000  1.6038667  3
     86     85    238    229     1  0.0000000  1.6038667  3
     87     85    238    229     1  0.0000000  1.6038667  3
     90     91    103    104     1  0.0000000  0.6508444  3
     90     91    103    105     1  0.0000000  0.6508444  3
     90     94    106    107     1  0.0000000  0.6508444  3
     90     94    106    108     1  0.0000000  0.6508444  3
     90     97    100    101     1  0.0000000  0.6508444  3
     90     97    100    102     1  0.0000000  0.6508444  3
     91     90     94     95     1  0.0000000  0.6508444  3
     91     90     94     96     1  0.0000000  0.6508444  3
     91     90     97     98     1  0.0000000  0.6508444  3
     91     90     97     99     1  0.0000000  0.6508444  3
     91    103    115    116     1  0.0000000  0.6508444  3
     91    103    115    117     1  0.0000000  0.6508444  3
     92     91     90     94     1  0.0000000  0.6508444  3
     92     91     90     97     1  0.0000000  0.6508444  3
     92     91     90    119     1  0.0000000  0.6508444  3
     92     91    103    115     1  0.0000000  0.6508444  3
     92     91    103    104     1  0.0000000  0.6508444  3
     92     91    103    105     1  0.0000000  0.6508444  3
     93     91     90     94     1  0.0000000  0.6508444  3
     93     91     90     97     1  0.0000000  0.6508444  3
     93     91     90    119     1  0.0000000  0.6508444  3
     93     91    103    115     1  0.0000000  0.6508444  3
     93     91    103    104     1  0.0000000  0.6508444  3
     93     91    103    105     1  0.0000000  0.6508444  3
     94     90     97     98     1  0.0000000  0.6508444  3
     94     90     97     99     1  0.0000000  0.6508444  3
     94    106    112    113     1  0.0000000  0.6508444  3
     94    106    112    114     1  0.0000000  0.6508444  3
     95     94     90     97     1  0.0000000  0.6508444  3
     95     94     90    119     1  0.0000000  0.6508444  3
     95     94    106    112     1  0.0000000  0.6508444  3
     95     94    106    107     1  0.0000000  0.6508444  3
     95     94    106    108     1  0.0000000  0.6508444  3
     96     94     90     97     1  0.0000000  0.6508444  3
     96     94     90    119     1  0.0000000  0.6508444  3
     96     94    106    112     1  0.0000000  0.6508444  3
     96     94    106    107     1  0.0000000  0.6508444  3
     96     94    106    108     1  0.0000000  0.6508444  3
     97    100    109    110     1  0.0000000  0.6508444  3
     97    100    109    111     1  0.0000000  0.6508444  3
     98     97     90    119     1  0.0000000  0.6508444  3
     98     97    100    109     1  0.0000000  0.6508444  3
     98     97    100    101     1  0.0000000  0.6508444  3
     98     97    100    102     1  0.0000000  0.6508444  3
     99     97     90    119     1  0.0000000  0.6508444  3
     99     97    100    109     1  0.0000000  0.6508444  3
     99     97    100    101     1  0.0000000  0.6508444  3
     99     97    100    102     1  0.0000000  0.6508444  3
    100     97     90    119     1  0.0000000  0.6508444  3
    101    100    109    118     1  0.0000000  1.0460000  1
    101    100    109    118     1  0.0000000  0.0000000  3
    101    100    109    110     1  0.0000000  0.6508444  3
    101    100    109    111     1  0.0000000  0.6508444  3
    102    100    109    118     1  0.0000000  1.0460000  1
    102    100    109    118     1  0.0000000  0.0000000  3
    102    100    109    110     1  0.0000000  0.6508444  3
    102    100    109    111     1  0.0000000  0.6508444  3
    103     91     90    119     1  0.0000000  0.6508444  3
    104    103    115    298     1  0.0000000  1.0460000  1
    104    103    115    298     1  0.0000000  0.0000000  3
    104    103    115    116     1  0.0000000  0.6508444  3
    104    103    115    117     1  0.0000000  0.6508444  3
    105    103    115    298     1  0.0000000  1.0460000  1
    105    103    115    298     1  0.0000000  0.0000000  3
    105    103    115    116     1  0.0000000  0.6508444  3
    105    103    115    117     1  0.0000000  0.6508444  3
    106     94     90    119     1  0.0000000  0.6508444  3
    107    106    112    268     1  0.0000000  1.0460000  1
    107    106    112    268     1  0.0000000  0.0000000  3
    107    106    112    113     1  0.0000000  0.6508444  3
    107    106    112    114     1  0.0000000  0.6508444  3
    108    106    112    268     1  0.0000000  1.0460000  1
    108    106    112    268     1  0.0000000  0.0000000  3
    108    106    112    113     1  0.0000000  0.6508444  3
    108    106    112    114     1  0.0000000  0.6508444  3
    112    268    259    260     1  0.0000000  1.6038667  3
    112    268    259    261     1  0.0000000  1.6038667  3
    113    112    268    259     1  0.0000000  1.6038667  3
    114    112    268    259     1  0.0000000  1.6038667  3
    115    298    289    290     1  0.0000000  1.6038667  3
    115    298    289    291     1  0.0000000  1.6038667  3
    116    115    298    289     1  0.0000000  1.6038667  3
    117    115    298    289     1  0.0000000  1.6038667  3
    120    121    133    134     1  0.0000000  0.6508444  3
    120    121    133    135     1  0.0000000  0.6508444  3
    120    124    136    137     1  0.0000000  0.6508444  3
    120    124    136    138     1  0.0000000  0.6508444  3
    120    127    130    131     1  0.0000000  0.6508444  3
    120    127    130    132     1  0.0000000  0.6508444  3
    121    120    124    125     1  0.0000000  0.6508444  3
    121    120    124    126     1  0.0000000  0.6508444  3
    121    120    127    128     1  0.0000000  0.6508444  3
    121    120    127    129     1  0.0000000  0.6508444  3
    121    133    145    146     1  0.0000000  0.6508444  3
    121    133    145    147     1  0.0000000  0.6508444  3
    122    121    120    124     1  0.0000000  0.6508444  3
    122    121    120    127     1  0.0000000  0.6508444  3
    122    121    120    149     1  0.0000000  0.6508444  3
    122    121    133    145     1  0.0000000  0.6508444  3
    122    121    133    134     1  0.0000000  0.6508444  3
    122    121    133    135     1  0.0000000  0.6508444  3
    123    121    120    124     1  0.0000000  0.6508444  3
    123    121    120    127     1  0.0000000  0.6508444  3
    123    121    120    149     1  0.0000000  0.6508444  3
    123    121    133    145     1  0.0000000  0.6508444  3
    123    121    133    134     1  0.0000000  0.6508444  3
    123    121    133    135     1  0.0000000  0.6508444  3
    124    120    127    128     1  0.0000000  0.6508444  3
    124    120    127    129     1  0.0000000  0.6508444  3
    124    136    142    143     1  0.0000000  0.6508444  3
    124    136    142    144     1  0.0000000  0.6508444  3
    125    124    120    127     1  0.0000000  0.6508444  3
    125    124    120    149     1  0.0000000  0.6508444  3
    125    124    136    142     1  0.0000000  0.6508444  3
    125    124    136    137     1  0.0000000  0.6508444  3
    125    124    136    138     1  0.0000000  0.6508444  3
    126    124    120    127     1  0.0000000  0.6508444  3
    126    124    120    149     1  0.0000000  0.6508444  3
    126    124    136    142     1  0.0000000  0.6508444  3
    126    124    136    137     1  0.0000000  0.6508444  3
    126    124    136    138     1  0.0000000  0.6508444  3
    127    130    139    140     1  0.0000000  0.6508444  3
    127    130    139    141     1  0.0000000  0.6508444  3
    128    127    120    149     1  0.0000000  0.6508444  3
    128    127    130    139     1  0.0000000  0.6508444  3
    128    127    130    131     1  0.0000000  0.6508444  3
    128    127    130    132     1  0.0000000  0.6508444  3
    129    127    120    149     1  0.0000000  0.6508444  3
    129    127    130    139     1  0.0000000  0.6508444  3
    129    127    130    131     1  0.0000000  0.6508444  3
    129    127    130    132     1  0.0000000  0.6508444  3
    130    127    120    149     1  0.0000000  0.6508444  3
    131    130    139    148     1  0.0000000  1.0460000  1
    131    130    139    148     1  0.0000000  0.0000000  3
    131    130    139    140     1  0.0000000  0.6508444  3
    131    130    139    141     1  0.0000000  0.6508444  3
    132    130    139    148     1  0.0000000  1.0460000  1
    132    130    139    148     1  0.0000000  0.0000000  3
    132    130    139    140     1  0.0000000  0.6508444  3
    132    130    139    141     1  0.0000000  0.6508444  3
    133    121    120    149     1  0.0000000  0.6508444  3
    134    133    145    358     1  0.0000000  1.0460000  1
    134    133    145    358     1  0.0000000  0.0000000  3
    134    133    145    146     1  0.0000000  0.6508444  3
    134    133    145    147     1  0.0000000  0.6508444  3
    135    133    145    358     1  0.0000000  1.0460000  1
    135    133    145    358     1  0.0000000  0.0000000  3
    135    133    145    146     1  0.0000000  0.6508444  3
    135    133    145    147     1  0.0000000  0.6508444  3
    136    124    120    149     1  0.0000000  0.6508444  3
    137    136    142    328     1  0.0000000  1.0460000  1
    137    136    142    328     1  0.0000000  0.0000000  3
    137    136    142    143     1  0.0000000  0.6508444  3
    137    136    142    144     1  0.0000000  0.6508444  3
    138    136    142    328     1  0.0000000  1.0460000  1
    138    136    142    328     1  0.0000000  0.0000000  3
    138    136    142    143     1  0.0000000  0.6508444  3
    138    136    142    144     1  0.0000000  0.6508444  3
    142    328    319    320     1  0.0000000  1.6038667  3
    142    328    319    321     1  0.0000000  1.6038667  3
    143    142    328    319     1  0.0000000  1.6038667  3
    144    142    328    319     1  0.0000000  1.6038667  3
    145    358    349    350     1  0.0000000  1.6038667  3
    145    358    349    351     1  0.0000000  1.6038667  3
    146    145    358    349     1  0.0000000  1.6038667  3
    147    145    358    349     1  0.0000000  1.6038667  3
    150    151    163    164     1  0.0000000  0.6508444  3
    150    151    163    165     1  0.0000000  0.6508444  3
    150    154    166    167     1  0.0000000  0.6508444  3
    150    154    166    168     1  0.0000000  0.6508444  3
    150    157    160    161     1  0.0000000  0.6508444  3
    150    157    160    162     1  0.0000000  0.6508444  3
    151    150    154    155     1  0.0000000  0.6508444  3
    151    150    154    156     1  0.0000000  0.6508444  3
    151    150    157    158     1  0.0000000  0.6508444  3
    151    150    157    159     1  0.0000000  0.6508444  3
    151    163    175    176     1  0.0000000  0.6508444  3
    151    163    175    177     1  0.0000000  0.6508444  3
    152    151    150    154     1  0.0000000  0.6508444  3
    152    151    150    157     1  0.0000000  0.6508444  3
    152    151    150    179     1  0.0000000  0.6508444  3
    152    151    163    175     1  0.0000000  0.6508444  3
    152    151    163    164     1  0.0000000  0.6508444  3
    152    151    163    165     1  0.0000000  0.6508444  3
    153    151    150    154     1  0.0000000  0.6508444  3
    153    151    150    157     1  0.0000000  0.6508444  3
    153    151    150    179     1  0.0000000  0.6508444  3
    153    151    163    175     1  0.0000000  0.6508444  3
    153    151    163    164     1  0.0000000  0.6508444  3
    153    151    163    165     1  0.0000000  0.6508444  3
    154    150    157    158     1  0.0000000  0.6508444  3
    154    150    157    159     1  0.0000000  0.6508444  3
    154    166    172    173     1  0.0000000  0.6508444  3
    154    166    172    174     1  0.0000000  0.6508444  3
    155    154    150    157     1  0.0000000  0.6508444  3
    155    154    150    179     1  0.0000000  0.6508444  3
    155    154    166    172     1  0.0000000  0.6508444  3
    155    154    166    167     1  0.0000000  0.6508444  3
    155    154    166    168     1  0.0000000  0.6508444  3
    156    154    150    157     1  0.0000000  0.6508444  3
    156    154    150    179     1  0.0000000  0.6508444  3
    156    154    166    172     1  0.0000000  0.6508444  3
    156    154    166    167     1  0.0000000  0.6508444  3
    156    154    166    168     1  0.0000000  0.6508444  3
    157    160    169    170     1  0.0000000  0.6508444  3
    157    160    169    171     1  0.0000000  0.6508444  3
    158    157    150    179     1  0.0000000  0.6508444  3
    158    157    160    169     1  0.0000000  0.6508444  3
    158    157    160    161     1  0.0000000  0.6508444  3
    158    157    160    162     1  0.0000000  0.6508444  3
    159    157    150    179     1  0.0000000  0.6508444  3
    159    157    160    169     1  0.0000000  0.6508444  3
    159    157    160    161     1  0.0000000  0.6508444  3
    159    157    160    162     1  0.0000000  0.6508444  3
    160    157    150    179     1  0.0000000  0.6508444  3
    161    160    169    178     1  0.0000000  1.0460000  1
    161    160    169    178     1  0.0000000  0.0000000  3
    161    160    169    170     1  0.0000000  0.6508444  3
    161    160    169    171     1  0.0000000  0.6508444  3
    162    160    169    178     1  0.0000000  1.0460000  1
    162    160    169    178     1  0.0000000  0.0000000  3
    162    160    169    170     1  0.0000000  0.6508444  3
    162    160    169    171     1  0.0000000  0.6508444  3
    163    151    150    179     1  0.0000000  0.6508444  3
    164    163    175    418     1  0.0000000  1.0460000  1
    164    163    175    418     1  0.0000000  0.0000000  3
    164    163    175    176     1  0.0000000  0.6508444  3
    164    163    175    177     1  0.0000000  0.6508444  3
    165    163    175    418     1  0.0000000  1.0460000  1
    165    163    175    418     1  0.0000000  0.0000000  3
    165    163    175    176     1  0.0000000  0.6508444  3
    165    163    175    177     1  0.0000000  0.6508444  3
    166    154    150    179     1  0.0000000  0.6508444  3
    167    166    172    388     1  0.0000000  1.0460000  1
    167    166    172    388     1  0.0000000  0.0000000  3
    167    166    172    173     1  0.0000000  0.6508444  3
    167    166    172    174     1  0.0000000  0.6508444  3
    168    166    172    388     1  0.0000000  1.0460000  1
    168    166    172    388     1  0.0000000  0.0000000  3
    168    166    172    173     1  0.0000000  0.6508444  3
    168    166    172    174     1  0.0000000  0.6508444  3
    172    388    379    380     1  0.0000000  1.6038667  3
    172    388    379    381     1  0.0000000  1.6038667  3
    173    172    388    379     1  0.0000000  1.6038667  3
    174    172    388    379     1  0.0000000  1.6038667  3
    175    418    409    410     1  0.0000000  1.6038667  3
    175    418    409    411     1  0.0000000  1.6038667  3
    176    175    418    409     1  0.0000000  1.6038667  3
    177    175    418    409     1  0.0000000  1.6038667  3
    180    181    193    194     1  0.0000000  0.6508444  3
    180    181    193    195     1  0.0000000  0.6508444  3
    180    184    196    197     1  0.0000000  0.6508444  3
    180    184    196    198     1  0.0000000  0.6508444  3
    180    187    190    191     1  0.0000000  0.6508444  3
    180    187    190    192     1  0.0000000  0.6508444  3
    181    180    184    185     1  0.0000000  0.6508444  3
    181    180    184    186     1  0.0000000  0.6508444  3
    181    180    187    188     1  0.0000000  0.6508444  3
    181    180    187    189     1  0.0000000  0.6508444  3
    181    193    205    206     1  0.0000000  0.6508444  3
    181    193    205    207     1  0.0000000  0.6508444  3
    182    181    180    184     1  0.0000000  0.6508444  3
    182    181    180    187     1  0.0000000  0.6508444  3
    182    181    180    209     1  0.0000000  0.6508444  3
    182    181    193    205     1  0.0000000  0.6508444  3
    182    181    193    194     1  0.0000000  0.6508444  3
    182    181    193    195     1  0.0000000  0.6508444  3
    183    181    180    184     1  0.0000000  0.6508444  3
    183    181    180    187     1  0.0000000  0.6508444  3
    183    181    180    209     1  0.0000000  0.6508444  3
    183    181    193    205     1  0.0000000  0.6508444  3
    183    181    193    194     1  0.0000000  0.6508444  3
    183    181    193    195     1  0.0000000  0.6508444  3
    184    180    187    188     1  0.0000000  0.6508444  3
    184    180    187    189     1  0.0000000  0.6508444  3
    184    196    202    203     1  0.0000000  0.6508444  3
    184    196    202    204     1  0.0000000  0.6508444  3
    185    184    180    187     1  0.0000000  0.6508444  3
    185    184    180    209     1  0.0000000  0.6508444  3
    185    184    196    202     1  0.0000000  0.6508444  3
    185    184    196    197     1  0.0000000  0.6508444  3
    185    184    196    198     1  0.0000000  0.6508444  3
    186    184    180    187     1  0.0000000  0.6508444  3
    186    184    180    209     1  0.0000000  0.6508444  3
    186    184    196    202     1  0.0000000  0.6508444  3
    186    184    196    197     1  0.0000000  0.6508444  3
    186    184    196    198     1  0.0000000  0.6508444  3
    187    190    199    200     1  0.0000000  0.6508444  3
    187    190    199    201     1  0.0000000  0.6508444  3
    188    187    180    209     1  0.0000000  0.6508444  3
    188    187    190    199     1  0.0000000  0.6508444  3
    188    187    190    191     1  0.0000000  0.6508444  3
    188    187    190    192     1  0.0000000  0.6508444  3
    189    187    180    209     1  0.0000000  0.6508444  3
    189    187    190    199     1  0.0000000  0.6508444  3
    189    187    190    191     1  0.0000000  0.6508444  3
    189    187    190    192     1  0.0000000  0.6508444  3
    190    187    180    209     1  0.0000000  0.6508444  3
    191    190    199    208     1  0.0000000  1.0460000  1
    191    190    199    208     1  0.0000000  0.0000000  3
    191    190    199    200     1  0.0000000  0.6508444  3
    191    190    199    201     1  0.0000000  0.6508444  3
    192    190    199    208     1  0.0000000  1.0460000  1
    192    190    199    208     1  0.0000000  0.0000000  3
    192    190    199    200     1  0.0000000  0.6508444  3
    192    190    199    201     1  0.0000000  0.6508444  3
    193    181    180    209     1  0.0000000  0.6508444  3
    194    193    205    478     1  0.0000000  1.0460000  1
    194    193    205    478     1  0.0000000  0.0000000  3
    194    193    205    206     1  0.0000000  0.6508444  3
    194    193    205    207     1  0.0000000  0.6508444  3
    195    193    205    478     1  0.0000000  1.0460000  1
    195    193    205    478     1  0.0000000  0.0000000  3
    195    193    205    206     1  0.0000000  0.6508444  3
    195    193    205    207     1  0.0000000  0.6508444  3
    196    184    180    209     1  0.0000000  0.6508444  3
    197    196    202    448     1  0.0000000  1.0460000  1
    197    196    202    448     1  0.0000000  0.0000000  3
    197    196    202    203     1  0.0000000  0.6508444  3
    197    196    202    204     1  0.0000000  0.6508444  3
    198    196    202    448     1  0.0000000  1.0460000  1
    198    196    202    448     1  0.0000000  0.0000000  3
    198    196    202    203     1  0.0000000  0.6508444  3
    198    196    202    204     1  0.0000000  0.6508444  3
    202    448    439    440     1  0.0000000  1.6038667  3
    202    448    439    441     1  0.0000000  1.6038667  3
    203    202    448    439     1  0.0000000  1.6038667  3
    204    202    448    439     1  0.0000000  1.6038667  3
    205    478    469    470     1  0.0000000  1.6038667  3
    205    478    469    471     1  0.0000000  1.6038667  3
    206    205    478    469     1  0.0000000  1.6038667  3
    207    205    478    469     1  0.0000000  1.6038667  3
    210    211    223    224     1  0.0000000  0.6508444  3
    210    211    223    225     1  0.0000000  0.6508444  3
    210    214    226    227     1  0.0000000  0.6508444  3
    210    214    226    228     1  0.0000000  0.6508444  3
    210    217    220    221     1  0.0000000  0.6508444  3
    210    217    220    222     1  0.0000000  0.6508444  3
    211    210    214    215     1  0.0000000  0.6508444  3
    211    210    214    216     1  0.0000000  0.6508444  3
    211    210    217    218     1  0.0000000  0.6508444  3
    211    210    217    219     1  0.0000000  0.6508444  3
    211    223    235    236     1  0.0000000  0.6508444  3
    211    223    235    237     1  0.0000000  0.6508444  3
    212    211    210    214     1  0.0000000  0.6508444  3
    212    211    210    217     1  0.0000000  0.6508444  3
    212    211    210    239     1  0.0000000  0.6508444  3
    212    211    223    235     1  0.0000000  0.6508444  3
    212    211    223    224     1  0.0000000  0.6508444  3
    212    211    223    225     1  0.0000000  0.6508444  3
    213    211    210    214     1  0.0000000  0.6508444  3
    213    211    210    217     1  0.0000000  0.6508444  3
    213    211    210    239     1  0.0000000  0.6508444  3
    213    211    223    235     1  0.0000000  0.6508444  3
    213    211    223    224     1  0.0000000  0.6508444  3
    213    211    223    225     1  0.0000000  0.6508444  3
    214    210    217    218     1  0.0000000  0.6508444  3
    214    210    217    219     1  0.0000000  0.6508444  3
    214    226    232    233     1  0.0000000  0.6508444  3
    214    226    232    234     1  0.0000000  0.6508444  3
    215    214    210    217     1  0.0000000  0.6508444  3
    215    214    210    239     1  0.0000000  0.6508444  3
    215    214    226    232     1  0.0000000  0.6508444  3
    215    214    226    227     1  0.0000000  0.6508444  3
    215    214    226    228     1  0.0000000  0.6508444  3
    216    214    210    217     1  0.0000000  0.6508444  3
    216    214    210    239     1  0.0000000  0.6508444  3
    216    214    226    232     1  0.0000000  0.6508444  3
    216    214    226    227     1  0.0000000  0.6508444  3
    216    214    226    228     1  0.0000000  0.6508444  3
    217    220    229    230     1  0.0000000  0.6508444  3
    217    220    229    231     1  0.0000000  0.6508444  3
    218    217    210    239     1  0.0000000  0.6508444  3
    218    217    220    229     1  0.0000000  0.6508444  3
    218    217    220    221     1  0.0000000  0.6508444  3
    218    217    220    222     1  0.0000000  0.6508444  3
    219    217    210    239     1  0.0000000  0.6508444  3
    219    217    220    229     1  0.0000000  0.6508444  3
    219    217    220    221     1  0.0000000  0.6508444  3
    219    217    220    222     1  0.0000000  0.6508444  3
    220    217    210    239     1  0.0000000  0.6508444  3
    221    220    229    238     1  0.0000000  1.0460000  1
    221    220    229    238     1  0.0000000  0.0000000  3
    221    220    229    230     1  0.0000000  0.6508444  3
    221    220    229    231     1  0.0000000  0.6508444  3
    222    220    229    238     1  0.0000000  1.0460000  1
    222    220    229    238     1  0.0000000  0.0000000  3
    222    220    229    230     1  0.0000000  0.6508444  3
    222    220    229    231     1  0.0000000  0.6508444  3
    223    211    210    239     1  0.0000000  0.6508444  3
    224    223    235    538     1  0.0000000  1.0460000  1
    224    223    235    538     1  0.0000000  0.0000000  3
    224    223    235    236     1  0.0000000  0.6508444  3
    224    223    235    237     1  0.0000000  0.6508444  3
    225    223    235    538     1  0.0000000  1.0460000  1
    225    223    235    538     1  0.0000000  0.0000000  3
    225    223    235    236     1  0.0000000  0.6508444  3
    225    223    235    237     1  0.0000000  0.6508444  3
    226    214    210    239     1  0.0000000  0.6508444  3
    227    226    232    508     1  0.0000000  1.0460000  1
    227    226    232    508     1  0.0000000  0.0000000  3
    227    226    232    233     1  0.0000000  0.6508444  3
    227    226    232    234     1  0.0000000  0.6508444  3
    228    226    232    508     1  0.0000000  1.0460000  1
    228    226    232    508     1  0.0000000  0.0000000  3
    228    226    232    233     1  0.0000000  0.6508444  3
    228    226    232    234     1  0.0000000  0.6508444  3
    232    508    499    500     1  0.0000000  1.6038667  3
    232    508    499    501     1  0.0000000  1.6038667  3
    233    232    508    499     1  0.0000000  1.6038667  3
    234    232    508    499     1  0.0000000  1.6038667  3
    235    538    529    530     1  0.0000000  1.6038667  3
    235    538    529    531     1  0.0000000  1.6038667  3
    236    235    538    529     1  0.0000000  1.6038667  3
    237    235    538    529     1  0.0000000  1.6038667  3
    240    241    253    254     1  0.0000000  0.6508444  3
    240    241    253    255     1  0.0000000  0.6508444  3
    240    244    256    257     1  0.0000000  0.6508444  3
    240    244    256    258     1  0.0000000  0.6508444  3
    240    247    250    251     1  0.0000000  0.6508444  3
    240    247    250    252     1  0.0000000  0.6508444  3
    241    240    244    245     1  0.0000000  0.6508444  3
    241    240    244    246     1  0.0000000  0.6508444  3
    241    240    247    248     1  0.0000000  0.6508444  3
    241    240    247    249     1  0.0000000  0.6508444  3
    241    253    265    266     1  0.0000000  0.6508444  3
    241    253    265    267     1  0.0000000  0.6508444  3
    242    241    240    244     1  0.0000000  0.6508444  3
    242    241    240    247     1  0.0000000  0.6508444  3
    242    241    240    269     1  0.0000000  0.6508444  3
    242    241    253    265     1  0.0000000  0.6508444  3
    242    241    253    254     1  0.0000000  0.6508444  3
    242    241    253    255     1  0.0000000  0.6508444  3
    243    241    240    244     1  0.0000000  0.6508444  3
    243    241    240    247     1  0.0000000  0.6508444  3
    243    241    240    269     1  0.0000000  0.6508444  3
    243    241    253    265     1  0.0000000  0.6508444  3
    243    241    253    254     1  0.0000000  0.6508444  3
    243    241    253    255     1  0.0000000  0.6508444  3
    244    240    247    248     1  0.0000000  0.6508444  3
    244    240    247    249     1  0.0000000  0.6508444  3
    244    256    262    263     1  0.0000000  0.6508444  3
    244    256    262    264     1  0.0000000  0.6508444  3
    245    244    240    247     1  0.0000000  0.6508444  3
    245    244    240    269     1  0.0000000  0.6508444  3
    245    244    256    262     1  0.0000000  0.6508444  3
    245    244    256    257     1  0.0000000  0.6508444  3
    245    244    256    258     1  0.0000000  0.6508444  3
    246    244    240    247     1  0.0000000  0.6508444  3
    246    244    240    269     1  0.0000000  0.6508444  3
    246    244    256    262     1  0.0000000  0.6508444  3
    246    244    256    257     1  0.0000000  0.6508444  3
    246    244    256    258     1  0.0000000  0.6508444  3
    247    250    259    260     1  0.0000000  0.6508444  3
    247    250    259    261     1  0.0000000  0.6508444  3
    248    247    240    269     1  0.0000000  0.6508444  3
    248    247    250    259     1  0.0000000  0.6508444  3
    248    247    250    251     1  0.0000000  0.6508444  3
    248    247    250    252     1  0.0000000  0.6508444  3
    249    247    240    269     1  0.0000000  0.6508444  3
    249    247    250    259     1  0.0000000  0.6508444  3
    249    247    250    251     1  0.0000000  0.6508444  3
    249    247    250    252     1  0.0000000  0.6508444  3
    250    247    240    269     1  0.0000000  0.6508444  3
    251    250    259    268     1  0.0000000  1.0460000  1
    251    250    259    268     1  0.0000000  0.0000000  3
    251    250    259    260     1  0.0000000  0.6508444  3
    251    250    259    261     1  0.0000000  0.6508444  3
    252    250    259    268     1  0.0000000  1.0460000  1
    252    250    259    268     1  0.0000000  0.0000000  3
    252    250    259    260     1  0.0000000  0.6508444  3
    252    250    259    261     1  0.0000000  0.6508444  3
    253    241    240    269     1  0.0000000  0.6508444  3
    254    253    265    598     1  0.0000000  1.0460000  1
    254    253    265    598     1  0.0000000  0.0000000  3
    254    253    265    266     1  0.0000000  0.6508444  3
    254    253    265    267     1  0.0000000  0.6508444  3
    255    253    265    598     1  0.0000000  1.0460000  1
    255    253    265    598     1  0.0000000  0.0000000  3
    255    253    265    266     1  0.0000000  0.6508444  3
    255    253    265    267     1  0.0000000  0.6508444  3
    256    244    240    269     1  0.0000000  0.6508444  3
    257    256    262    568     1  0.0000000  1.0460000  1
    257    256    262    568     1  0.0000000  0.0000000  3
    257    256    262    263     1  0.0000000  0.6508444  3
    257    256    262    264     1  0.0000000  0.6508444  3
    258    256    262    568     1  0.0000000  1.0460000  1
    258    256    262    568     1  0.0000000  0.0000000  3
    258    256    262    263     1  0.0000000  0.6508444  3
    258    256    262    264     1  0.0000000  0.6508444  3
    262    568    559    560     1  0.0000000  1.6038667  3
    262    568    559    561     1  0.0000000  1.6038667  3
    263    262    568    559     1  0.0000000  1.6038667  3
    264    262    568    559     1  0.0000000  1.6038667  3
    265    598    589    590     1  0.0000000  1.6038667  3
    265    598    589    591     1  0.0000000  1.6038667  3
    266    265    598    589     1  0.0000000  1.6038667  3
    267    265    598    589     1  0.0000000  1.6038667  3
    270    271    283    284     1  0.0000000  0.6508444  3
    270    271    283    285     1  0.0000000  0.6508444  3
    270    274    286    287     1  0.0000000  0.6508444  3
    270    274    286    288     1  0.0000000  0.6508444  3
    270    277    280    281     1  0.0000000  0.6508444  3
    270    277    280    282     1  0.0000000  0.6508444  3
    271    270    274    275     1  0.0000000  0.6508444  3
    271    270    274    276     1  0.0000000  0.6508444  3
    271    270    277    278     1  0.0000000  0.6508444  3
    271    270    277    279     1  0.0000000  0.6508444  3
    271    283    295    296     1  0.0000000  0.6508444  3
    271    283    295    297     1  0.0000000  0.6508444  3
    272    271    270    274     1  0.0000000  0.6508444  3
    272    271    270    277     1  0.0000000  0.6508444  3
    272    271    270    299     1  0.0000000  0.6508444  3
    272    271    283    295     1  0.0000000  0.6508444  3
    272    271    283    284     1  0.0000000  0.6508444  3
    272    271    283    285     1  0.0000000  0.6508444  3
    273    271    270    274     1  0.0000000  0.6508444  3
    273    271    270    277     1  0.0000000  0.6508444  3
    273    271    270    299     1  0.0000000  0.6508444  3
    273    271    283    295     1  0.0000000  0.6508444  3
    273    271    283    284     1  0.0000000  0.6508444  3
    273    271    283    285     1  0.0000000  0.6508444  3
    274    270    277    278     1  0.0000000  0.6508444  3
    274    270    277    279     1  0.0000000  0.6508444  3
    274    286    292    293     1  0.0000000  0.6508444  3
    274    286    292    294     1  0.0000000  0.6508444  3
    275    274    270    277     1  0.0000000  0.6508444  3
    275    274    270    299     1  0.0000000  0.6508444  3
    275    274    286    292     1  0.0000000  0.6508444  3
    275    274    286    287     1  0.0000000  0.6508444  3
    275    274    286    288     1  0.0000000  0.6508444  3
    276    274    270    277     1  0.0000000  0.6508444  3
    276    274    270    299     1  0.0000000  0.6508444  3
    276    274    286    292     1  0.0000000  0.6508444  3
    276    274    286    287     1  0.0000000  0.6508444  3
    276    274    286    288     1  0.0000000  0.6508444  3
    277    280    289    290     1  0.0000000  0.6508444  3
    277    280    289    291     1  0.0000000  0.6508444  3
    278    277    270    299     1  0.0000000  0.6508444  3
    278    277    280    289     1  0.0000000  0.6508444  3
    278    277    280    281     1  0.0000000  0.6508444  3
    278    277    280    282     1  0.0000000  0.6508444  3
    279    277    270    299     1  0.0000000  0.6508444  3
    279    277    280    289     1  0.0000000  0.6508444  3
    279    277    280    281     1  0.0000000  0.6508444  3
    279    277    280    282     1  0.0000000  0.6508444  3
    280    277    270    299     1  0.0000000  0.6508444  3
    281    280    289    298     1  0.0000000  1.0460000  1
    281    280    289    298     1  0.0000000  0.0000000  3
    281    280    289    290     1  0.0000000  0.6508444  3
    281    280    289    291     1  0.0000000  0.6508444  3
    282    280    289    298     1  0.0000000  1.0460000  1
    282    280    289    298     1  0.0000000  0.0000000  3
    282    280    289    290     1  0.0000000  0.6508444  3
    282    280    289    291     1  0.0000000  0.6508444  3
    283    271    270    299     1  0.0000000  0.6508444  3
    284    283    295    658     1  0.0000000  1.0460000  1
    284    283    295    658     1  0.0000000  0.0000000  3
    284    283    295    296     1  0.0000000  0.6508444  3
    284    283    295    297     1  0.0000000  0.6508444  3
    285    283    295    658     1  0.0000000  1.0460000  1
    285    283    295    658     1  0.0000000  0.0000000  3
    285    283    295    296     1  0.0000000  0.6508444  3
    285    283    295    297     1  0.0000000  0.6508444  3
    286    274    270    299     1  0.0000000  0.6508444  3
    287    286    292    628     1  0.0000000  1.0460000  1
    287    286    292    628     1  0.0000000  0.0000000  3
    287    286    292    293     1  0.0000000  0.6508444  3
    287    286    292    294     1  0.0000000  0.6508444  3
    288    286    292    628     1  0.0000000  1.0460000  1
    288    286    292    628     1  0.0000000  0.0000000  3
    288    286    292    293     1  0.0000000  0.6508444  3
    288    286    292    294     1  0.0000000  0.6508444  3
    292    628    619    620     1  0.0000000  1.6038667  3
    292    628    619    621     1  0.0000000  1.6038667  3
    293    292    628    619     1  0.0000000  1.6038667  3
    294    292    628    619     1  0.0000000  1.6038667  3
    295    658    649    650     1  0.0000000  1.6038667  3
    295    658    649    651     1  0.0000000  1.6038667  3
    296    295    658    649     1  0.0000000  1.6038667  3
    297    295    658    649     1  0.0000000  1.6038667  3
    300    301    313    314     1  0.0000000  0.6508444  3
    300    301    313    315     1  0.0000000  0.6508444  3
    300    304    316    317     1  0.0000000  0.6508444  3
    300    304    316    318     1  0.0000000  0.6508444  3
    300    307    310    311     1  0.0000000  0.6508444  3
    300    307    310    312     1  0.0000000  0.6508444  3
    301    300    304    305     1  0.0000000  0.6508444  3
    301    300    304    306     1  0.0000000  0.6508444  3
    301    300    307    308     1  0.0000000  0.6508444  3
    301    300    307    309     1  0.0000000  0.6508444  3
    301    313    325    326     1  0.0000000  0.6508444  3
    301    313    325    327     1  0.0000000  0.6508444  3
    302    301    300    304     1  0.0000000  0.6508444  3
    302    301    300    307     1  0.0000000  0.6508444  3
    302    301    300    329     1  0.0000000  0.6508444  3
    302    301    313    325     1  0.0000000  0.6508444  3
    302    301    313    314     1  0.0000000  0.6508444  3
    302    301    313    315     1  0.0000000  0.6508444  3
    303    301    300    304     1  0.0000000  0.6508444  3
    303    301    300    307     1  0.0000000  0.6508444  3
    303    301    300    329     1  0.0000000  0.6508444  3
    303    301    313    325     1  0.0000000  0.6508444  3
    303    301    313    314     1  0.0000000  0.6508444  3
    303    301    313    315     1  0.0000000  0.6508444  3
    304    300    307    308     1  0.0000000  0.6508444  3
    304    300    307    309     1  0.0000000  0.6508444  3
    304    316    322    323     1  0.0000000  0.6508444  3
    304    316    322    324     1  0.0000000  0.6508444  3
    305    304    300    307     1  0.0000000  0.6508444  3
    305    304    300    329     1  0.0000000  0.6508444  3
    305    304    316    322     1  0.0000000  0.6508444  3
    305    304    316    317     1  0.0000000  0.6508444  3
    305    304    316    318     1  0.0000000  0.6508444  3
    306    304    300    307     1  0.0000000  0.6508444  3
    306    304    300    329     1  0.0000000  0.6508444  3
    306    304    316    322     1  0.0000000  0.6508444  3
    306    304    316    317     1  0.0000000  0.6508444  3
    306    304    316    318     1  0.0000000  0.6508444  3
    307    310    319    320     1  0.0000000  0.6508444  3
    307    310    319    321     1  0.0000000  0.6508444  3
    308    307    300    329     1  0.0000000  0.6508444  3
    308    307    310    319     1  0.0000000  0.6508444  3
    308    307    310    311     1  0.0000000  0.6508444  3
    308    307    310    312     1  0.0000000  0.6508444  3
    309    307    300    329     1  0.0000000  0.6508444  3
    309    307    310    319     1  0.0000000  0.6508444  3
    309    307    310    311     1  0.0000000  0.6508444  3
    309    307    310    312     1  0.0000000  0.6508444  3
    310    307    300    329     1  0.0000000  0.6508444  3
    311    310    319    328     1  0.0000000  1.0460000  1
    311    310    319    328     1  0.0000000  0.0000000  3
    311    310    319    320     1  0.0000000  0.6508444  3
    311    310    319    321     1  0.0000000  0.6508444  3
    312    310    319    328     1  0.0000000  1.0460000  1
    312    310    319    328     1  0.0000000  0.0000000  3
    312    310    319    320     1  0.0000000  0.6508444  3
    312    310    319    321     1  0.0000000  0.6508444  3
    313    301    300    329     1  0.0000000  0.6508444  3
    314    313    325    718     1  0.0000000  1.0460000  1
    314    313    325    718     1  0.0000000  0.0000000  3
    314    313    325    326     1  0.0000000  0.6508444  3
    314    313    325    327     1  0.0000000  0.6508444  3
    315    313    325    718     1  0.0000000  1.0460000  1
    315    313    325    718     1  0.0000000  0.0000000  3
    315    313    325    326     1  0.0000000  0.6508444  3
    315    313    325    327     1  0.0000000  0.6508444  3
    316    304    300    329     1  0.0000000  0.6508444  3
    317    316    322    688     1  0.0000000  1.0460000  1
    317    316    322    688     1  0.0000000  0.0000000  3
    317    316    322    323     1  0.0000000  0.6508444  3
    317    316    322    324     1  0.0000000  0.6508444  3
    318    316    322    688     1  0.0000000  1.0460000  1
    318    316    322    688     1  0.0000000  0.0000000  3
    318    316    322    323     1  0.0000000  0.6508444  3
    318    316    322    324     1  0.0000000  0.6508444  3
    322    688    679    680     1  0.0000000  1.6038667  3
    322    688    679    681     1  0.0000000  1.6038667  3
    323    322    688    679     1  0.0000000  1.6038667  3
    324    322    688    679     1  0.0000000  1.6038667  3
    325    718    709    710     1  0.0000000  1.6038667  3
    325    718    709    711     1  0.0000000  1.6038667  3
    326    325    718    709     1  0.0000000  1.6038667  3
    327    325    718    709     1  0.0000000  1.6038667  3
    330    331    343    344     1  0.0000000  0.6508444  3
    330    331    343    345     1  0.0000000  0.6508444  3
    330    334    346    347     1  0.0000000  0.6508444  3
    330    334    346    348     1  0.0000000  0.6508444  3
    330    337    340    341     1  0.0000000  0.6508444  3
    330    337    340    342     1  0.0000000  0.6508444  3
    331    330    334    335     1  0.0000000  0.6508444  3
    331    330    334    336     1  0.0000000  0.6508444  3
    331    330    337    338     1  0.0000000  0.6508444  3
    331    330    337    339     1  0.0000000  0.6508444  3
    331    343    355    356     1  0.0000000  0.6508444  3
    331    343    355    357     1  0.0000000  0.6508444  3
    332    331    330    334     1  0.0000000  0.6508444  3
    332    331    330    337     1  0.0000000  0.6508444  3
    332    331    330    359     1  0.0000000  0.6508444  3
    332    331    343    355     1  0.0000000  0.6508444  3
    332    331    343    344     1  0.0000000  0.6508444  3
    332    331    343    345     1  0.0000000  0.6508444  3
    333    331    330    334     1  0.0000000  0.6508444  3
    333    331    330    337     1  0.0000000  0.6508444  3
    333    331    330    359     1  0.0000000  0.6508444  3
    333    331    343    355     1  0.0000000  0.6508444  3
    333    331    343    344     1  0.0000000  0.6508444  3
    333    331    343    345     1  0.0000000  0.6508444  3
    334    330    337    338     1  0.0000000  0.6508444  3
    334    330    337    339     1  0.0000000  0.6508444  3
    334    346    352    353     1  0.0000000  0.6508444  3
    334    346    352    354     1  0.0000000  0.6508444  3
    335    334    330    337     1  0.0000000  0.6508444  3
    335    334    330    359     1  0.0000000  0.6508444  3
    335    334    346    352     1  0.0000000  0.6508444  3
    335    334    346    347     1  0.0000000  0.6508444  3
    335    334    346    348     1  0.0000000  0.6508444  3
    336    334    330    337     1  0.0000000  0.6508444  3
    336    334    330    359     1  0.0000000  0.6508444  3
    336    334    346    352     1  0.0000000  0.6508444  3
    336    334    346    347     1  0.0000000  0.6508444  3
    336    334    346    348     1  0.0000000  0.6508444  3
    337    340    349    350     1  0.0000000  0.6508444  3
    337    340    349    351     1  0.0000000  0.6508444  3
    338    337    330    359     1  0.0000000  0.6508444  3
    338    337    340    349     1  0.0000000  0.6508444  3
    338    337    340    341     1  0.0000000  0.6508444  3
    338    337    340    342     1  0.0000000  0.6508444  3
    339    337    330    359     1  0.0000000  0.6508444  3
    339    337    340    349     1  0.0000000  0.6508444  3
    339    337    340    341     1  0.0000000  0.6508444  3
    339    337    340    342     1  0.0000000  0.6508444  3
    340    337    330    359     1  0.0000000  0.6508444  3
    341    340    349    358     1  0.0000000  1.0460000  1
    341    340    349    358     1  0.0000000  0.0000000  3
    341    340    349    350     1  0.0000000  0.6508444  3
    341    340    349    351     1  0.0000000  0.6508444  3
    342    340    349    358     1  0.0000000  1.0460000  1
    342    340    349    358     1  0.0000000  0.0000000  3
    342    340    349    350     1  0.0000000  0.6508444  3
    342    340    349    351     1  0.0000000  0.6508444  3
    343    331    330    359     1  0.0000000  0.6508444  3
    344    343    355    778     1  0.0000000  1.0460000  1
    344    343    355    778     1  0.0000000  0.0000000  3
    344    343    355    356     1  0.0000000  0.6508444  3
    344    343    355    357     1  0.0000000  0.6508444  3
    345    343    355    778     1  0.0000000  1.0460000  1
    345    343    355    778     1  0.0000000  0.0000000  3
    345    343    355    356     1  0.0000000  0.6508444  3
    345    343    355    357     1  0.0000000  0.6508444  3
    346    334    330    359     1  0.0000000  0.6508444  3
    347    346    352    748     1  0.0000000  1.0460000  1
    347    346    352    748     1  0.0000000  0.0000000  3
    347    346    352    353     1  0.0000000  0.6508444  3
    347    346    352    354     1  0.0000000  0.6508444  3
    348    346    352    748     1  0.0000000  1.0460000  1
    348    346    352    748     1  0.0000000  0.0000000  3
    348    346    352    353     1  0.0000000  0.6508444  3
    348    346    352    354     1  0.0000000  0.6508444  3
    352    748    739    740     1  0.0000000  1.6038667  3
    352    748    739    741     1  0.0000000  1.6038667  3
    353    352    748    739     1  0.0000000  1.6038667  3
    354    352    748    739     1  0.0000000  1.6038667  3
    355    778    769    770     1  0.0000000  1.6038667  3
    355    778    769    771     1  0.0000000  1.6038667  3
    356    355    778    769     1  0.0000000  1.6038667  3
    357    355    778    769     1  0.0000000  1.6038667  3
    360    361    373    374     1  0.0000000  0.6508444  3
    360    361    373    375     1  0.0000000  0.6508444  3
    360    364    376    377     1  0.0000000  0.6508444  3
    360    364    376    378     1  0.0000000  0.6508444  3
    360    367    370    371     1  0.0000000  0.6508444  3
    360    367    370    372     1  0.0000000  0.6508444  3
    361    360    364    365     1  0.0000000  0.6508444  3
    361    360    364    366     1  0.0000000  0.6508444  3
    361    360    367    368     1  0.0000000  0.6508444  3
    361    360    367    369     1  0.0000000  0.6508444  3
    361    373    385    386     1  0.0000000  0.6508444  3
    361    373    385    387     1  0.0000000  0.6508444  3
    362    361    360    364     1  0.0000000  0.6508444  3
    362    361    360    367     1  0.0000000  0.6508444  3
    362    361    360    389     1  0.0000000  0.6508444  3
    362    361    373    385     1  0.0000000  0.6508444  3
    362    361    373    374     1  0.0000000  0.6508444  3
    362    361    373    375     1  0.0000000  0.6508444  3
    363    361    360    364     1  0.0000000  0.6508444  3
    363    361    360    367     1  0.0000000  0.6508444  3
    363    361    360    389     1  0.0000000  0.6508444  3
    363    361    373    385     1  0.0000000  0.6508444  3
    363    361    373    374     1  0.0000000  0.6508444  3
    363    361    373    375     1  0.0000000  0.6508444  3
    364    360    367    368     1  0.0000000  0.6508444  3
    364    360    367    369     1  0.0000000  0.6508444  3
    364    376    382    383     1  0.0000000  0.6508444  3
    364    376    382    384     1  0.0000000  0.6508444  3
    365    364    360    367     1  0.0000000  0.6508444  3
    365    364    360    389     1  0.0000000  0.6508444  3
    365    364    376    382     1  0.0000000  0.6508444  3
    365    364    376    377     1  0.0000000  0.6508444  3
    365    364    376    378     1  0.0000000  0.6508444  3
    366    364    360    367     1  0.0000000  0.6508444  3
    366    364    360    389     1  0.0000000  0.6508444  3
    366    364    376    382     1  0.0000000  0.6508444  3
    366    364    376    377     1  0.0000000  0.6508444  3
    366    364    376    378     1  0.0000000  0.6508444  3
    367    370    379    380     1  0.0000000  0.6508444  3
    367    370    379    381     1  0.0000000  0.6508444  3
    368    367    360    389     1  0.0000000  0.6508444  3
    368    367    370    379     1  0.0000000  0.6508444  3
    368    367    370    371     1  0.0000000  0.6508444  3
    368    367    370    372     1  0.0000000  0.6508444  3
    369    367    360    389     1  0.0000000  0.6508444  3
    369    367    370    379     1  0.0000000  0.6508444  3
    369    367    370    371     1  0.0000000  0.6508444  3
    369    367    370    372     1  0.0000000  0.6508444  3
    370    367    360    389     1  0.0000000  0.6508444  3
    371    370    379    388     1  0.0000000  1.0460000  1
    371    370    379    388     1  0.0000000  0.0000000  3
    371    370    379    380     1  0.0000000  0.6508444  3
    371    370    379    381     1  0.0000000  0.6508444  3
    372    370    379    388     1  0.0000000  1.0460000  1
    372    370    379    388     1  0.0000000  0.0000000  3
    372    370    379    380     1  0.0000000  0.6508444  3
    372    370    379    381     1  0.0000000  0.6508444  3
    373    361    360    389     1  0.0000000  0.6508444  3
    374    373    385    838     1  0.0000000  1.0460000  1
    374    373    385    838     1  0.0000000  0.0000000  3
    374    373    385    386     1  0.0000000  0.6508444  3
    374    373    385    387     1  0.0000000  0.6508444  3
    375    373    385    838     1  0.0000000  1.0460000  1
    375    373    385    838     1  0.0000000  0.0000000  3
    375    373    385    386     1  0.0000000  0.6508444  3
    375    373    385    387     1  0.0000000  0.6508444  3
    376    364    360    389     1  0.0000000  0.6508444  3
    377    376    382    808     1  0.0000000  1.0460000  1
    377    376    382    808     1  0.0000000  0.0000000  3
    377    376    382    383     1  0.0000000  0.6508444  3
    377    376    382    384     1  0.0000000  0.6508444  3
    378    376    382    808     1  0.0000000  1.0460000  1
    378    376    382    808     1  0.0000000  0.0000000  3
    378    376    382    383     1  0.0000000  0.6508444  3
    378    376    382    384     1  0.0000000  0.6508444  3
    382    808    799    800     1  0.0000000  1.6038667  3
    382    808    799    801     1  0.0000000  1.6038667  3
    383    382    808    799     1  0.0000000  1.6038667  3
    384    382    808    799     1  0.0000000  1.6038667  3
    385    838    829    830     1  0.0000000  1.6038667  3
    385    838    829    831     1  0.0000000  1.6038667  3
    386    385    838    829     1  0.0000000  1.6038667  3
    387    385    838    829     1  0.0000000  1.6038667  3
    390    391    403    404     1  0.0000000  0.6508444  3
    390    391    403    405     1  0.0000000  0.6508444  3
    390    394    406    407     1  0.0000000  0.6508444  3
    390    394    406    408     1  0.0000000  0.6508444  3
    390    397    400    401     1  0.0000000  0.6508444  3
    390    397    400    402     1  0.0000000  0.6508444  3
    391    390    394    395     1  0.0000000  0.6508444  3
    391    390    394    396     1  0.0000000  0.6508444  3
    391    390    397    398     1  0.0000000  0.6508444  3
    391    390    397    399     1  0.0000000  0.6508444  3
    391    403    415    416     1  0.0000000  0.6508444  3
    391    403    415    417     1  0.0000000  0.6508444  3
    392    391    390    394     1  0.0000000  0.6508444  3
    392    391    390    397     1  0.0000000  0.6508444  3
    392    391    390    419     1  0.0000000  0.6508444  3
    392    391    403    415     1  0.0000000  0.6508444  3
    392    391    403    404     1  0.0000000  0.6508444  3
    392    391    403    405     1  0.0000000  0.6508444  3
    393    391    390    394     1  0.0000000  0.6508444  3
    393    391    390    397     1  0.0000000  0.6508444  3
    393    391    390    419     1  0.0000000  0.6508444  3
    393    391    403    415     1  0.0000000  0.6508444  3
    393    391    403    404     1  0.0000000  0.6508444  3
    393    391    403    405     1  0.0000000  0.6508444  3
    394    390    397    398     1  0.0000000  0.6508444  3
    394    390    397    399     1  0.0000000  0.6508444  3
    394    406    412    413     1  0.0000000  0.6508444  3
    394    406    412    414     1  0.0000000  0.6508444  3
    395    394    390    397     1  0.0000000  0.6508444  3
    395    394    390    419     1  0.0000000  0.6508444  3
    395    394    406    412     1  0.0000000  0.6508444  3
    395    394    406    407     1  0.0000000  0.6508444  3
    395    394    406    408     1  0.0000000  0.6508444  3
    396    394    390    397     1  0.0000000  0.6508444  3
    396    394    390    419     1  0.0000000  0.6508444  3
    396    394    406    412     1  0.0000000  0.6508444  3
    396    394    406    407     1  0.0000000  0.6508444  3
    396    394    406    408     1  0.0000000  0.6508444  3
    397    400    409    410     1  0.0000000  0.6508444  3
    397    400    409    411     1  0.0000000  0.6508444  3
    398    397    390    419     1  0.0000000  0.6508444  3
    398    397    400    409     1  0.0000000  0.6508444  3
    398    397    400    401     1  0.0000000  0.6508444  3
    398    397    400    402     1  0.0000000  0.6508444  3
    399    397    390    419     1  0.0000000  0.6508444  3
    399    397    400    409     1  0.0000000  0.6508444  3
    399    397    400    401     1  0.0000000  0.6508444  3
    399    397    400    402     1  0.0000000  0.6508444  3
    400    397    390    419     1  0.0000000  0.6508444  3
    401    400    409    418     1  0.0000000  1.0460000  1
    401    400    409    418     1  0.0000000  0.0000000  3
    401    400    409    410     1  0.0000000  0.6508444  3
    401    400    409    411     1  0.0000000  0.6508444  3
    402    400    409    418     1  0.0000000  1.0460000  1
    402    400    409    418     1  0.0000000  0.0000000  3
    402    400    409    410     1  0.0000000  0.6508444  3
    402    400    409    411     1  0.0000000  0.6508444  3
    403    391    390    419     1  0.0000000  0.6508444  3
    404    403    415    898     1  0.0000000  1.0460000  1
    404    403    415    898     1  0.0000000  0.0000000  3
    404    403    415    416     1  0.0000000  0.6508444  3
    404    403    415    417     1  0.0000000  0.6508444  3
    405    403    415    898     1  0.0000000  1.0460000  1
    405    403    415    898     1  0.0000000  0.0000000  3
    405    403    415    416     1  0.0000000  0.6508444  3
    405    403    415    417     1  0.0000000  0.6508444  3
    406    394    390    419     1  0.0000000  0.6508444  3
    407    406    412    868     1  0.0000000  1.0460000  1
    407    406    412    868     1  0.0000000  0.0000000  3
    407    406    412    413     1  0.0000000  0.6508444  3
    407    406    412    414     1  0.0000000  0.6508444  3
    408    406    412    868     1  0.0000000  1.0460000  1
    408    406    412    868     1  0.0000000  0.0000000  3
    408    406    412    413     1  0.0000000  0.6508444  3
    408    406    412    414     1  0.0000000  0.6508444  3
    412    868    859    860     1  0.0000000  1.6038667  3
    412    868    859    861     1  0.0000000  1.6038667  3
    413    412    868    859     1  0.0000000  1.6038667  3
    414    412    868    859     1  0.0000000  1.6038667  3
    415    898    889    890     1  0.0000000  1.6038667  3
    415    898    889    891     1  0.0000000  1.6038667  3
    416    415    898    889     1  0.0000000  1.6038667  3
    417    415    898    889     1  0.0000000  1.6038667  3
    420    421    433    434     1  0.0000000  0.6508444  3
    420    421    433    435     1  0.0000000  0.6508444  3
    420    424    436    437     1  0.0000000  0.6508444  3
    420    424    436    438     1  0.0000000  0.6508444  3
    420    427    430    431     1  0.0000000  0.6508444  3
    420    427    430    432     1  0.0000000  0.6508444  3
    421    420    424    425     1  0.0000000  0.6508444  3
    421    420    424    426     1  0.0000000  0.6508444  3
    421    420    427    428     1  0.0000000  0.6508444  3
    421    420    427    429     1  0.0000000  0.6508444  3
    421    433    445    446     1  0.0000000  0.6508444  3
    421    433    445    447     1  0.0000000  0.6508444  3
    422    421    420    424     1  0.0000000  0.6508444  3
    422    421    420    427     1  0.0000000  0.6508444  3
    422    421    420    449     1  0.0000000  0.6508444  3
    422    421    433    445     1  0.0000000  0.6508444  3
    422    421    433    434     1  0.0000000  0.6508444  3
    422    421    433    435     1  0.0000000  0.6508444  3
    423    421    420    424     1  0.0000000  0.6508444  3
    423    421    420    427     1  0.0000000  0.6508444  3
    423    421    420    449     1  0.0000000  0.6508444  3
    423    421    433    445     1  0.0000000  0.6508444  3
    423    421    433    434     1  0.0000000  0.6508444  3
    423    421    433    435     1  0.0000000  0.6508444  3
    424    420    427    428     1  0.0000000  0.6508444  3
    424    420    427    429     1  0.0000000  0.6508444  3
    424    436    442    443     1  0.0000000  0.6508444  3
    424    436    442    444     1  0.0000000  0.6508444  3
    425    424    420    427     1  0.0000000  0.6508444  3
    425    424    420    449     1  0.0000000  0.6508444  3
    425    424    436    442     1  0.0000000  0.6508444  3
    425    424    436    437     1  0.0000000  0.6508444  3
    425    424    436    438     1  0.0000000  0.6508444  3
    426    424    420    427     1  0.0000000  0.6508444  3
    426    424    420    449     1  0.0000000  0.6508444  3
    426    424    436    442     1  0.0000000  0.6508444  3
    426    424    436    437     1  0.0000000  0.6508444  3
    426    424    436    438     1  0.0000000  0.6508444  3
    427    430    439    440     1  0.0000000  0.6508444  3
    427    430    439    441     1  0.0000000  0.6508444  3
    428    427    420    449     1  0.0000000  0.6508444  3
    428    427    430    439     1  0.0000000  0.6508444  3
    428    427    430    431     1  0.0000000  0.6508444  3
    428    427    430    432     1  0.0000000  0.6508444  3
    429    427    420    449     1  0.0000000  0.6508444  3
    429    427    430    439     1  0.0000000  0.6508444  3
    429    427    430    431     1  0.0000000  0.6508444  3
    429    427    430    432     1  0.0000000  0.6508444  3
    430    427    420    449     1  0.0000000  0.6508444  3
    431    430    439    448     1  0.0000000  1.0460000  1
    431    430    439    448     1  0.0000000  0.0000000  3
    431    430    439    440     1  0.0000000  0.6508444  3
    431    430    439    441     1  0.0000000  0.6508444  3
    432    430    439    448     1  0.0000000  1.0460000  1
    432    430    439    448     1  0.0000000  0.0000000  3
    432    430    439    440     1  0.0000000  0.6508444  3
    432    430    439    441     1  0.0000000  0.6508444  3
    433    421    420    449     1  0.0000000  0.6508444  3
    434    433    445    958     1  0.0000000  1.0460000  1
    434    433    445    958     1  0.0000000  0.0000000  3
    434    433    445    446     1  0.0000000  0.6508444  3
    434    433    445    447     1  0.0000000  0.6508444  3
    435    433    445    958     1  0.0000000  1.0460000  1
    435    433    445    958     1  0.0000000  0.0000000  3
    435    433    445    446     1  0.0000000  0.6508444  3
    435    433    445    447     1  0.0000000  0.6508444  3
    436    424    420    449     1  0.0000000  0.6508444  3
    437    436    442    928     1  0.0000000  1.0460000  1
    437    436    442    928     1  0.0000000  0.0000000  3
    437    436    442    443     1  0.0000000  0.6508444  3
    437    436    442    444     1  0.0000000  0.6508444  3
    438    436    442    928     1  0.0000000  1.0460000  1
    438    436    442    928     1  0.0000000  0.0000000  3
    438    436    442    443     1  0.0000000  0.6508444  3
    438    436    442    444     1  0.0000000  0.6508444  3
    442    928    919    920     1  0.0000000  1.6038667  3
    442    928    919    921     1  0.0000000  1.6038667  3
    443    442    928    919     1  0.0000000  1.6038667  3
    444    442    928    919     1  0.0000000  1.6038667  3
    445    958    949    950     1  0.0000000  1.6038667  3
    445    958    949    951     1  0.0000000  1.6038667  3
    446    445    958    949     1  0.0000000  1.6038667  3
    447    445    958    949     1  0.0000000  1.6038667  3
    450    451    463    464     1  0.0000000  0.6508444  3
    450    451    463    465     1  0.0000000  0.6508444  3
    450    454    466    467     1  0.0000000  0.6508444  3
    450    454    466    468     1  0.0000000  0.6508444  3
    450    457    460    461     1  0.0000000  0.6508444  3
    450    457    460    462     1  0.0000000  0.6508444  3
    451    450    454    455     1  0.0000000  0.6508444  3
    451    450    454    456     1  0.0000000  0.6508444  3
    451    450    457    458     1  0.0000000  0.6508444  3
    451    450    457    459     1  0.0000000  0.6508444  3
    451    463    475    476     1  0.0000000  0.6508444  3
    451    463    475    477     1  0.0000000  0.6508444  3
    452    451    450    454     1  0.0000000  0.6508444  3
    452    451    450    457     1  0.0000000  0.6508444  3
    452    451    450    479     1  0.0000000  0.6508444  3
    452    451    463    475     1  0.0000000  0.6508444  3
    452    451    463    464     1  0.0000000  0.6508444  3
    452    451    463    465     1  0.0000000  0.6508444  3
    453    451    450    454     1  0.0000000  0.6508444  3
    453    451    450    457     1  0.0000000  0.6508444  3
    453    451    450    479     1  0.0000000  0.6508444  3
    453    451    463    475     1  0.0000000  0.6508444  3
    453    451    463    464     1  0.0000000  0.6508444  3
    453    451    463    465     1  0.0000000  0.6508444  3
    454    450    457    458     1  0.0000000  0.6508444  3
    454    450    457    459     1  0.0000000  0.6508444  3
    454    466    472    473     1  0.0000000  0.6508444  3
    454    466    472    474     1  0.0000000  0.6508444  3
    455    454    450    457     1  0.0000000  0.6508444  3
    455    454    450    479     1  0.0000000  0.6508444  3
    455    454    466    472     1  0.0000000  0.6508444  3
    455    454    466    467     1  0.0000000  0.6508444  3
    455    454    466    468     1  0.0000000  0.6508444  3
    456    454    450    457     1  0.0000000  0.6508444  3
    456    454    450    479     1  0.0000000  0.6508444  3
    456    454    466    472     1  0.0000000  0.6508444  3
    456    454    466    467     1  0.0000000  0.6508444  3
    456    454    466    468     1  0.0000000  0.6508444  3
    457    460    469    470     1  0.0000000  0.6508444  3
    457    460    469    471     1  0.0000000  0.6508444  3
    458    457    450    479     1  0.0000000  0.6508444  3
    458    457    460    469     1  0.0000000  0.6508444  3
    458    457    460    461     1  0.0000000  0.6508444  3
    458    457    460    462     1  0.0000000  0.6508444  3
    459    457    450    479     1  0.0000000  0.6508444  3
    459    457    460    469     1  0.0000000  0.6508444  3
    459    457    460    461     1  0.0000000  0.6508444  3
    459    457    460    462     1  0.0000000  0.6508444  3
    460    457    450    479     1  0.0000000  0.6508444  3
    461    460    469    478     1  0.0000000  1.0460000  1
    461    460    469    478     1  0.0000000  0.0000000  3
    461    460    469    470     1  0.0000000  0.6508444  3
    461    460    469    471     1  0.0000000  0.6508444  3
    462    460    469    478     1  0.0000000  1.0460000  1
    462    460    469    478     1  0.0000000  0.0000000  3
    462    460    469    470     1  0.0000000  0.6508444  3
    462    460    469    471     1  0.0000000  0.6508444  3
    463    451    450    479     1  0.0000000  0.6508444  3
    464    463    475   1018     1  0.0000000  1.0460000  1
    464    463    475   1018     1  0.0000000  0.0000000  3
    464    463    475    476     1  0.0000000  0.6508444  3
    464    463    475    477     1  0.0000000  0.6508444  3
    465    463    475   1018     1  0.0000000  1.0460000  1
    465    463    475   1018     1  0.0000000  0.0000000  3
    465    463    475    476     1  0.0000000  0.6508444  3
    465    463    475    477     1  0.0000000  0.6508444  3
    466    454    450    479     1  0.0000000  0.6508444  3
    467    466    472    988     1  0.0000000  1.0460000  1
    467    466    472    988     1  0.0000000  0.0000000  3
    467    466    472    473     1  0.0000000  0.6508444  3
    467    466    472    474     1  0.0000000  0.6508444  3
    468    466    472    988     1  0.0000000  1.0460000  1
    468    466    472    988     1  0.0000000  0.0000000  3
    468    466    472    473     1  0.0000000  0.6508444  3
    468    466    472    474     1  0.0000000  0.6508444  3
    472    988    979    980     1  0.0000000  1.6038667  3
    472    988    979    981     1  0.0000000  1.6038667  3
    473    472    988    979     1  0.0000000  1.6038667  3
    474    472    988    979     1  0.0000000  1.6038667  3
    475   1018   1009   1010     1  0.0000000  1.6038667  3
    475   1018   1009   1011     1  0.0000000  1.6038667  3
    476    475   1018   1009     1  0.0000000  1.6038667  3
    477    475   1018   1009     1  0.0000000  1.6038667  3
    480    481    493    494     1  0.0000000  0.6508444  3
    480    481    493    495     1  0.0000000  0.6508444  3
    480    484    496    497     1  0.0000000  0.6508444  3
    480    484    496    498     1  0.0000000  0.6508444  3
    480    487    490    491     1  0.0000000  0.6508444  3
    480    487    490    492     1  0.0000000  0.6508444  3
    481    480    484    485     1  0.0000000  0.6508444  3
    481    480    484    486     1  0.0000000  0.6508444  3
    481    480    487    488     1  0.0000000  0.6508444  3
    481    480    487    489     1  0.0000000  0.6508444  3
    481    493    505    506     1  0.0000000  0.6508444  3
    481    493    505    507     1  0.0000000  0.6508444  3
    482    481    480    484     1  0.0000000  0.6508444  3
    482    481    480    487     1  0.0000000  0.6508444  3
    482    481    480    509     1  0.0000000  0.6508444  3
    482    481    493    505     1  0.0000000  0.6508444  3
    482    481    493    494     1  0.0000000  0.6508444  3
    482    481    493    495     1  0.0000000  0.6508444  3
    483    481    480    484     1  0.0000000  0.6508444  3
    483    481    480    487     1  0.0000000  0.6508444  3
    483    481    480    509     1  0.0000000  0.6508444  3
    483    481    493    505     1  0.0000000  0.6508444  3
    483    481    493    494     1  0.0000000  0.6508444  3
    483    481    493    495     1  0.0000000  0.6508444  3
    484    480    487    488     1  0.0000000  0.6508444  3
    484    480    487    489     1  0.0000000  0.6508444  3
    484    496    502    503     1  0.0000000  0.6508444  3
    484    496    502    504     1  0.0000000  0.6508444  3
    485    484    480    487     1  0.0000000  0.6508444  3
    485    484    480    509     1  0.0000000  0.6508444  3
    485    484    496    502     1  0.0000000  0.6508444  3
    485    484    496    497     1  0.0000000  0.6508444  3
    485    484    496    498     1  0.0000000  0.6508444  3
    486    484    480    487     1  0.0000000  0.6508444  3
    486    484    480    509     1  0.0000000  0.6508444  3
    486    484    496    502     1  0.0000000  0.6508444  3
    486    484    496    497     1  0.0000000  0.6508444  3
    486    484    496    498     1  0.0000000  0.6508444  3
    487    490    499    500     1  0.0000000  0.6508444  3
    487    490    499    501     1  0.0000000  0.6508444  3
    488    487    480    509     1  0.0000000  0.6508444  3
    488    487    490    499     1  0.0000000  0.6508444  3
    488    487    490    491     1  0.0000000  0.6508444  3
    488    487    490    492     1  0.0000000  0.6508444  3
    489    487    480    509     1  0.0000000  0.6508444  3
    489    487    490    499     1  0.0000000  0.6508444  3
    489    487    490    491     1  0.0000000  0.6508444  3
    489    487    490    492     1  0.0000000  0.6508444  3
    490    487    480    509     1  0.0000000  0.6508444  3
    491    490    499    508     1  0.0000000  1.0460000  1
    491    490    499    508     1  0.0000000  0.0000000  3
    491    490    499    500     1  0.0000000  0.6508444  3
    491    490    499    501     1  0.0000000  0.6508444  3
    492    490    499    508     1  0.0000000  1.0460000  1
    492    490    499    508     1  0.0000000  0.0000000  3
    492    490    499    500     1  0.0000000  0.6508444  3
    492    490    499    501     1  0.0000000  0.6508444  3
    493    481    480    509     1  0.0000000  0.6508444  3
    494    493    505   1078     1  0.0000000  1.0460000  1
    494    493    505   1078     1  0.0000000  0.0000000  3
    494    493    505    506     1  0.0000000  0.6508444  3
    494    493    505    507     1  0.0000000  0.6508444  3
    495    493    505   1078     1  0.0000000  1.0460000  1
    495    493    505   1078     1  0.0000000  0.0000000  3
    495    493    505    506     1  0.0000000  0.6508444  3
    495    493    505    507     1  0.0000000  0.6508444  3
    496    484    480    509     1  0.0000000  0.6508444  3
    497    496    502   1048     1  0.0000000  1.0460000  1
    497    496    502   1048     1  0.0000000  0.0000000  3
    497    496    502    503     1  0.0000000  0.6508444  3
    497    496    502    504     1  0.0000000  0.6508444  3
    498    496    502   1048     1  0.0000000  1.0460000  1
    498    496    502   1048     1  0.0000000  0.0000000  3
    498    496    502    503     1  0.0000000  0.6508444  3
    498    496    502    504     1  0.0000000  0.6508444  3
    502   1048   1039   1040     1  0.0000000  1.6038667  3
    502   1048   1039   1041     1  0.0000000  1.6038667  3
    503    502   1048   1039     1  0.0000000  1.6038667  3
    504    502   1048   1039     1  0.0000000  1.6038667  3
    505   1078   1069   1070     1  0.0000000  1.6038667  3
    505   1078   1069   1071     1  0.0000000  1.6038667  3
    506    505   1078   1069     1  0.0000000  1.6038667  3
    507    505   1078   1069     1  0.0000000  1.6038667  3
    510    511    523    524     1  0.0000000  0.6508444  3
    510    511    523    525     1  0.0000000  0.6508444  3
    510    514    526    527     1  0.0000000  0.6508444  3
    510    514    526    528     1  0.0000000  0.6508444  3
    510    517    520    521     1  0.0000000  0.6508444  3
    510    517    520    522     1  0.0000000  0.6508444  3
    511    510    514    515     1  0.0000000  0.6508444  3
    511    510    514    516     1  0.0000000  0.6508444  3
    511    510    517    518     1  0.0000000  0.6508444  3
    511    510    517    519     1  0.0000000  0.6508444  3
    511    523    535    536     1  0.0000000  0.6508444  3
    511    523    535    537     1  0.0000000  0.6508444  3
    512    511    510    514     1  0.0000000  0.6508444  3
    512    511    510    517     1  0.0000000  0.6508444  3
    512    511    510    539     1  0.0000000  0.6508444  3
    512    511    523    535     1  0.0000000  0.6508444  3
    512    511    523    524     1  0.0000000  0.6508444  3
    512    511    523    525     1  0.0000000  0.6508444  3
    513    511    510    514     1  0.0000000  0.6508444  3
    513    511    510    517     1  0.0000000  0.6508444  3
    513    511    510    539     1  0.0000000  0.6508444  3
    513    511    523    535     1  0.0000000  0.6508444  3
    513    511    523    524     1  0.0000000  0.6508444  3
    513    511    523    525     1  0.0000000  0.6508444  3
    514    510    517    518     1  0.0000000  0.6508444  3
    514    510    517    519     1  0.0000000  0.6508444  3
    514    526    532    533     1  0.0000000  0.6508444  3
    514    526    532    534     1  0.0000000  0.6508444  3
    515    514    510    517     1  0.0000000  0.6508444  3
    515    514    510    539     1  0.0000000  0.6508444  3
    515    514    526    532     1  0.0000000  0.6508444  3
    515    514    526    527     1  0.0000000  0.6508444  3
    515    514    526    528     1  0.0000000  0.6508444  3
    516    514    510    517     1  0.0000000  0.6508444  3
    516    514    510    539     1  0.0000000  0.6508444  3
    516    514    526    532     1  0.0000000  0.6508444  3
    516    514    526    527     1  0.0000000  0.6508444  3
    516    514    526    528     1  0.0000000  0.6508444  3
    517    520    529    530     1  0.0000000  0.6508444  3
    517    520    529    531     1  0.0000000  0.6508444  3
    518    517    510    539     1  0.0000000  0.6508444  3
    518    517    520    529     1  0.0000000  0.6508444  3
    518    517    520    521     1  0.0000000  0.6508444  3
    518    517    520    522     1  0.0000000  0.6508444  3
    519    517    510    539     1  0.0000000  0.6508444  3
    519    517    520    529     1  0.0000000  0.6508444  3
    519    517    520    521     1  0.0000000  0.6508444  3
    519    517    520    522     1  0.0000000  0.6508444  3
    520    517    510    539     1  0.0000000  0.6508444  3
    521    520    529    538     1  0.0000000  1.0460000  1
    521    520    529    538     1  0.0000000  0.0000000  3
    521    520    529    530     1  0.0000000  0.6508444  3
    521    520    529    531     1  0.0000000  0.6508444  3
    522    520    529    538     1  0.0000000  1.0460000  1
    522    520    529    538     1  0.0000000  0.0000000  3
    522    520    529    530     1  0.0000000  0.6508444  3
    522    520    529    531     1  0.0000000  0.6508444  3
    523    511    510    539     1  0.0000000  0.6508444  3
    524    523    535   1138     1  0.0000000  1.0460000  1
    524    523    535   1138     1  0.0000000  0.0000000  3
    524    523    535    536     1  0.0000000  0.6508444  3
    524    523    535    537     1  0.0000000  0.6508444  3
    525    523    535   1138     1  0.0000000  1.0460000  1
    525    523    535   1138     1  0.0000000  0.0000000  3
    525    523    535    536     1  0.0000000  0.6508444  3
    525    523    535    537     1  0.0000000  0.6508444  3
    526    514    510    539     1  0.0000000  0.6508444  3
    527    526    532   1108     1  0.0000000  1.0460000  1
    527    526    532   1108     1  0.0000000  0.0000000  3
    527    526    532    533     1  0.0000000  0.6508444  3
    527    526    532    534     1  0.0000000  0.6508444  3
    528    526    532   1108     1  0.0000000  1.0460000  1
    528    526    532   1108     1  0.0000000  0.0000000  3
    528    526    532    533     1  0.0000000  0.6508444  3
    528    526    532    534     1  0.0000000  0.6508444  3
    532   1108   1099   1100     1  0.0000000  1.6038667  3
    532   1108   1099   1101     1  0.0000000  1.6038667  3
    533    532   1108   1099     1  0.0000000  1.6038667  3
    534    532   1108   1099     1  0.0000000  1.6038667  3
    535   1138   1129   1130     1  0.0000000  1.6038667  3
    535   1138   1129   1131     1  0.0000000  1.6038667  3
    536    535   1138   1129     1  0.0000000  1.6038667  3
    537    535   1138   1129     1  0.0000000  1.6038667  3
    540    541    553    554     1  0.0000000  0.6508444  3
    540    541    553    555     1  0.0000000  0.6508444  3
    540    544    556    557     1  0.0000000  0.6508444  3
    540    544    556    558     1  0.0000000  0.6508444  3
    540    547    550    551     1  0.0000000  0.6508444  3
    540    547    550    552     1  0.0000000  0.6508444  3
    541    540    544    545     1  0.0000000  0.6508444  3
    541    540    544    546     1  0.0000000  0.6508444  3
    541    540    547    548     1  0.0000000  0.6508444  3
    541    540    547    549     1  0.0000000  0.6508444  3
    541    553    565    566     1  0.0000000  0.6508444  3
    541    553    565    567     1  0.0000000  0.6508444  3
    542    541    540    544     1  0.0000000  0.6508444  3
    542    541    540    547     1  0.0000000  0.6508444  3
    542    541    540    569     1  0.0000000  0.6508444  3
    542    541    553    565     1  0.0000000  0.6508444  3
    542    541    553    554     1  0.0000000  0.6508444  3
    542    541    553    555     1  0.0000000  0.6508444  3
    543    541    540    544     1  0.0000000  0.6508444  3
    543    541    540    547     1  0.0000000  0.6508444  3
    543    541    540    569     1  0.0000000  0.6508444  3
    543    541    553    565     1  0.0000000  0.6508444  3
    543    541    553    554     1  0.0000000  0.6508444  3
    543    541    553    555     1  0.0000000  0.6508444  3
    544    540    547    548     1  0.0000000  0.6508444  3
    544    540    547    549     1  0.0000000  0.6508444  3
    544    556    562    563     1  0.0000000  0.6508444  3
    544    556    562    564     1  0.0000000  0.6508444  3
    545    544    540    547     1  0.0000000  0.6508444  3
    545    544    540    569     1  0.0000000  0.6508444  3
    545    544    556    562     1  0.0000000  0.6508444  3
    545    544    556    557     1  0.0000000  0.6508444  3
    545    544    556    558     1  0.0000000  0.6508444  3
    546    544    540    547     1  0.0000000  0.6508444  3
    546    544    540    569     1  0.0000000  0.6508444  3
    546    544    556    562     1  0.0000000  0.6508444  3
    546    544    556    557     1  0.0000000  0.6508444  3
    546    544    556    558     1  0.0000000  0.6508444  3
    547    550    559    560     1  0.0000000  0.6508444  3
    547    550    559    561     1  0.0000000  0.6508444  3
    548    547    540    569     1  0.0000000  0.6508444  3
    548    547    550    559     1  0.0000000  0.6508444  3
    548    547    550    551     1  0.0000000  0.6508444  3
    548    547    550    552     1  0.0000000  0.6508444  3
    549    547    540    569     1  0.0000000  0.6508444  3
    549    547    550    559     1  0.0000000  0.6508444  3
    549    547    550    551     1  0.0000000  0.6508444  3
    549    547    550    552     1  0.0000000  0.6508444  3
    550    547    540    569     1  0.0000000  0.6508444  3
    551    550    559    568     1  0.0000000  1.0460000  1
    551    550    559    568     1  0.0000000  0.0000000  3
    551    550    559    560     1  0.0000000  0.6508444  3
    551    550    559    561     1  0.0000000  0.6508444  3
    552    550    559    568     1  0.0000000  1.0460000  1
    552    550    559    568     1  0.0000000  0.0000000  3
    552    550    559    560     1  0.0000000  0.6508444  3
    552    550    559    561     1  0.0000000  0.6508444  3
    553    541    540    569     1  0.0000000  0.6508444  3
    554    553    565   1198     1  0.0000000  1.0460000  1
    554    553    565   1198     1  0.0000000  0.0000000  3
    554    553    565    566     1  0.0000000  0.6508444  3
    554    553    565    567     1  0.0000000  0.6508444  3
    555    553    565   1198     1  0.0000000  1.0460000  1
    555    553    565   1198     1  0.0000000  0.0000000  3
    555    553    565    566     1  0.0000000  0.6508444  3
    555    553    565    567     1  0.0000000  0.6508444  3
    556    544    540    569     1  0.0000000  0.6508444  3
    557    556    562   1168     1  0.0000000  1.0460000  1
    557    556    562   1168     1  0.0000000  0.0000000  3
    557    556    562    563     1  0.0000000  0.6508444  3
    557    556    562    564     1  0.0000000  0.6508444  3
    558    556    562   1168     1  0.0000000  1.0460000  1
    558    556    562   1168     1  0.0000000  0.0000000  3
    558    556    562    563     1  0.0000000  0.6508444  3
    558    556    562    564     1  0.0000000  0.6508444  3
    562   1168   1159   1160     1  0.0000000  1.6038667  3
    562   1168   1159   1161     1  0.0000000  1.6038667  3
    563    562   1168   1159     1  0.0000000  1.6038667  3
    564    562   1168   1159     1  0.0000000  1.6038667  3
    565   1198   1189   1190     1  0.0000000  1.6038667  3
    565   1198   1189   1191     1  0.0000000  1.6038667  3
    566    565   1198   1189     1  0.0000000  1.6038667  3
    567    565   1198   1189     1  0.0000000  1.6038667  3
    570    571    583    584     1  0.0000000  0.6508444  3
    570    571    583    585     1  0.0000000  0.6508444  3
    570    574    586    587     1  0.0000000  0.6508444  3
    570    574    586    588     1  0.0000000  0.6508444  3
    570    577    580    581     1  0.0000000  0.6508444  3
    570    577    580    582     1  0.0000000  0.6508444  3
    571    570    574    575     1  0.0000000  0.6508444  3
    571    570    574    576     1  0.0000000  0.6508444  3
    571    570    577    578     1  0.0000000  0.6508444  3
    571    570    577    579     1  0.0000000  0.6508444  3
    571    583    595    596     1  0.0000000  0.6508444  3
    571    583    595    597     1  0.0000000  0.6508444  3
    572    571    570    574     1  0.0000000  0.6508444  3
    572    571    570    577     1  0.0000000  0.6508444  3
    572    571    570    599     1  0.0000000  0.6508444  3
    572    571    583    595     1  0.0000000  0.6508444  3
    572    571    583    584     1  0.0000000  0.6508444  3
    572    571    583    585     1  0.0000000  0.6508444  3
    573    571    570    574     1  0.0000000  0.6508444  3
    573    571    570    577     1  0.0000000  0.6508444  3
    573    571    570    599     1  0.0000000  0.6508444  3
    573    571    583    595     1  0.0000000  0.6508444  3
    573    571    583    584     1  0.0000000  0.6508444  3
    573    571    583    585     1  0.0000000  0.6508444  3
    574    570    577    578     1  0.0000000  0.6508444  3
    574    570    577    579     1  0.0000000  0.6508444  3
    574    586    592    593     1  0.0000000  0.6508444  3
    574    586    592    594     1  0.0000000  0.6508444  3
    575    574    570    577     1  0.0000000  0.6508444  3
    575    574    570    599     1  0.0000000  0.6508444  3
    575    574    586    592     1  0.0000000  0.6508444  3
    575    574    586    587     1  0.0000000  0.6508444  3
    575    574    586    588     1  0.0000000  0.6508444  3
    576    574    570    577     1  0.0000000  0.6508444  3
    576    574    570    599     1  0.0000000  0.6508444  3
    576    574    586    592     1  0.0000000  0.6508444  3
    576    574    586    587     1  0.0000000  0.6508444  3
    576    574    586    588     1  0.0000000  0.6508444  3
    577    580    589    590     1  0.0000000  0.6508444  3
    577    580    589    591     1  0.0000000  0.6508444  3
    578    577    570    599     1  0.0000000  0.6508444  3
    578    577    580    589     1  0.0000000  0.6508444  3
    578    577    580    581     1  0.0000000  0.6508444  3
    578    577    580    582     1  0.0000000  0.6508444  3
    579    577    570    599     1  0.0000000  0.6508444  3
    579    577    580    589     1  0.0000000  0.6508444  3
    579    577    580    581     1  0.0000000  0.6508444  3
    579    577    580    582     1  0.0000000  0.6508444  3
    580    577    570    599     1  0.0000000  0.6508444  3
    581    580    589    598     1  0.0000000  1.0460000  1
    581    580    589    598     1  0.0000000  0.0000000  3
    581    580    589    590     1  0.0000000  0.6508444  3
    581    580    589    591     1  0.0000000  0.6508444  3
    582    580    589    598     1  0.0000000  1.0460000  1
    582    580    589    598     1  0.0000000  0.0000000  3
    582    580    589    590     1  0.0000000  0.6508444  3
    582    580    589    591     1  0.0000000  0.6508444  3
    583    571    570    599     1  0.0000000  0.6508444  3
    584    583    595   1258     1  0.0000000  1.0460000  1
    584    583    595   1258     1  0.0000000  0.0000000  3
    584    583    595    596     1  0.0000000  0.6508444  3
    584    583    595    597     1  0.0000000  0.6508444  3
    585    583    595   1258     1  0.0000000  1.0460000  1
    585    583    595   1258     1  0.0000000  0.0000000  3
    585    583    595    596     1  0.0000000  0.6508444  3
    585    583    595    597     1  0.0000000  0.6508444  3
    586    574    570    599     1  0.0000000  0.6508444  3
    587    586    592   1228     1  0.0000000  1.0460000  1
    587    586    592   1228     1  0.0000000  0.0000000  3
    587    586    592    593     1  0.0000000  0.6508444  3
    587    586    592    594     1  0.0000000  0.6508444  3
    588    586    592   1228     1  0.0000000  1.0460000  1
    588    586    592   1228     1  0.0000000  0.0000000  3
    588    586    592    593     1  0.0000000  0.6508444  3
    588    586    592    594     1  0.0000000  0.6508444  3
    592   1228   1219   1220     1  0.0000000  1.6038667  3
    592   1228   1219   1221     1  0.0000000  1.6038667  3
    593    592   1228   1219     1  0.0000000  1.6038667  3
    594    592   1228   1219     1  0.0000000  1.6038667  3
    595   1258   1249   1250     1  0.0000000  1.6038667  3
    595   1258   1249   1251     1  0.0000000  1.6038667  3
    596    595   1258   1249     1  0.0000000  1.6038667  3
    597    595   1258   1249     1  0.0000000  1.6038667  3
    600    601    613    614     1  0.0000000  0.6508444  3
    600    601    613    615     1  0.0000000  0.6508444  3
    600    604    616    617     1  0.0000000  0.6508444  3
    600    604    616    618     1  0.0000000  0.6508444  3
    600    607    610    611     1  0.0000000  0.6508444  3
    600    607    610    612     1  0.0000000  0.6508444  3
    601    600    604    605     1  0.0000000  0.6508444  3
    601    600    604    606     1  0.0000000  0.6508444  3
    601    600    607    608     1  0.0000000  0.6508444  3
    601    600    607    609     1  0.0000000  0.6508444  3
    601    613    625    626     1  0.0000000  0.6508444  3
    601    613    625    627     1  0.0000000  0.6508444  3
    602    601    600    604     1  0.0000000  0.6508444  3
    602    601    600    607     1  0.0000000  0.6508444  3
    602    601    600    629     1  0.0000000  0.6508444  3
    602    601    613    625     1  0.0000000  0.6508444  3
    602    601    613    614     1  0.0000000  0.6508444  3
    602    601    613    615     1  0.0000000  0.6508444  3
    603    601    600    604     1  0.0000000  0.6508444  3
    603    601    600    607     1  0.0000000  0.6508444  3
    603    601    600    629     1  0.0000000  0.6508444  3
    603    601    613    625     1  0.0000000  0.6508444  3
    603    601    613    614     1  0.0000000  0.6508444  3
    603    601    613    615     1  0.0000000  0.6508444  3
    604    600    607    608     1  0.0000000  0.6508444  3
    604    600    607    609     1  0.0000000  0.6508444  3
    604    616    622    623     1  0.0000000  0.6508444  3
    604    616    622    624     1  0.0000000  0.6508444  3
    605    604    600    607     1  0.0000000  0.6508444  3
    605    604    600    629     1  0.0000000  0.6508444  3
    605    604    616    622     1  0.0000000  0.6508444  3
    605    604    616    617     1  0.0000000  0.6508444  3
    605    604    616    618     1  0.0000000  0.6508444  3
    606    604    600    607     1  0.0000000  0.6508444  3
    606    604    600    629     1  0.0000000  0.6508444  3
    606    604    616    622     1  0.0000000  0.6508444  3
    606    604    616    617     1  0.0000000  0.6508444  3
    606    604    616    618     1  0.0000000  0.6508444  3
    607    610    619    620     1  0.0000000  0.6508444  3
    607    610    619    621     1  0.0000000  0.6508444  3
    608    607    600    629     1  0.0000000  0.6508444  3
    608    607    610    619     1  0.0000000  0.6508444  3
    608    607    610    611     1  0.0000000  0.6508444  3
    608    607    610    612     1  0.0000000  0.6508444  3
    609    607    600    629     1  0.0000000  0.6508444  3
    609    607    610    619     1  0.0000000  0.6508444  3
    609    607    610    611     1  0.0000000  0.6508444  3
    609    607    610    612     1  0.0000000  0.6508444  3
    610    607    600    629     1  0.0000000  0.6508444  3
    611    610    619    628     1  0.0000000  1.0460000  1
    611    610    619    628     1  0.0000000  0.0000000  3
    611    610    619    620     1  0.0000000  0.6508444  3
    611    610    619    621     1  0.0000000  0.6508444  3
    612    610    619    628     1  0.0000000  1.0460000  1
    612    610    619    628     1  0.0000000  0.0000000  3
    612    610    619    620     1  0.0000000  0.6508444  3
    612    610    619    621     1  0.0000000  0.6508444  3
    613    601    600    629     1  0.0000000  0.6508444  3
    614    613    625   1318     1  0.0000000  1.0460000  1
    614    613    625   1318     1  0.0000000  0.0000000  3
    614    613    625    626     1  0.0000000  0.6508444  3
    614    613    625    627     1  0.0000000  0.6508444  3
    615    613    625   1318     1  0.0000000  1.0460000  1
    615    613    625   1318     1  0.0000000  0.0000000  3
    615    613    625    626     1  0.0000000  0.6508444  3
    615    613    625    627     1  0.0000000  0.6508444  3
    616    604    600    629     1  0.0000000  0.6508444  3
    617    616    622   1288     1  0.0000000  1.0460000  1
    617    616    622   1288     1  0.0000000  0.0000000  3
    617    616    622    623     1  0.0000000  0.6508444  3
    617    616    622    624     1  0.0000000  0.6508444  3
    618    616    622   1288     1  0.0000000  1.0460000  1
    618    616    622   1288     1  0.0000000  0.0000000  3
    618    616    622    623     1  0.0000000  0.6508444  3
    618    616    622    624     1  0.0000000  0.6508444  3
    622   1288   1279   1280     1  0.0000000  1.6038667  3
    622   1288   1279   1281     1  0.0000000  1.6038667  3
    623    622   1288   1279     1  0.0000000  1.6038667  3
    624    622   1288   1279     1  0.0000000  1.6038667  3
    625   1318   1309   1310     1  0.0000000  1.6038667  3
    625   1318   1309   1311     1  0.0000000  1.6038667  3
    626    625   1318   1309     1  0.0000000  1.6038667  3
    627    625   1318   1309     1  0.0000000  1.6038667  3
    630    631    643    644     1  0.0000000  0.6508444  3
    630    631    643    645     1  0.0000000  0.6508444  3
    630    634    646    647     1  0.0000000  0.6508444  3
    630    634    646    648     1  0.0000000  0.6508444  3
    630    637    640    641     1  0.0000000  0.6508444  3
    630    637    640    642     1  0.0000000  0.6508444  3
    631    630    634    635     1  0.0000000  0.6508444  3
    631    630    634    636     1  0.0000000  0.6508444  3
    631    630    637    638     1  0.0000000  0.6508444  3
    631    630    637    639     1  0.0000000  0.6508444  3
    631    643    655    656     1  0.0000000  0.6508444  3
    631    643    655    657     1  0.0000000  0.6508444  3
    632    631    630    634     1  0.0000000  0.6508444  3
    632    631    630    637     1  0.0000000  0.6508444  3
    632    631    630    659     1  0.0000000  0.6508444  3
    632    631    643    655     1  0.0000000  0.6508444  3
    632    631    643    644     1  0.0000000  0.6508444  3
    632    631    643    645     1  0.0000000  0.6508444  3
    633    631    630    634     1  0.0000000  0.6508444  3
    633    631    630    637     1  0.0000000  0.6508444  3
    633    631    630    659     1  0.0000000  0.6508444  3
    633    631    643    655     1  0.0000000  0.6508444  3
    633    631    643    644     1  0.0000000  0.6508444  3
    633    631    643    645     1  0.0000000  0.6508444  3
    634    630    637    638     1  0.0000000  0.6508444  3
    634    630    637    639     1  0.0000000  0.6508444  3
    634    646    652    653     1  0.0000000  0.6508444  3
    634    646    652    654     1  0.0000000  0.6508444  3
    635    634    630    637     1  0.0000000  0.6508444  3
    635    634    630    659     1  0.0000000  0.6508444  3
    635    634    646    652     1  0.0000000  0.6508444  3
    635    634    646    647     1  0.0000000  0.6508444  3
    635    634    646    648     1  0.0000000  0.6508444  3
    636    634    630    637     1  0.0000000  0.6508444  3
    636    634    630    659     1  0.0000000  0.6508444  3
    636    634    646    652     1  0.0000000  0.6508444  3
    636    634    646    647     1  0.0000000  0.6508444  3
    636    634    646    648     1  0.0000000  0.6508444  3
    637    640    649    650     1  0.0000000  0.6508444  3
    637    640    649    651     1  0.0000000  0.6508444  3
    638    637    630    659     1  0.0000000  0.6508444  3
    638    637    640    649     1  0.0000000  0.6508444  3
    638    637    640    641     1  0.0000000  0.6508444  3
    638    637    640    642     1  0.0000000  0.6508444  3
    639    637    630    659     1  0.0000000  0.6508444  3
    639    637    640    649     1  0.0000000  0.6508444  3
    639    637    640    641     1  0.0000000  0.6508444  3
    639    637    640    642     1  0.0000000  0.6508444  3
    640    637    630    659     1  0.0000000  0.6508444  3
    641    640    649    658     1  0.0000000  1.0460000  1
    641    640    649    658     1  0.0000000  0.0000000  3
    641    640    649    650     1  0.0000000  0.6508444  3
    641    640    649    651     1  0.0000000  0.6508444  3
    642    640    649    658     1  0.0000000  1.0460000  1
    642    640    649    658     1  0.0000000  0.0000000  3
    642    640    649    650     1  0.0000000  0.6508444  3
    642    640    649    651     1  0.0000000  0.6508444  3
    643    631    630    659     1  0.0000000  0.6508444  3
    644    643    655   1378     1  0.0000000  1.0460000  1
    644    643    655   1378     1  0.0000000  0.0000000  3
    644    643    655    656     1  0.0000000  0.6508444  3
    644    643    655    657     1  0.0000000  0.6508444  3
    645    643    655   1378     1  0.0000000  1.0460000  1
    645    643    655   1378     1  0.0000000  0.0000000  3
    645    643    655    656     1  0.0000000  0.6508444  3
    645    643    655    657     1  0.0000000  0.6508444  3
    646    634    630    659     1  0.0000000  0.6508444  3
    647    646    652   1348     1  0.0000000  1.0460000  1
    647    646    652   1348     1  0.0000000  0.0000000  3
    647    646    652    653     1  0.0000000  0.6508444  3
    647    646    652    654     1  0.0000000  0.6508444  3
    648    646    652   1348     1  0.0000000  1.0460000  1
    648    646    652   1348     1  0.0000000  0.0000000  3
    648    646    652    653     1  0.0000000  0.6508444  3
    648    646    652    654     1  0.0000000  0.6508444  3
    652   1348   1339   1340     1  0.0000000  1.6038667  3
    652   1348   1339   1341     1  0.0000000  1.6038667  3
    653    652   1348   1339     1  0.0000000  1.6038667  3
    654    652   1348   1339     1  0.0000000  1.6038667  3
    655   1378   1369   1370     1  0.0000000  1.6038667  3
    655   1378   1369   1371     1  0.0000000  1.6038667  3
    656    655   1378   1369     1  0.0000000  1.6038667  3
    657    655   1378   1369     1  0.0000000  1.6038667  3
    660    661    673    674     1  0.0000000  0.6508444  3
    660    661    673    675     1  0.0000000  0.6508444  3
    660    664    676    677     1  0.0000000  0.6508444  3
    660    664    676    678     1  0.0000000  0.6508444  3
    660    667    670    671     1  0.0000000  0.6508444  3
    660    667    670    672     1  0.0000000  0.6508444  3
    661    660    664    665     1  0.0000000  0.6508444  3
    661    660    664    666     1  0.0000000  0.6508444  3
    661    660    667    668     1  0.0000000  0.6508444  3
    661    660    667    669     1  0.0000000  0.6508444  3
    661    673    685    686     1  0.0000000  0.6508444  3
    661    673    685    687     1  0.0000000  0.6508444  3
    662    661    660    664     1  0.0000000  0.6508444  3
    662    661    660    667     1  0.0000000  0.6508444  3
    662    661    660    689     1  0.0000000  0.6508444  3
    662    661    673    685     1  0.0000000  0.6508444  3
    662    661    673    674     1  0.0000000  0.6508444  3
    662    661    673    675     1  0.0000000  0.6508444  3
    663    661    660    664     1  0.0000000  0.6508444  3
    663    661    660    667     1  0.0000000  0.6508444  3
    663    661    660    689     1  0.0000000  0.6508444  3
    663    661    673    685     1  0.0000000  0.6508444  3
    663    661    673    674     1  0.0000000  0.6508444  3
    663    661    673    675     1  0.0000000  0.6508444  3
    664    660    667    668     1  0.0000000  0.6508444  3
    664    660    667    669     1  0.0000000  0.6508444  3
    664    676    682    683     1  0.0000000  0.6508444  3
    664    676    682    684     1  0.0000000  0.6508444  3
    665    664    660    667     1  0.0000000  0.6508444  3
    665    664    660    689     1  0.0000000  0.6508444  3
    665    664    676    682     1  0.0000000  0.6508444  3
    665    664    676    677     1  0.0000000  0.6508444  3
    665    664    676    678     1  0.0000000  0.6508444  3
    666    664    660    667     1  0.0000000  0.6508444  3
    666    664    660    689     1  0.0000000  0.6508444  3
    666    664    676    682     1  0.0000000  0.6508444  3
    666    664    676    677     1  0.0000000  0.6508444  3
    666    664    676    678     1  0.0000000  0.6508444  3
    667    670    679    680     1  0.0000000  0.6508444  3
    667    670    679    681     1  0.0000000  0.6508444  3
    668    667    660    689     1  0.0000000  0.6508444  3
    668    667    670    679     1  0.0000000  0.6508444  3
    668    667    670    671     1  0.0000000  0.6508444  3
    668    667    670    672     1  0.0000000  0.6508444  3
    669    667    660    689     1  0.0000000  0.6508444  3
    669    667    670    679     1  0.0000000  0.6508444  3
    669    667    670    671     1  0.0000000  0.6508444  3
    669    667    670    672     1  0.0000000  0.6508444  3
    670    667    660    689     1  0.0000000  0.6508444  3
    671    670    679    688     1  0.0000000  1.0460000  1
    671    670    679    688     1  0.0000000  0.0000000  3
    671    670    679    680     1  0.0000000  0.6508444  3
    671    670    679    681     1  0.0000000  0.6508444  3
    672    670    679    688     1  0.0000000  1.0460000  1
    672    670    679    688     1  0.0000000  0.0000000  3
    672    670    679    680     1  0.0000000  0.6508444  3
    672    670    679    681     1  0.0000000  0.6508444  3
    673    661    660    689     1  0.0000000  0.6508444  3
    674    673    685   1438     1  0.0000000  1.0460000  1
    674    673    685   1438     1  0.0000000  0.0000000  3
    674    673    685    686     1  0.0000000  0.6508444  3
    674    673    685    687     1  0.0000000  0.6508444  3
    675    673    685   1438     1  0.0000000  1.0460000  1
    675    673    685   1438     1  0.0000000  0.0000000  3
    675    673    685    686     1  0.0000000  0.6508444  3
    675    673    685    687     1  0.0000000  0.6508444  3
    676    664    660    689     1  0.0000000  0.6508444  3
    677    676    682   1408     1  0.0000000  1.0460000  1
    677    676    682   1408     1  0.0000000  0.0000000  3
    677    676    682    683     1  0.0000000  0.6508444  3
    677    676    682    684     1  0.0000000  0.6508444  3
    678    676    682   1408     1  0.0000000  1.0460000  1
    678    676    682   1408     1  0.0000000  0.0000000  3
    678    676    682    683     1  0.0000000  0.6508444  3
    678    676    682    684     1  0.0000000  0.6508444  3
    682   1408   1399   1400     1  0.0000000  1.6038667  3
    682   1408   1399   1401     1  0.0000000  1.6038667  3
    683    682   1408   1399     1  0.0000000  1.6038667  3
    684    682   1408   1399     1  0.0000000  1.6038667  3
    685   1438   1429   1430     1  0.0000000  1.6038667  3
    685   1438   1429   1431     1  0.0000000  1.6038667  3
    686    685   1438   1429     1  0.0000000  1.6038667  3
    687    685   1438   1429     1  0.0000000  1.6038667  3
    690    691    703    704     1  0.0000000  0.6508444  3
    690    691    703    705     1  0.0000000  0.6508444  3
    690    694    706    707     1  0.0000000  0.6508444  3
    690    694    706    708     1  0.0000000  0.6508444  3
    690    697    700    701     1  0.0000000  0.6508444  3
    690    697    700    702     1  0.0000000  0.6508444  3
    691    690    694    695     1  0.0000000  0.6508444  3
    691    690    694    696     1  0.0000000  0.6508444  3
    691    690    697    698     1  0.0000000  0.6508444  3
    691    690    697    699     1  0.0000000  0.6508444  3
    691    703    715    716     1  0.0000000  0.6508444  3
    691    703    715    717     1  0.0000000  0.6508444  3
    692    691    690    694     1  0.0000000  0.6508444  3
    692    691    690    697     1  0.0000000  0.6508444  3
    692    691    690    719     1  0.0000000  0.6508444  3
    692    691    703    715     1  0.0000000  0.6508444  3
    692    691    703    704     1  0.0000000  0.6508444  3
    692    691    703    705     1  0.0000000  0.6508444  3
    693    691    690    694     1  0.0000000  0.6508444  3
    693    691    690    697     1  0.0000000  0.6508444  3
    693    691    690    719     1  0.0000000  0.6508444  3
    693    691    703    715     1  0.0000000  0.6508444  3
    693    691    703    704     1  0.0000000  0.6508444  3
    693    691    703    705     1  0.0000000  0.6508444  3
    694    690    697    698     1  0.0000000  0.6508444  3
    694    690    697    699     1  0.0000000  0.6508444  3
    694    706    712    713     1  0.0000000  0.6508444  3
    694    706    712    714     1  0.0000000  0.6508444  3
    695    694    690    697     1  0.0000000  0.6508444  3
    695    694    690    719     1  0.0000000  0.6508444  3
    695    694    706    712     1  0.0000000  0.6508444  3
    695    694    706    707     1  0.0000000  0.6508444  3
    695    694    706    708     1  0.0000000  0.6508444  3
    696    694    690    697     1  0.0000000  0.6508444  3
    696    694    690    719     1  0.0000000  0.6508444  3
    696    694    706    712     1  0.0000000  0.6508444  3
    696    694    706    707     1  0.0000000  0.6508444  3
    696    694    706    708     1  0.0000000  0.6508444  3
    697    700    709    710     1  0.0000000  0.6508444  3
    697    700    709    711     1  0.0000000  0.6508444  3
    698    697    690    719     1  0.0000000  0.6508444  3
    698    697    700    709     1  0.0000000  0.6508444  3
    698    697    700    701     1  0.0000000  0.6508444  3
    698    697    700    702     1  0.0000000  0.6508444  3
    699    697    690    719     1  0.0000000  0.6508444  3
    699    697    700    709     1  0.0000000  0.6508444  3
    699    697    700    701     1  0.0000000  0.6508444  3
    699    697    700    702     1  0.0000000  0.6508444  3
    700    697    690    719     1  0.0000000  0.6508444  3
    701    700    709    718     1  0.0000000  1.0460000  1
    701    700    709    718     1  0.0000000  0.0000000  3
    701    700    709    710     1  0.0000000  0.6508444  3
    701    700    709    711     1  0.0000000  0.6508444  3
    702    700    709    718     1  0.0000000  1.0460000  1
    702    700    709    718     1  0.0000000  0.0000000  3
    702    700    709    710     1  0.0000000  0.6508444  3
    702    700    709    711     1  0.0000000  0.6508444  3
    703    691    690    719     1  0.0000000  0.6508444  3
    704    703    715   1498     1  0.0000000  1.0460000  1
    704    703    715   1498     1  0.0000000  0.0000000  3
    704    703    715    716     1  0.0000000  0.6508444  3
    704    703    715    717     1  0.0000000  0.6508444  3
    705    703    715   1498     1  0.0000000  1.0460000  1
    705    703    715   1498     1  0.0000000  0.0000000  3
    705    703    715    716     1  0.0000000  0.6508444  3
    705    703    715    717     1  0.0000000  0.6508444  3
    706    694    690    719     1  0.0000000  0.6508444  3
    707    706    712   1468     1  0.0000000  1.0460000  1
    707    706    712   1468     1  0.0000000  0.0000000  3
    707    706    712    713     1  0.0000000  0.6508444  3
    707    706    712    714     1  0.0000000  0.6508444  3
    708    706    712   1468     1  0.0000000  1.0460000  1
    708    706    712   1468     1  0.0000000  0.0000000  3
    708    706    712    713     1  0.0000000  0.6508444  3
    708    706    712    714     1  0.0000000  0.6508444  3
    712   1468   1459   1460     1  0.0000000  1.6038667  3
    712   1468   1459   1461     1  0.0000000  1.6038667  3
    713    712   1468   1459     1  0.0000000  1.6038667  3
    714    712   1468   1459     1  0.0000000  1.6038667  3
    715   1498   1489   1490     1  0.0000000  1.6038667  3
    715   1498   1489   1491     1  0.0000000  1.6038667  3
    716    715   1498   1489     1  0.0000000  1.6038667  3
    717    715   1498   1489     1  0.0000000  1.6038667  3
    720    721    733    734     1  0.0000000  0.6508444  3
    720    721    733    735     1  0.0000000  0.6508444  3
    720    724    736    737     1  0.0000000  0.6508444  3
    720    724    736    738     1  0.0000000  0.6508444  3
    720    727    730    731     1  0.0000000  0.6508444  3
    720    727    730    732     1  0.0000000  0.6508444  3
    721    720    724    725     1  0.0000000  0.6508444  3
    721    720    724    726     1  0.0000000  0.6508444  3
    721    720    727    728     1  0.0000000  0.6508444  3
    721    720    727    729     1  0.0000000  0.6508444  3
    721    733    745    746     1  0.0000000  0.6508444  3
    721    733    745    747     1  0.0000000  0.6508444  3
    722    721    720    724     1  0.0000000  0.6508444  3
    722    721    720    727     1  0.0000000  0.6508444  3
    722    721    720    749     1  0.0000000  0.6508444  3
    722    721    733    745     1  0.0000000  0.6508444  3
    722    721    733    734     1  0.0000000  0.6508444  3
    722    721    733    735     1  0.0000000  0.6508444  3
    723    721    720    724     1  0.0000000  0.6508444  3
    723    721    720    727     1  0.0000000  0.6508444  3
    723    721    720    749     1  0.0000000  0.6508444  3
    723    721    733    745     1  0.0000000  0.6508444  3
    723    721    733    734     1  0.0000000  0.6508444  3
    723    721    733    735     1  0.0000000  0.6508444  3
    724    720    727    728     1  0.0000000  0.6508444  3
    724    720    727    729     1  0.0000000  0.6508444  3
    724    736    742    743     1  0.0000000  0.6508444  3
    724    736    742    744     1  0.0000000  0.6508444  3
    725    724    720    727     1  0.0000000  0.6508444  3
    725    724    720    749     1  0.0000000  0.6508444  3
    725    724    736    742     1  0.0000000  0.6508444  3
    725    724    736    737     1  0.0000000  0.6508444  3
    725    724    736    738     1  0.0000000  0.6508444  3
    726    724    720    727     1  0.0000000  0.6508444  3
    726    724    720    749     1  0.0000000  0.6508444  3
    726    724    736    742     1  0.0000000  0.6508444  3
    726    724    736    737     1  0.0000000  0.6508444  3
    726    724    736    738     1  0.0000000  0.6508444  3
    727    730    739    740     1  0.0000000  0.6508444  3
    727    730    739    741     1  0.0000000  0.6508444  3
    728    727    720    749     1  0.0000000  0.6508444  3
    728    727    730    739     1  0.0000000  0.6508444  3
    728    727    730    731     1  0.0000000  0.6508444  3
    728    727    730    732     1  0.0000000  0.6508444  3
    729    727    720    749     1  0.0000000  0.6508444  3
    729    727    730    739     1  0.0000000  0.6508444  3
    729    727    730    731     1  0.0000000  0.6508444  3
    729    727    730    732     1  0.0000000  0.6508444  3
    730    727    720    749     1  0.0000000  0.6508444  3
    731    730    739    748     1  0.0000000  1.0460000  1
    731    730    739    748     1  0.0000000  0.0000000  3
    731    730    739    740     1  0.0000000  0.6508444  3
    731    730    739    741     1  0.0000000  0.6508444  3
    732    730    739    748     1  0.0000000  1.0460000  1
    732    730    739    748     1  0.0000000  0.0000000  3
    732    730    739    740     1  0.0000000  0.6508444  3
    732    730    739    741     1  0.0000000  0.6508444  3
    733    721    720    749     1  0.0000000  0.6508444  3
    734    733    745   1558     1  0.0000000  1.0460000  1
    734    733    745   1558     1  0.0000000  0.0000000  3
    734    733    745    746     1  0.0000000  0.6508444  3
    734    733    745    747     1  0.0000000  0.6508444  3
    735    733    745   1558     1  0.0000000  1.0460000  1
    735    733    745   1558     1  0.0000000  0.0000000  3
    735    733    745    746     1  0.0000000  0.6508444  3
    735    733    745    747     1  0.0000000  0.6508444  3
    736    724    720    749     1  0.0000000  0.6508444  3
    737    736    742   1528     1  0.0000000  1.0460000  1
    737    736    742   1528     1  0.0000000  0.0000000  3
    737    736    742    743     1  0.0000000  0.6508444  3
    737    736    742    744     1  0.0000000  0.6508444  3
    738    736    742   1528     1  0.0000000  1.0460000  1
    738    736    742   1528     1  0.0000000  0.0000000  3
    738    736    742    743     1  0.0000000  0.6508444  3
    738    736    742    744     1  0.0000000  0.6508444  3
    742   1528   1519   1520     1  0.0000000  1.6038667  3
    742   1528   1519   1521     1  0.0000000  1.6038667  3
    743    742   1528   1519     1  0.0000000  1.6038667  3
    744    742   1528   1519     1  0.0000000  1.6038667  3
    745   1558   1549   1550     1  0.0000000  1.6038667  3
    745   1558   1549   1551     1  0.0000000  1.6038667  3
    746    745   1558   1549     1  0.0000000  1.6038667  3
    747    745   1558   1549     1  0.0000000  1.6038667  3
    750    751    763    764     1  0.0000000  0.6508444  3
    750    751    763    765     1  0.0000000  0.6508444  3
    750    754    766    767     1  0.0000000  0.6508444  3
    750    754    766    768     1  0.0000000  0.6508444  3
    750    757    760    761     1  0.0000000  0.6508444  3
    750    757    760    762     1  0.0000000  0.6508444  3
    751    750    754    755     1  0.0000000  0.6508444  3
    751    750    754    756     1  0.0000000  0.6508444  3
    751    750    757    758     1  0.0000000  0.6508444  3
    751    750    757    759     1  0.0000000  0.6508444  3
    751    763    775    776     1  0.0000000  0.6508444  3
    751    763    775    777     1  0.0000000  0.6508444  3
    752    751    750    754     1  0.0000000  0.6508444  3
    752    751    750    757     1  0.0000000  0.6508444  3
    752    751    750    779     1  0.0000000  0.6508444  3
    752    751    763    775     1  0.0000000  0.6508444  3
    752    751    763    764     1  0.0000000  0.6508444  3
    752    751    763    765     1  0.0000000  0.6508444  3
    753    751    750    754     1  0.0000000  0.6508444  3
    753    751    750    757     1  0.0000000  0.6508444  3
    753    751    750    779     1  0.0000000  0.6508444  3
    753    751    763    775     1  0.0000000  0.6508444  3
    753    751    763    764     1  0.0000000  0.6508444  3
    753    751    763    765     1  0.0000000  0.6508444  3
    754    750    757    758     1  0.0000000  0.6508444  3
    754    750    757    759     1  0.0000000  0.6508444  3
    754    766    772    773     1  0.0000000  0.6508444  3
    754    766    772    774     1  0.0000000  0.6508444  3
    755    754    750    757     1  0.0000000  0.6508444  3
    755    754    750    779     1  0.0000000  0.6508444  3
    755    754    766    772     1  0.0000000  0.6508444  3
    755    754    766    767     1  0.0000000  0.6508444  3
    755    754    766    768     1  0.0000000  0.6508444  3
    756    754    750    757     1  0.0000000  0.6508444  3
    756    754    750    779     1  0.0000000  0.6508444  3
    756    754    766    772     1  0.0000000  0.6508444  3
    756    754    766    767     1  0.0000000  0.6508444  3
    756    754    766    768     1  0.0000000  0.6508444  3
    757    760    769    770     1  0.0000000  0.6508444  3
    757    760    769    771     1  0.0000000  0.6508444  3
    758    757    750    779     1  0.0000000  0.6508444  3
    758    757    760    769     1  0.0000000  0.6508444  3
    758    757    760    761     1  0.0000000  0.6508444  3
    758    757    760    762     1  0.0000000  0.6508444  3
    759    757    750    779     1  0.0000000  0.6508444  3
    759    757    760    769     1  0.0000000  0.6508444  3
    759    757    760    761     1  0.0000000  0.6508444  3
    759    757    760    762     1  0.0000000  0.6508444  3
    760    757    750    779     1  0.0000000  0.6508444  3
    761    760    769    778     1  0.0000000  1.0460000  1
    761    760    769    778     1  0.0000000  0.0000000  3
    761    760    769    770     1  0.0000000  0.6508444  3
    761    760    769    771     1  0.0000000  0.6508444  3
    762    760    769    778     1  0.0000000  1.0460000  1
    762    760    769    778     1  0.0000000  0.0000000  3
    762    760    769    770     1  0.0000000  0.6508444  3
    762    760    769    771     1  0.0000000  0.6508444  3
    763    751    750    779     1  0.0000000  0.6508444  3
    764    763    775   1618     1  0.0000000  1.0460000  1
    764    763    775   1618     1  0.0000000  0.0000000  3
    764    763    775    776     1  0.0000000  0.6508444  3
    764    763    775    777     1  0.0000000  0.6508444  3
    765    763    775   1618     1  0.0000000  1.0460000  1
    765    763    775   1618     1  0.0000000  0.0000000  3
    765    763    775    776     1  0.0000000  0.6508444  3
    765    763    775    777     1  0.0000000  0.6508444  3
    766    754    750    779     1  0.0000000  0.6508444  3
    767    766    772   1588     1  0.0000000  1.0460000  1
    767    766    772   1588     1  0.0000000  0.0000000  3
    767    766    772    773     1  0.0000000  0.6508444  3
    767    766    772    774     1  0.0000000  0.6508444  3
    768    766    772   1588     1  0.0000000  1.0460000  1
    768    766    772   1588     1  0.0000000  0.0000000  3
    768    766    772    773     1  0.0000000  0.6508444  3
    768    766    772    774     1  0.0000000  0.6508444  3
    772   1588   1579   1580     1  0.0000000  1.6038667  3
    772   1588   1579   1581     1  0.0000000  1.6038667  3
    773    772   1588   1579     1  0.0000000  1.6038667  3
    774    772   1588   1579     1  0.0000000  1.6038667  3
    775   1618   1609   1610     1  0.0000000  1.6038667  3
    775   1618   1609   1611     1  0.0000000  1.6038667  3
    776    775   1618   1609     1  0.0000000  1.6038667  3
    777    775   1618   1609     1  0.0000000  1.6038667  3
    780    781    793    794     1  0.0000000  0.6508444  3
    780    781    793    795     1  0.0000000  0.6508444  3
    780    784    796    797     1  0.0000000  0.6508444  3
    780    784    796    798     1  0.0000000  0.6508444  3
    780    787    790    791     1  0.0000000  0.6508444  3
    780    787    790    792     1  0.0000000  0.6508444  3
    781    780    784    785     1  0.0000000  0.6508444  3
    781    780    784    786     1  0.0000000  0.6508444  3
    781    780    787    788     1  0.0000000  0.6508444  3
    781    780    787    789     1  0.0000000  0.6508444  3
    781    793    805    806     1  0.0000000  0.6508444  3
    781    793    805    807     1  0.0000000  0.6508444  3
    782    781    780    784     1  0.0000000  0.6508444  3
    782    781    780    787     1  0.0000000  0.6508444  3
    782    781    780    809     1  0.0000000  0.6508444  3
    782    781    793    805     1  0.0000000  0.6508444  3
    782    781    793    794     1  0.0000000  0.6508444  3
    782    781    793    795     1  0.0000000  0.6508444  3
    783    781    780    784     1  0.0000000  0.6508444  3
    783    781    780    787     1  0.0000000  0.6508444  3
    783    781    780    809     1  0.0000000  0.6508444  3
    783    781    793    805     1  0.0000000  0.6508444  3
    783    781    793    794     1  0.0000000  0.6508444  3
    783    781    793    795     1  0.0000000  0.6508444  3
    784    780    787    788     1  0.0000000  0.6508444  3
    784    780    787    789     1  0.0000000  0.6508444  3
    784    796    802    803     1  0.0000000  0.6508444  3
    784    796    802    804     1  0.0000000  0.6508444  3
    785    784    780    787     1  0.0000000  0.6508444  3
    785    784    780    809     1  0.0000000  0.6508444  3
    785    784    796    802     1  0.0000000  0.6508444  3
    785    784    796    797     1  0.0000000  0.6508444  3
    785    784    796    798     1  0.0000000  0.6508444  3
    786    784    780    787     1  0.0000000  0.6508444  3
    786    784    780    809     1  0.0000000  0.6508444  3
    786    784    796    802     1  0.0000000  0.6508444  3
    786    784    796    797     1  0.0000000  0.6508444  3
    786    784    796    798     1  0.0000000  0.6508444  3
    787    790    799    800     1  0.0000000  0.6508444  3
    787    790    799    801     1  0.0000000  0.6508444  3
    788    787    780    809     1  0.0000000  0.6508444  3
    788    787    790    799     1  0.0000000  0.6508444  3
    788    787    790    791     1  0.0000000  0.6508444  3
    788    787    790    792     1  0.0000000  0.6508444  3
    789    787    780    809     1  0.0000000  0.6508444  3
    789    787    790    799     1  0.0000000  0.6508444  3
    789    787    790    791     1  0.0000000  0.6508444  3
    789    787    790    792     1  0.0000000  0.6508444  3
    790    787    780    809     1  0.0000000  0.6508444  3
    791    790    799    808     1  0.0000000  1.0460000  1
    791    790    799    808     1  0.0000000  0.0000000  3
    791    790    799    800     1  0.0000000  0.6508444  3
    791    790    799    801     1  0.0000000  0.6508444  3
    792    790    799    808     1  0.0000000  1.0460000  1
    792    790    799    808     1  0.0000000  0.0000000  3
    792    790    799    800     1  0.0000000  0.6508444  3
    792    790    799    801     1  0.0000000  0.6508444  3
    793    781    780    809     1  0.0000000  0.6508444  3
    794    793    805   1678     1  0.0000000  1.0460000  1
    794    793    805   1678     1  0.0000000  0.0000000  3
    794    793    805    806     1  0.0000000  0.6508444  3
    794    793    805    807     1  0.0000000  0.6508444  3
    795    793    805   1678     1  0.0000000  1.0460000  1
    795    793    805   1678     1  0.0000000  0.0000000  3
    795    793    805    806     1  0.0000000  0.6508444  3
    795    793    805    807     1  0.0000000  0.6508444  3
    796    784    780    809     1  0.0000000  0.6508444  3
    797    796    802   1648     1  0.0000000  1.0460000  1
    797    796    802   1648     1  0.0000000  0.0000000  3
    797    796    802    803     1  0.0000000  0.6508444  3
    797    796    802    804     1  0.0000000  0.6508444  3
    798    796    802   1648     1  0.0000000  1.0460000  1
    798    796    802   1648     1  0.0000000  0.0000000  3
    798    796    802    803     1  0.0000000  0.6508444  3
    798    796    802    804     1  0.0000000  0.6508444  3
    802   1648   1639   1640     1  0.0000000  1.6038667  3
    802   1648   1639   1641     1  0.0000000  1.6038667  3
    803    802   1648   1639     1  0.0000000  1.6038667  3
    804    802   1648   1639     1  0.0000000  1.6038667  3
    805   1678   1669   1670     1  0.0000000  1.6038667  3
    805   1678   1669   1671     1  0.0000000  1.6038667  3
    806    805   1678   1669     1  0.0000000  1.6038667  3
    807    805   1678   1669     1  0.0000000  1.6038667  3
    810    811    823    824     1  0.0000000  0.6508444  3
    810    811    823    825     1  0.0000000  0.6508444  3
    810    814    826    827     1  0.0000000  0.6508444  3
    810    814    826    828     1  0.0000000  0.6508444  3
    810    817    820    821     1  0.0000000  0.6508444  3
    810    817    820    822     1  0.0000000  0.6508444  3
    811    810    814    815     1  0.0000000  0.6508444  3
    811    810    814    816     1  0.0000000  0.6508444  3
    811    810    817    818     1  0.0000000  0.6508444  3
    811    810    817    819     1  0.0000000  0.6508444  3
    811    823    835    836     1  0.0000000  0.6508444  3
    811    823    835    837     1  0.0000000  0.6508444  3
    812    811    810    814     1  0.0000000  0.6508444  3
    812    811    810    817     1  0.0000000  0.6508444  3
    812    811    810    839     1  0.0000000  0.6508444  3
    812    811    823    835     1  0.0000000  0.6508444  3
    812    811    823    824     1  0.0000000  0.6508444  3
    812    811    823    825     1  0.0000000  0.6508444  3
    813    811    810    814     1  0.0000000  0.6508444  3
    813    811    810    817     1  0.0000000  0.6508444  3
    813    811    810    839     1  0.0000000  0.6508444  3
    813    811    823    835     1  0.0000000  0.6508444  3
    813    811    823    824     1  0.0000000  0.6508444  3
    813    811    823    825     1  0.0000000  0.6508444  3
    814    810    817    818     1  0.0000000  0.6508444  3
    814    810    817    819     1  0.0000000  0.6508444  3
    814    826    832    833     1  0.0000000  0.6508444  3
    814    826    832    834     1  0.0000000  0.6508444  3
    815    814    810    817     1  0.0000000  0.6508444  3
    815    814    810    839     1  0.0000000  0.6508444  3
    815    814    826    832     1  0.0000000  0.6508444  3
    815    814    826    827     1  0.0000000  0.6508444  3
    815    814    826    828     1  0.0000000  0.6508444  3
    816    814    810    817     1  0.0000000  0.6508444  3
    816    814    810    839     1  0.0000000  0.6508444  3
    816    814    826    832     1  0.0000000  0.6508444  3
    816    814    826    827     1  0.0000000  0.6508444  3
    816    814    826    828     1  0.0000000  0.6508444  3
    817    820    829    830     1  0.0000000  0.6508444  3
    817    820    829    831     1  0.0000000  0.6508444  3
    818    817    810    839     1  0.0000000  0.6508444  3
    818    817    820    829     1  0.0000000  0.6508444  3
    818    817    820    821     1  0.0000000  0.6508444  3
    818    817    820    822     1  0.0000000  0.6508444  3
    819    817    810    839     1  0.0000000  0.6508444  3
    819    817    820    829     1  0.0000000  0.6508444  3
    819    817    820    821     1  0.0000000  0.6508444  3
    819    817    820    822     1  0.0000000  0.6508444  3
    820    817    810    839     1  0.0000000  0.6508444  3
    821    820    829    838     1  0.0000000  1.0460000  1
    821    820    829    838     1  0.0000000  0.0000000  3
    821    820    829    830     1  0.0000000  0.6508444  3
    821    820    829    831     1  0.0000000  0.6508444  3
    822    820    829    838     1  0.0000000  1.0460000  1
    822    820    829    838     1  0.0000000  0.0000000  3
    822    820    829    830     1  0.0000000  0.6508444  3
    822    820    829    831     1  0.0000000  0.6508444  3
    823    811    810    839     1  0.0000000  0.6508444  3
    824    823    835   1738     1  0.0000000  1.0460000  1
    824    823    835   1738     1  0.0000000  0.0000000  3
    824    823    835    836     1  0.0000000  0.6508444  3
    824    823    835    837     1  0.0000000  0.6508444  3
    825    823    835   1738     1  0.0000000  1.0460000  1
    825    823    835   1738     1  0.0000000  0.0000000  3
    825    823    835    836     1  0.0000000  0.6508444  3
    825    823    835    837     1  0.0000000  0.6508444  3
    826    814    810    839     1  0.0000000  0.6508444  3
    827    826    832   1708     1  0.0000000  1.0460000  1
    827    826    832   1708     1  0.0000000  0.0000000  3
    827    826    832    833     1  0.0000000  0.6508444  3
    827    826    832    834     1  0.0000000  0.6508444  3
    828    826    832   1708     1  0.0000000  1.0460000  1
    828    826    832   1708     1  0.0000000  0.0000000  3
    828    826    832    833     1  0.0000000  0.6508444  3
    828    826    832    834     1  0.0000000  0.6508444  3
    832   1708   1699   1700     1  0.0000000  1.6038667  3
    832   1708   1699   1701     1  0.0000000  1.6038667  3
    833    832   1708   1699     1  0.0000000  1.6038667  3
    834    832   1708   1699     1  0.0000000  1.6038667  3
    835   1738   1729   1730     1  0.0000000  1.6038667  3
    835   1738   1729   1731     1  0.0000000  1.6038667  3
    836    835   1738   1729     1  0.0000000  1.6038667  3
    837    835   1738   1729     1  0.0000000  1.6038667  3
    840    841    853    854     1  0.0000000  0.6508444  3
    840    841    853    855     1  0.0000000  0.6508444  3
    840    844    856    857     1  0.0000000  0.6508444  3
    840    844    856    858     1  0.0000000  0.6508444  3
    840    847    850    851     1  0.0000000  0.6508444  3
    840    847    850    852     1  0.0000000  0.6508444  3
    841    840    844    845     1  0.0000000  0.6508444  3
    841    840    844    846     1  0.0000000  0.6508444  3
    841    840    847    848     1  0.0000000  0.6508444  3
    841    840    847    849     1  0.0000000  0.6508444  3
    841    853    865    866     1  0.0000000  0.6508444  3
    841    853    865    867     1  0.0000000  0.6508444  3
    842    841    840    844     1  0.0000000  0.6508444  3
    842    841    840    847     1  0.0000000  0.6508444  3
    842    841    840    869     1  0.0000000  0.6508444  3
    842    841    853    865     1  0.0000000  0.6508444  3
    842    841    853    854     1  0.0000000  0.6508444  3
    842    841    853    855     1  0.0000000  0.6508444  3
    843    841    840    844     1  0.0000000  0.6508444  3
    843    841    840    847     1  0.0000000  0.6508444  3
    843    841    840    869     1  0.0000000  0.6508444  3
    843    841    853    865     1  0.0000000  0.6508444  3
    843    841    853    854     1  0.0000000  0.6508444  3
    843    841    853    855     1  0.0000000  0.6508444  3
    844    840    847    848     1  0.0000000  0.6508444  3
    844    840    847    849     1  0.0000000  0.6508444  3
    844    856    862    863     1  0.0000000  0.6508444  3
    844    856    862    864     1  0.0000000  0.6508444  3
    845    844    840    847     1  0.0000000  0.6508444  3
    845    844    840    869     1  0.0000000  0.6508444  3
    845    844    856    862     1  0.0000000  0.6508444  3
    845    844    856    857     1  0.0000000  0.6508444  3
    845    844    856    858     1  0.0000000  0.6508444  3
    846    844    840    847     1  0.0000000  0.6508444  3
    846    844    840    869     1  0.0000000  0.6508444  3
    846    844    856    862     1  0.0000000  0.6508444  3
    846    844    856    857     1  0.0000000  0.6508444  3
    846    844    856    858     1  0.0000000  0.6508444  3
    847    850    859    860     1  0.0000000  0.6508444  3
    847    850    859    861     1  0.0000000  0.6508444  3
    848    847    840    869     1  0.0000000  0.6508444  3
    848    847    850    859     1  0.0000000  0.6508444  3
    848    847    850    851     1  0.0000000  0.6508444  3
    848    847    850    852     1  0.0000000  0.6508444  3
    849    847    840    869     1  0.0000000  0.6508444  3
    849    847    850    859     1  0.0000000  0.6508444  3
    849    847    850    851     1  0.0000000  0.6508444  3
    849    847    850    852     1  0.0000000  0.6508444  3
    850    847    840    869     1  0.0000000  0.6508444  3
    851    850    859    868     1  0.0000000  1.0460000  1
    851    850    859    868     1  0.0000000  0.0000000  3
    851    850    859    860     1  0.0000000  0.6508444  3
    851    850    859    861     1  0.0000000  0.6508444  3
    852    850    859    868     1  0.0000000  1.0460000  1
    852    850    859    868     1  0.0000000  0.0000000  3
    852    850    859    860     1  0.0000000  0.6508444  3
    852    850    859    861     1  0.0000000  0.6508444  3
    853    841    840    869     1  0.0000000  0.6508444  3
    854    853    865   1798     1  0.0000000  1.0460000  1
    854    853    865   1798     1  0.0000000  0.0000000  3
    854    853    865    866     1  0.0000000  0.6508444  3
    854    853    865    867     1  0.0000000  0.6508444  3
    855    853    865   1798     1  0.0000000  1.0460000  1
    855    853    865   1798     1  0.0000000  0.0000000  3
    855    853    865    866     1  0.0000000  0.6508444  3
    855    853    865    867     1  0.0000000  0.6508444  3
    856    844    840    869     1  0.0000000  0.6508444  3
    857    856    862   1768     1  0.0000000  1.0460000  1
    857    856    862   1768     1  0.0000000  0.0000000  3
    857    856    862    863     1  0.0000000  0.6508444  3
    857    856    862    864     1  0.0000000  0.6508444  3
    858    856    862   1768     1  0.0000000  1.0460000  1
    858    856    862   1768     1  0.0000000  0.0000000  3
    858    856    862    863     1  0.0000000  0.6508444  3
    858    856    862    864     1  0.0000000  0.6508444  3
    862   1768   1759   1760     1  0.0000000  1.6038667  3
    862   1768   1759   1761     1  0.0000000  1.6038667  3
    863    862   1768   1759     1  0.0000000  1.6038667  3
    864    862   1768   1759     1  0.0000000  1.6038667  3
    865   1798   1789   1790     1  0.0000000  1.6038667  3
    865   1798   1789   1791     1  0.0000000  1.6038667  3
    866    865   1798   1789     1  0.0000000  1.6038667  3
    867    865   1798   1789     1  0.0000000  1.6038667  3
    870    871    883    884     1  0.0000000  0.6508444  3
    870    871    883    885     1  0.0000000  0.6508444  3
    870    874    886    887     1  0.0000000  0.6508444  3
    870    874    886    888     1  0.0000000  0.6508444  3
    870    877    880    881     1  0.0000000  0.6508444  3
    870    877    880    882     1  0.0000000  0.6508444  3
    871    870    874    875     1  0.0000000  0.6508444  3
    871    870    874    876     1  0.0000000  0.6508444  3
    871    870    877    878     1  0.0000000  0.6508444  3
    871    870    877    879     1  0.0000000  0.6508444  3
    871    883    895    896     1  0.0000000  0.6508444  3
    871    883    895    897     1  0.0000000  0.6508444  3
    872    871    870    874     1  0.0000000  0.6508444  3
    872    871    870    877     1  0.0000000  0.6508444  3
    872    871    870    899     1  0.0000000  0.6508444  3
    872    871    883    895     1  0.0000000  0.6508444  3
    872    871    883    884     1  0.0000000  0.6508444  3
    872    871    883    885     1  0.0000000  0.6508444  3
    873    871    870    874     1  0.0000000  0.6508444  3
    873    871    870    877     1  0.0000000  0.6508444  3
    873    871    870    899     1  0.0000000  0.6508444  3
    873    871    883    895     1  0.0000000  0.6508444  3
    873    871    883    884     1  0.0000000  0.6508444  3
    873    871    883    885     1  0.0000000  0.6508444  3
    874    870    877    878     1  0.0000000  0.6508444  3
    874    870    877    879     1  0.0000000  0.6508444  3
    874    886    892    893     1  0.0000000  0.6508444  3
    874    886    892    894     1  0.0000000  0.6508444  3
    875    874    870    877     1  0.0000000  0.6508444  3
    875    874    870    899     1  0.0000000  0.6508444  3
    875    874    886    892     1  0.0000000  0.6508444  3
    875    874    886    887     1  0.0000000  0.6508444  3
    875    874    886    888     1  0.0000000  0.6508444  3
    876    874    870    877     1  0.0000000  0.6508444  3
    876    874    870    899     1  0.0000000  0.6508444  3
    876    874    886    892     1  0.0000000  0.6508444  3
    876    874    886    887     1  0.0000000  0.6508444  3
    876    874    886    888     1  0.0000000  0.6508444  3
    877    880    889    890     1  0.0000000  0.6508444  3
    877    880    889    891     1  0.0000000  0.6508444  3
    878    877    870    899     1  0.0000000  0.6508444  3
    878    877    880    889     1  0.0000000  0.6508444  3
    878    877    880    881     1  0.0000000  0.6508444  3
    878    877    880    882     1  0.0000000  0.6508444  3
    879    877    870    899     1  0.0000000  0.6508444  3
    879    877    880    889     1  0.0000000  0.6508444  3
    879    877    880    881     1  0.0000000  0.6508444  3
    879    877    880    882     1  0.0000000  0.6508444  3
    880    877    870    899     1  0.0000000  0.6508444  3
    881    880    889    898     1  0.0000000  1.0460000  1
    881    880    889    898     1  0.0000000  0.0000000  3
    881    880    889    890     1  0.0000000  0.6508444  3
    881    880    889    891     1  0.0000000  0.6508444  3
    882    880    889    898     1  0.0000000  1.0460000  1
    882    880    889    898     1  0.0000000  0.0000000  3
    882    880    889    890     1  0.0000000  0.6508444  3
    882    880    889    891     1  0.0000000  0.6508444  3
    883    871    870    899     1  0.0000000  0.6508444  3
    884    883    895   1858     1  0.0000000  1.0460000  1
    884    883    895   1858     1  0.0000000  0.0000000  3
    884    883    895    896     1  0.0000000  0.6508444  3
    884    883    895    897     1  0.0000000  0.6508444  3
    885    883    895   1858     1  0.0000000  1.0460000  1
    885    883    895   1858     1  0.0000000  0.0000000  3
    885    883    895    896     1  0.0000000  0.6508444  3
    885    883    895    897     1  0.0000000  0.6508444  3
    886    874    870    899     1  0.0000000  0.6508444  3
    887    886    892   1828     1  0.0000000  1.0460000  1
    887    886    892   1828     1  0.0000000  0.0000000  3
    887    886    892    893     1  0.0000000  0.6508444  3
    887    886    892    894     1  0.0000000  0.6508444  3
    888    886    892   1828     1  0.0000000  1.0460000  1
    888    886    892   1828     1  0.0000000  0.0000000  3
    888    886    892    893     1  0.0000000  0.6508444  3
    888    886    892    894     1  0.0000000  0.6508444  3
    892   1828   1819   1820     1  0.0000000  1.6038667  3
    892   1828   1819   1821     1  0.0000000  1.6038667  3
    893    892   1828   1819     1  0.0000000  1.6038667  3
    894    892   1828   1819     1  0.0000000  1.6038667  3
    895   1858   1849   1850     1  0.0000000  1.6038667  3
    895   1858   1849   1851     1  0.0000000  1.6038667  3
    896    895   1858   1849     1  0.0000000  1.6038667  3
    897    895   1858   1849     1  0.0000000  1.6038667  3
    900    901    913    914     1  0.0000000  0.6508444  3
    900    901    913    915     1  0.0000000  0.6508444  3
    900    904    916    917     1  0.0000000  0.6508444  3
    900    904    916    918     1  0.0000000  0.6508444  3
    900    907    910    911     1  0.0000000  0.6508444  3
    900    907    910    912     1  0.0000000  0.6508444  3
    901    900    904    905     1  0.0000000  0.6508444  3
    901    900    904    906     1  0.0000000  0.6508444  3
    901    900    907    908     1  0.0000000  0.6508444  3
    901    900    907    909     1  0.0000000  0.6508444  3
    901    913    925    926     1  0.0000000  0.6508444  3
    901    913    925    927     1  0.0000000  0.6508444  3
    902    901    900    904     1  0.0000000  0.6508444  3
    902    901    900    907     1  0.0000000  0.6508444  3
    902    901    900    929     1  0.0000000  0.6508444  3
    902    901    913    925     1  0.0000000  0.6508444  3
    902    901    913    914     1  0.0000000  0.6508444  3
    902    901    913    915     1  0.0000000  0.6508444  3
    903    901    900    904     1  0.0000000  0.6508444  3
    903    901    900    907     1  0.0000000  0.6508444  3
    903    901    900    929     1  0.0000000  0.6508444  3
    903    901    913    925     1  0.0000000  0.6508444  3
    903    901    913    914     1  0.0000000  0.6508444  3
    903    901    913    915     1  0.0000000  0.6508444  3
    904    900    907    908     1  0.0000000  0.6508444  3
    904    900    907    909     1  0.0000000  0.6508444  3
    904    916    922    923     1  0.0000000  0.6508444  3
    904    916    922    924     1  0.0000000  0.6508444  3
    905    904    900    907     1  0.0000000  0.6508444  3
    905    904    900    929     1  0.0000000  0.6508444  3
    905    904    916    922     1  0.0000000  0.6508444  3
    905    904    916    917     1  0.0000000  0.6508444  3
    905    904    916    918     1  0.0000000  0.6508444  3
    906    904    900    907     1  0.0000000  0.6508444  3
    906    904    900    929     1  0.0000000  0.6508444  3
    906    904    916    922     1  0.0000000  0.6508444  3
    906    904    916    917     1  0.0000000  0.6508444  3
    906    904    916    918     1  0.0000000  0.6508444  3
    907    910    919    920     1  0.0000000  0.6508444  3
    907    910    919    921     1  0.0000000  0.6508444  3
    908    907    900    929     1  0.0000000  0.6508444  3
    908    907    910    919     1  0.0000000  0.6508444  3
    908    907    910    911     1  0.0000000  0.6508444  3
    908    907    910    912     1  0.0000000  0.6508444  3
    909    907    900    929     1  0.0000000  0.6508444  3
    909    907    910    919     1  0.0000000  0.6508444  3
    909    907    910    911     1  0.0000000  0.6508444  3
    909    907    910    912     1  0.0000000  0.6508444  3
    910    907    900    929     1  0.0000000  0.6508444  3
    911    910    919    928     1  0.0000000  1.0460000  1
    911    910    919    928     1  0.0000000  0.0000000  3
    911    910    919    920     1  0.0000000  0.6508444  3
    911    910    919    921     1  0.0000000  0.6508444  3
    912    910    919    928     1  0.0000000  1.0460000  1
    912    910    919    928     1  0.0000000  0.0000000  3
    912    910    919    920     1  0.0000000  0.6508444  3
    912    910    919    921     1  0.0000000  0.6508444  3
    913    901    900    929     1  0.0000000  0.6508444  3
    914    913    925   1918     1  0.0000000  1.0460000  1
    914    913    925   1918     1  0.0000000  0.0000000  3
    914    913    925    926     1  0.0000000  0.6508444  3
    914    913    925    927     1  0.0000000  0.6508444  3
    915    913    925   1918     1  0.0000000  1.0460000  1
    915    913    925   1918     1  0.0000000  0.0000000  3
    915    913    925    926     1  0.0000000  0.6508444  3
    915    913    925    927     1  0.0000000  0.6508444  3
    916    904    900    929     1  0.0000000  0.6508444  3
    917    916    922   1888     1  0.0000000  1.0460000  1
    917    916    922   1888     1  0.0000000  0.0000000  3
    917    916    922    923     1  0.0000000  0.6508444  3
    917    916    922    924     1  0.0000000  0.6508444  3
    918    916    922   1888     1  0.0000000  1.0460000  1
    918    916    922   1888     1  0.0000000  0.0000000  3
    918    916    922    923     1  0.0000000  0.6508444  3
    918    916    922    924     1  0.0000000  0.6508444  3
    922   1888   1879   1880     1  0.0000000  1.6038667  3
    922   1888   1879   1881     1  0.0000000  1.6038667  3
    923    922   1888   1879     1  0.0000000  1.6038667  3
    924    922   1888   1879     1  0.0000000  1.6038667  3
    925   1918   1909   1910     1  0.0000000  1.6038667  3
    925   1918   1909   1911     1  0.0000000  1.6038667  3
    926    925   1918   1909     1  0.0000000  1.6038667  3
    927    925   1918   1909     1  0.0000000  1.6038667  3
    930    931    943    944     1  0.0000000  0.6508444  3
    930    931    943    945     1  0.0000000  0.6508444  3
    930    934    946    947     1  0.0000000  0.6508444  3
    930    934    946    948     1  0.0000000  0.6508444  3
    930    937    940    941     1  0.0000000  0.6508444  3
    930    937    940    942     1  0.0000000  0.6508444  3
    931    930    934    935     1  0.0000000  0.6508444  3
    931    930    934    936     1  0.0000000  0.6508444  3
    931    930    937    938     1  0.0000000  0.6508444  3
    931    930    937    939     1  0.0000000  0.6508444  3
    931    943    955    956     1  0.0000000  0.6508444  3
    931    943    955    957     1  0.0000000  0.6508444  3
    932    931    930    934     1  0.0000000  0.6508444  3
    932    931    930    937     1  0.0000000  0.6508444  3
    932    931    930    959     1  0.0000000  0.6508444  3
    932    931    943    955     1  0.0000000  0.6508444  3
    932    931    943    944     1  0.0000000  0.6508444  3
    932    931    943    945     1  0.0000000  0.6508444  3
    933    931    930    934     1  0.0000000  0.6508444  3
    933    931    930    937     1  0.0000000  0.6508444  3
    933    931    930    959     1  0.0000000  0.6508444  3
    933    931    943    955     1  0.0000000  0.6508444  3
    933    931    943    944     1  0.0000000  0.6508444  3
    933    931    943    945     1  0.0000000  0.6508444  3
    934    930    937    938     1  0.0000000  0.6508444  3
    934    930    937    939     1  0.0000000  0.6508444  3
    934    946    952    953     1  0.0000000  0.6508444  3
    934    946    952    954     1  0.0000000  0.6508444  3
    935    934    930    937     1  0.0000000  0.6508444  3
    935    934    930    959     1  0.0000000  0.6508444  3
    935    934    946    952     1  0.0000000  0.6508444  3
    935    934    946    947     1  0.0000000  0.6508444  3
    935    934    946    948     1  0.0000000  0.6508444  3
    936    934    930    937     1  0.0000000  0.6508444  3
    936    934    930    959     1  0.0000000  0.6508444  3
    936    934    946    952     1  0.0000000  0.6508444  3
    936    934    946    947     1  0.0000000  0.6508444  3
    936    934    946    948     1  0.0000000  0.6508444  3
    937    940    949    950     1  0.0000000  0.6508444  3
    937    940    949    951     1  0.0000000  0.6508444  3
    938    937    930    959     1  0.0000000  0.6508444  3
    938    937    940    949     1  0.0000000  0.6508444  3
    938    937    940    941     1  0.0000000  0.6508444  3
    938    937    940    942     1  0.0000000  0.6508444  3
    939    937    930    959     1  0.0000000  0.6508444  3
    939    937    940    949     1  0.0000000  0.6508444  3
    939    937    940    941     1  0.0000000  0.6508444  3
    939    937    940    942     1  0.0000000  0.6508444  3
    940    937    930    959     1  0.0000000  0.6508444  3
    941    940    949    958     1  0.0000000  1.0460000  1
    941    940    949    958     1  0.0000000  0.0000000  3
    941    940    949    950     1  0.0000000  0.6508444  3
    941    940    949    951     1  0.0000000  0.6508444  3
    942    940    949    958     1  0.0000000  1.0460000  1
    942    940    949    958     1  0.0000000  0.0000000  3
    942    940    949    950     1  0.0000000  0.6508444  3
    942    940    949    951     1  0.0000000  0.6508444  3
    943    931    930    959     1  0.0000000  0.6508444  3
    944    943    955   1978     1  0.0000000  1.0460000  1
    944    943    955   1978     1  0.0000000  0.0000000  3
    944    943    955    956     1  0.0000000  0.6508444  3
    944    943    955    957     1  0.0000000  0.6508444  3
    945    943    955   1978     1  0.0000000  1.0460000  1
    945    943    955   1978     1  0.0000000  0.0000000  3
    945    943    955    956     1  0.0000000  0.6508444  3
    945    943    955    957     1  0.0000000  0.6508444  3
    946    934    930    959     1  0.0000000  0.6508444  3
    947    946    952   1948     1  0.0000000  1.0460000  1
    947    946    952   1948     1  0.0000000  0.0000000  3
    947    946    952    953     1  0.0000000  0.6508444  3
    947    946    952    954     1  0.0000000  0.6508444  3
    948    946    952   1948     1  0.0000000  1.0460000  1
    948    946    952   1948     1  0.0000000  0.0000000  3
    948    946    952    953     1  0.0000000  0.6508444  3
    948    946    952    954     1  0.0000000  0.6508444  3
    952   1948   1939   1940     1  0.0000000  1.6038667  3
    952   1948   1939   1941     1  0.0000000  1.6038667  3
    953    952   1948   1939     1  0.0000000  1.6038667  3
    954    952   1948   1939     1  0.0000000  1.6038667  3
    955   1978   1969   1970     1  0.0000000  1.6038667  3
    955   1978   1969   1971     1  0.0000000  1.6038667  3
    956    955   1978   1969     1  0.0000000  1.6038667  3
    957    955   1978   1969     1  0.0000000  1.6038667  3
    960    961    973    974     1  0.0000000  0.6508444  3
    960    961    973    975     1  0.0000000  0.6508444  3
    960    964    976    977     1  0.0000000  0.6508444  3
    960    964    976    978     1  0.0000000  0.6508444  3
    960    967    970    971     1  0.0000000  0.6508444  3
    960    967    970    972     1  0.0000000  0.6508444  3
    961    960    964    965     1  0.0000000  0.6508444  3
    961    960    964    966     1  0.0000000  0.6508444  3
    961    960    967    968     1  0.0000000  0.6508444  3
    961    960    967    969     1  0.0000000  0.6508444  3
    961    973    985    986     1  0.0000000  0.6508444  3
    961    973    985    987     1  0.0000000  0.6508444  3
    962    961    960    964     1  0.0000000  0.6508444  3
    962    961    960    967     1  0.0000000  0.6508444  3
    962    961    960    989     1  0.0000000  0.6508444  3
    962    961    973    985     1  0.0000000  0.6508444  3
    962    961    973    974     1  0.0000000  0.6508444  3
    962    961    973    975     1  0.0000000  0.6508444  3
    963    961    960    964     1  0.0000000  0.6508444  3
    963    961    960    967     1  0.0000000  0.6508444  3
    963    961    960    989     1  0.0000000  0.6508444  3
    963    961    973    985     1  0.0000000  0.6508444  3
    963    961    973    974     1  0.0000000  0.6508444  3
    963    961    973    975     1  0.0000000  0.6508444  3
    964    960    967    968     1  0.0000000  0.6508444  3
    964    960    967    969     1  0.0000000  0.6508444  3
    964    976    982    983     1  0.0000000  0.6508444  3
    964    976    982    984     1  0.0000000  0.6508444  3
    965    964    960    967     1  0.0000000  0.6508444  3
    965    964    960    989     1  0.0000000  0.6508444  3
    965    964    976    982     1  0.0000000  0.6508444  3
    965    964    976    977     1  0.0000000  0.6508444  3
    965    964    976    978     1  0.0000000  0.6508444  3
    966    964    960    967     1  0.0000000  0.6508444  3
    966    964    960    989     1  0.0000000  0.6508444  3
    966    964    976    982     1  0.0000000  0.6508444  3
    966    964    976    977     1  0.0000000  0.6508444  3
    966    964    976    978     1  0.0000000  0.6508444  3
    967    970    979    980     1  0.0000000  0.6508444  3
    967    970    979    981     1  0.0000000  0.6508444  3
    968    967    960    989     1  0.0000000  0.6508444  3
    968    967    970    979     1  0.0000000  0.6508444  3
    968    967    970    971     1  0.0000000  0.6508444  3
    968    967    970    972     1  0.0000000  0.6508444  3
    969    967    960    989     1  0.0000000  0.6508444  3
    969    967    970    979     1  0.0000000  0.6508444  3
    969    967    970    971     1  0.0000000  0.6508444  3
    969    967    970    972     1  0.0000000  0.6508444  3
    970    967    960    989     1  0.0000000  0.6508444  3
    971    970    979    988     1  0.0000000  1.0460000  1
    971    970    979    988     1  0.0000000  0.0000000  3
    971    970    979    980     1  0.0000000  0.6508444  3
    971    970    979    981     1  0.0000000  0.6508444  3
    972    970    979    988     1  0.0000000  1.0460000  1
    972    970    979    988     1  0.0000000  0.0000000  3
    972    970    979    980     1  0.0000000  0.6508444  3
    972    970    979    981     1  0.0000000  0.6508444  3
    973    961    960    989     1  0.0000000  0.6508444  3
    974    973    985   2038     1  0.0000000  1.0460000  1
    974    973    985   2038     1  0.0000000  0.0000000  3
    974    973    985    986     1  0.0000000  0.6508444  3
    974    973    985    987     1  0.0000000  0.6508444  3
    975    973    985   2038     1  0.0000000  1.0460000  1
    975    973    985   2038     1  0.0000000  0.0000000  3
    975    973    985    986     1  0.0000000  0.6508444  3
    975    973    985    987     1  0.0000000  0.6508444  3
    976    964    960    989     1  0.0000000  0.6508444  3
    977    976    982   2008     1  0.0000000  1.0460000  1
    977    976    982   2008     1  0.0000000  0.0000000  3
    977    976    982    983     1  0.0000000  0.6508444  3
    977    976    982    984     1  0.0000000  0.6508444  3
    978    976    982   2008     1  0.0000000  1.0460000  1
    978    976    982   2008     1  0.0000000  0.0000000  3
    978    976    982    983     1  0.0000000  0.6508444  3
    978    976    982    984     1  0.0000000  0.6508444  3
    982   2008   1999   2000     1  0.0000000  1.6038667  3
    982   2008   1999   2001     1  0.0000000  1.6038667  3
    983    982   2008   1999     1  0.0000000  1.6038667  3
    984    982   2008   1999     1  0.0000000  1.6038667  3
    985   2038   2029   2030     1  0.0000000  1.6038667  3
    985   2038   2029   2031     1  0.0000000  1.6038667  3
    986    985   2038   2029     1  0.0000000  1.6038667  3
    987    985   2038   2029     1  0.0000000  1.6038667  3
    990    991   1003   1004     1  0.0000000  0.6508444  3
    990    991   1003   1005     1  0.0000000  0.6508444  3
    990    994   1006   1007     1  0.0000000  0.6508444  3
    990    994   1006   1008     1  0.0000000  0.6508444  3
    990    997   1000   1001     1  0.0000000  0.6508444  3
    990    997   1000   1002     1  0.0000000  0.6508444  3
    991    990    994    995     1  0.0000000  0.6508444  3
    991    990    994    996     1  0.0000000  0.6508444  3
    991    990    997    998     1  0.0000000  0.6508444  3
    991    990    997    999     1  0.0000000  0.6508444  3
    991   1003   1015   1016     1  0.0000000  0.6508444  3
    991   1003   1015   1017     1  0.0000000  0.6508444  3
    992    991    990    994     1  0.0000000  0.6508444  3
    992    991    990    997     1  0.0000000  0.6508444  3
    992    991    990   1019     1  0.0000000  0.6508444  3
    992    991   1003   1015     1  0.0000000  0.6508444  3
    992    991   1003   1004     1  0.0000000  0.6508444  3
    992    991   1003   1005     1  0.0000000  0.6508444  3
    993    991    990    994     1  0.0000000  0.6508444  3
    993    991    990    997     1  0.0000000  0.6508444  3
    993    991    990   1019     1  0.0000000  0.6508444  3
    993    991   1003   1015     1  0.0000000  0.6508444  3
    993    991   1003   1004     1  0.0000000  0.6508444  3
    993    991   1003   1005     1  0.0000000  0.6508444  3
    994    990    997    998     1  0.0000000  0.6508444  3
    994    990    997    999     1  0.0000000  0.6508444  3
    994   1006   1012   1013     1  0.0000000  0.6508444  3
    994   1006   1012   1014     1  0.0000000  0.6508444  3
    995    994    990    997     1  0.0000000  0.6508444  3
    995    994    990   1019     1  0.0000000  0.6508444  3
    995    994   1006   1012     1  0.0000000  0.6508444  3
    995    994   1006   1007     1  0.0000000  0.6508444  3
    995    994   1006   1008     1  0.0000000  0.6508444  3
    996    994    990    997     1  0.0000000  0.6508444  3
    996    994    990   1019     1  0.0000000  0.6508444  3
    996    994   1006   1012     1  0.0000000  0.6508444  3
    996    994   1006   1007     1  0.0000000  0.6508444  3
    996    994   1006   1008     1  0.0000000  0.6508444  3
    997   1000   1009   1010     1  0.0000000  0.6508444  3
    997   1000   1009   1011     1  0.0000000  0.6508444  3
    998    997    990   1019     1  0.0000000  0.6508444  3
    998    997   1000   1009     1  0.0000000  0.6508444  3
    998    997   1000   1001     1  0.0000000  0.6508444  3
    998    997   1000   1002     1  0.0000000  0.6508444  3
    999    997    990   1019     1  0.0000000  0.6508444  3
    999    997   1000   1009     1  0.0000000  0.6508444  3
    999    997   1000   1001     1  0.0000000  0.6508444  3
    999    997   1000   1002     1  0.0000000  0.6508444  3
   1000    997    990   1019     1  0.0000000  0.6508444  3
   1001   1000   1009   1018     1  0.0000000  1.0460000  1
   1001   1000   1009   1018     1  0.0000000  0.0000000  3
   1001   1000   1009   1010     1  0.0000000  0.6508444  3
   1001   1000   1009   1011     1  0.0000000  0.6508444  3
   1002   1000   1009   1018     1  0.0000000  1.0460000  1
   1002   1000   1009   1018     1  0.0000000  0.0000000  3
   1002   1000   1009   1010     1  0.0000000  0.6508444  3
   1002   1000   1009   1011     1  0.0000000  0.6508444  3
   1003    991    990   1019     1  0.0000000  0.6508444  3
   1004   1003   1015   2098     1  0.0000000  1.0460000  1
   1004   1003   1015   2098     1  0.0000000  0.0000000  3
   1004   1003   1015   1016     1  0.0000000  0.6508444  3
   1004   1003   1015   1017     1  0.0000000  0.6508444  3
   1005   1003   1015   2098     1  0.0000000  1.0460000  1
   1005   1003   1015   2098     1  0.0000000  0.0000000  3
   1005   1003   1015   1016     1  0.0000000  0.6508444  3
   1005   1003   1015   1017     1  0.0000000  0.6508444  3
   1006    994    990   1019     1  0.0000000  0.6508444  3
   1007   1006   1012   2068     1  0.0000000  1.0460000  1
   1007   1006   1012   2068     1  0.0000000  0.0000000  3
   1007   1006   1012   1013     1  0.0000000  0.6508444  3
   1007   1006   1012   1014     1  0.0000000  0.6508444  3
   1008   1006   1012   2068     1  0.0000000  1.0460000  1
   1008   1006   1012   2068     1  0.0000000  0.0000000  3
   1008   1006   1012   1013     1  0.0000000  0.6508444  3
   1008   1006   1012   1014     1  0.0000000  0.6508444  3
   1012   2068   2059   2060     1  0.0000000  1.6038667  3
   1012   2068   2059   2061     1  0.0000000  1.6038667  3
   1013   1012   2068   2059     1  0.0000000  1.6038667  3
   1014   1012   2068   2059     1  0.0000000  1.6038667  3
   1015   2098   2089   2090     1  0.0000000  1.6038667  3
   1015   2098   2089   2091     1  0.0000000  1.6038667  3
   1016   1015   2098   2089     1  0.0000000  1.6038667  3
   1017   1015   2098   2089     1  0.0000000  1.6038667  3
   1020   1021   1033   1034     1  0.0000000  0.6508444  3
   1020   1021   1033   1035     1  0.0000000  0.6508444  3
   1020   1024   1036   1037     1  0.0000000  0.6508444  3
   1020   1024   1036   1038     1  0.0000000  0.6508444  3
   1020   1027   1030   1031     1  0.0000000  0.6508444  3
   1020   1027   1030   1032     1  0.0000000  0.6508444  3
   1021   1020   1024   1025     1  0.0000000  0.6508444  3
   1021   1020   1024   1026     1  0.0000000  0.6508444  3
   1021   1020   1027   1028     1  0.0000000  0.6508444  3
   1021   1020   1027   1029     1  0.0000000  0.6508444  3
   1021   1033   1045   1046     1  0.0000000  0.6508444  3
   1021   1033   1045   1047     1  0.0000000  0.6508444  3
   1022   1021   1020   1024     1  0.0000000  0.6508444  3
   1022   1021   1020   1027     1  0.0000000  0.6508444  3
   1022   1021   1020   1049     1  0.0000000  0.6508444  3
   1022   1021   1033   1045     1  0.0000000  0.6508444  3
   1022   1021   1033   1034     1  0.0000000  0.6508444  3
   1022   1021   1033   1035     1  0.0000000  0.6508444  3
   1023   1021   1020   1024     1  0.0000000  0.6508444  3
   1023   1021   1020   1027     1  0.0000000  0.6508444  3
   1023   1021   1020   1049     1  0.0000000  0.6508444  3
   1023   1021   1033   1045     1  0.0000000  0.6508444  3
   1023   1021   1033   1034     1  0.0000000  0.6508444  3
   1023   1021   1033   1035     1  0.0000000  0.6508444  3
   1024   1020   1027   1028     1  0.0000000  0.6508444  3
   1024   1020   1027   1029     1  0.0000000  0.6508444  3
   1024   1036   1042   1043     1  0.0000000  0.6508444  3
   1024   1036   1042   1044     1  0.0000000  0.6508444  3
   1025   1024   1020   1027     1  0.0000000  0.6508444  3
   1025   1024   1020   1049     1  0.0000000  0.6508444  3
   1025   1024   1036   1042     1  0.0000000  0.6508444  3
   1025   1024   1036   1037     1  0.0000000  0.6508444  3
   1025   1024   1036   1038     1  0.0000000  0.6508444  3
   1026   1024   1020   1027     1  0.0000000  0.6508444  3
   1026   1024   1020   1049     1  0.0000000  0.6508444  3
   1026   1024   1036   1042     1  0.0000000  0.6508444  3
   1026   1024   1036   1037     1  0.0000000  0.6508444  3
   1026   1024   1036   1038     1  0.0000000  0.6508444  3
   1027   1030   1039   1040     1  0.0000000  0.6508444  3
   1027   1030   1039   1041     1  0.0000000  0.6508444  3
   1028   1027   1020   1049     1  0.0000000  0.6508444  3
   1028   1027   1030   1039     1  0.0000000  0.6508444  3
   1028   1027   1030   1031     1  0.0000000  0.6508444  3
   1028   1027   1030   1032     1  0.0000000  0.6508444  3
   1029   1027   1020   1049     1  0.0000000  0.6508444  3
   1029   1027   1030   1039     1  0.0000000  0.6508444  3
   1029   1027   1030   1031     1  0.0000000  0.6508444  3
   1029   1027   1030   1032     1  0.0000000  0.6508444  3
   1030   1027   1020   1049     1  0.0000000  0.6508444  3
   1031   1030   1039   1048     1  0.0000000  1.0460000  1
   1031   1030   1039   1048     1  0.0000000  0.0000000  3
   1031   1030   1039   1040     1  0.0000000  0.6508444  3
   1031   1030   1039   1041     1  0.0000000  0.6508444  3
   1032   1030   1039   1048     1  0.0000000  1.0460000  1
   1032   1030   1039   1048     1  0.0000000  0.0000000  3
   1032   1030   1039   1040     1  0.0000000  0.6508444  3
   1032   1030   1039   1041     1  0.0000000  0.6508444  3
   1033   1021   1020   1049     1  0.0000000  0.6508444  3
   1034   1033   1045   2158     1  0.0000000  1.0460000  1
   1034   1033   1045   2158     1  0.0000000  0.0000000  3
   1034   1033   1045   1046     1  0.0000000  0.6508444  3
   1034   1033   1045   1047     1  0.0000000  0.6508444  3
   1035   1033   1045   2158     1  0.0000000  1.0460000  1
   1035   1033   1045   2158     1  0.0000000  0.0000000  3
   1035   1033   1045   1046     1  0.0000000  0.6508444  3
   1035   1033   1045   1047     1  0.0000000  0.6508444  3
   1036   1024   1020   1049     1  0.0000000  0.6508444  3
   1037   1036   1042   2128     1  0.0000000  1.0460000  1
   1037   1036   1042   2128     1  0.0000000  0.0000000  3
   1037   1036   1042   1043     1  0.0000000  0.6508444  3
   1037   1036   1042   1044     1  0.0000000  0.6508444  3
   1038   1036   1042   2128     1  0.0000000  1.0460000  1
   1038   1036   1042   2128     1  0.0000000  0.0000000  3
   1038   1036   1042   1043     1  0.0000000  0.6508444  3
   1038   1036   1042   1044     1  0.0000000  0.6508444  3
   1042   2128   2119   2120     1  0.0000000  1.6038667  3
   1042   2128   2119   2121     1  0.0000000  1.6038667  3
   1043   1042   2128   2119     1  0.0000000  1.6038667  3
   1044   1042   2128   2119     1  0.0000000  1.6038667  3
   1045   2158   2149   2150     1  0.0000000  1.6038667  3
   1045   2158   2149   2151     1  0.0000000  1.6038667  3
   1046   1045   2158   2149     1  0.0000000  1.6038667  3
   1047   1045   2158   2149     1  0.0000000  1.6038667  3
   1050   1051   1063   1064     1  0.0000000  0.6508444  3
   1050   1051   1063   1065     1  0.0000000  0.6508444  3
   1050   1054   1066   1067     1  0.0000000  0.6508444  3
   1050   1054   1066   1068     1  0.0000000  0.6508444  3
   1050   1057   1060   1061     1  0.0000000  0.6508444  3
   1050   1057   1060   1062     1  0.0000000  0.6508444  3
   1051   1050   1054   1055     1  0.0000000  0.6508444  3
   1051   1050   1054   1056     1  0.0000000  0.6508444  3
   1051   1050   1057   1058     1  0.0000000  0.6508444  3
   1051   1050   1057   1059     1  0.0000000  0.6508444  3
   1051   1063   1075   1076     1  0.0000000  0.6508444  3
   1051   1063   1075   1077     1  0.0000000  0.6508444  3
   1052   1051   1050   1054     1  0.0000000  0.6508444  3
   1052   1051   1050   1057     1  0.0000000  0.6508444  3
   1052   1051   1050   1079     1  0.0000000  0.6508444  3
   1052   1051   1063   1075     1  0.0000000  0.6508444  3
   1052   1051   1063   1064     1  0.0000000  0.6508444  3
   1052   1051   1063   1065     1  0.0000000  0.6508444  3
   1053   1051   1050   1054     1  0.0000000  0.6508444  3
   1053   1051   1050   1057     1  0.0000000  0.6508444  3
   1053   1051   1050   1079     1  0.0000000  0.6508444  3
   1053   1051   1063   1075     1  0.0000000  0.6508444  3
   1053   1051   1063   1064     1  0.0000000  0.6508444  3
   1053   1051   1063   1065     1  0.0000000  0.6508444  3
   1054   1050   1057   1058     1  0.0000000  0.6508444  3
   1054   1050   1057   1059     1  0.0000000  0.6508444  3
   1054   1066   1072   1073     1  0.0000000  0.6508444  3
   1054   1066   1072   1074     1  0.0000000  0.6508444  3
   1055   1054   1050   1057     1  0.0000000  0.6508444  3
   1055   1054   1050   1079     1  0.0000000  0.6508444  3
   1055   1054   1066   1072     1  0.0000000  0.6508444  3
   1055   1054   1066   1067     1  0.0000000  0.6508444  3
   1055   1054   1066   1068     1  0.0000000  0.6508444  3
   1056   1054   1050   1057     1  0.0000000  0.6508444  3
   1056   1054   1050   1079     1  0.0000000  0.6508444  3
   1056   1054   1066   1072     1  0.0000000  0.6508444  3
   1056   1054   1066   1067     1  0.0000000  0.6508444  3
   1056   1054   1066   1068     1  0.0000000  0.6508444  3
   1057   1060   1069   1070     1  0.0000000  0.6508444  3
   1057   1060   1069   1071     1  0.0000000  0.6508444  3
   1058   1057   1050   1079     1  0.0000000  0.6508444  3
   1058   1057   1060   1069     1  0.0000000  0.6508444  3
   1058   1057   1060   1061     1  0.0000000  0.6508444  3
   1058   1057   1060   1062     1  0.0000000  0.6508444  3
   1059   1057   1050   1079     1  0.0000000  0.6508444  3
   1059   1057   1060   1069     1  0.0000000  0.6508444  3
   1059   1057   1060   1061     1  0.0000000  0.6508444  3
   1059   1057   1060   1062     1  0.0000000  0.6508444  3
   1060   1057   1050   1079     1  0.0000000  0.6508444  3
   1061   1060   1069   1078     1  0.0000000  1.0460000  1
   1061   1060   1069   1078     1  0.0000000  0.0000000  3
   1061   1060   1069   1070     1  0.0000000  0.6508444  3
   1061   1060   1069   1071     1  0.0000000  0.6508444  3
   1062   1060   1069   1078     1  0.0000000  1.0460000  1
   1062   1060   1069   1078     1  0.0000000  0.0000000  3
   1062   1060   1069   1070     1  0.0000000  0.6508444  3
   1062   1060   1069   1071     1  0.0000000  0.6508444  3
   1063   1051   1050   1079     1  0.0000000  0.6508444  3
   1064   1063   1075   2218     1  0.0000000  1.0460000  1
   1064   1063   1075   2218     1  0.0000000  0.0000000  3
   1064   1063   1075   1076     1  0.0000000  0.6508444  3
   1064   1063   1075   1077     1  0.0000000  0.6508444  3
   1065   1063   1075   2218     1  0.0000000  1.0460000  1
   1065   1063   1075   2218     1  0.0000000  0.0000000  3
   1065   1063   1075   1076     1  0.0000000  0.6508444  3
   1065   1063   1075   1077     1  0.0000000  0.6508444  3
   1066   1054   1050   1079     1  0.0000000  0.6508444  3
   1067   1066   1072   2188     1  0.0000000  1.0460000  1
   1067   1066   1072   2188     1  0.0000000  0.0000000  3
   1067   1066   1072   1073     1  0.0000000  0.6508444  3
   1067   1066   1072   1074     1  0.0000000  0.6508444  3
   1068   1066   1072   2188     1  0.0000000  1.0460000  1
   1068   1066   1072   2188     1  0.0000000  0.0000000  3
   1068   1066   1072   1073     1  0.0000000  0.6508444  3
   1068   1066   1072   1074     1  0.0000000  0.6508444  3
   1072   2188   2179   2180     1  0.0000000  1.6038667  3
   1072   2188   2179   2181     1  0.0000000  1.6038667  3
   1073   1072   2188   2179     1  0.0000000  1.6038667  3
   1074   1072   2188   2179     1  0.0000000  1.6038667  3
   1075   2218   2209   2210     1  0.0000000  1.6038667  3
   1075   2218   2209   2211     1  0.0000000  1.6038667  3
   1076   1075   2218   2209     1  0.0000000  1.6038667  3
   1077   1075   2218   2209     1  0.0000000  1.6038667  3
   1080   1081   1093   1094     1  0.0000000  0.6508444  3
   1080   1081   1093   1095     1  0.0000000  0.6508444  3
   1080   1084   1096   1097     1  0.0000000  0.6508444  3
   1080   1084   1096   1098     1  0.0000000  0.6508444  3
   1080   1087   1090   1091     1  0.0000000  0.6508444  3
   1080   1087   1090   1092     1  0.0000000  0.6508444  3
   1081   1080   1084   1085     1  0.0000000  0.6508444  3
   1081   1080   1084   1086     1  0.0000000  0.6508444  3
   1081   1080   1087   1088     1  0.0000000  0.6508444  3
   1081   1080   1087   1089     1  0.0000000  0.6508444  3
   1081   1093   1105   1106     1  0.0000000  0.6508444  3
   1081   1093   1105   1107     1  0.0000000  0.6508444  3
   1082   1081   1080   1084     1  0.0000000  0.6508444  3
   1082   1081   1080   1087     1  0.0000000  0.6508444  3
   1082   1081   1080   1109     1  0.0000000  0.6508444  3
   1082   1081   1093   1105     1  0.0000000  0.6508444  3
   1082   1081   1093   1094     1  0.0000000  0.6508444  3
   1082   1081   1093   1095     1  0.0000000  0.6508444  3
   1083   1081   1080   1084     1  0.0000000  0.6508444  3
   1083   1081   1080   1087     1  0.0000000  0.6508444  3
   1083   1081   1080   1109     1  0.0000000  0.6508444  3
   1083   1081   1093   1105     1  0.0000000  0.6508444  3
   1083   1081   1093   1094     1  0.0000000  0.6508444  3
   1083   1081   1093   1095     1  0.0000000  0.6508444  3
   1084   1080   1087   1088     1  0.0000000  0.6508444  3
   1084   1080   1087   1089     1  0.0000000  0.6508444  3
   1084   1096   1102   1103     1  0.0000000  0.6508444  3
   1084   1096   1102   1104     1  0.0000000  0.6508444  3
   1085   1084   1080   1087     1  0.0000000  0.6508444  3
   1085   1084   1080   1109     1  0.0000000  0.6508444  3
   1085   1084   1096   1102     1  0.0000000  0.6508444  3
   1085   1084   1096   1097     1  0.0000000  0.6508444  3
   1085   1084   1096   1098     1  0.0000000  0.6508444  3
   1086   1084   1080   1087     1  0.0000000  0.6508444  3
   1086   1084   1080   1109     1  0.0000000  0.6508444  3
   1086   1084   1096   1102     1  0.0000000  0.6508444  3
   1086   1084   1096   1097     1  0.0000000  0.6508444  3
   1086   1084   1096   1098     1  0.0000000  0.6508444  3
   1087   1090   1099   1100     1  0.0000000  0.6508444  3
   1087   1090   1099   1101     1  0.0000000  0.6508444  3
   1088   1087   1080   1109     1  0.0000000  0.6508444  3
   1088   1087   1090   1099     1  0.0000000  0.6508444  3
   1088   1087   1090   1091     1  0.0000000  0.6508444  3
   1088   1087   1090   1092     1  0.0000000  0.6508444  3
   1089   1087   1080   1109     1  0.0000000  0.6508444  3
   1089   1087   1090   1099     1  0.0000000  0.6508444  3
   1089   1087   1090   1091     1  0.0000000  0.6508444  3
   1089   1087   1090   1092     1  0.0000000  0.6508444  3
   1090   1087   1080   1109     1  0.0000000  0.6508444  3
   1091   1090   1099   1108     1  0.0000000  1.0460000  1
   1091   1090   1099   1108     1  0.0000000  0.0000000  3
   1091   1090   1099   1100     1  0.0000000  0.6508444  3
   1091   1090   1099   1101     1  0.0000000  0.6508444  3
   1092   1090   1099   1108     1  0.0000000  1.0460000  1
   1092   1090   1099   1108     1  0.0000000  0.0000000  3
   1092   1090   1099   1100     1  0.0000000  0.6508444  3
   1092   1090   1099   1101     1  0.0000000  0.6508444  3
   1093   1081   1080   1109     1  0.0000000  0.6508444  3
   1094   1093   1105   2278     1  0.0000000  1.0460000  1
   1094   1093   1105   2278     1  0.0000000  0.0000000  3
   1094   1093   1105   1106     1  0.0000000  0.6508444  3
   1094   1093   1105   1107     1  0.0000000  0.6508444  3
   1095   1093   1105   2278     1  0.0000000  1.0460000  1
   1095   1093   1105   2278     1  0.0000000  0.0000000  3
   1095   1093   1105   1106     1  0.0000000  0.6508444  3
   1095   1093   1105   1107     1  0.0000000  0.6508444  3
   1096   1084   1080   1109     1  0.0000000  0.6508444  3
   1097   1096   1102   2248     1  0.0000000  1.0460000  1
   1097   1096   1102   2248     1  0.0000000  0.0000000  3
   1097   1096   1102   1103     1  0.0000000  0.6508444  3
   1097   1096   1102   1104     1  0.0000000  0.6508444  3
   1098   1096   1102   2248     1  0.0000000  1.0460000  1
   1098   1096   1102   2248     1  0.0000000  0.0000000  3
   1098   1096   1102   1103     1  0.0000000  0.6508444  3
   1098   1096   1102   1104     1  0.0000000  0.6508444  3
   1102   2248   2239   2240     1  0.0000000  1.6038667  3
   1102   2248   2239   2241     1  0.0000000  1.6038667  3
   1103   1102   2248   2239     1  0.0000000  1.6038667  3
   1104   1102   2248   2239     1  0.0000000  1.6038667  3
   1105   2278   2269   2270     1  0.0000000  1.6038667  3
   1105   2278   2269   2271     1  0.0000000  1.6038667  3
   1106   1105   2278   2269     1  0.0000000  1.6038667  3
   1107   1105   2278   2269     1  0.0000000  1.6038667  3
   1110   1111   1123   1124     1  0.0000000  0.6508444  3
   1110   1111   1123   1125     1  0.0000000  0.6508444  3
   1110   1114   1126   1127     1  0.0000000  0.6508444  3
   1110   1114   1126   1128     1  0.0000000  0.6508444  3
   1110   1117   1120   1121     1  0.0000000  0.6508444  3
   1110   1117   1120   1122     1  0.0000000  0.6508444  3
   1111   1110   1114   1115     1  0.0000000  0.6508444  3
   1111   1110   1114   1116     1  0.0000000  0.6508444  3
   1111   1110   1117   1118     1  0.0000000  0.6508444  3
   1111   1110   1117   1119     1  0.0000000  0.6508444  3
   1111   1123   1135   1136     1  0.0000000  0.6508444  3
   1111   1123   1135   1137     1  0.0000000  0.6508444  3
   1112   1111   1110   1114     1  0.0000000  0.6508444  3
   1112   1111   1110   1117     1  0.0000000  0.6508444  3
   1112   1111   1110   1139     1  0.0000000  0.6508444  3
   1112   1111   1123   1135     1  0.0000000  0.6508444  3
   1112   1111   1123   1124     1  0.0000000  0.6508444  3
   1112   1111   1123   1125     1  0.0000000  0.6508444  3
   1113   1111   1110   1114     1  0.0000000  0.6508444  3
   1113   1111   1110   1117     1  0.0000000  0.6508444  3
   1113   1111   1110   1139     1  0.0000000  0.6508444  3
   1113   1111   1123   1135     1  0.0000000  0.6508444  3
   1113   1111   1123   1124     1  0.0000000  0.6508444  3
   1113   1111   1123   1125     1  0.0000000  0.6508444  3
   1114   1110   1117   1118     1  0.0000000  0.6508444  3
   1114   1110   1117   1119     1  0.0000000  0.6508444  3
   1114   1126   1132   1133     1  0.0000000  0.6508444  3
   1114   1126   1132   1134     1  0.0000000  0.6508444  3
   1115   1114   1110   1117     1  0.0000000  0.6508444  3
   1115   1114   1110   1139     1  0.0000000  0.6508444  3
   1115   1114   1126   1132     1  0.0000000  0.6508444  3
   1115   1114   1126   1127     1  0.0000000  0.6508444  3
   1115   1114   1126   1128     1  0.0000000  0.6508444  3
   1116   1114   1110   1117     1  0.0000000  0.6508444  3
   1116   1114   1110   1139     1  0.0000000  0.6508444  3
   1116   1114   1126   1132     1  0.0000000  0.6508444  3
   1116   1114   1126   1127     1  0.0000000  0.6508444  3
   1116   1114   1126   1128     1  0.0000000  0.6508444  3
   1117   1120   1129   1130     1  0.0000000  0.6508444  3
   1117   1120   1129   1131     1  0.0000000  0.6508444  3
   1118   1117   1110   1139     1  0.0000000  0.6508444  3
   1118   1117   1120   1129     1  0.0000000  0.6508444  3
   1118   1117   1120   1121     1  0.0000000  0.6508444  3
   1118   1117   1120   1122     1  0.0000000  0.6508444  3
   1119   1117   1110   1139     1  0.0000000  0.6508444  3
   1119   1117   1120   1129     1  0.0000000  0.6508444  3
   1119   1117   1120   1121     1  0.0000000  0.6508444  3
   1119   1117   1120   1122     1  0.0000000  0.6508444  3
   1120   1117   1110   1139     1  0.0000000  0.6508444  3
   1121   1120   1129   1138     1  0.0000000  1.0460000  1
   1121   1120   1129   1138     1  0.0000000  0.0000000  3
   1121   1120   1129   1130     1  0.0000000  0.6508444  3
   1121   1120   1129   1131     1  0.0000000  0.6508444  3
   1122   1120   1129   1138     1  0.0000000  1.0460000  1
   1122   1120   1129   1138     1  0.0000000  0.0000000  3
   1122   1120   1129   1130     1  0.0000000  0.6508444  3
   1122   1120   1129   1131     1  0.0000000  0.6508444  3
   1123   1111   1110   1139     1  0.0000000  0.6508444  3
   1124   1123   1135   2338     1  0.0000000  1.0460000  1
   1124   1123   1135   2338     1  0.0000000  0.0000000  3
   1124   1123   1135   1136     1  0.0000000  0.6508444  3
   1124   1123   1135   1137     1  0.0000000  0.6508444  3
   1125   1123   1135   2338     1  0.0000000  1.0460000  1
   1125   1123   1135   2338     1  0.0000000  0.0000000  3
   1125   1123   1135   1136     1  0.0000000  0.6508444  3
   1125   1123   1135   1137     1  0.0000000  0.6508444  3
   1126   1114   1110   1139     1  0.0000000  0.6508444  3
   1127   1126   1132   2308     1  0.0000000  1.0460000  1
   1127   1126   1132   2308     1  0.0000000  0.0000000  3
   1127   1126   1132   1133     1  0.0000000  0.6508444  3
   1127   1126   1132   1134     1  0.0000000  0.6508444  3
   1128   1126   1132   2308     1  0.0000000  1.0460000  1
   1128   1126   1132   2308     1  0.0000000  0.0000000  3
   1128   1126   1132   1133     1  0.0000000  0.6508444  3
   1128   1126   1132   1134     1  0.0000000  0.6508444  3
   1132   2308   2299   2300     1  0.0000000  1.6038667  3
   1132   2308   2299   2301     1  0.0000000  1.6038667  3
   1133   1132   2308   2299     1  0.0000000  1.6038667  3
   1134   1132   2308   2299     1  0.0000000  1.6038667  3
   1135   2338   2329   2330     1  0.0000000  1.6038667  3
   1135   2338   2329   2331     1  0.0000000  1.6038667  3
   1136   1135   2338   2329     1  0.0000000  1.6038667  3
   1137   1135   2338   2329     1  0.0000000  1.6038667  3
   1140   1141   1153   1154     1  0.0000000  0.6508444  3
   1140   1141   1153   1155     1  0.0000000  0.6508444  3
   1140   1144   1156   1157     1  0.0000000  0.6508444  3
   1140   1144   1156   1158     1  0.0000000  0.6508444  3
   1140   1147   1150   1151     1  0.0000000  0.6508444  3
   1140   1147   1150   1152     1  0.0000000  0.6508444  3
   1141   1140   1144   1145     1  0.0000000  0.6508444  3
   1141   1140   1144   1146     1  0.0000000  0.6508444  3
   1141   1140   1147   1148     1  0.0000000  0.6508444  3
   1141   1140   1147   1149     1  0.0000000  0.6508444  3
   1141   1153   1165   1166     1  0.0000000  0.6508444  3
   1141   1153   1165   1167     1  0.0000000  0.6508444  3
   1142   1141   1140   1144     1  0.0000000  0.6508444  3
   1142   1141   1140   1147     1  0.0000000  0.6508444  3
   1142   1141   1140   1169     1  0.0000000  0.6508444  3
   1142   1141   1153   1165     1  0.0000000  0.6508444  3
   1142   1141   1153   1154     1  0.0000000  0.6508444  3
   1142   1141   1153   1155     1  0.0000000  0.6508444  3
   1143   1141   1140   1144     1  0.0000000  0.6508444  3
   1143   1141   1140   1147     1  0.0000000  0.6508444  3
   1143   1141   1140   1169     1  0.0000000  0.6508444  3
   1143   1141   1153   1165     1  0.0000000  0.6508444  3
   1143   1141   1153   1154     1  0.0000000  0.6508444  3
   1143   1141   1153   1155     1  0.0000000  0.6508444  3
   1144   1140   1147   1148     1  0.0000000  0.6508444  3
   1144   1140   1147   1149     1  0.0000000  0.6508444  3
   1144   1156   1162   1163     1  0.0000000  0.6508444  3
   1144   1156   1162   1164     1  0.0000000  0.6508444  3
   1145   1144   1140   1147     1  0.0000000  0.6508444  3
   1145   1144   1140   1169     1  0.0000000  0.6508444  3
   1145   1144   1156   1162     1  0.0000000  0.6508444  3
   1145   1144   1156   1157     1  0.0000000  0.6508444  3
   1145   1144   1156   1158     1  0.0000000  0.6508444  3
   1146   1144   1140   1147     1  0.0000000  0.6508444  3
   1146   1144   1140   1169     1  0.0000000  0.6508444  3
   1146   1144   1156   1162     1  0.0000000  0.6508444  3
   1146   1144   1156   1157     1  0.0000000  0.6508444  3
   1146   1144   1156   1158     1  0.0000000  0.6508444  3
   1147   1150   1159   1160     1  0.0000000  0.6508444  3
   1147   1150   1159   1161     1  0.0000000  0.6508444  3
   1148   1147   1140   1169     1  0.0000000  0.6508444  3
   1148   1147   1150   1159     1  0.0000000  0.6508444  3
   1148   1147   1150   1151     1  0.0000000  0.6508444  3
   1148   1147   1150   1152     1  0.0000000  0.6508444  3
   1149   1147   1140   1169     1  0.0000000  0.6508444  3
   1149   1147   1150   1159     1  0.0000000  0.6508444  3
   1149   1147   1150   1151     1  0.0000000  0.6508444  3
   1149   1147   1150   1152     1  0.0000000  0.6508444  3
   1150   1147   1140   1169     1  0.0000000  0.6508444  3
   1151   1150   1159   1168     1  0.0000000  1.0460000  1
   1151   1150   1159   1168     1  0.0000000  0.0000000  3
   1151   1150   1159   1160     1  0.0000000  0.6508444  3
   1151   1150   1159   1161     1  0.0000000  0.6508444  3
   1152   1150   1159   1168     1  0.0000000  1.0460000  1
   1152   1150   1159   1168     1  0.0000000  0.0000000  3
   1152   1150   1159   1160     1  0.0000000  0.6508444  3
   1152   1150   1159   1161     1  0.0000000  0.6508444  3
   1153   1141   1140   1169     1  0.0000000  0.6508444  3
   1154   1153   1165   2398     1  0.0000000  1.0460000  1
   1154   1153   1165   2398     1  0.0000000  0.0000000  3
   1154   1153   1165   1166     1  0.0000000  0.6508444  3
   1154   1153   1165   1167     1  0.0000000  0.6508444  3
   1155   1153   1165   2398     1  0.0000000  1.0460000  1
   1155   1153   1165   2398     1  0.0000000  0.0000000  3
   1155   1153   1165   1166     1  0.0000000  0.6508444  3
   1155   1153   1165   1167     1  0.0000000  0.6508444  3
   1156   1144   1140   1169     1  0.0000000  0.6508444  3
   1157   1156   1162   2368     1  0.0000000  1.0460000  1
   1157   1156   1162   2368     1  0.0000000  0.0000000  3
   1157   1156   1162   1163     1  0.0000000  0.6508444  3
   1157   1156   1162   1164     1  0.0000000  0.6508444  3
   1158   1156   1162   2368     1  0.0000000  1.0460000  1
   1158   1156   1162   2368     1  0.0000000  0.0000000  3
   1158   1156   1162   1163     1  0.0000000  0.6508444  3
   1158   1156   1162   1164     1  0.0000000  0.6508444  3
   1162   2368   2359   2360     1  0.0000000  1.6038667  3
   1162   2368   2359   2361     1  0.0000000  1.6038667  3
   1163   1162   2368   2359     1  0.0000000  1.6038667  3
   1164   1162   2368   2359     1  0.0000000  1.6038667  3
   1165   2398   2389   2390     1  0.0000000  1.6038667  3
   1165   2398   2389   2391     1  0.0000000  1.6038667  3
   1166   1165   2398   2389     1  0.0000000  1.6038667  3
   1167   1165   2398   2389     1  0.0000000  1.6038667  3
   1170   1171   1183   1184     1  0.0000000  0.6508444  3
   1170   1171   1183   1185     1  0.0000000  0.6508444  3
   1170   1174   1186   1187     1  0.0000000  0.6508444  3
   1170   1174   1186   1188     1  0.0000000  0.6508444  3
   1170   1177   1180   1181     1  0.0000000  0.6508444  3
   1170   1177   1180   1182     1  0.0000000  0.6508444  3
   1171   1170   1174   1175     1  0.0000000  0.6508444  3
   1171   1170   1174   1176     1  0.0000000  0.6508444  3
   1171   1170   1177   1178     1  0.0000000  0.6508444  3
   1171   1170   1177   1179     1  0.0000000  0.6508444  3
   1171   1183   1195   1196     1  0.0000000  0.6508444  3
   1171   1183   1195   1197     1  0.0000000  0.6508444  3
   1172   1171   1170   1174     1  0.0000000  0.6508444  3
   1172   1171   1170   1177     1  0.0000000  0.6508444  3
   1172   1171   1170   1199     1  0.0000000  0.6508444  3
   1172   1171   1183   1195     1  0.0000000  0.6508444  3
   1172   1171   1183   1184     1  0.0000000  0.6508444  3
   1172   1171   1183   1185     1  0.0000000  0.6508444  3
   1173   1171   1170   1174     1  0.0000000  0.6508444  3
   1173   1171   1170   1177     1  0.0000000  0.6508444  3
   1173   1171   1170   1199     1  0.0000000  0.6508444  3
   1173   1171   1183   1195     1  0.0000000  0.6508444  3
   1173   1171   1183   1184     1  0.0000000  0.6508444  3
   1173   1171   1183   1185     1  0.0000000  0.6508444  3
   1174   1170   1177   1178     1  0.0000000  0.6508444  3
   1174   1170   1177   1179     1  0.0000000  0.6508444  3
   1174   1186   1192   1193     1  0.0000000  0.6508444  3
   1174   1186   1192   1194     1  0.0000000  0.6508444  3
   1175   1174   1170   1177     1  0.0000000  0.6508444  3
   1175   1174   1170   1199     1  0.0000000  0.6508444  3
   1175   1174   1186   1192     1  0.0000000  0.6508444  3
   1175   1174   1186   1187     1  0.0000000  0.6508444  3
   1175   1174   1186   1188     1  0.0000000  0.6508444  3
   1176   1174   1170   1177     1  0.0000000  0.6508444  3
   1176   1174   1170   1199     1  0.0000000  0.6508444  3
   1176   1174   1186   1192     1  0.0000000  0.6508444  3
   1176   1174   1186   1187     1  0.0000000  0.6508444  3
   1176   1174   1186   1188     1  0.0000000  0.6508444  3
   1177   1180   1189   1190     1  0.0000000  0.6508444  3
   1177   1180   1189   1191     1  0.0000000  0.6508444  3
   1178   1177   1170   1199     1  0.0000000  0.6508444  3
   1178   1177   1180   1189     1  0.0000000  0.6508444  3
   1178   1177   1180   1181     1  0.0000000  0.6508444  3
   1178   1177   1180   1182     1  0.0000000  0.6508444  3
   1179   1177   1170   1199     1  0.0000000  0.6508444  3
   1179   1177   1180   1189     1  0.0000000  0.6508444  3
   1179   1177   1180   1181     1  0.0000000  0.6508444  3
   1179   1177   1180   1182     1  0.0000000  0.6508444  3
   1180   1177   1170   1199     1  0.0000000  0.6508444  3
   1181   1180   1189   1198     1  0.0000000  1.0460000  1
   1181   1180   1189   1198     1  0.0000000  0.0000000  3
   1181   1180   1189   1190     1  0.0000000  0.6508444  3
   1181   1180   1189   1191     1  0.0000000  0.6508444  3
   1182   1180   1189   1198     1  0.0000000  1.0460000  1
   1182   1180   1189   1198     1  0.0000000  0.0000000  3
   1182   1180   1189   1190     1  0.0000000  0.6508444  3
   1182   1180   1189   1191     1  0.0000000  0.6508444  3
   1183   1171   1170   1199     1  0.0000000  0.6508444  3
   1184   1183   1195   2458     1  0.0000000  1.0460000  1
   1184   1183   1195   2458     1  0.0000000  0.0000000  3
   1184   1183   1195   1196     1  0.0000000  0.6508444  3
   1184   1183   1195   1197     1  0.0000000  0.6508444  3
   1185   1183   1195   2458     1  0.0000000  1.0460000  1
   1185   1183   1195   2458     1  0.0000000  0.0000000  3
   1185   1183   1195   1196     1  0.0000000  0.6508444  3
   1185   1183   1195   1197     1  0.0000000  0.6508444  3
   1186   1174   1170   1199     1  0.0000000  0.6508444  3
   1187   1186   1192   2428     1  0.0000000  1.0460000  1
   1187   1186   1192   2428     1  0.0000000  0.0000000  3
   1187   1186   1192   1193     1  0.0000000  0.6508444  3
   1187   1186   1192   1194     1  0.0000000  0.6508444  3
   1188   1186   1192   2428     1  0.0000000  1.0460000  1
   1188   1186   1192   2428     1  0.0000000  0.0000000  3
   1188   1186   1192   1193     1  0.0000000  0.6508444  3
   1188   1186   1192   1194     1  0.0000000  0.6508444  3
   1192   2428   2419   2420     1  0.0000000  1.6038667  3
   1192   2428   2419   2421     1  0.0000000  1.6038667  3
   1193   1192   2428   2419     1  0.0000000  1.6038667  3
   1194   1192   2428   2419     1  0.0000000  1.6038667  3
   1195   2458   2449   2450     1  0.0000000  1.6038667  3
   1195   2458   2449   2451     1  0.0000000  1.6038667  3
   1196   1195   2458   2449     1  0.0000000  1.6038667  3
   1197   1195   2458   2449     1  0.0000000  1.6038667  3
   1200   1201   1213   1214     1  0.0000000  0.6508444  3
   1200   1201   1213   1215     1  0.0000000  0.6508444  3
   1200   1204   1216   1217     1  0.0000000  0.6508444  3
   1200   1204   1216   1218     1  0.0000000  0.6508444  3
   1200   1207   1210   1211     1  0.0000000  0.6508444  3
   1200   1207   1210   1212     1  0.0000000  0.6508444  3
   1201   1200   1204   1205     1  0.0000000  0.6508444  3
   1201   1200   1204   1206     1  0.0000000  0.6508444  3
   1201   1200   1207   1208     1  0.0000000  0.6508444  3
   1201   1200   1207   1209     1  0.0000000  0.6508444  3
   1201   1213   1225   1226     1  0.0000000  0.6508444  3
   1201   1213   1225   1227     1  0.0000000  0.6508444  3
   1202   1201   1200   1204     1  0.0000000  0.6508444  3
   1202   1201   1200   1207     1  0.0000000  0.6508444  3
   1202   1201   1200   1229     1  0.0000000  0.6508444  3
   1202   1201   1213   1225     1  0.0000000  0.6508444  3
   1202   1201   1213   1214     1  0.0000000  0.6508444  3
   1202   1201   1213   1215     1  0.0000000  0.6508444  3
   1203   1201   1200   1204     1  0.0000000  0.6508444  3
   1203   1201   1200   1207     1  0.0000000  0.6508444  3
   1203   1201   1200   1229     1  0.0000000  0.6508444  3
   1203   1201   1213   1225     1  0.0000000  0.6508444  3
   1203   1201   1213   1214     1  0.0000000  0.6508444  3
   1203   1201   1213   1215     1  0.0000000  0.6508444  3
   1204   1200   1207   1208     1  0.0000000  0.6508444  3
   1204   1200   1207   1209     1  0.0000000  0.6508444  3
   1204   1216   1222   1223     1  0.0000000  0.6508444  3
   1204   1216   1222   1224     1  0.0000000  0.6508444  3
   1205   1204   1200   1207     1  0.0000000  0.6508444  3
   1205   1204   1200   1229     1  0.0000000  0.6508444  3
   1205   1204   1216   1222     1  0.0000000  0.6508444  3
   1205   1204   1216   1217     1  0.0000000  0.6508444  3
   1205   1204   1216   1218     1  0.0000000  0.6508444  3
   1206   1204   1200   1207     1  0.0000000  0.6508444  3
   1206   1204   1200   1229     1  0.0000000  0.6508444  3
   1206   1204   1216   1222     1  0.0000000  0.6508444  3
   1206   1204   1216   1217     1  0.0000000  0.6508444  3
   1206   1204   1216   1218     1  0.0000000  0.6508444  3
   1207   1210   1219   1220     1  0.0000000  0.6508444  3
   1207   1210   1219   1221     1  0.0000000  0.6508444  3
   1208   1207   1200   1229     1  0.0000000  0.6508444  3
   1208   1207   1210   1219     1  0.0000000  0.6508444  3
   1208   1207   1210   1211     1  0.0000000  0.6508444  3
   1208   1207   1210   1212     1  0.0000000  0.6508444  3
   1209   1207   1200   1229     1  0.0000000  0.6508444  3
   1209   1207   1210   1219     1  0.0000000  0.6508444  3
   1209   1207   1210   1211     1  0.0000000  0.6508444  3
   1209   1207   1210   1212     1  0.0000000  0.6508444  3
   1210   1207   1200   1229     1  0.0000000  0.6508444  3
   1211   1210   1219   1228     1  0.0000000  1.0460000  1
   1211   1210   1219   1228     1  0.0000000  0.0000000  3
   1211   1210   1219   1220     1  0.0000000  0.6508444  3
   1211   1210   1219   1221     1  0.0000000  0.6508444  3
   1212   1210   1219   1228     1  0.0000000  1.0460000  1
   1212   1210   1219   1228     1  0.0000000  0.0000000  3
   1212   1210   1219   1220     1  0.0000000  0.6508444  3
   1212   1210   1219   1221     1  0.0000000  0.6508444  3
   1213   1201   1200   1229     1  0.0000000  0.6508444  3
   1214   1213   1225   2518     1  0.0000000  1.0460000  1
   1214   1213   1225   2518     1  0.0000000  0.0000000  3
   1214   1213   1225   1226     1  0.0000000  0.6508444  3
   1214   1213   1225   1227     1  0.0000000  0.6508444  3
   1215   1213   1225   2518     1  0.0000000  1.0460000  1
   1215   1213   1225   2518     1  0.0000000  0.0000000  3
   1215   1213   1225   1226     1  0.0000000  0.6508444  3
   1215   1213   1225   1227     1  0.0000000  0.6508444  3
   1216   1204   1200   1229     1  0.0000000  0.6508444  3
   1217   1216   1222   2488     1  0.0000000  1.0460000  1
   1217   1216   1222   2488     1  0.0000000  0.0000000  3
   1217   1216   1222   1223     1  0.0000000  0.6508444  3
   1217   1216   1222   1224     1  0.0000000  0.6508444  3
   1218   1216   1222   2488     1  0.0000000  1.0460000  1
   1218   1216   1222   2488     1  0.0000000  0.0000000  3
   1218   1216   1222   1223     1  0.0000000  0.6508444  3
   1218   1216   1222   1224     1  0.0000000  0.6508444  3
   1222   2488   2479   2480     1  0.0000000  1.6038667  3
   1222   2488   2479   2481     1  0.0000000  1.6038667  3
   1223   1222   2488   2479     1  0.0000000  1.6038667  3
   1224   1222   2488   2479     1  0.0000000  1.6038667  3
   1225   2518   2509   2510     1  0.0000000  1.6038667  3
   1225   2518   2509   2511     1  0.0000000  1.6038667  3
   1226   1225   2518   2509     1  0.0000000  1.6038667  3
   1227   1225   2518   2509     1  0.0000000  1.6038667  3
   1230   1231   1243   1244     1  0.0000000  0.6508444  3
   1230   1231   1243   1245     1  0.0000000  0.6508444  3
   1230   1234   1246   1247     1  0.0000000  0.6508444  3
   1230   1234   1246   1248     1  0.0000000  0.6508444  3
   1230   1237   1240   1241     1  0.0000000  0.6508444  3
   1230   1237   1240   1242     1  0.0000000  0.6508444  3
   1231   1230   1234   1235     1  0.0000000  0.6508444  3
   1231   1230   1234   1236     1  0.0000000  0.6508444  3
   1231   1230   1237   1238     1  0.0000000  0.6508444  3
   1231   1230   1237   1239     1  0.0000000  0.6508444  3
   1231   1243   1255   1256     1  0.0000000  0.6508444  3
   1231   1243   1255   1257     1  0.0000000  0.6508444  3
   1232   1231   1230   1234     1  0.0000000  0.6508444  3
   1232   1231   1230   1237     1  0.0000000  0.6508444  3
   1232   1231   1230   1259     1  0.0000000  0.6508444  3
   1232   1231   1243   1255     1  0.0000000  0.6508444  3
   1232   1231   1243   1244     1  0.0000000  0.6508444  3
   1232   1231   1243   1245     1  0.0000000  0.6508444  3
   1233   1231   1230   1234     1  0.0000000  0.6508444  3
   1233   1231   1230   1237     1  0.0000000  0.6508444  3
   1233   1231   1230   1259     1  0.0000000  0.6508444  3
   1233   1231   1243   1255     1  0.0000000  0.6508444  3
   1233   1231   1243   1244     1  0.0000000  0.6508444  3
   1233   1231   1243   1245     1  0.0000000  0.6508444  3
   1234   1230   1237   1238     1  0.0000000  0.6508444  3
   1234   1230   1237   1239     1  0.0000000  0.6508444  3
   1234   1246   1252   1253     1  0.0000000  0.6508444  3
   1234   1246   1252   1254     1  0.0000000  0.6508444  3
   1235   1234   1230   1237     1  0.0000000  0.6508444  3
   1235   1234   1230   1259     1  0.0000000  0.6508444  3
   1235   1234   1246   1252     1  0.0000000  0.6508444  3
   1235   1234   1246   1247     1  0.0000000  0.6508444  3
   1235   1234   1246   1248     1  0.0000000  0.6508444  3
   1236   1234   1230   1237     1  0.0000000  0.6508444  3
   1236   1234   1230   1259     1  0.0000000  0.6508444  3
   1236   1234   1246   1252     1  0.0000000  0.6508444  3
   1236   1234   1246   1247     1  0.0000000  0.6508444  3
   1236   1234   1246   1248     1  0.0000000  0.6508444  3
   1237   1240   1249   1250     1  0.0000000  0.6508444  3
   1237   1240   1249   1251     1  0.0000000  0.6508444  3
   1238   1237   1230   1259     1  0.0000000  0.6508444  3
   1238   1237   1240   1249     1  0.0000000  0.6508444  3
   1238   1237   1240   1241     1  0.0000000  0.6508444  3
   1238   1237   1240   1242     1  0.0000000  0.6508444  3
   1239   1237   1230   1259     1  0.0000000  0.6508444  3
   1239   1237   1240   1249     1  0.0000000  0.6508444  3
   1239   1237   1240   1241     1  0.0000000  0.6508444  3
   1239   1237   1240   1242     1  0.0000000  0.6508444  3
   1240   1237   1230   1259     1  0.0000000  0.6508444  3
   1241   1240   1249   1258     1  0.0000000  1.0460000  1
   1241   1240   1249   1258     1  0.0000000  0.0000000  3
   1241   1240   1249   1250     1  0.0000000  0.6508444  3
   1241   1240   1249   1251     1  0.0000000  0.6508444  3
   1242   1240   1249   1258     1  0.0000000  1.0460000  1
   1242   1240   1249   1258     1  0.0000000  0.0000000  3
   1242   1240   1249   1250     1  0.0000000  0.6508444  3
   1242   1240   1249   1251     1  0.0000000  0.6508444  3
   1243   1231   1230   1259     1  0.0000000  0.6508444  3
   1244   1243   1255   2578     1  0.0000000  1.0460000  1
   1244   1243   1255   2578     1  0.0000000  0.0000000  3
   1244   1243   1255   1256     1  0.0000000  0.6508444  3
   1244   1243   1255   1257     1  0.0000000  0.6508444  3
   1245   1243   1255   2578     1  0.0000000  1.0460000  1
   1245   1243   1255   2578     1  0.0000000  0.0000000  3
   1245   1243   1255   1256     1  0.0000000  0.6508444  3
   1245   1243   1255   1257     1  0.0000000  0.6508444  3
   1246   1234   1230   1259     1  0.0000000  0.6508444  3
   1247   1246   1252   2548     1  0.0000000  1.0460000  1
   1247   1246   1252   2548     1  0.0000000  0.0000000  3
   1247   1246   1252   1253     1  0.0000000  0.6508444  3
   1247   1246   1252   1254     1  0.0000000  0.6508444  3
   1248   1246   1252   2548     1  0.0000000  1.0460000  1
   1248   1246   1252   2548     1  0.0000000  0.0000000  3
   1248   1246   1252   1253     1  0.0000000  0.6508444  3
   1248   1246   1252   1254     1  0.0000000  0.6508444  3
   1252   2548   2539   2540     1  0.0000000  1.6038667  3
   1252   2548   2539   2541     1  0.0000000  1.6038667  3
   1253   1252   2548   2539     1  0.0000000  1.6038667  3
   1254   1252   2548   2539     1  0.0000000  1.6038667  3
   1255   2578   2569   2570     1  0.0000000  1.6038667  3
   1255   2578   2569   2571     1  0.0000000  1.6038667  3
   1256   1255   2578   2569     1  0.0000000  1.6038667  3
   1257   1255   2578   2569     1  0.0000000  1.6038667  3
   1260   1261   1273   1274     1  0.0000000  0.6508444  3
   1260   1261   1273   1275     1  0.0000000  0.6508444  3
   1260   1264   1276   1277     1  0.0000000  0.6508444  3
   1260   1264   1276   1278     1  0.0000000  0.6508444  3
   1260   1267   1270   1271     1  0.0000000  0.6508444  3
   1260   1267   1270   1272     1  0.0000000  0.6508444  3
   1261   1260   1264   1265     1  0.0000000  0.6508444  3
   1261   1260   1264   1266     1  0.0000000  0.6508444  3
   1261   1260   1267   1268     1  0.0000000  0.6508444  3
   1261   1260   1267   1269     1  0.0000000  0.6508444  3
   1261   1273   1285   1286     1  0.0000000  0.6508444  3
   1261   1273   1285   1287     1  0.0000000  0.6508444  3
   1262   1261   1260   1264     1  0.0000000  0.6508444  3
   1262   1261   1260   1267     1  0.0000000  0.6508444  3
   1262   1261   1260   1289     1  0.0000000  0.6508444  3
   1262   1261   1273   1285     1  0.0000000  0.6508444  3
   1262   1261   1273   1274     1  0.0000000  0.6508444  3
   1262   1261   1273   1275     1  0.0000000  0.6508444  3
   1263   1261   1260   1264     1  0.0000000  0.6508444  3
   1263   1261   1260   1267     1  0.0000000  0.6508444  3
   1263   1261   1260   1289     1  0.0000000  0.6508444  3
   1263   1261   1273   1285     1  0.0000000  0.6508444  3
   1263   1261   1273   1274     1  0.0000000  0.6508444  3
   1263   1261   1273   1275     1  0.0000000  0.6508444  3
   1264   1260   1267   1268     1  0.0000000  0.6508444  3
   1264   1260   1267   1269     1  0.0000000  0.6508444  3
   1264   1276   1282   1283     1  0.0000000  0.6508444  3
   1264   1276   1282   1284     1  0.0000000  0.6508444  3
   1265   1264   1260   1267     1  0.0000000  0.6508444  3
   1265   1264   1260   1289     1  0.0000000  0.6508444  3
   1265   1264   1276   1282     1  0.0000000  0.6508444  3
   1265   1264   1276   1277     1  0.0000000  0.6508444  3
   1265   1264   1276   1278     1  0.0000000  0.6508444  3
   1266   1264   1260   1267     1  0.0000000  0.6508444  3
   1266   1264   1260   1289     1  0.0000000  0.6508444  3
   1266   1264   1276   1282     1  0.0000000  0.6508444  3
   1266   1264   1276   1277     1  0.0000000  0.6508444  3
   1266   1264   1276   1278     1  0.0000000  0.6508444  3
   1267   1270   1279   1280     1  0.0000000  0.6508444  3
   1267   1270   1279   1281     1  0.0000000  0.6508444  3
   1268   1267   1260   1289     1  0.0000000  0.6508444  3
   1268   1267   1270   1279     1  0.0000000  0.6508444  3
   1268   1267   1270   1271     1  0.0000000  0.6508444  3
   1268   1267   1270   1272     1  0.0000000  0.6508444  3
   1269   1267   1260   1289     1  0.0000000  0.6508444  3
   1269   1267   1270   1279     1  0.0000000  0.6508444  3
   1269   1267   1270   1271     1  0.0000000  0.6508444  3
   1269   1267   1270   1272     1  0.0000000  0.6508444  3
   1270   1267   1260   1289     1  0.0000000  0.6508444  3
   1271   1270   1279   1288     1  0.0000000  1.0460000  1
   1271   1270   1279   1288     1  0.0000000  0.0000000  3
   1271   1270   1279   1280     1  0.0000000  0.6508444  3
   1271   1270   1279   1281     1  0.0000000  0.6508444  3
   1272   1270   1279   1288     1  0.0000000  1.0460000  1
   1272   1270   1279   1288     1  0.0000000  0.0000000  3
   1272   1270   1279   1280     1  0.0000000  0.6508444  3
   1272   1270   1279   1281     1  0.0000000  0.6508444  3
   1273   1261   1260   1289     1  0.0000000  0.6508444  3
   1274   1273   1285   2638     1  0.0000000  1.0460000  1
   1274   1273   1285   2638     1  0.0000000  0.0000000  3
   1274   1273   1285   1286     1  0.0000000  0.6508444  3
   1274   1273   1285   1287     1  0.0000000  0.6508444  3
   1275   1273   1285   2638     1  0.0000000  1.0460000  1
   1275   1273   1285   2638     1  0.0000000  0.0000000  3
   1275   1273   1285   1286     1  0.0000000  0.6508444  3
   1275   1273   1285   1287     1  0.0000000  0.6508444  3
   1276   1264   1260   1289     1  0.0000000  0.6508444  3
   1277   1276   1282   2608     1  0.0000000  1.0460000  1
   1277   1276   1282   2608     1  0.0000000  0.0000000  3
   1277   1276   1282   1283     1  0.0000000  0.6508444  3
   1277   1276   1282   1284     1  0.0000000  0.6508444  3
   1278   1276   1282   2608     1  0.0000000  1.0460000  1
   1278   1276   1282   2608     1  0.0000000  0.0000000  3
   1278   1276   1282   1283     1  0.0000000  0.6508444  3
   1278   1276   1282   1284     1  0.0000000  0.6508444  3
   1282   2608   2599   2600     1  0.0000000  1.6038667  3
   1282   2608   2599   2601     1  0.0000000  1.6038667  3
   1283   1282   2608   2599     1  0.0000000  1.6038667  3
   1284   1282   2608   2599     1  0.0000000  1.6038667  3
   1285   2638   2629   2630     1  0.0000000  1.6038667  3
   1285   2638   2629   2631     1  0.0000000  1.6038667  3
   1286   1285   2638   2629     1  0.0000000  1.6038667  3
   1287   1285   2638   2629     1  0.0000000  1.6038667  3
   1290   1291   1303   1304     1  0.0000000  0.6508444  3
   1290   1291   1303   1305     1  0.0000000  0.6508444  3
   1290   1294   1306   1307     1  0.0000000  0.6508444  3
   1290   1294   1306   1308     1  0.0000000  0.6508444  3
   1290   1297   1300   1301     1  0.0000000  0.6508444  3
   1290   1297   1300   1302     1  0.0000000  0.6508444  3
   1291   1290   1294   1295     1  0.0000000  0.6508444  3
   1291   1290   1294   1296     1  0.0000000  0.6508444  3
   1291   1290   1297   1298     1  0.0000000  0.6508444  3
   1291   1290   1297   1299     1  0.0000000  0.6508444  3
   1291   1303   1315   1316     1  0.0000000  0.6508444  3
   1291   1303   1315   1317     1  0.0000000  0.6508444  3
   1292   1291   1290   1294     1  0.0000000  0.6508444  3
   1292   1291   1290   1297     1  0.0000000  0.6508444  3
   1292   1291   1290   1319     1  0.0000000  0.6508444  3
   1292   1291   1303   1315     1  0.0000000  0.6508444  3
   1292   1291   1303   1304     1  0.0000000  0.6508444  3
   1292   1291   1303   1305     1  0.0000000  0.6508444  3
   1293   1291   1290   1294     1  0.0000000  0.6508444  3
   1293   1291   1290   1297     1  0.0000000  0.6508444  3
   1293   1291   1290   1319     1  0.0000000  0.6508444  3
   1293   1291   1303   1315     1  0.0000000  0.6508444  3
   1293   1291   1303   1304     1  0.0000000  0.6508444  3
   1293   1291   1303   1305     1  0.0000000  0.6508444  3
   1294   1290   1297   1298     1  0.0000000  0.6508444  3
   1294   1290   1297   1299     1  0.0000000  0.6508444  3
   1294   1306   1312   1313     1  0.0000000  0.6508444  3
   1294   1306   1312   1314     1  0.0000000  0.6508444  3
   1295   1294   1290   1297     1  0.0000000  0.6508444  3
   1295   1294   1290   1319     1  0.0000000  0.6508444  3
   1295   1294   1306   1312     1  0.0000000  0.6508444  3
   1295   1294   1306   1307     1  0.0000000  0.6508444  3
   1295   1294   1306   1308     1  0.0000000  0.6508444  3
   1296   1294   1290   1297     1  0.0000000  0.6508444  3
   1296   1294   1290   1319     1  0.0000000  0.6508444  3
   1296   1294   1306   1312     1  0.0000000  0.6508444  3
   1296   1294   1306   1307     1  0.0000000  0.6508444  3
   1296   1294   1306   1308     1  0.0000000  0.6508444  3
   1297   1300   1309   1310     1  0.0000000  0.6508444  3
   1297   1300   1309   1311     1  0.0000000  0.6508444  3
   1298   1297   1290   1319     1  0.0000000  0.6508444  3
   1298   1297   1300   1309     1  0.0000000  0.6508444  3
   1298   1297   1300   1301     1  0.0000000  0.6508444  3
   1298   1297   1300   1302     1  0.0000000  0.6508444  3
   1299   1297   1290   1319     1  0.0000000  0.6508444  3
   1299   1297   1300   1309     1  0.0000000  0.6508444  3
   1299   1297   1300   1301     1  0.0000000  0.6508444  3
   1299   1297   1300   1302     1  0.0000000  0.6508444  3
   1300   1297   1290   1319     1  0.0000000  0.6508444  3
   1301   1300   1309   1318     1  0.0000000  1.0460000  1
   1301   1300   1309   1318     1  0.0000000  0.0000000  3
   1301   1300   1309   1310     1  0.0000000  0.6508444  3
   1301   1300   1309   1311     1  0.0000000  0.6508444  3
   1302   1300   1309   1318     1  0.0000000  1.0460000  1
   1302   1300   1309   1318     1  0.0000000  0.0000000  3
   1302   1300   1309   1310     1  0.0000000  0.6508444  3
   1302   1300   1309   1311     1  0.0000000  0.6508444  3
   1303   1291   1290   1319     1  0.0000000  0.6508444  3
   1304   1303   1315   2698     1  0.0000000  1.0460000  1
   1304   1303   1315   2698     1  0.0000000  0.0000000  3
   1304   1303   1315   1316     1  0.0000000  0.6508444  3
   1304   1303   1315   1317     1  0.0000000  0.6508444  3
   1305   1303   1315   2698     1  0.0000000  1.0460000  1
   1305   1303   1315   2698     1  0.0000000  0.0000000  3
   1305   1303   1315   1316     1  0.0000000  0.6508444  3
   1305   1303   1315   1317     1  0.0000000  0.6508444  3
   1306   1294   1290   1319     1  0.0000000  0.6508444  3
   1307   1306   1312   2668     1  0.0000000  1.0460000  1
   1307   1306   1312   2668     1  0.0000000  0.0000000  3
   1307   1306   1312   1313     1  0.0000000  0.6508444  3
   1307   1306   1312   1314     1  0.0000000  0.6508444  3
   1308   1306   1312   2668     1  0.0000000  1.0460000  1
   1308   1306   1312   2668     1  0.0000000  0.0000000  3
   1308   1306   1312   1313     1  0.0000000  0.6508444  3
   1308   1306   1312   1314     1  0.0000000  0.6508444  3
   1312   2668   2659   2660     1  0.0000000  1.6038667  3
   1312   2668   2659   2661     1  0.0000000  1.6038667  3
   1313   1312   2668   2659     1  0.0000000  1.6038667  3
   1314   1312   2668   2659     1  0.0000000  1.6038667  3
   1315   2698   2689   2690     1  0.0000000  1.6038667  3
   1315   2698   2689   2691     1  0.0000000  1.6038667  3
   1316   1315   2698   2689     1  0.0000000  1.6038667  3
   1317   1315   2698   2689     1  0.0000000  1.6038667  3
   1320   1321   1333   1334     1  0.0000000  0.6508444  3
   1320   1321   1333   1335     1  0.0000000  0.6508444  3
   1320   1324   1336   1337     1  0.0000000  0.6508444  3
   1320   1324   1336   1338     1  0.0000000  0.6508444  3
   1320   1327   1330   1331     1  0.0000000  0.6508444  3
   1320   1327   1330   1332     1  0.0000000  0.6508444  3
   1321   1320   1324   1325     1  0.0000000  0.6508444  3
   1321   1320   1324   1326     1  0.0000000  0.6508444  3
   1321   1320   1327   1328     1  0.0000000  0.6508444  3
   1321   1320   1327   1329     1  0.0000000  0.6508444  3
   1321   1333   1345   1346     1  0.0000000  0.6508444  3
   1321   1333   1345   1347     1  0.0000000  0.6508444  3
   1322   1321   1320   1324     1  0.0000000  0.6508444  3
   1322   1321   1320   1327     1  0.0000000  0.6508444  3
   1322   1321   1320   1349     1  0.0000000  0.6508444  3
   1322   1321   1333   1345     1  0.0000000  0.6508444  3
   1322   1321   1333   1334     1  0.0000000  0.6508444  3
   1322   1321   1333   1335     1  0.0000000  0.6508444  3
   1323   1321   1320   1324     1  0.0000000  0.6508444  3
   1323   1321   1320   1327     1  0.0000000  0.6508444  3
   1323   1321   1320   1349     1  0.0000000  0.6508444  3
   1323   1321   1333   1345     1  0.0000000  0.6508444  3
   1323   1321   1333   1334     1  0.0000000  0.6508444  3
   1323   1321   1333   1335     1  0.0000000  0.6508444  3
   1324   1320   1327   1328     1  0.0000000  0.6508444  3
   1324   1320   1327   1329     1  0.0000000  0.6508444  3
   1324   1336   1342   1343     1  0.0000000  0.6508444  3
   1324   1336   1342   1344     1  0.0000000  0.6508444  3
   1325   1324   1320   1327     1  0.0000000  0.6508444  3
   1325   1324   1320   1349     1  0.0000000  0.6508444  3
   1325   1324   1336   1342     1  0.0000000  0.6508444  3
   1325   1324   1336   1337     1  0.0000000  0.6508444  3
   1325   1324   1336   1338     1  0.0000000  0.6508444  3
   1326   1324   1320   1327     1  0.0000000  0.6508444  3
   1326   1324   1320   1349     1  0.0000000  0.6508444  3
   1326   1324   1336   1342     1  0.0000000  0.6508444  3
   1326   1324   1336   1337     1  0.0000000  0.6508444  3
   1326   1324   1336   1338     1  0.0000000  0.6508444  3
   1327   1330   1339   1340     1  0.0000000  0.6508444  3
   1327   1330   1339   1341     1  0.0000000  0.6508444  3
   1328   1327   1320   1349     1  0.0000000  0.6508444  3
   1328   1327   1330   1339     1  0.0000000  0.6508444  3
   1328   1327   1330   1331     1  0.0000000  0.6508444  3
   1328   1327   1330   1332     1  0.0000000  0.6508444  3
   1329   1327   1320   1349     1  0.0000000  0.6508444  3
   1329   1327   1330   1339     1  0.0000000  0.6508444  3
   1329   1327   1330   1331     1  0.0000000  0.6508444  3
   1329   1327   1330   1332     1  0.0000000  0.6508444  3
   1330   1327   1320   1349     1  0.0000000  0.6508444  3
   1331   1330   1339   1348     1  0.0000000  1.0460000  1
   1331   1330   1339   1348     1  0.0000000  0.0000000  3
   1331   1330   1339   1340     1  0.0000000  0.6508444  3
   1331   1330   1339   1341     1  0.0000000  0.6508444  3
   1332   1330   1339   1348     1  0.0000000  1.0460000  1
   1332   1330   1339   1348     1  0.0000000  0.0000000  3
   1332   1330   1339   1340     1  0.0000000  0.6508444  3
   1332   1330   1339   1341     1  0.0000000  0.6508444  3
   1333   1321   1320   1349     1  0.0000000  0.6508444  3
   1334   1333   1345   2758     1  0.0000000  1.0460000  1
   1334   1333   1345   2758     1  0.0000000  0.0000000  3
   1334   1333   1345   1346     1  0.0000000  0.6508444  3
   1334   1333   1345   1347     1  0.0000000  0.6508444  3
   1335   1333   1345   2758     1  0.0000000  1.0460000  1
   1335   1333   1345   2758     1  0.0000000  0.0000000  3
   1335   1333   1345   1346     1  0.0000000  0.6508444  3
   1335   1333   1345   1347     1  0.0000000  0.6508444  3
   1336   1324   1320   1349     1  0.0000000  0.6508444  3
   1337   1336   1342   2728     1  0.0000000  1.0460000  1
   1337   1336   1342   2728     1  0.0000000  0.0000000  3
   1337   1336   1342   1343     1  0.0000000  0.6508444  3
   1337   1336   1342   1344     1  0.0000000  0.6508444  3
   1338   1336   1342   2728     1  0.0000000  1.0460000  1
   1338   1336   1342   2728     1  0.0000000  0.0000000  3
   1338   1336   1342   1343     1  0.0000000  0.6508444  3
   1338   1336   1342   1344     1  0.0000000  0.6508444  3
   1342   2728   2719   2720     1  0.0000000  1.6038667  3
   1342   2728   2719   2721     1  0.0000000  1.6038667  3
   1343   1342   2728   2719     1  0.0000000  1.6038667  3
   1344   1342   2728   2719     1  0.0000000  1.6038667  3
   1345   2758   2749   2750     1  0.0000000  1.6038667  3
   1345   2758   2749   2751     1  0.0000000  1.6038667  3
   1346   1345   2758   2749     1  0.0000000  1.6038667  3
   1347   1345   2758   2749     1  0.0000000  1.6038667  3
   1350   1351   1363   1364     1  0.0000000  0.6508444  3
   1350   1351   1363   1365     1  0.0000000  0.6508444  3
   1350   1354   1366   1367     1  0.0000000  0.6508444  3
   1350   1354   1366   1368     1  0.0000000  0.6508444  3
   1350   1357   1360   1361     1  0.0000000  0.6508444  3
   1350   1357   1360   1362     1  0.0000000  0.6508444  3
   1351   1350   1354   1355     1  0.0000000  0.6508444  3
   1351   1350   1354   1356     1  0.0000000  0.6508444  3
   1351   1350   1357   1358     1  0.0000000  0.6508444  3
   1351   1350   1357   1359     1  0.0000000  0.6508444  3
   1351   1363   1375   1376     1  0.0000000  0.6508444  3
   1351   1363   1375   1377     1  0.0000000  0.6508444  3
   1352   1351   1350   1354     1  0.0000000  0.6508444  3
   1352   1351   1350   1357     1  0.0000000  0.6508444  3
   1352   1351   1350   1379     1  0.0000000  0.6508444  3
   1352   1351   1363   1375     1  0.0000000  0.6508444  3
   1352   1351   1363   1364     1  0.0000000  0.6508444  3
   1352   1351   1363   1365     1  0.0000000  0.6508444  3
   1353   1351   1350   1354     1  0.0000000  0.6508444  3
   1353   1351   1350   1357     1  0.0000000  0.6508444  3
   1353   1351   1350   1379     1  0.0000000  0.6508444  3
   1353   1351   1363   1375     1  0.0000000  0.6508444  3
   1353   1351   1363   1364     1  0.0000000  0.6508444  3
   1353   1351   1363   1365     1  0.0000000  0.6508444  3
   1354   1350   1357   1358     1  0.0000000  0.6508444  3
   1354   1350   1357   1359     1  0.0000000  0.6508444  3
   1354   1366   1372   1373     1  0.0000000  0.6508444  3
   1354   1366   1372   1374     1  0.0000000  0.6508444  3
   1355   1354   1350   1357     1  0.0000000  0.6508444  3
   1355   1354   1350   1379     1  0.0000000  0.6508444  3
   1355   1354   1366   1372     1  0.0000000  0.6508444  3
   1355   1354   1366   1367     1  0.0000000  0.6508444  3
   1355   1354   1366   1368     1  0.0000000  0.6508444  3
   1356   1354   1350   1357     1  0.0000000  0.6508444  3
   1356   1354   1350   1379     1  0.0000000  0.6508444  3
   1356   1354   1366   1372     1  0.0000000  0.6508444  3
   1356   1354   1366   1367     1  0.0000000  0.6508444  3
   1356   1354   1366   1368     1  0.0000000  0.6508444  3
   1357   1360   1369   1370     1  0.0000000  0.6508444  3
   1357   1360   1369   1371     1  0.0000000  0.6508444  3
   1358   1357   1350   1379     1  0.0000000  0.6508444  3
   1358   1357   1360   1369     1  0.0000000  0.6508444  3
   1358   1357   1360   1361     1  0.0000000  0.6508444  3
   1358   1357   1360   1362     1  0.0000000  0.6508444  3
   1359   1357   1350   1379     1  0.0000000  0.6508444  3
   1359   1357   1360   1369     1  0.0000000  0.6508444  3
   1359   1357   1360   1361     1  0.0000000  0.6508444  3
   1359   1357   1360   1362     1  0.0000000  0.6508444  3
   1360   1357   1350   1379     1  0.0000000  0.6508444  3
   1361   1360   1369   1378     1  0.0000000  1.0460000  1
   1361   1360   1369   1378     1  0.0000000  0.0000000  3
   1361   1360   1369   1370     1  0.0000000  0.6508444  3
   1361   1360   1369   1371     1  0.0000000  0.6508444  3
   1362   1360   1369   1378     1  0.0000000  1.0460000  1
   1362   1360   1369   1378     1  0.0000000  0.0000000  3
   1362   1360   1369   1370     1  0.0000000  0.6508444  3
   1362   1360   1369   1371     1  0.0000000  0.6508444  3
   1363   1351   1350   1379     1  0.0000000  0.6508444  3
   1364   1363   1375   2818     1  0.0000000  1.0460000  1
   1364   1363   1375   2818     1  0.0000000  0.0000000  3
   1364   1363   1375   1376     1  0.0000000  0.6508444  3
   1364   1363   1375   1377     1  0.0000000  0.6508444  3
   1365   1363   1375   2818     1  0.0000000  1.0460000  1
   1365   1363   1375   2818     1  0.0000000  0.0000000  3
   1365   1363   1375   1376     1  0.0000000  0.6508444  3
   1365   1363   1375   1377     1  0.0000000  0.6508444  3
   1366   1354   1350   1379     1  0.0000000  0.6508444  3
   1367   1366   1372   2788     1  0.0000000  1.0460000  1
   1367   1366   1372   2788     1  0.0000000  0.0000000  3
   1367   1366   1372   1373     1  0.0000000  0.6508444  3
   1367   1366   1372   1374     1  0.0000000  0.6508444  3
   1368   1366   1372   2788     1  0.0000000  1.0460000  1
   1368   1366   1372   2788     1  0.0000000  0.0000000  3
   1368   1366   1372   1373     1  0.0000000  0.6508444  3
   1368   1366   1372   1374     1  0.0000000  0.6508444  3
   1372   2788   2779   2780     1  0.0000000  1.6038667  3
   1372   2788   2779   2781     1  0.0000000  1.6038667  3
   1373   1372   2788   2779     1  0.0000000  1.6038667  3
   1374   1372   2788   2779     1  0.0000000  1.6038667  3
   1375   2818   2809   2810     1  0.0000000  1.6038667  3
   1375   2818   2809   2811     1  0.0000000  1.6038667  3
   1376   1375   2818   2809     1  0.0000000  1.6038667  3
   1377   1375   2818   2809     1  0.0000000  1.6038667  3
   1380   1381   1393   1394     1  0.0000000  0.6508444  3
   1380   1381   1393   1395     1  0.0000000  0.6508444  3
   1380   1384   1396   1397     1  0.0000000  0.6508444  3
   1380   1384   1396   1398     1  0.0000000  0.6508444  3
   1380   1387   1390   1391     1  0.0000000  0.6508444  3
   1380   1387   1390   1392     1  0.0000000  0.6508444  3
   1381   1380   1384   1385     1  0.0000000  0.6508444  3
   1381   1380   1384   1386     1  0.0000000  0.6508444  3
   1381   1380   1387   1388     1  0.0000000  0.6508444  3
   1381   1380   1387   1389     1  0.0000000  0.6508444  3
   1381   1393   1405   1406     1  0.0000000  0.6508444  3
   1381   1393   1405   1407     1  0.0000000  0.6508444  3
   1382   1381   1380   1384     1  0.0000000  0.6508444  3
   1382   1381   1380   1387     1  0.0000000  0.6508444  3
   1382   1381   1380   1409     1  0.0000000  0.6508444  3
   1382   1381   1393   1405     1  0.0000000  0.6508444  3
   1382   1381   1393   1394     1  0.0000000  0.6508444  3
   1382   1381   1393   1395     1  0.0000000  0.6508444  3
   1383   1381   1380   1384     1  0.0000000  0.6508444  3
   1383   1381   1380   1387     1  0.0000000  0.6508444  3
   1383   1381   1380   1409     1  0.0000000  0.6508444  3
   1383   1381   1393   1405     1  0.0000000  0.6508444  3
   1383   1381   1393   1394     1  0.0000000  0.6508444  3
   1383   1381   1393   1395     1  0.0000000  0.6508444  3
   1384   1380   1387   1388     1  0.0000000  0.6508444  3
   1384   1380   1387   1389     1  0.0000000  0.6508444  3
   1384   1396   1402   1403     1  0.0000000  0.6508444  3
   1384   1396   1402   1404     1  0.0000000  0.6508444  3
   1385   1384   1380   1387     1  0.0000000  0.6508444  3
   1385   1384   1380   1409     1  0.0000000  0.6508444  3
   1385   1384   1396   1402     1  0.0000000  0.6508444  3
   1385   1384   1396   1397     1  0.0000000  0.6508444  3
   1385   1384   1396   1398     1  0.0000000  0.6508444  3
   1386   1384   1380   1387     1  0.0000000  0.6508444  3
   1386   1384   1380   1409     1  0.0000000  0.6508444  3
   1386   1384   1396   1402     1  0.0000000  0.6508444  3
   1386   1384   1396   1397     1  0.0000000  0.6508444  3
   1386   1384   1396   1398     1  0.0000000  0.6508444  3
   1387   1390   1399   1400     1  0.0000000  0.6508444  3
   1387   1390   1399   1401     1  0.0000000  0.6508444  3
   1388   1387   1380   1409     1  0.0000000  0.6508444  3
   1388   1387   1390   1399     1  0.0000000  0.6508444  3
   1388   1387   1390   1391     1  0.0000000  0.6508444  3
   1388   1387   1390   1392     1  0.0000000  0.6508444  3
   1389   1387   1380   1409     1  0.0000000  0.6508444  3
   1389   1387   1390   1399     1  0.0000000  0.6508444  3
   1389   1387   1390   1391     1  0.0000000  0.6508444  3
   1389   1387   1390   1392     1  0.0000000  0.6508444  3
   1390   1387   1380   1409     1  0.0000000  0.6508444  3
   1391   1390   1399   1408     1  0.0000000  1.0460000  1
   1391   1390   1399   1408     1  0.0000000  0.0000000  3
   1391   1390   1399   1400     1  0.0000000  0.6508444  3
   1391   1390   1399   1401     1  0.0000000  0.6508444  3
   1392   1390   1399   1408     1  0.0000000  1.0460000  1
   1392   1390   1399   1408     1  0.0000000  0.0000000  3
   1392   1390   1399   1400     1  0.0000000  0.6508444  3
   1392   1390   1399   1401     1  0.0000000  0.6508444  3
   1393   1381   1380   1409     1  0.0000000  0.6508444  3
   1394   1393   1405   2882     1  0.0000000  1.0460000  1
   1394   1393   1405   2882     1  0.0000000  0.0000000  3
   1394   1393   1405   1406     1  0.0000000  0.6508444  3
   1394   1393   1405   1407     1  0.0000000  0.6508444  3
   1395   1393   1405   2882     1  0.0000000  1.0460000  1
   1395   1393   1405   2882     1  0.0000000  0.0000000  3
   1395   1393   1405   1406     1  0.0000000  0.6508444  3
   1395   1393   1405   1407     1  0.0000000  0.6508444  3
   1396   1384   1380   1409     1  0.0000000  0.6508444  3
   1397   1396   1402   2850     1  0.0000000  1.0460000  1
   1397   1396   1402   2850     1  0.0000000  0.0000000  3
   1397   1396   1402   1403     1  0.0000000  0.6508444  3
   1397   1396   1402   1404     1  0.0000000  0.6508444  3
   1398   1396   1402   2850     1  0.0000000  1.0460000  1
   1398   1396   1402   2850     1  0.0000000  0.0000000  3
   1398   1396   1402   1403     1  0.0000000  0.6508444  3
   1398   1396   1402   1404     1  0.0000000  0.6508444  3
   1402   2850   2820   2821     1  0.0000000  1.6038667  3
   1402   2850   2820   2822     1  0.0000000  1.6038667  3
   1403   1402   2850   2820     1  0.0000000  1.6038667  3
   1404   1402   2850   2820     1  0.0000000  1.6038667  3
   1405   2882   2852   2853     1  0.0000000  1.6038667  3
   1405   2882   2852   2854     1  0.0000000  1.6038667  3
   1406   1405   2882   2852     1  0.0000000  1.6038667  3
   1407   1405   2882   2852     1  0.0000000  1.6038667  3
   1410   1411   1423   1424     1  0.0000000  0.6508444  3
   1410   1411   1423   1425     1  0.0000000  0.6508444  3
   1410   1414   1426   1427     1  0.0000000  0.6508444  3
   1410   1414   1426   1428     1  0.0000000  0.6508444  3
   1410   1417   1420   1421     1  0.0000000  0.6508444  3
   1410   1417   1420   1422     1  0.0000000  0.6508444  3
   1411   1410   1414   1415     1  0.0000000  0.6508444  3
   1411   1410   1414   1416     1  0.0000000  0.6508444  3
   1411   1410   1417   1418     1  0.0000000  0.6508444  3
   1411   1410   1417   1419     1  0.0000000  0.6508444  3
   1411   1423   1435   1436     1  0.0000000  0.6508444  3
   1411   1423   1435   1437     1  0.0000000  0.6508444  3
   1412   1411   1410   1414     1  0.0000000  0.6508444  3
   1412   1411   1410   1417     1  0.0000000  0.6508444  3
   1412   1411   1410   1439     1  0.0000000  0.6508444  3
   1412   1411   1423   1435     1  0.0000000  0.6508444  3
   1412   1411   1423   1424     1  0.0000000  0.6508444  3
   1412   1411   1423   1425     1  0.0000000  0.6508444  3
   1413   1411   1410   1414     1  0.0000000  0.6508444  3
   1413   1411   1410   1417     1  0.0000000  0.6508444  3
   1413   1411   1410   1439     1  0.0000000  0.6508444  3
   1413   1411   1423   1435     1  0.0000000  0.6508444  3
   1413   1411   1423   1424     1  0.0000000  0.6508444  3
   1413   1411   1423   1425     1  0.0000000  0.6508444  3
   1414   1410   1417   1418     1  0.0000000  0.6508444  3
   1414   1410   1417   1419     1  0.0000000  0.6508444  3
   1414   1426   1432   1433     1  0.0000000  0.6508444  3
   1414   1426   1432   1434     1  0.0000000  0.6508444  3
   1415   1414   1410   1417     1  0.0000000  0.6508444  3
   1415   1414   1410   1439     1  0.0000000  0.6508444  3
   1415   1414   1426   1432     1  0.0000000  0.6508444  3
   1415   1414   1426   1427     1  0.0000000  0.6508444  3
   1415   1414   1426   1428     1  0.0000000  0.6508444  3
   1416   1414   1410   1417     1  0.0000000  0.6508444  3
   1416   1414   1410   1439     1  0.0000000  0.6508444  3
   1416   1414   1426   1432     1  0.0000000  0.6508444  3
   1416   1414   1426   1427     1  0.0000000  0.6508444  3
   1416   1414   1426   1428     1  0.0000000  0.6508444  3
   1417   1420   1429   1430     1  0.0000000  0.6508444  3
   1417   1420   1429   1431     1  0.0000000  0.6508444  3
   1418   1417   1410   1439     1  0.0000000  0.6508444  3
   1418   1417   1420   1429     1  0.0000000  0.6508444  3
   1418   1417   1420   1421     1  0.0000000  0.6508444  3
   1418   1417   1420   1422     1  0.0000000  0.6508444  3
   1419   1417   1410   1439     1  0.0000000  0.6508444  3
   1419   1417   1420   1429     1  0.0000000  0.6508444  3
   1419   1417   1420   1421     1  0.0000000  0.6508444  3
   1419   1417   1420   1422     1  0.0000000  0.6508444  3
   1420   1417   1410   1439     1  0.0000000  0.6508444  3
   1421   1420   1429   1438     1  0.0000000  1.0460000  1
   1421   1420   1429   1438     1  0.0000000  0.0000000  3
   1421   1420   1429   1430     1  0.0000000  0.6508444  3
   1421   1420   1429   1431     1  0.0000000  0.6508444  3
   1422   1420   1429   1438     1  0.0000000  1.0460000  1
   1422   1420   1429   1438     1  0.0000000  0.0000000  3
   1422   1420   1429   1430     1  0.0000000  0.6508444  3
   1422   1420   1429   1431     1  0.0000000  0.6508444  3
   1423   1411   1410   1439     1  0.0000000  0.6508444  3
   1424   1423   1435   2946     1  0.0000000  1.0460000  1
   1424   1423   1435   2946     1  0.0000000  0.0000000  3
   1424   1423   1435   1436     1  0.0000000  0.6508444  3
   1424   1423   1435   1437     1  0.0000000  0.6508444  3
   1425   1423   1435   2946     1  0.0000000  1.0460000  1
   1425   1423   1435   2946     1  0.0000000  0.0000000  3
   1425   1423   1435   1436     1  0.0000000  0.6508444  3
   1425   1423   1435   1437     1  0.0000000  0.6508444  3
   1426   1414   1410   1439     1  0.0000000  0.6508444  3
   1427   1426   1432   2914     1  0.0000000  1.0460000  1
   1427   1426   1432   2914     1  0.0000000  0.0000000  3
   1427   1426   1432   1433     1  0.0000000  0.6508444  3
   1427   1426   1432   1434     1  0.0000000  0.6508444  3
   1428   1426   1432   2914     1  0.0000000  1.0460000  1
   1428   1426   1432   2914     1  0.0000000  0.0000000  3
   1428   1426   1432   1433     1  0.0000000  0.6508444  3
   1428   1426   1432   1434     1  0.0000000  0.6508444  3
   1432   2914   2884   2885     1  0.0000000  1.6038667  3
   1432   2914   2884   2886     1  0.0000000  1.6038667  3
   1433   1432   2914   2884     1  0.0000000  1.6038667  3
   1434   1432   2914   2884     1  0.0000000  1.6038667  3
   1435   2946   2916   2917     1  0.0000000  1.6038667  3
   1435   2946   2916   2918     1  0.0000000  1.6038667  3
   1436   1435   2946   2916     1  0.0000000  1.6038667  3
   1437   1435   2946   2916     1  0.0000000  1.6038667  3
   1440   1441   1453   1454     1  0.0000000  0.6508444  3
   1440   1441   1453   1455     1  0.0000000  0.6508444  3
   1440   1444   1456   1457     1  0.0000000  0.6508444  3
   1440   1444   1456   1458     1  0.0000000  0.6508444  3
   1440   1447   1450   1451     1  0.0000000  0.6508444  3
   1440   1447   1450   1452     1  0.0000000  0.6508444  3
   1441   1440   1444   1445     1  0.0000000  0.6508444  3
   1441   1440   1444   1446     1  0.0000000  0.6508444  3
   1441   1440   1447   1448     1  0.0000000  0.6508444  3
   1441   1440   1447   1449     1  0.0000000  0.6508444  3
   1441   1453   1465   1466     1  0.0000000  0.6508444  3
   1441   1453   1465   1467     1  0.0000000  0.6508444  3
   1442   1441   1440   1444     1  0.0000000  0.6508444  3
   1442   1441   1440   1447     1  0.0000000  0.6508444  3
   1442   1441   1440   1469     1  0.0000000  0.6508444  3
   1442   1441   1453   1465     1  0.0000000  0.6508444  3
   1442   1441   1453   1454     1  0.0000000  0.6508444  3
   1442   1441   1453   1455     1  0.0000000  0.6508444  3
   1443   1441   1440   1444     1  0.0000000  0.6508444  3
   1443   1441   1440   1447     1  0.0000000  0.6508444  3
   1443   1441   1440   1469     1  0.0000000  0.6508444  3
   1443   1441   1453   1465     1  0.0000000  0.6508444  3
   1443   1441   1453   1454     1  0.0000000  0.6508444  3
   1443   1441   1453   1455     1  0.0000000  0.6508444  3
   1444   1440   1447   1448     1  0.0000000  0.6508444  3
   1444   1440   1447   1449     1  0.0000000  0.6508444  3
   1444   1456   1462   1463     1  0.0000000  0.6508444  3
   1444   1456   1462   1464     1  0.0000000  0.6508444  3
   1445   1444   1440   1447     1  0.0000000  0.6508444  3
   1445   1444   1440   1469     1  0.0000000  0.6508444  3
   1445   1444   1456   1462     1  0.0000000  0.6508444  3
   1445   1444   1456   1457     1  0.0000000  0.6508444  3
   1445   1444   1456   1458     1  0.0000000  0.6508444  3
   1446   1444   1440   1447     1  0.0000000  0.6508444  3
   1446   1444   1440   1469     1  0.0000000  0.6508444  3
   1446   1444   1456   1462     1  0.0000000  0.6508444  3
   1446   1444   1456   1457     1  0.0000000  0.6508444  3
   1446   1444   1456   1458     1  0.0000000  0.6508444  3
   1447   1450   1459   1460     1  0.0000000  0.6508444  3
   1447   1450   1459   1461     1  0.0000000  0.6508444  3
   1448   1447   1440   1469     1  0.0000000  0.6508444  3
   1448   1447   1450   1459     1  0.0000000  0.6508444  3
   1448   1447   1450   1451     1  0.0000000  0.6508444  3
   1448   1447   1450   1452     1  0.0000000  0.6508444  3
   1449   1447   1440   1469     1  0.0000000  0.6508444  3
   1449   1447   1450   1459     1  0.0000000  0.6508444  3
   1449   1447   1450   1451     1  0.0000000  0.6508444  3
   1449   1447   1450   1452     1  0.0000000  0.6508444  3
   1450   1447   1440   1469     1  0.0000000  0.6508444  3
   1451   1450   1459   1468     1  0.0000000  1.0460000  1
   1451   1450   1459   1468     1  0.0000000  0.0000000  3
   1451   1450   1459   1460     1  0.0000000  0.6508444  3
   1451   1450   1459   1461     1  0.0000000  0.6508444  3
   1452   1450   1459   1468     1  0.0000000  1.0460000  1
   1452   1450   1459   1468     1  0.0000000  0.0000000  3
   1452   1450   1459   1460     1  0.0000000  0.6508444  3
   1452   1450   1459   1461     1  0.0000000  0.6508444  3
   1453   1441   1440   1469     1  0.0000000  0.6508444  3
   1454   1453   1465   3010     1  0.0000000  1.0460000  1
   1454   1453   1465   3010     1  0.0000000  0.0000000  3
   1454   1453   1465   1466     1  0.0000000  0.6508444  3
   1454   1453   1465   1467     1  0.0000000  0.6508444  3
   1455   1453   1465   3010     1  0.0000000  1.0460000  1
   1455   1453   1465   3010     1  0.0000000  0.0000000  3
   1455   1453   1465   1466     1  0.0000000  0.6508444  3
   1455   1453   1465   1467     1  0.0000000  0.6508444  3
   1456   1444   1440   1469     1  0.0000000  0.6508444  3
   1457   1456   1462   2978     1  0.0000000  1.0460000  1
   1457   1456   1462   2978     1  0.0000000  0.0000000  3
   1457   1456   1462   1463     1  0.0000000  0.6508444  3
   1457   1456   1462   1464     1  0.0000000  0.6508444  3
   1458   1456   1462   2978     1  0.0000000  1.0460000  1
   1458   1456   1462   2978     1  0.0000000  0.0000000  3
   1458   1456   1462   1463     1  0.0000000  0.6508444  3
   1458   1456   1462   1464     1  0.0000000  0.6508444  3
   1462   2978   2948   2949     1  0.0000000  1.6038667  3
   1462   2978   2948   2950     1  0.0000000  1.6038667  3
   1463   1462   2978   2948     1  0.0000000  1.6038667  3
   1464   1462   2978   2948     1  0.0000000  1.6038667  3
   1465   3010   2980   2981     1  0.0000000  1.6038667  3
   1465   3010   2980   2982     1  0.0000000  1.6038667  3
   1466   1465   3010   2980     1  0.0000000  1.6038667  3
   1467   1465   3010   2980     1  0.0000000  1.6038667  3
   1470   1471   1483   1484     1  0.0000000  0.6508444  3
   1470   1471   1483   1485     1  0.0000000  0.6508444  3
   1470   1474   1486   1487     1  0.0000000  0.6508444  3
   1470   1474   1486   1488     1  0.0000000  0.6508444  3
   1470   1477   1480   1481     1  0.0000000  0.6508444  3
   1470   1477   1480   1482     1  0.0000000  0.6508444  3
   1471   1470   1474   1475     1  0.0000000  0.6508444  3
   1471   1470   1474   1476     1  0.0000000  0.6508444  3
   1471   1470   1477   1478     1  0.0000000  0.6508444  3
   1471   1470   1477   1479     1  0.0000000  0.6508444  3
   1471   1483   1495   1496     1  0.0000000  0.6508444  3
   1471   1483   1495   1497     1  0.0000000  0.6508444  3
   1472   1471   1470   1474     1  0.0000000  0.6508444  3
   1472   1471   1470   1477     1  0.0000000  0.6508444  3
   1472   1471   1470   1499     1  0.0000000  0.6508444  3
   1472   1471   1483   1495     1  0.0000000  0.6508444  3
   1472   1471   1483   1484     1  0.0000000  0.6508444  3
   1472   1471   1483   1485     1  0.0000000  0.6508444  3
   1473   1471   1470   1474     1  0.0000000  0.6508444  3
   1473   1471   1470   1477     1  0.0000000  0.6508444  3
   1473   1471   1470   1499     1  0.0000000  0.6508444  3
   1473   1471   1483   1495     1  0.0000000  0.6508444  3
   1473   1471   1483   1484     1  0.0000000  0.6508444  3
   1473   1471   1483   1485     1  0.0000000  0.6508444  3
   1474   1470   1477   1478     1  0.0000000  0.6508444  3
   1474   1470   1477   1479     1  0.0000000  0.6508444  3
   1474   1486   1492   1493     1  0.0000000  0.6508444  3
   1474   1486   1492   1494     1  0.0000000  0.6508444  3
   1475   1474   1470   1477     1  0.0000000  0.6508444  3
   1475   1474   1470   1499     1  0.0000000  0.6508444  3
   1475   1474   1486   1492     1  0.0000000  0.6508444  3
   1475   1474   1486   1487     1  0.0000000  0.6508444  3
   1475   1474   1486   1488     1  0.0000000  0.6508444  3
   1476   1474   1470   1477     1  0.0000000  0.6508444  3
   1476   1474   1470   1499     1  0.0000000  0.6508444  3
   1476   1474   1486   1492     1  0.0000000  0.6508444  3
   1476   1474   1486   1487     1  0.0000000  0.6508444  3
   1476   1474   1486   1488     1  0.0000000  0.6508444  3
   1477   1480   1489   1490     1  0.0000000  0.6508444  3
   1477   1480   1489   1491     1  0.0000000  0.6508444  3
   1478   1477   1470   1499     1  0.0000000  0.6508444  3
   1478   1477   1480   1489     1  0.0000000  0.6508444  3
   1478   1477   1480   1481     1  0.0000000  0.6508444  3
   1478   1477   1480   1482     1  0.0000000  0.6508444  3
   1479   1477   1470   1499     1  0.0000000  0.6508444  3
   1479   1477   1480   1489     1  0.0000000  0.6508444  3
   1479   1477   1480   1481     1  0.0000000  0.6508444  3
   1479   1477   1480   1482     1  0.0000000  0.6508444  3
   1480   1477   1470   1499     1  0.0000000  0.6508444  3
   1481   1480   1489   1498     1  0.0000000  1.0460000  1
   1481   1480   1489   1498     1  0.0000000  0.0000000  3
   1481   1480   1489   1490     1  0.0000000  0.6508444  3
   1481   1480   1489   1491     1  0.0000000  0.6508444  3
   1482   1480   1489   1498     1  0.0000000  1.0460000  1
   1482   1480   1489   1498     1  0.0000000  0.0000000  3
   1482   1480   1489   1490     1  0.0000000  0.6508444  3
   1482   1480   1489   1491     1  0.0000000  0.6508444  3
   1483   1471   1470   1499     1  0.0000000  0.6508444  3
   1484   1483   1495   3074     1  0.0000000  1.0460000  1
   1484   1483   1495   3074     1  0.0000000  0.0000000  3
   1484   1483   1495   1496     1  0.0000000  0.6508444  3
   1484   1483   1495   1497     1  0.0000000  0.6508444  3
   1485   1483   1495   3074     1  0.0000000  1.0460000  1
   1485   1483   1495   3074     1  0.0000000  0.0000000  3
   1485   1483   1495   1496     1  0.0000000  0.6508444  3
   1485   1483   1495   1497     1  0.0000000  0.6508444  3
   1486   1474   1470   1499     1  0.0000000  0.6508444  3
   1487   1486   1492   3042     1  0.0000000  1.0460000  1
   1487   1486   1492   3042     1  0.0000000  0.0000000  3
   1487   1486   1492   1493     1  0.0000000  0.6508444  3
   1487   1486   1492   1494     1  0.0000000  0.6508444  3
   1488   1486   1492   3042     1  0.0000000  1.0460000  1
   1488   1486   1492   3042     1  0.0000000  0.0000000  3
   1488   1486   1492   1493     1  0.0000000  0.6508444  3
   1488   1486   1492   1494     1  0.0000000  0.6508444  3
   1492   3042   3012   3013     1  0.0000000  1.6038667  3
   1492   3042   3012   3014     1  0.0000000  1.6038667  3
   1493   1492   3042   3012     1  0.0000000  1.6038667  3
   1494   1492   3042   3012     1  0.0000000  1.6038667  3
   1495   3074   3044   3045     1  0.0000000  1.6038667  3
   1495   3074   3044   3046     1  0.0000000  1.6038667  3
   1496   1495   3074   3044     1  0.0000000  1.6038667  3
   1497   1495   3074   3044     1  0.0000000  1.6038667  3
   1500   1501   1513   1514     1  0.0000000  0.6508444  3
   1500   1501   1513   1515     1  0.0000000  0.6508444  3
   1500   1504   1516   1517     1  0.0000000  0.6508444  3
   1500   1504   1516   1518     1  0.0000000  0.6508444  3
   1500   1507   1510   1511     1  0.0000000  0.6508444  3
   1500   1507   1510   1512     1  0.0000000  0.6508444  3
   1501   1500   1504   1505     1  0.0000000  0.6508444  3
   1501   1500   1504   1506     1  0.0000000  0.6508444  3
   1501   1500   1507   1508     1  0.0000000  0.6508444  3
   1501   1500   1507   1509     1  0.0000000  0.6508444  3
   1501   1513   1525   1526     1  0.0000000  0.6508444  3
   1501   1513   1525   1527     1  0.0000000  0.6508444  3
   1502   1501   1500   1504     1  0.0000000  0.6508444  3
   1502   1501   1500   1507     1  0.0000000  0.6508444  3
   1502   1501   1500   1529     1  0.0000000  0.6508444  3
   1502   1501   1513   1525     1  0.0000000  0.6508444  3
   1502   1501   1513   1514     1  0.0000000  0.6508444  3
   1502   1501   1513   1515     1  0.0000000  0.6508444  3
   1503   1501   1500   1504     1  0.0000000  0.6508444  3
   1503   1501   1500   1507     1  0.0000000  0.6508444  3
   1503   1501   1500   1529     1  0.0000000  0.6508444  3
   1503   1501   1513   1525     1  0.0000000  0.6508444  3
   1503   1501   1513   1514     1  0.0000000  0.6508444  3
   1503   1501   1513   1515     1  0.0000000  0.6508444  3
   1504   1500   1507   1508     1  0.0000000  0.6508444  3
   1504   1500   1507   1509     1  0.0000000  0.6508444  3
   1504   1516   1522   1523     1  0.0000000  0.6508444  3
   1504   1516   1522   1524     1  0.0000000  0.6508444  3
   1505   1504   1500   1507     1  0.0000000  0.6508444  3
   1505   1504   1500   1529     1  0.0000000  0.6508444  3
   1505   1504   1516   1522     1  0.0000000  0.6508444  3
   1505   1504   1516   1517     1  0.0000000  0.6508444  3
   1505   1504   1516   1518     1  0.0000000  0.6508444  3
   1506   1504   1500   1507     1  0.0000000  0.6508444  3
   1506   1504   1500   1529     1  0.0000000  0.6508444  3
   1506   1504   1516   1522     1  0.0000000  0.6508444  3
   1506   1504   1516   1517     1  0.0000000  0.6508444  3
   1506   1504   1516   1518     1  0.0000000  0.6508444  3
   1507   1510   1519   1520     1  0.0000000  0.6508444  3
   1507   1510   1519   1521     1  0.0000000  0.6508444  3
   1508   1507   1500   1529     1  0.0000000  0.6508444  3
   1508   1507   1510   1519     1  0.0000000  0.6508444  3
   1508   1507   1510   1511     1  0.0000000  0.6508444  3
   1508   1507   1510   1512     1  0.0000000  0.6508444  3
   1509   1507   1500   1529     1  0.0000000  0.6508444  3
   1509   1507   1510   1519     1  0.0000000  0.6508444  3
   1509   1507   1510   1511     1  0.0000000  0.6508444  3
   1509   1507   1510   1512     1  0.0000000  0.6508444  3
   1510   1507   1500   1529     1  0.0000000  0.6508444  3
   1511   1510   1519   1528     1  0.0000000  1.0460000  1
   1511   1510   1519   1528     1  0.0000000  0.0000000  3
   1511   1510   1519   1520     1  0.0000000  0.6508444  3
   1511   1510   1519   1521     1  0.0000000  0.6508444  3
   1512   1510   1519   1528     1  0.0000000  1.0460000  1
   1512   1510   1519   1528     1  0.0000000  0.0000000  3
   1512   1510   1519   1520     1  0.0000000  0.6508444  3
   1512   1510   1519   1521     1  0.0000000  0.6508444  3
   1513   1501   1500   1529     1  0.0000000  0.6508444  3
   1514   1513   1525   3138     1  0.0000000  1.0460000  1
   1514   1513   1525   3138     1  0.0000000  0.0000000  3
   1514   1513   1525   1526     1  0.0000000  0.6508444  3
   1514   1513   1525   1527     1  0.0000000  0.6508444  3
   1515   1513   1525   3138     1  0.0000000  1.0460000  1
   1515   1513   1525   3138     1  0.0000000  0.0000000  3
   1515   1513   1525   1526     1  0.0000000  0.6508444  3
   1515   1513   1525   1527     1  0.0000000  0.6508444  3
   1516   1504   1500   1529     1  0.0000000  0.6508444  3
   1517   1516   1522   3106     1  0.0000000  1.0460000  1
   1517   1516   1522   3106     1  0.0000000  0.0000000  3
   1517   1516   1522   1523     1  0.0000000  0.6508444  3
   1517   1516   1522   1524     1  0.0000000  0.6508444  3
   1518   1516   1522   3106     1  0.0000000  1.0460000  1
   1518   1516   1522   3106     1  0.0000000  0.0000000  3
   1518   1516   1522   1523     1  0.0000000  0.6508444  3
   1518   1516   1522   1524     1  0.0000000  0.6508444  3
   1522   3106   3076   3077     1  0.0000000  1.6038667  3
   1522   3106   3076   3078     1  0.0000000  1.6038667  3
   1523   1522   3106   3076     1  0.0000000  1.6038667  3
   1524   1522   3106   3076     1  0.0000000  1.6038667  3
   1525   3138   3108   3109     1  0.0000000  1.6038667  3
   1525   3138   3108   3110     1  0.0000000  1.6038667  3
   1526   1525   3138   3108     1  0.0000000  1.6038667  3
   1527   1525   3138   3108     1  0.0000000  1.6038667  3
   1530   1531   1543   1544     1  0.0000000  0.6508444  3
   1530   1531   1543   1545     1  0.0000000  0.6508444  3
   1530   1534   1546   1547     1  0.0000000  0.6508444  3
   1530   1534   1546   1548     1  0.0000000  0.6508444  3
   1530   1537   1540   1541     1  0.0000000  0.6508444  3
   1530   1537   1540   1542     1  0.0000000  0.6508444  3
   1531   1530   1534   1535     1  0.0000000  0.6508444  3
   1531   1530   1534   1536     1  0.0000000  0.6508444  3
   1531   1530   1537   1538     1  0.0000000  0.6508444  3
   1531   1530   1537   1539     1  0.0000000  0.6508444  3
   1531   1543   1555   1556     1  0.0000000  0.6508444  3
   1531   1543   1555   1557     1  0.0000000  0.6508444  3
   1532   1531   1530   1534     1  0.0000000  0.6508444  3
   1532   1531   1530   1537     1  0.0000000  0.6508444  3
   1532   1531   1530   1559     1  0.0000000  0.6508444  3
   1532   1531   1543   1555     1  0.0000000  0.6508444  3
   1532   1531   1543   1544     1  0.0000000  0.6508444  3
   1532   1531   1543   1545     1  0.0000000  0.6508444  3
   1533   1531   1530   1534     1  0.0000000  0.6508444  3
   1533   1531   1530   1537     1  0.0000000  0.6508444  3
   1533   1531   1530   1559     1  0.0000000  0.6508444  3
   1533   1531   1543   1555     1  0.0000000  0.6508444  3
   1533   1531   1543   1544     1  0.0000000  0.6508444  3
   1533   1531   1543   1545     1  0.0000000  0.6508444  3
   1534   1530   1537   1538     1  0.0000000  0.6508444  3
   1534   1530   1537   1539     1  0.0000000  0.6508444  3
   1534   1546   1552   1553     1  0.0000000  0.6508444  3
   1534   1546   1552   1554     1  0.0000000  0.6508444  3
   1535   1534   1530   1537     1  0.0000000  0.6508444  3
   1535   1534   1530   1559     1  0.0000000  0.6508444  3
   1535   1534   1546   1552     1  0.0000000  0.6508444  3
   1535   1534   1546   1547     1  0.0000000  0.6508444  3
   1535   1534   1546   1548     1  0.0000000  0.6508444  3
   1536   1534   1530   1537     1  0.0000000  0.6508444  3
   1536   1534   1530   1559     1  0.0000000  0.6508444  3
   1536   1534   1546   1552     1  0.0000000  0.6508444  3
   1536   1534   1546   1547     1  0.0000000  0.6508444  3
   1536   1534   1546   1548     1  0.0000000  0.6508444  3
   1537   1540   1549   1550     1  0.0000000  0.6508444  3
   1537   1540   1549   1551     1  0.0000000  0.6508444  3
   1538   1537   1530   1559     1  0.0000000  0.6508444  3
   1538   1537   1540   1549     1  0.0000000  0.6508444  3
   1538   1537   1540   1541     1  0.0000000  0.6508444  3
   1538   1537   1540   1542     1  0.0000000  0.6508444  3
   1539   1537   1530   1559     1  0.0000000  0.6508444  3
   1539   1537   1540   1549     1  0.0000000  0.6508444  3
   1539   1537   1540   1541     1  0.0000000  0.6508444  3
   1539   1537   1540   1542     1  0.0000000  0.6508444  3
   1540   1537   1530   1559     1  0.0000000  0.6508444  3
   1541   1540   1549   1558     1  0.0000000  1.0460000  1
   1541   1540   1549   1558     1  0.0000000  0.0000000  3
   1541   1540   1549   1550     1  0.0000000  0.6508444  3
   1541   1540   1549   1551     1  0.0000000  0.6508444  3
   1542   1540   1549   1558     1  0.0000000  1.0460000  1
   1542   1540   1549   1558     1  0.0000000  0.0000000  3
   1542   1540   1549   1550     1  0.0000000  0.6508444  3
   1542   1540   1549   1551     1  0.0000000  0.6508444  3
   1543   1531   1530   1559     1  0.0000000  0.6508444  3
   1544   1543   1555   3202     1  0.0000000  1.0460000  1
   1544   1543   1555   3202     1  0.0000000  0.0000000  3
   1544   1543   1555   1556     1  0.0000000  0.6508444  3
   1544   1543   1555   1557     1  0.0000000  0.6508444  3
   1545   1543   1555   3202     1  0.0000000  1.0460000  1
   1545   1543   1555   3202     1  0.0000000  0.0000000  3
   1545   1543   1555   1556     1  0.0000000  0.6508444  3
   1545   1543   1555   1557     1  0.0000000  0.6508444  3
   1546   1534   1530   1559     1  0.0000000  0.6508444  3
   1547   1546   1552   3170     1  0.0000000  1.0460000  1
   1547   1546   1552   3170     1  0.0000000  0.0000000  3
   1547   1546   1552   1553     1  0.0000000  0.6508444  3
   1547   1546   1552   1554     1  0.0000000  0.6508444  3
   1548   1546   1552   3170     1  0.0000000  1.0460000  1
   1548   1546   1552   3170     1  0.0000000  0.0000000  3
   1548   1546   1552   1553     1  0.0000000  0.6508444  3
   1548   1546   1552   1554     1  0.0000000  0.6508444  3
   1552   3170   3140   3141     1  0.0000000  1.6038667  3
   1552   3170   3140   3142     1  0.0000000  1.6038667  3
   1553   1552   3170   3140     1  0.0000000  1.6038667  3
   1554   1552   3170   3140     1  0.0000000  1.6038667  3
   1555   3202   3172   3173     1  0.0000000  1.6038667  3
   1555   3202   3172   3174     1  0.0000000  1.6038667  3
   1556   1555   3202   3172     1  0.0000000  1.6038667  3
   1557   1555   3202   3172     1  0.0000000  1.6038667  3
   1560   1561   1573   1574     1  0.0000000  0.6508444  3
   1560   1561   1573   1575     1  0.0000000  0.6508444  3
   1560   1564   1576   1577     1  0.0000000  0.6508444  3
   1560   1564   1576   1578     1  0.0000000  0.6508444  3
   1560   1567   1570   1571     1  0.0000000  0.6508444  3
   1560   1567   1570   1572     1  0.0000000  0.6508444  3
   1561   1560   1564   1565     1  0.0000000  0.6508444  3
   1561   1560   1564   1566     1  0.0000000  0.6508444  3
   1561   1560   1567   1568     1  0.0000000  0.6508444  3
   1561   1560   1567   1569     1  0.0000000  0.6508444  3
   1561   1573   1585   1586     1  0.0000000  0.6508444  3
   1561   1573   1585   1587     1  0.0000000  0.6508444  3
   1562   1561   1560   1564     1  0.0000000  0.6508444  3
   1562   1561   1560   1567     1  0.0000000  0.6508444  3
   1562   1561   1560   1589     1  0.0000000  0.6508444  3
   1562   1561   1573   1585     1  0.0000000  0.6508444  3
   1562   1561   1573   1574     1  0.0000000  0.6508444  3
   1562   1561   1573   1575     1  0.0000000  0.6508444  3
   1563   1561   1560   1564     1  0.0000000  0.6508444  3
   1563   1561   1560   1567     1  0.0000000  0.6508444  3
   1563   1561   1560   1589     1  0.0000000  0.6508444  3
   1563   1561   1573   1585     1  0.0000000  0.6508444  3
   1563   1561   1573   1574     1  0.0000000  0.6508444  3
   1563   1561   1573   1575     1  0.0000000  0.6508444  3
   1564   1560   1567   1568     1  0.0000000  0.6508444  3
   1564   1560   1567   1569     1  0.0000000  0.6508444  3
   1564   1576   1582   1583     1  0.0000000  0.6508444  3
   1564   1576   1582   1584     1  0.0000000  0.6508444  3
   1565   1564   1560   1567     1  0.0000000  0.6508444  3
   1565   1564   1560   1589     1  0.0000000  0.6508444  3
   1565   1564   1576   1582     1  0.0000000  0.6508444  3
   1565   1564   1576   1577     1  0.0000000  0.6508444  3
   1565   1564   1576   1578     1  0.0000000  0.6508444  3
   1566   1564   1560   1567     1  0.0000000  0.6508444  3
   1566   1564   1560   1589     1  0.0000000  0.6508444  3
   1566   1564   1576   1582     1  0.0000000  0.6508444  3
   1566   1564   1576   1577     1  0.0000000  0.6508444  3
   1566   1564   1576   1578     1  0.0000000  0.6508444  3
   1567   1570   1579   1580     1  0.0000000  0.6508444  3
   1567   1570   1579   1581     1  0.0000000  0.6508444  3
   1568   1567   1560   1589     1  0.0000000  0.6508444  3
   1568   1567   1570   1579     1  0.0000000  0.6508444  3
   1568   1567   1570   1571     1  0.0000000  0.6508444  3
   1568   1567   1570   1572     1  0.0000000  0.6508444  3
   1569   1567   1560   1589     1  0.0000000  0.6508444  3
   1569   1567   1570   1579     1  0.0000000  0.6508444  3
   1569   1567   1570   1571     1  0.0000000  0.6508444  3
   1569   1567   1570   1572     1  0.0000000  0.6508444  3
   1570   1567   1560   1589     1  0.0000000  0.6508444  3
   1571   1570   1579   1588     1  0.0000000  1.0460000  1
   1571   1570   1579   1588     1  0.0000000  0.0000000  3
   1571   1570   1579   1580     1  0.0000000  0.6508444  3
   1571   1570   1579   1581     1  0.0000000  0.6508444  3
   1572   1570   1579   1588     1  0.0000000  1.0460000  1
   1572   1570   1579   1588     1  0.0000000  0.0000000  3
   1572   1570   1579   1580     1  0.0000000  0.6508444  3
   1572   1570   1579   1581     1  0.0000000  0.6508444  3
   1573   1561   1560   1589     1  0.0000000  0.6508444  3
   1574   1573   1585   3266     1  0.0000000  1.0460000  1
   1574   1573   1585   3266     1  0.0000000  0.0000000  3
   1574   1573   1585   1586     1  0.0000000  0.6508444  3
   1574   1573   1585   1587     1  0.0000000  0.6508444  3
   1575   1573   1585   3266     1  0.0000000  1.0460000  1
   1575   1573   1585   3266     1  0.0000000  0.0000000  3
   1575   1573   1585   1586     1  0.0000000  0.6508444  3
   1575   1573   1585   1587     1  0.0000000  0.6508444  3
   1576   1564   1560   1589     1  0.0000000  0.6508444  3
   1577   1576   1582   3234     1  0.0000000  1.0460000  1
   1577   1576   1582   3234     1  0.0000000  0.0000000  3
   1577   1576   1582   1583     1  0.0000000  0.6508444  3
   1577   1576   1582   1584     1  0.0000000  0.6508444  3
   1578   1576   1582   3234     1  0.0000000  1.0460000  1
   1578   1576   1582   3234     1  0.0000000  0.0000000  3
   1578   1576   1582   1583     1  0.0000000  0.6508444  3
   1578   1576   1582   1584     1  0.0000000  0.6508444  3
   1582   3234   3204   3205     1  0.0000000  1.6038667  3
   1582   3234   3204   3206     1  0.0000000  1.6038667  3
   1583   1582   3234   3204     1  0.0000000  1.6038667  3
   1584   1582   3234   3204     1  0.0000000  1.6038667  3
   1585   3266   3236   3237     1  0.0000000  1.6038667  3
   1585   3266   3236   3238     1  0.0000000  1.6038667  3
   1586   1585   3266   3236     1  0.0000000  1.6038667  3
   1587   1585   3266   3236     1  0.0000000  1.6038667  3
   1590   1591   1603   1604     1  0.0000000  0.6508444  3
   1590   1591   1603   1605     1  0.0000000  0.6508444  3
   1590   1594   1606   1607     1  0.0000000  0.6508444  3
   1590   1594   1606   1608     1  0.0000000  0.6508444  3
   1590   1597   1600   1601     1  0.0000000  0.6508444  3
   1590   1597   1600   1602     1  0.0000000  0.6508444  3
   1591   1590   1594   1595     1  0.0000000  0.6508444  3
   1591   1590   1594   1596     1  0.0000000  0.6508444  3
   1591   1590   1597   1598     1  0.0000000  0.6508444  3
   1591   1590   1597   1599     1  0.0000000  0.6508444  3
   1591   1603   1615   1616     1  0.0000000  0.6508444  3
   1591   1603   1615   1617     1  0.0000000  0.6508444  3
   1592   1591   1590   1594     1  0.0000000  0.6508444  3
   1592   1591   1590   1597     1  0.0000000  0.6508444  3
   1592   1591   1590   1619     1  0.0000000  0.6508444  3
   1592   1591   1603   1615     1  0.0000000  0.6508444  3
   1592   1591   1603   1604     1  0.0000000  0.6508444  3
   1592   1591   1603   1605     1  0.0000000  0.6508444  3
   1593   1591   1590   1594     1  0.0000000  0.6508444  3
   1593   1591   1590   1597     1  0.0000000  0.6508444  3
   1593   1591   1590   1619     1  0.0000000  0.6508444  3
   1593   1591   1603   1615     1  0.0000000  0.6508444  3
   1593   1591   1603   1604     1  0.0000000  0.6508444  3
   1593   1591   1603   1605     1  0.0000000  0.6508444  3
   1594   1590   1597   1598     1  0.0000000  0.6508444  3
   1594   1590   1597   1599     1  0.0000000  0.6508444  3
   1594   1606   1612   1613     1  0.0000000  0.6508444  3
   1594   1606   1612   1614     1  0.0000000  0.6508444  3
   1595   1594   1590   1597     1  0.0000000  0.6508444  3
   1595   1594   1590   1619     1  0.0000000  0.6508444  3
   1595   1594   1606   1612     1  0.0000000  0.6508444  3
   1595   1594   1606   1607     1  0.0000000  0.6508444  3
   1595   1594   1606   1608     1  0.0000000  0.6508444  3
   1596   1594   1590   1597     1  0.0000000  0.6508444  3
   1596   1594   1590   1619     1  0.0000000  0.6508444  3
   1596   1594   1606   1612     1  0.0000000  0.6508444  3
   1596   1594   1606   1607     1  0.0000000  0.6508444  3
   1596   1594   1606   1608     1  0.0000000  0.6508444  3
   1597   1600   1609   1610     1  0.0000000  0.6508444  3
   1597   1600   1609   1611     1  0.0000000  0.6508444  3
   1598   1597   1590   1619     1  0.0000000  0.6508444  3
   1598   1597   1600   1609     1  0.0000000  0.6508444  3
   1598   1597   1600   1601     1  0.0000000  0.6508444  3
   1598   1597   1600   1602     1  0.0000000  0.6508444  3
   1599   1597   1590   1619     1  0.0000000  0.6508444  3
   1599   1597   1600   1609     1  0.0000000  0.6508444  3
   1599   1597   1600   1601     1  0.0000000  0.6508444  3
   1599   1597   1600   1602     1  0.0000000  0.6508444  3
   1600   1597   1590   1619     1  0.0000000  0.6508444  3
   1601   1600   1609   1618     1  0.0000000  1.0460000  1
   1601   1600   1609   1618     1  0.0000000  0.0000000  3
   1601   1600   1609   1610     1  0.0000000  0.6508444  3
   1601   1600   1609   1611     1  0.0000000  0.6508444  3
   1602   1600   1609   1618     1  0.0000000  1.0460000  1
   1602   1600   1609   1618     1  0.0000000  0.0000000  3
   1602   1600   1609   1610     1  0.0000000  0.6508444  3
   1602   1600   1609   1611     1  0.0000000  0.6508444  3
   1603   1591   1590   1619     1  0.0000000  0.6508444  3
   1604   1603   1615   3330     1  0.0000000  1.0460000  1
   1604   1603   1615   3330     1  0.0000000  0.0000000  3
   1604   1603   1615   1616     1  0.0000000  0.6508444  3
   1604   1603   1615   1617     1  0.0000000  0.6508444  3
   1605   1603   1615   3330     1  0.0000000  1.0460000  1
   1605   1603   1615   3330     1  0.0000000  0.0000000  3
   1605   1603   1615   1616     1  0.0000000  0.6508444  3
   1605   1603   1615   1617     1  0.0000000  0.6508444  3
   1606   1594   1590   1619     1  0.0000000  0.6508444  3
   1607   1606   1612   3298     1  0.0000000  1.0460000  1
   1607   1606   1612   3298     1  0.0000000  0.0000000  3
   1607   1606   1612   1613     1  0.0000000  0.6508444  3
   1607   1606   1612   1614     1  0.0000000  0.6508444  3
   1608   1606   1612   3298     1  0.0000000  1.0460000  1
   1608   1606   1612   3298     1  0.0000000  0.0000000  3
   1608   1606   1612   1613     1  0.0000000  0.6508444  3
   1608   1606   1612   1614     1  0.0000000  0.6508444  3
   1612   3298   3268   3269     1  0.0000000  1.6038667  3
   1612   3298   3268   3270     1  0.0000000  1.6038667  3
   1613   1612   3298   3268     1  0.0000000  1.6038667  3
   1614   1612   3298   3268     1  0.0000000  1.6038667  3
   1615   3330   3300   3301     1  0.0000000  1.6038667  3
   1615   3330   3300   3302     1  0.0000000  1.6038667  3
   1616   1615   3330   3300     1  0.0000000  1.6038667  3
   1617   1615   3330   3300     1  0.0000000  1.6038667  3
   1620   1621   1633   1634     1  0.0000000  0.6508444  3
   1620   1621   1633   1635     1  0.0000000  0.6508444  3
   1620   1624   1636   1637     1  0.0000000  0.6508444  3
   1620   1624   1636   1638     1  0.0000000  0.6508444  3
   1620   1627   1630   1631     1  0.0000000  0.6508444  3
   1620   1627   1630   1632     1  0.0000000  0.6508444  3
   1621   1620   1624   1625     1  0.0000000  0.6508444  3
   1621   1620   1624   1626     1  0.0000000  0.6508444  3
   1621   1620   1627   1628     1  0.0000000  0.6508444  3
   1621   1620   1627   1629     1  0.0000000  0.6508444  3
   1621   1633   1645   1646     1  0.0000000  0.6508444  3
   1621   1633   1645   1647     1  0.0000000  0.6508444  3
   1622   1621   1620   1624     1  0.0000000  0.6508444  3
   1622   1621   1620   1627     1  0.0000000  0.6508444  3
   1622   1621   1620   1649     1  0.0000000  0.6508444  3
   1622   1621   1633   1645     1  0.0000000  0.6508444  3
   1622   1621   1633   1634     1  0.0000000  0.6508444  3
   1622   1621   1633   1635     1  0.0000000  0.6508444  3
   1623   1621   1620   1624     1  0.0000000  0.6508444  3
   1623   1621   1620   1627     1  0.0000000  0.6508444  3
   1623   1621   1620   1649     1  0.0000000  0.6508444  3
   1623   1621   1633   1645     1  0.0000000  0.6508444  3
   1623   1621   1633   1634     1  0.0000000  0.6508444  3
   1623   1621   1633   1635     1  0.0000000  0.6508444  3
   1624   1620   1627   1628     1  0.0000000  0.6508444  3
   1624   1620   1627   1629     1  0.0000000  0.6508444  3
   1624   1636   1642   1643     1  0.0000000  0.6508444  3
   1624   1636   1642   1644     1  0.0000000  0.6508444  3
   1625   1624   1620   1627     1  0.0000000  0.6508444  3
   1625   1624   1620   1649     1  0.0000000  0.6508444  3
   1625   1624   1636   1642     1  0.0000000  0.6508444  3
   1625   1624   1636   1637     1  0.0000000  0.6508444  3
   1625   1624   1636   1638     1  0.0000000  0.6508444  3
   1626   1624   1620   1627     1  0.0000000  0.6508444  3
   1626   1624   1620   1649     1  0.0000000  0.6508444  3
   1626   1624   1636   1642     1  0.0000000  0.6508444  3
   1626   1624   1636   1637     1  0.0000000  0.6508444  3
   1626   1624   1636   1638     1  0.0000000  0.6508444  3
   1627   1630   1639   1640     1  0.0000000  0.6508444  3
   1627   1630   1639   1641     1  0.0000000  0.6508444  3
   1628   1627   1620   1649     1  0.0000000  0.6508444  3
   1628   1627   1630   1639     1  0.0000000  0.6508444  3
   1628   1627   1630   1631     1  0.0000000  0.6508444  3
   1628   1627   1630   1632     1  0.0000000  0.6508444  3
   1629   1627   1620   1649     1  0.0000000  0.6508444  3
   1629   1627   1630   1639     1  0.0000000  0.6508444  3
   1629   1627   1630   1631     1  0.0000000  0.6508444  3
   1629   1627   1630   1632     1  0.0000000  0.6508444  3
   1630   1627   1620   1649     1  0.0000000  0.6508444  3
   1631   1630   1639   1648     1  0.0000000  1.0460000  1
   1631   1630   1639   1648     1  0.0000000  0.0000000  3
   1631   1630   1639   1640     1  0.0000000  0.6508444  3
   1631   1630   1639   1641     1  0.0000000  0.6508444  3
   1632   1630   1639   1648     1  0.0000000  1.0460000  1
   1632   1630   1639   1648     1  0.0000000  0.0000000  3
   1632   1630   1639   1640     1  0.0000000  0.6508444  3
   1632   1630   1639   1641     1  0.0000000  0.6508444  3
   1633   1621   1620   1649     1  0.0000000  0.6508444  3
   1634   1633   1645   3394     1  0.0000000  1.0460000  1
   1634   1633   1645   3394     1  0.0000000  0.0000000  3
   1634   1633   1645   1646     1  0.0000000  0.6508444  3
   1634   1633   1645   1647     1  0.0000000  0.6508444  3
   1635   1633   1645   3394     1  0.0000000  1.0460000  1
   1635   1633   1645   3394     1  0.0000000  0.0000000  3
   1635   1633   1645   1646     1  0.0000000  0.6508444  3
   1635   1633   1645   1647     1  0.0000000  0.6508444  3
   1636   1624   1620   1649     1  0.0000000  0.6508444  3
   1637   1636   1642   3362     1  0.0000000  1.0460000  1
   1637   1636   1642   3362     1  0.0000000  0.0000000  3
   1637   1636   1642   1643     1  0.0000000  0.6508444  3
   1637   1636   1642   1644     1  0.0000000  0.6508444  3
   1638   1636   1642   3362     1  0.0000000  1.0460000  1
   1638   1636   1642   3362     1  0.0000000  0.0000000  3
   1638   1636   1642   1643     1  0.0000000  0.6508444  3
   1638   1636   1642   1644     1  0.0000000  0.6508444  3
   1642   3362   3332   3333     1  0.0000000  1.6038667  3
   1642   3362   3332   3334     1  0.0000000  1.6038667  3
   1643   1642   3362   3332     1  0.0000000  1.6038667  3
   1644   1642   3362   3332     1  0.0000000  1.6038667  3
   1645   3394   3364   3365     1  0.0000000  1.6038667  3
   1645   3394   3364   3366     1  0.0000000  1.6038667  3
   1646   1645   3394   3364     1  0.0000000  1.6038667  3
   1647   1645   3394   3364     1  0.0000000  1.6038667  3
   1650   1651   1663   1664     1  0.0000000  0.6508444  3
   1650   1651   1663   1665     1  0.0000000  0.6508444  3
   1650   1654   1666   1667     1  0.0000000  0.6508444  3
   1650   1654   1666   1668     1  0.0000000  0.6508444  3
   1650   1657   1660   1661     1  0.0000000  0.6508444  3
   1650   1657   1660   1662     1  0.0000000  0.6508444  3
   1651   1650   1654   1655     1  0.0000000  0.6508444  3
   1651   1650   1654   1656     1  0.0000000  0.6508444  3
   1651   1650   1657   1658     1  0.0000000  0.6508444  3
   1651   1650   1657   1659     1  0.0000000  0.6508444  3
   1651   1663   1675   1676     1  0.0000000  0.6508444  3
   1651   1663   1675   1677     1  0.0000000  0.6508444  3
   1652   1651   1650   1654     1  0.0000000  0.6508444  3
   1652   1651   1650   1657     1  0.0000000  0.6508444  3
   1652   1651   1650   1679     1  0.0000000  0.6508444  3
   1652   1651   1663   1675     1  0.0000000  0.6508444  3
   1652   1651   1663   1664     1  0.0000000  0.6508444  3
   1652   1651   1663   1665     1  0.0000000  0.6508444  3
   1653   1651   1650   1654     1  0.0000000  0.6508444  3
   1653   1651   1650   1657     1  0.0000000  0.6508444  3
   1653   1651   1650   1679     1  0.0000000  0.6508444  3
   1653   1651   1663   1675     1  0.0000000  0.6508444  3
   1653   1651   1663   1664     1  0.0000000  0.6508444  3
   1653   1651   1663   1665     1  0.0000000  0.6508444  3
   1654   1650   1657   1658     1  0.0000000  0.6508444  3
   1654   1650   1657   1659     1  0.0000000  0.6508444  3
   1654   1666   1672   1673     1  0.0000000  0.6508444  3
   1654   1666   1672   1674     1  0.0000000  0.6508444  3
   1655   1654   1650   1657     1  0.0000000  0.6508444  3
   1655   1654   1650   1679     1  0.0000000  0.6508444  3
   1655   1654   1666   1672     1  0.0000000  0.6508444  3
   1655   1654   1666   1667     1  0.0000000  0.6508444  3
   1655   1654   1666   1668     1  0.0000000  0.6508444  3
   1656   1654   1650   1657     1  0.0000000  0.6508444  3
   1656   1654   1650   1679     1  0.0000000  0.6508444  3
   1656   1654   1666   1672     1  0.0000000  0.6508444  3
   1656   1654   1666   1667     1  0.0000000  0.6508444  3
   1656   1654   1666   1668     1  0.0000000  0.6508444  3
   1657   1660   1669   1670     1  0.0000000  0.6508444  3
   1657   1660   1669   1671     1  0.0000000  0.6508444  3
   1658   1657   1650   1679     1  0.0000000  0.6508444  3
   1658   1657   1660   1669     1  0.0000000  0.6508444  3
   1658   1657   1660   1661     1  0.0000000  0.6508444  3
   1658   1657   1660   1662     1  0.0000000  0.6508444  3
   1659   1657   1650   1679     1  0.0000000  0.6508444  3
   1659   1657   1660   1669     1  0.0000000  0.6508444  3
   1659   1657   1660   1661     1  0.0000000  0.6508444  3
   1659   1657   1660   1662     1  0.0000000  0.6508444  3
   1660   1657   1650   1679     1  0.0000000  0.6508444  3
   1661   1660   1669   1678     1  0.0000000  1.0460000  1
   1661   1660   1669   1678     1  0.0000000  0.0000000  3
   1661   1660   1669   1670     1  0.0000000  0.6508444  3
   1661   1660   1669   1671     1  0.0000000  0.6508444  3
   1662   1660   1669   1678     1  0.0000000  1.0460000  1
   1662   1660   1669   1678     1  0.0000000  0.0000000  3
   1662   1660   1669   1670     1  0.0000000  0.6508444  3
   1662   1660   1669   1671     1  0.0000000  0.6508444  3
   1663   1651   1650   1679     1  0.0000000  0.6508444  3
   1664   1663   1675   3458     1  0.0000000  1.0460000  1
   1664   1663   1675   3458     1  0.0000000  0.0000000  3
   1664   1663   1675   1676     1  0.0000000  0.6508444  3
   1664   1663   1675   1677     1  0.0000000  0.6508444  3
   1665   1663   1675   3458     1  0.0000000  1.0460000  1
   1665   1663   1675   3458     1  0.0000000  0.0000000  3
   1665   1663   1675   1676     1  0.0000000  0.6508444  3
   1665   1663   1675   1677     1  0.0000000  0.6508444  3
   1666   1654   1650   1679     1  0.0000000  0.6508444  3
   1667   1666   1672   3426     1  0.0000000  1.0460000  1
   1667   1666   1672   3426     1  0.0000000  0.0000000  3
   1667   1666   1672   1673     1  0.0000000  0.6508444  3
   1667   1666   1672   1674     1  0.0000000  0.6508444  3
   1668   1666   1672   3426     1  0.0000000  1.0460000  1
   1668   1666   1672   3426     1  0.0000000  0.0000000  3
   1668   1666   1672   1673     1  0.0000000  0.6508444  3
   1668   1666   1672   1674     1  0.0000000  0.6508444  3
   1672   3426   3396   3397     1  0.0000000  1.6038667  3
   1672   3426   3396   3398     1  0.0000000  1.6038667  3
   1673   1672   3426   3396     1  0.0000000  1.6038667  3
   1674   1672   3426   3396     1  0.0000000  1.6038667  3
   1675   3458   3428   3429     1  0.0000000  1.6038667  3
   1675   3458   3428   3430     1  0.0000000  1.6038667  3
   1676   1675   3458   3428     1  0.0000000  1.6038667  3
   1677   1675   3458   3428     1  0.0000000  1.6038667  3
   1680   1681   1693   1694     1  0.0000000  0.6508444  3
   1680   1681   1693   1695     1  0.0000000  0.6508444  3
   1680   1684   1696   1697     1  0.0000000  0.6508444  3
   1680   1684   1696   1698     1  0.0000000  0.6508444  3
   1680   1687   1690   1691     1  0.0000000  0.6508444  3
   1680   1687   1690   1692     1  0.0000000  0.6508444  3
   1681   1680   1684   1685     1  0.0000000  0.6508444  3
   1681   1680   1684   1686     1  0.0000000  0.6508444  3
   1681   1680   1687   1688     1  0.0000000  0.6508444  3
   1681   1680   1687   1689     1  0.0000000  0.6508444  3
   1681   1693   1705   1706     1  0.0000000  0.6508444  3
   1681   1693   1705   1707     1  0.0000000  0.6508444  3
   1682   1681   1680   1684     1  0.0000000  0.6508444  3
   1682   1681   1680   1687     1  0.0000000  0.6508444  3
   1682   1681   1680   1709     1  0.0000000  0.6508444  3
   1682   1681   1693   1705     1  0.0000000  0.6508444  3
   1682   1681   1693   1694     1  0.0000000  0.6508444  3
   1682   1681   1693   1695     1  0.0000000  0.6508444  3
   1683   1681   1680   1684     1  0.0000000  0.6508444  3
   1683   1681   1680   1687     1  0.0000000  0.6508444  3
   1683   1681   1680   1709     1  0.0000000  0.6508444  3
   1683   1681   1693   1705     1  0.0000000  0.6508444  3
   1683   1681   1693   1694     1  0.0000000  0.6508444  3
   1683   1681   1693   1695     1  0.0000000  0.6508444  3
   1684   1680   1687   1688     1  0.0000000  0.6508444  3
   1684   1680   1687   1689     1  0.0000000  0.6508444  3
   1684   1696   1702   1703     1  0.0000000  0.6508444  3
   1684   1696   1702   1704     1  0.0000000  0.6508444  3
   1685   1684   1680   1687     1  0.0000000  0.6508444  3
   1685   1684   1680   1709     1  0.0000000  0.6508444  3
   1685   1684   1696   1702     1  0.0000000  0.6508444  3
   1685   1684   1696   1697     1  0.0000000  0.6508444  3
   1685   1684   1696   1698     1  0.0000000  0.6508444  3
   1686   1684   1680   1687     1  0.0000000  0.6508444  3
   1686   1684   1680   1709     1  0.0000000  0.6508444  3
   1686   1684   1696   1702     1  0.0000000  0.6508444  3
   1686   1684   1696   1697     1  0.0000000  0.6508444  3
   1686   1684   1696   1698     1  0.0000000  0.6508444  3
   1687   1690   1699   1700     1  0.0000000  0.6508444  3
   1687   1690   1699   1701     1  0.0000000  0.6508444  3
   1688   1687   1680   1709     1  0.0000000  0.6508444  3
   1688   1687   1690   1699     1  0.0000000  0.6508444  3
   1688   1687   1690   1691     1  0.0000000  0.6508444  3
   1688   1687   1690   1692     1  0.0000000  0.6508444  3
   1689   1687   1680   1709     1  0.0000000  0.6508444  3
   1689   1687   1690   1699     1  0.0000000  0.6508444  3
   1689   1687   1690   1691     1  0.0000000  0.6508444  3
   1689   1687   1690   1692     1  0.0000000  0.6508444  3
   1690   1687   1680   1709     1  0.0000000  0.6508444  3
   1691   1690   1699   1708     1  0.0000000  1.0460000  1
   1691   1690   1699   1708     1  0.0000000  0.0000000  3
   1691   1690   1699   1700     1  0.0000000  0.6508444  3
   1691   1690   1699   1701     1  0.0000000  0.6508444  3
   1692   1690   1699   1708     1  0.0000000  1.0460000  1
   1692   1690   1699   1708     1  0.0000000  0.0000000  3
   1692   1690   1699   1700     1  0.0000000  0.6508444  3
   1692   1690   1699   1701     1  0.0000000  0.6508444  3
   1693   1681   1680   1709     1  0.0000000  0.6508444  3
   1694   1693   1705   3522     1  0.0000000  1.0460000  1
   1694   1693   1705   3522     1  0.0000000  0.0000000  3
   1694   1693   1705   1706     1  0.0000000  0.6508444  3
   1694   1693   1705   1707     1  0.0000000  0.6508444  3
   1695   1693   1705   3522     1  0.0000000  1.0460000  1
   1695   1693   1705   3522     1  0.0000000  0.0000000  3
   1695   1693   1705   1706     1  0.0000000  0.6508444  3
   1695   1693   1705   1707     1  0.0000000  0.6508444  3
   1696   1684   1680   1709     1  0.0000000  0.6508444  3
   1697   1696   1702   3490     1  0.0000000  1.0460000  1
   1697   1696   1702   3490     1  0.0000000  0.0000000  3
   1697   1696   1702   1703     1  0.0000000  0.6508444  3
   1697   1696   1702   1704     1  0.0000000  0.6508444  3
   1698   1696   1702   3490     1  0.0000000  1.0460000  1
   1698   1696   1702   3490     1  0.0000000  0.0000000  3
   1698   1696   1702   1703     1  0.0000000  0.6508444  3
   1698   1696   1702   1704     1  0.0000000  0.6508444  3
   1702   3490   3460   3461     1  0.0000000  1.6038667  3
   1702   3490   3460   3462     1  0.0000000  1.6038667  3
   1703   1702   3490   3460     1  0.0000000  1.6038667  3
   1704   1702   3490   3460     1  0.0000000  1.6038667  3
   1705   3522   3492   3493     1  0.0000000  1.6038667  3
   1705   3522   3492   3494     1  0.0000000  1.6038667  3
   1706   1705   3522   3492     1  0.0000000  1.6038667  3
   1707   1705   3522   3492     1  0.0000000  1.6038667  3
   1710   1711   1723   1724     1  0.0000000  0.6508444  3
   1710   1711   1723   1725     1  0.0000000  0.6508444  3
   1710   1714   1726   1727     1  0.0000000  0.6508444  3
   1710   1714   1726   1728     1  0.0000000  0.6508444  3
   1710   1717   1720   1721     1  0.0000000  0.6508444  3
   1710   1717   1720   1722     1  0.0000000  0.6508444  3
   1711   1710   1714   1715     1  0.0000000  0.6508444  3
   1711   1710   1714   1716     1  0.0000000  0.6508444  3
   1711   1710   1717   1718     1  0.0000000  0.6508444  3
   1711   1710   1717   1719     1  0.0000000  0.6508444  3
   1711   1723   1735   1736     1  0.0000000  0.6508444  3
   1711   1723   1735   1737     1  0.0000000  0.6508444  3
   1712   1711   1710   1714     1  0.0000000  0.6508444  3
   1712   1711   1710   1717     1  0.0000000  0.6508444  3
   1712   1711   1710   1739     1  0.0000000  0.6508444  3
   1712   1711   1723   1735     1  0.0000000  0.6508444  3
   1712   1711   1723   1724     1  0.0000000  0.6508444  3
   1712   1711   1723   1725     1  0.0000000  0.6508444  3
   1713   1711   1710   1714     1  0.0000000  0.6508444  3
   1713   1711   1710   1717     1  0.0000000  0.6508444  3
   1713   1711   1710   1739     1  0.0000000  0.6508444  3
   1713   1711   1723   1735     1  0.0000000  0.6508444  3
   1713   1711   1723   1724     1  0.0000000  0.6508444  3
   1713   1711   1723   1725     1  0.0000000  0.6508444  3
   1714   1710   1717   1718     1  0.0000000  0.6508444  3
   1714   1710   1717   1719     1  0.0000000  0.6508444  3
   1714   1726   1732   1733     1  0.0000000  0.6508444  3
   1714   1726   1732   1734     1  0.0000000  0.6508444  3
   1715   1714   1710   1717     1  0.0000000  0.6508444  3
   1715   1714   1710   1739     1  0.0000000  0.6508444  3
   1715   1714   1726   1732     1  0.0000000  0.6508444  3
   1715   1714   1726   1727     1  0.0000000  0.6508444  3
   1715   1714   1726   1728     1  0.0000000  0.6508444  3
   1716   1714   1710   1717     1  0.0000000  0.6508444  3
   1716   1714   1710   1739     1  0.0000000  0.6508444  3
   1716   1714   1726   1732     1  0.0000000  0.6508444  3
   1716   1714   1726   1727     1  0.0000000  0.6508444  3
   1716   1714   1726   1728     1  0.0000000  0.6508444  3
   1717   1720   1729   1730     1  0.0000000  0.6508444  3
   1717   1720   1729   1731     1  0.0000000  0.6508444  3
   1718   1717   1710   1739     1  0.0000000  0.6508444  3
   1718   1717   1720   1729     1  0.0000000  0.6508444  3
   1718   1717   1720   1721     1  0.0000000  0.6508444  3
   1718   1717   1720   1722     1  0.0000000  0.6508444  3
   1719   1717   1710   1739     1  0.0000000  0.6508444  3
   1719   1717   1720   1729     1  0.0000000  0.6508444  3
   1719   1717   1720   1721     1  0.0000000  0.6508444  3
   1719   1717   1720   1722     1  0.0000000  0.6508444  3
   1720   1717   1710   1739     1  0.0000000  0.6508444  3
   1721   1720   1729   1738     1  0.0000000  1.0460000  1
   1721   1720   1729   1738     1  0.0000000  0.0000000  3
   1721   1720   1729   1730     1  0.0000000  0.6508444  3
   1721   1720   1729   1731     1  0.0000000  0.6508444  3
   1722   1720   1729   1738     1  0.0000000  1.0460000  1
   1722   1720   1729   1738     1  0.0000000  0.0000000  3
   1722   1720   1729   1730     1  0.0000000  0.6508444  3
   1722   1720   1729   1731     1  0.0000000  0.6508444  3
   1723   1711   1710   1739     1  0.0000000  0.6508444  3
   1724   1723   1735   3586     1  0.0000000  1.0460000  1
   1724   1723   1735   3586     1  0.0000000  0.0000000  3
   1724   1723   1735   1736     1  0.0000000  0.6508444  3
   1724   1723   1735   1737     1  0.0000000  0.6508444  3
   1725   1723   1735   3586     1  0.0000000  1.0460000  1
   1725   1723   1735   3586     1  0.0000000  0.0000000  3
   1725   1723   1735   1736     1  0.0000000  0.6508444  3
   1725   1723   1735   1737     1  0.0000000  0.6508444  3
   1726   1714   1710   1739     1  0.0000000  0.6508444  3
   1727   1726   1732   3554     1  0.0000000  1.0460000  1
   1727   1726   1732   3554     1  0.0000000  0.0000000  3
   1727   1726   1732   1733     1  0.0000000  0.6508444  3
   1727   1726   1732   1734     1  0.0000000  0.6508444  3
   1728   1726   1732   3554     1  0.0000000  1.0460000  1
   1728   1726   1732   3554     1  0.0000000  0.0000000  3
   1728   1726   1732   1733     1  0.0000000  0.6508444  3
   1728   1726   1732   1734     1  0.0000000  0.6508444  3
   1732   3554   3524   3525     1  0.0000000  1.6038667  3
   1732   3554   3524   3526     1  0.0000000  1.6038667  3
   1733   1732   3554   3524     1  0.0000000  1.6038667  3
   1734   1732   3554   3524     1  0.0000000  1.6038667  3
   1735   3586   3556   3557     1  0.0000000  1.6038667  3
   1735   3586   3556   3558     1  0.0000000  1.6038667  3
   1736   1735   3586   3556     1  0.0000000  1.6038667  3
   1737   1735   3586   3556     1  0.0000000  1.6038667  3
   1740   1741   1753   1754     1  0.0000000  0.6508444  3
   1740   1741   1753   1755     1  0.0000000  0.6508444  3
   1740   1744   1756   1757     1  0.0000000  0.6508444  3
   1740   1744   1756   1758     1  0.0000000  0.6508444  3
   1740   1747   1750   1751     1  0.0000000  0.6508444  3
   1740   1747   1750   1752     1  0.0000000  0.6508444  3
   1741   1740   1744   1745     1  0.0000000  0.6508444  3
   1741   1740   1744   1746     1  0.0000000  0.6508444  3
   1741   1740   1747   1748     1  0.0000000  0.6508444  3
   1741   1740   1747   1749     1  0.0000000  0.6508444  3
   1741   1753   1765   1766     1  0.0000000  0.6508444  3
   1741   1753   1765   1767     1  0.0000000  0.6508444  3
   1742   1741   1740   1744     1  0.0000000  0.6508444  3
   1742   1741   1740   1747     1  0.0000000  0.6508444  3
   1742   1741   1740   1769     1  0.0000000  0.6508444  3
   1742   1741   1753   1765     1  0.0000000  0.6508444  3
   1742   1741   1753   1754     1  0.0000000  0.6508444  3
   1742   1741   1753   1755     1  0.0000000  0.6508444  3
   1743   1741   1740   1744     1  0.0000000  0.6508444  3
   1743   1741   1740   1747     1  0.0000000  0.6508444  3
   1743   1741   1740   1769     1  0.0000000  0.6508444  3
   1743   1741   1753   1765     1  0.0000000  0.6508444  3
   1743   1741   1753   1754     1  0.0000000  0.6508444  3
   1743   1741   1753   1755     1  0.0000000  0.6508444  3
   1744   1740   1747   1748     1  0.0000000  0.6508444  3
   1744   1740   1747   1749     1  0.0000000  0.6508444  3
   1744   1756   1762   1763     1  0.0000000  0.6508444  3
   1744   1756   1762   1764     1  0.0000000  0.6508444  3
   1745   1744   1740   1747     1  0.0000000  0.6508444  3
   1745   1744   1740   1769     1  0.0000000  0.6508444  3
   1745   1744   1756   1762     1  0.0000000  0.6508444  3
   1745   1744   1756   1757     1  0.0000000  0.6508444  3
   1745   1744   1756   1758     1  0.0000000  0.6508444  3
   1746   1744   1740   1747     1  0.0000000  0.6508444  3
   1746   1744   1740   1769     1  0.0000000  0.6508444  3
   1746   1744   1756   1762     1  0.0000000  0.6508444  3
   1746   1744   1756   1757     1  0.0000000  0.6508444  3
   1746   1744   1756   1758     1  0.0000000  0.6508444  3
   1747   1750   1759   1760     1  0.0000000  0.6508444  3
   1747   1750   1759   1761     1  0.0000000  0.6508444  3
   1748   1747   1740   1769     1  0.0000000  0.6508444  3
   1748   1747   1750   1759     1  0.0000000  0.6508444  3
   1748   1747   1750   1751     1  0.0000000  0.6508444  3
   1748   1747   1750   1752     1  0.0000000  0.6508444  3
   1749   1747   1740   1769     1  0.0000000  0.6508444  3
   1749   1747   1750   1759     1  0.0000000  0.6508444  3
   1749   1747   1750   1751     1  0.0000000  0.6508444  3
   1749   1747   1750   1752     1  0.0000000  0.6508444  3
   1750   1747   1740   1769     1  0.0000000  0.6508444  3
   1751   1750   1759   1768     1  0.0000000  1.0460000  1
   1751   1750   1759   1768     1  0.0000000  0.0000000  3
   1751   1750   1759   1760     1  0.0000000  0.6508444  3
   1751   1750   1759   1761     1  0.0000000  0.6508444  3
   1752   1750   1759   1768     1  0.0000000  1.0460000  1
   1752   1750   1759   1768     1  0.0000000  0.0000000  3
   1752   1750   1759   1760     1  0.0000000  0.6508444  3
   1752   1750   1759   1761     1  0.0000000  0.6508444  3
   1753   1741   1740   1769     1  0.0000000  0.6508444  3
   1754   1753   1765   3650     1  0.0000000  1.0460000  1
   1754   1753   1765   3650     1  0.0000000  0.0000000  3
   1754   1753   1765   1766     1  0.0000000  0.6508444  3
   1754   1753   1765   1767     1  0.0000000  0.6508444  3
   1755   1753   1765   3650     1  0.0000000  1.0460000  1
   1755   1753   1765   3650     1  0.0000000  0.0000000  3
   1755   1753   1765   1766     1  0.0000000  0.6508444  3
   1755   1753   1765   1767     1  0.0000000  0.6508444  3
   1756   1744   1740   1769     1  0.0000000  0.6508444  3
   1757   1756   1762   3618     1  0.0000000  1.0460000  1
   1757   1756   1762   3618     1  0.0000000  0.0000000  3
   1757   1756   1762   1763     1  0.0000000  0.6508444  3
   1757   1756   1762   1764     1  0.0000000  0.6508444  3
   1758   1756   1762   3618     1  0.0000000  1.0460000  1
   1758   1756   1762   3618     1  0.0000000  0.0000000  3
   1758   1756   1762   1763     1  0.0000000  0.6508444  3
   1758   1756   1762   1764     1  0.0000000  0.6508444  3
   1762   3618   3588   3589     1  0.0000000  1.6038667  3
   1762   3618   3588   3590     1  0.0000000  1.6038667  3
   1763   1762   3618   3588     1  0.0000000  1.6038667  3
   1764   1762   3618   3588     1  0.0000000  1.6038667  3
   1765   3650   3620   3621     1  0.0000000  1.6038667  3
   1765   3650   3620   3622     1  0.0000000  1.6038667  3
   1766   1765   3650   3620     1  0.0000000  1.6038667  3
   1767   1765   3650   3620     1  0.0000000  1.6038667  3
   1770   1771   1783   1784     1  0.0000000  0.6508444  3
   1770   1771   1783   1785     1  0.0000000  0.6508444  3
   1770   1774   1786   1787     1  0.0000000  0.6508444  3
   1770   1774   1786   1788     1  0.0000000  0.6508444  3
   1770   1777   1780   1781     1  0.0000000  0.6508444  3
   1770   1777   1780   1782     1  0.0000000  0.6508444  3
   1771   1770   1774   1775     1  0.0000000  0.6508444  3
   1771   1770   1774   1776     1  0.0000000  0.6508444  3
   1771   1770   1777   1778     1  0.0000000  0.6508444  3
   1771   1770   1777   1779     1  0.0000000  0.6508444  3
   1771   1783   1795   1796     1  0.0000000  0.6508444  3
   1771   1783   1795   1797     1  0.0000000  0.6508444  3
   1772   1771   1770   1774     1  0.0000000  0.6508444  3
   1772   1771   1770   1777     1  0.0000000  0.6508444  3
   1772   1771   1770   1799     1  0.0000000  0.6508444  3
   1772   1771   1783   1795     1  0.0000000  0.6508444  3
   1772   1771   1783   1784     1  0.0000000  0.6508444  3
   1772   1771   1783   1785     1  0.0000000  0.6508444  3
   1773   1771   1770   1774     1  0.0000000  0.6508444  3
   1773   1771   1770   1777     1  0.0000000  0.6508444  3
   1773   1771   1770   1799     1  0.0000000  0.6508444  3
   1773   1771   1783   1795     1  0.0000000  0.6508444  3
   1773   1771   1783   1784     1  0.0000000  0.6508444  3
   1773   1771   1783   1785     1  0.0000000  0.6508444  3
   1774   1770   1777   1778     1  0.0000000  0.6508444  3
   1774   1770   1777   1779     1  0.0000000  0.6508444  3
   1774   1786   1792   1793     1  0.0000000  0.6508444  3
   1774   1786   1792   1794     1  0.0000000  0.6508444  3
   1775   1774   1770   1777     1  0.0000000  0.6508444  3
   1775   1774   1770   1799     1  0.0000000  0.6508444  3
   1775   1774   1786   1792     1  0.0000000  0.6508444  3
   1775   1774   1786   1787     1  0.0000000  0.6508444  3
   1775   1774   1786   1788     1  0.0000000  0.6508444  3
   1776   1774   1770   1777     1  0.0000000  0.6508444  3
   1776   1774   1770   1799     1  0.0000000  0.6508444  3
   1776   1774   1786   1792     1  0.0000000  0.6508444  3
   1776   1774   1786   1787     1  0.0000000  0.6508444  3
   1776   1774   1786   1788     1  0.0000000  0.6508444  3
   1777   1780   1789   1790     1  0.0000000  0.6508444  3
   1777   1780   1789   1791     1  0.0000000  0.6508444  3
   1778   1777   1770   1799     1  0.0000000  0.6508444  3
   1778   1777   1780   1789     1  0.0000000  0.6508444  3
   1778   1777   1780   1781     1  0.0000000  0.6508444  3
   1778   1777   1780   1782     1  0.0000000  0.6508444  3
   1779   1777   1770   1799     1  0.0000000  0.6508444  3
   1779   1777   1780   1789     1  0.0000000  0.6508444  3
   1779   1777   1780   1781     1  0.0000000  0.6508444  3
   1779   1777   1780   1782     1  0.0000000  0.6508444  3
   1780   1777   1770   1799     1  0.0000000  0.6508444  3
   1781   1780   1789   1798     1  0.0000000  1.0460000  1
   1781   1780   1789   1798     1  0.0000000  0.0000000  3
   1781   1780   1789   1790     1  0.0000000  0.6508444  3
   1781   1780   1789   1791     1  0.0000000  0.6508444  3
   1782   1780   1789   1798     1  0.0000000  1.0460000  1
   1782   1780   1789   1798     1  0.0000000  0.0000000  3
   1782   1780   1789   1790     1  0.0000000  0.6508444  3
   1782   1780   1789   1791     1  0.0000000  0.6508444  3
   1783   1771   1770   1799     1  0.0000000  0.6508444  3
   1784   1783   1795   3714     1  0.0000000  1.0460000  1
   1784   1783   1795   3714     1  0.0000000  0.0000000  3
   1784   1783   1795   1796     1  0.0000000  0.6508444  3
   1784   1783   1795   1797     1  0.0000000  0.6508444  3
   1785   1783   1795   3714     1  0.0000000  1.0460000  1
   1785   1783   1795   3714     1  0.0000000  0.0000000  3
   1785   1783   1795   1796     1  0.0000000  0.6508444  3
   1785   1783   1795   1797     1  0.0000000  0.6508444  3
   1786   1774   1770   1799     1  0.0000000  0.6508444  3
   1787   1786   1792   3682     1  0.0000000  1.0460000  1
   1787   1786   1792   3682     1  0.0000000  0.0000000  3
   1787   1786   1792   1793     1  0.0000000  0.6508444  3
   1787   1786   1792   1794     1  0.0000000  0.6508444  3
   1788   1786   1792   3682     1  0.0000000  1.0460000  1
   1788   1786   1792   3682     1  0.0000000  0.0000000  3
   1788   1786   1792   1793     1  0.0000000  0.6508444  3
   1788   1786   1792   1794     1  0.0000000  0.6508444  3
   1792   3682   3652   3653     1  0.0000000  1.6038667  3
   1792   3682   3652   3654     1  0.0000000  1.6038667  3
   1793   1792   3682   3652     1  0.0000000  1.6038667  3
   1794   1792   3682   3652     1  0.0000000  1.6038667  3
   1795   3714   3684   3685     1  0.0000000  1.6038667  3
   1795   3714   3684   3686     1  0.0000000  1.6038667  3
   1796   1795   3714   3684     1  0.0000000  1.6038667  3
   1797   1795   3714   3684     1  0.0000000  1.6038667  3
   1800   1801   1813   1814     1  0.0000000  0.6508444  3
   1800   1801   1813   1815     1  0.0000000  0.6508444  3
   1800   1804   1816   1817     1  0.0000000  0.6508444  3
   1800   1804   1816   1818     1  0.0000000  0.6508444  3
   1800   1807   1810   1811     1  0.0000000  0.6508444  3
   1800   1807   1810   1812     1  0.0000000  0.6508444  3
   1801   1800   1804   1805     1  0.0000000  0.6508444  3
   1801   1800   1804   1806     1  0.0000000  0.6508444  3
   1801   1800   1807   1808     1  0.0000000  0.6508444  3
   1801   1800   1807   1809     1  0.0000000  0.6508444  3
   1801   1813   1825   1826     1  0.0000000  0.6508444  3
   1801   1813   1825   1827     1  0.0000000  0.6508444  3
   1802   1801   1800   1804     1  0.0000000  0.6508444  3
   1802   1801   1800   1807     1  0.0000000  0.6508444  3
   1802   1801   1800   1829     1  0.0000000  0.6508444  3
   1802   1801   1813   1825     1  0.0000000  0.6508444  3
   1802   1801   1813   1814     1  0.0000000  0.6508444  3
   1802   1801   1813   1815     1  0.0000000  0.6508444  3
   1803   1801   1800   1804     1  0.0000000  0.6508444  3
   1803   1801   1800   1807     1  0.0000000  0.6508444  3
   1803   1801   1800   1829     1  0.0000000  0.6508444  3
   1803   1801   1813   1825     1  0.0000000  0.6508444  3
   1803   1801   1813   1814     1  0.0000000  0.6508444  3
   1803   1801   1813   1815     1  0.0000000  0.6508444  3
   1804   1800   1807   1808     1  0.0000000  0.6508444  3
   1804   1800   1807   1809     1  0.0000000  0.6508444  3
   1804   1816   1822   1823     1  0.0000000  0.6508444  3
   1804   1816   1822   1824     1  0.0000000  0.6508444  3
   1805   1804   1800   1807     1  0.0000000  0.6508444  3
   1805   1804   1800   1829     1  0.0000000  0.6508444  3
   1805   1804   1816   1822     1  0.0000000  0.6508444  3
   1805   1804   1816   1817     1  0.0000000  0.6508444  3
   1805   1804   1816   1818     1  0.0000000  0.6508444  3
   1806   1804   1800   1807     1  0.0000000  0.6508444  3
   1806   1804   1800   1829     1  0.0000000  0.6508444  3
   1806   1804   1816   1822     1  0.0000000  0.6508444  3
   1806   1804   1816   1817     1  0.0000000  0.6508444  3
   1806   1804   1816   1818     1  0.0000000  0.6508444  3
   1807   1810   1819   1820     1  0.0000000  0.6508444  3
   1807   1810   1819   1821     1  0.0000000  0.6508444  3
   1808   1807   1800   1829     1  0.0000000  0.6508444  3
   1808   1807   1810   1819     1  0.0000000  0.6508444  3
   1808   1807   1810   1811     1  0.0000000  0.6508444  3
   1808   1807   1810   1812     1  0.0000000  0.6508444  3
   1809   1807   1800   1829     1  0.0000000  0.6508444  3
   1809   1807   1810   1819     1  0.0000000  0.6508444  3
   1809   1807   1810   1811     1  0.0000000  0.6508444  3
   1809   1807   1810   1812     1  0.0000000  0.6508444  3
   1810   1807   1800   1829     1  0.0000000  0.6508444  3
   1811   1810   1819   1828     1  0.0000000  1.0460000  1
   1811   1810   1819   1828     1  0.0000000  0.0000000  3
   1811   1810   1819   1820     1  0.0000000  0.6508444  3
   1811   1810   1819   1821     1  0.0000000  0.6508444  3
   1812   1810   1819   1828     1  0.0000000  1.0460000  1
   1812   1810   1819   1828     1  0.0000000  0.0000000  3
   1812   1810   1819   1820     1  0.0000000  0.6508444  3
   1812   1810   1819   1821     1  0.0000000  0.6508444  3
   1813   1801   1800   1829     1  0.0000000  0.6508444  3
   1814   1813   1825   3778     1  0.0000000  1.0460000  1
   1814   1813   1825   3778     1  0.0000000  0.0000000  3
   1814   1813   1825   1826     1  0.0000000  0.6508444  3
   1814   1813   1825   1827     1  0.0000000  0.6508444  3
   1815   1813   1825   3778     1  0.0000000  1.0460000  1
   1815   1813   1825   3778     1  0.0000000  0.0000000  3
   1815   1813   1825   1826     1  0.0000000  0.6508444  3
   1815   1813   1825   1827     1  0.0000000  0.6508444  3
   1816   1804   1800   1829     1  0.0000000  0.6508444  3
   1817   1816   1822   3746     1  0.0000000  1.0460000  1
   1817   1816   1822   3746     1  0.0000000  0.0000000  3
   1817   1816   1822   1823     1  0.0000000  0.6508444  3
   1817   1816   1822   1824     1  0.0000000  0.6508444  3
   1818   1816   1822   3746     1  0.0000000  1.0460000  1
   1818   1816   1822   3746     1  0.0000000  0.0000000  3
   1818   1816   1822   1823     1  0.0000000  0.6508444  3
   1818   1816   1822   1824     1  0.0000000  0.6508444  3
   1822   3746   3716   3717     1  0.0000000  1.6038667  3
   1822   3746   3716   3718     1  0.0000000  1.6038667  3
   1823   1822   3746   3716     1  0.0000000  1.6038667  3
   1824   1822   3746   3716     1  0.0000000  1.6038667  3
   1825   3778   3748   3749     1  0.0000000  1.6038667  3
   1825   3778   3748   3750     1  0.0000000  1.6038667  3
   1826   1825   3778   3748     1  0.0000000  1.6038667  3
   1827   1825   3778   3748     1  0.0000000  1.6038667  3
   1830   1831   1843   1844     1  0.0000000  0.6508444  3
   1830   1831   1843   1845     1  0.0000000  0.6508444  3
   1830   1834   1846   1847     1  0.0000000  0.6508444  3
   1830   1834   1846   1848     1  0.0000000  0.6508444  3
   1830   1837   1840   1841     1  0.0000000  0.6508444  3
   1830   1837   1840   1842     1  0.0000000  0.6508444  3
   1831   1830   1834   1835     1  0.0000000  0.6508444  3
   1831   1830   1834   1836     1  0.0000000  0.6508444  3
   1831   1830   1837   1838     1  0.0000000  0.6508444  3
   1831   1830   1837   1839     1  0.0000000  0.6508444  3
   1831   1843   1855   1856     1  0.0000000  0.6508444  3
   1831   1843   1855   1857     1  0.0000000  0.6508444  3
   1832   1831   1830   1834     1  0.0000000  0.6508444  3
   1832   1831   1830   1837     1  0.0000000  0.6508444  3
   1832   1831   1830   1859     1  0.0000000  0.6508444  3
   1832   1831   1843   1855     1  0.0000000  0.6508444  3
   1832   1831   1843   1844     1  0.0000000  0.6508444  3
   1832   1831   1843   1845     1  0.0000000  0.6508444  3
   1833   1831   1830   1834     1  0.0000000  0.6508444  3
   1833   1831   1830   1837     1  0.0000000  0.6508444  3
   1833   1831   1830   1859     1  0.0000000  0.6508444  3
   1833   1831   1843   1855     1  0.0000000  0.6508444  3
   1833   1831   1843   1844     1  0.0000000  0.6508444  3
   1833   1831   1843   1845     1  0.0000000  0.6508444  3
   1834   1830   1837   1838     1  0.0000000  0.6508444  3
   1834   1830   1837   1839     1  0.0000000  0.6508444  3
   1834   1846   1852   1853     1  0.0000000  0.6508444  3
   1834   1846   1852   1854     1  0.0000000  0.6508444  3
   1835   1834   1830   1837     1  0.0000000  0.6508444  3
   1835   1834   1830   1859     1  0.0000000  0.6508444  3
   1835   1834   1846   1852     1  0.0000000  0.6508444  3
   1835   1834   1846   1847     1  0.0000000  0.6508444  3
   1835   1834   1846   1848     1  0.0000000  0.6508444  3
   1836   1834   1830   1837     1  0.0000000  0.6508444  3
   1836   1834   1830   1859     1  0.0000000  0.6508444  3
   1836   1834   1846   1852     1  0.0000000  0.6508444  3
   1836   1834   1846   1847     1  0.0000000  0.6508444  3
   1836   1834   1846   1848     1  0.0000000  0.6508444  3
   1837   1840   1849   1850     1  0.0000000  0.6508444  3
   1837   1840   1849   1851     1  0.0000000  0.6508444  3
   1838   1837   1830   1859     1  0.0000000  0.6508444  3
   1838   1837   1840   1849     1  0.0000000  0.6508444  3
   1838   1837   1840   1841     1  0.0000000  0.6508444  3
   1838   1837   1840   1842     1  0.0000000  0.6508444  3
   1839   1837   1830   1859     1  0.0000000  0.6508444  3
   1839   1837   1840   1849     1  0.0000000  0.6508444  3
   1839   1837   1840   1841     1  0.0000000  0.6508444  3
   1839   1837   1840   1842     1  0.0000000  0.6508444  3
   1840   1837   1830   1859     1  0.0000000  0.6508444  3
   1841   1840   1849   1858     1  0.0000000  1.0460000  1
   1841   1840   1849   1858     1  0.0000000  0.0000000  3
   1841   1840   1849   1850     1  0.0000000  0.6508444  3
   1841   1840   1849   1851     1  0.0000000  0.6508444  3
   1842   1840   1849   1858     1  0.0000000  1.0460000  1
   1842   1840   1849   1858     1  0.0000000  0.0000000  3
   1842   1840   1849   1850     1  0.0000000  0.6508444  3
   1842   1840   1849   1851     1  0.0000000  0.6508444  3
   1843   1831   1830   1859     1  0.0000000  0.6508444  3
   1844   1843   1855   3842     1  0.0000000  1.0460000  1
   1844   1843   1855   3842     1  0.0000000  0.0000000  3
   1844   1843   1855   1856     1  0.0000000  0.6508444  3
   1844   1843   1855   1857     1  0.0000000  0.6508444  3
   1845   1843   1855   3842     1  0.0000000  1.0460000  1
   1845   1843   1855   3842     1  0.0000000  0.0000000  3
   1845   1843   1855   1856     1  0.0000000  0.6508444  3
   1845   1843   1855   1857     1  0.0000000  0.6508444  3
   1846   1834   1830   1859     1  0.0000000  0.6508444  3
   1847   1846   1852   3810     1  0.0000000  1.0460000  1
   1847   1846   1852   3810     1  0.0000000  0.0000000  3
   1847   1846   1852   1853     1  0.0000000  0.6508444  3
   1847   1846   1852   1854     1  0.0000000  0.6508444  3
   1848   1846   1852   3810     1  0.0000000  1.0460000  1
   1848   1846   1852   3810     1  0.0000000  0.0000000  3
   1848   1846   1852   1853     1  0.0000000  0.6508444  3
   1848   1846   1852   1854     1  0.0000000  0.6508444  3
   1852   3810   3780   3781     1  0.0000000  1.6038667  3
   1852   3810   3780   3782     1  0.0000000  1.6038667  3
   1853   1852   3810   3780     1  0.0000000  1.6038667  3
   1854   1852   3810   3780     1  0.0000000  1.6038667  3
   1855   3842   3812   3813     1  0.0000000  1.6038667  3
   1855   3842   3812   3814     1  0.0000000  1.6038667  3
   1856   1855   3842   3812     1  0.0000000  1.6038667  3
   1857   1855   3842   3812     1  0.0000000  1.6038667  3
   1860   1861   1873   1874     1  0.0000000  0.6508444  3
   1860   1861   1873   1875     1  0.0000000  0.6508444  3
   1860   1864   1876   1877     1  0.0000000  0.6508444  3
   1860   1864   1876   1878     1  0.0000000  0.6508444  3
   1860   1867   1870   1871     1  0.0000000  0.6508444  3
   1860   1867   1870   1872     1  0.0000000  0.6508444  3
   1861   1860   1864   1865     1  0.0000000  0.6508444  3
   1861   1860   1864   1866     1  0.0000000  0.6508444  3
   1861   1860   1867   1868     1  0.0000000  0.6508444  3
   1861   1860   1867   1869     1  0.0000000  0.6508444  3
   1861   1873   1885   1886     1  0.0000000  0.6508444  3
   1861   1873   1885   1887     1  0.0000000  0.6508444  3
   1862   1861   1860   1864     1  0.0000000  0.6508444  3
   1862   1861   1860   1867     1  0.0000000  0.6508444  3
   1862   1861   1860   1889     1  0.0000000  0.6508444  3
   1862   1861   1873   1885     1  0.0000000  0.6508444  3
   1862   1861   1873   1874     1  0.0000000  0.6508444  3
   1862   1861   1873   1875     1  0.0000000  0.6508444  3
   1863   1861   1860   1864     1  0.0000000  0.6508444  3
   1863   1861   1860   1867     1  0.0000000  0.6508444  3
   1863   1861   1860   1889     1  0.0000000  0.6508444  3
   1863   1861   1873   1885     1  0.0000000  0.6508444  3
   1863   1861   1873   1874     1  0.0000000  0.6508444  3
   1863   1861   1873   1875     1  0.0000000  0.6508444  3
   1864   1860   1867   1868     1  0.0000000  0.6508444  3
   1864   1860   1867   1869     1  0.0000000  0.6508444  3
   1864   1876   1882   1883     1  0.0000000  0.6508444  3
   1864   1876   1882   1884     1  0.0000000  0.6508444  3
   1865   1864   1860   1867     1  0.0000000  0.6508444  3
   1865   1864   1860   1889     1  0.0000000  0.6508444  3
   1865   1864   1876   1882     1  0.0000000  0.6508444  3
   1865   1864   1876   1877     1  0.0000000  0.6508444  3
   1865   1864   1876   1878     1  0.0000000  0.6508444  3
   1866   1864   1860   1867     1  0.0000000  0.6508444  3
   1866   1864   1860   1889     1  0.0000000  0.6508444  3
   1866   1864   1876   1882     1  0.0000000  0.6508444  3
   1866   1864   1876   1877     1  0.0000000  0.6508444  3
   1866   1864   1876   1878     1  0.0000000  0.6508444  3
   1867   1870   1879   1880     1  0.0000000  0.6508444  3
   1867   1870   1879   1881     1  0.0000000  0.6508444  3
   1868   1867   1860   1889     1  0.0000000  0.6508444  3
   1868   1867   1870   1879     1  0.0000000  0.6508444  3
   1868   1867   1870   1871     1  0.0000000  0.6508444  3
   1868   1867   1870   1872     1  0.0000000  0.6508444  3
   1869   1867   1860   1889     1  0.0000000  0.6508444  3
   1869   1867   1870   1879     1  0.0000000  0.6508444  3
   1869   1867   1870   1871     1  0.0000000  0.6508444  3
   1869   1867   1870   1872     1  0.0000000  0.6508444  3
   1870   1867   1860   1889     1  0.0000000  0.6508444  3
   1871   1870   1879   1888     1  0.0000000  1.0460000  1
   1871   1870   1879   1888     1  0.0000000  0.0000000  3
   1871   1870   1879   1880     1  0.0000000  0.6508444  3
   1871   1870   1879   1881     1  0.0000000  0.6508444  3
   1872   1870   1879   1888     1  0.0000000  1.0460000  1
   1872   1870   1879   1888     1  0.0000000  0.0000000  3
   1872   1870   1879   1880     1  0.0000000  0.6508444  3
   1872   1870   1879   1881     1  0.0000000  0.6508444  3
   1873   1861   1860   1889     1  0.0000000  0.6508444  3
   1874   1873   1885   3906     1  0.0000000  1.0460000  1
   1874   1873   1885   3906     1  0.0000000  0.0000000  3
   1874   1873   1885   1886     1  0.0000000  0.6508444  3
   1874   1873   1885   1887     1  0.0000000  0.6508444  3
   1875   1873   1885   3906     1  0.0000000  1.0460000  1
   1875   1873   1885   3906     1  0.0000000  0.0000000  3
   1875   1873   1885   1886     1  0.0000000  0.6508444  3
   1875   1873   1885   1887     1  0.0000000  0.6508444  3
   1876   1864   1860   1889     1  0.0000000  0.6508444  3
   1877   1876   1882   3874     1  0.0000000  1.0460000  1
   1877   1876   1882   3874     1  0.0000000  0.0000000  3
   1877   1876   1882   1883     1  0.0000000  0.6508444  3
   1877   1876   1882   1884     1  0.0000000  0.6508444  3
   1878   1876   1882   3874     1  0.0000000  1.0460000  1
   1878   1876   1882   3874     1  0.0000000  0.0000000  3
   1878   1876   1882   1883     1  0.0000000  0.6508444  3
   1878   1876   1882   1884     1  0.0000000  0.6508444  3
   1882   3874   3844   3845     1  0.0000000  1.6038667  3
   1882   3874   3844   3846     1  0.0000000  1.6038667  3
   1883   1882   3874   3844     1  0.0000000  1.6038667  3
   1884   1882   3874   3844     1  0.0000000  1.6038667  3
   1885   3906   3876   3877     1  0.0000000  1.6038667  3
   1885   3906   3876   3878     1  0.0000000  1.6038667  3
   1886   1885   3906   3876     1  0.0000000  1.6038667  3
   1887   1885   3906   3876     1  0.0000000  1.6038667  3
   1890   1891   1903   1904     1  0.0000000  0.6508444  3
   1890   1891   1903   1905     1  0.0000000  0.6508444  3
   1890   1894   1906   1907     1  0.0000000  0.6508444  3
   1890   1894   1906   1908     1  0.0000000  0.6508444  3
   1890   1897   1900   1901     1  0.0000000  0.6508444  3
   1890   1897   1900   1902     1  0.0000000  0.6508444  3
   1891   1890   1894   1895     1  0.0000000  0.6508444  3
   1891   1890   1894   1896     1  0.0000000  0.6508444  3
   1891   1890   1897   1898     1  0.0000000  0.6508444  3
   1891   1890   1897   1899     1  0.0000000  0.6508444  3
   1891   1903   1915   1916     1  0.0000000  0.6508444  3
   1891   1903   1915   1917     1  0.0000000  0.6508444  3
   1892   1891   1890   1894     1  0.0000000  0.6508444  3
   1892   1891   1890   1897     1  0.0000000  0.6508444  3
   1892   1891   1890   1919     1  0.0000000  0.6508444  3
   1892   1891   1903   1915     1  0.0000000  0.6508444  3
   1892   1891   1903   1904     1  0.0000000  0.6508444  3
   1892   1891   1903   1905     1  0.0000000  0.6508444  3
   1893   1891   1890   1894     1  0.0000000  0.6508444  3
   1893   1891   1890   1897     1  0.0000000  0.6508444  3
   1893   1891   1890   1919     1  0.0000000  0.6508444  3
   1893   1891   1903   1915     1  0.0000000  0.6508444  3
   1893   1891   1903   1904     1  0.0000000  0.6508444  3
   1893   1891   1903   1905     1  0.0000000  0.6508444  3
   1894   1890   1897   1898     1  0.0000000  0.6508444  3
   1894   1890   1897   1899     1  0.0000000  0.6508444  3
   1894   1906   1912   1913     1  0.0000000  0.6508444  3
   1894   1906   1912   1914     1  0.0000000  0.6508444  3
   1895   1894   1890   1897     1  0.0000000  0.6508444  3
   1895   1894   1890   1919     1  0.0000000  0.6508444  3
   1895   1894   1906   1912     1  0.0000000  0.6508444  3
   1895   1894   1906   1907     1  0.0000000  0.6508444  3
   1895   1894   1906   1908     1  0.0000000  0.6508444  3
   1896   1894   1890   1897     1  0.0000000  0.6508444  3
   1896   1894   1890   1919     1  0.0000000  0.6508444  3
   1896   1894   1906   1912     1  0.0000000  0.6508444  3
   1896   1894   1906   1907     1  0.0000000  0.6508444  3
   1896   1894   1906   1908     1  0.0000000  0.6508444  3
   1897   1900   1909   1910     1  0.0000000  0.6508444  3
   1897   1900   1909   1911     1  0.0000000  0.6508444  3
   1898   1897   1890   1919     1  0.0000000  0.6508444  3
   1898   1897   1900   1909     1  0.0000000  0.6508444  3
   1898   1897   1900   1901     1  0.0000000  0.6508444  3
   1898   1897   1900   1902     1  0.0000000  0.6508444  3
   1899   1897   1890   1919     1  0.0000000  0.6508444  3
   1899   1897   1900   1909     1  0.0000000  0.6508444  3
   1899   1897   1900   1901     1  0.0000000  0.6508444  3
   1899   1897   1900   1902     1  0.0000000  0.6508444  3
   1900   1897   1890   1919     1  0.0000000  0.6508444  3
   1901   1900   1909   1918     1  0.0000000  1.0460000  1
   1901   1900   1909   1918     1  0.0000000  0.0000000  3
   1901   1900   1909   1910     1  0.0000000  0.6508444  3
   1901   1900   1909   1911     1  0.0000000  0.6508444  3
   1902   1900   1909   1918     1  0.0000000  1.0460000  1
   1902   1900   1909   1918     1  0.0000000  0.0000000  3
   1902   1900   1909   1910     1  0.0000000  0.6508444  3
   1902   1900   1909   1911     1  0.0000000  0.6508444  3
   1903   1891   1890   1919     1  0.0000000  0.6508444  3
   1904   1903   1915   3970     1  0.0000000  1.0460000  1
   1904   1903   1915   3970     1  0.0000000  0.0000000  3
   1904   1903   1915   1916     1  0.0000000  0.6508444  3
   1904   1903   1915   1917     1  0.0000000  0.6508444  3
   1905   1903   1915   3970     1  0.0000000  1.0460000  1
   1905   1903   1915   3970     1  0.0000000  0.0000000  3
   1905   1903   1915   1916     1  0.0000000  0.6508444  3
   1905   1903   1915   1917     1  0.0000000  0.6508444  3
   1906   1894   1890   1919     1  0.0000000  0.6508444  3
   1907   1906   1912   3938     1  0.0000000  1.0460000  1
   1907   1906   1912   3938     1  0.0000000  0.0000000  3
   1907   1906   1912   1913     1  0.0000000  0.6508444  3
   1907   1906   1912   1914     1  0.0000000  0.6508444  3
   1908   1906   1912   3938     1  0.0000000  1.0460000  1
   1908   1906   1912   3938     1  0.0000000  0.0000000  3
   1908   1906   1912   1913     1  0.0000000  0.6508444  3
   1908   1906   1912   1914     1  0.0000000  0.6508444  3
   1912   3938   3908   3909     1  0.0000000  1.6038667  3
   1912   3938   3908   3910     1  0.0000000  1.6038667  3
   1913   1912   3938   3908     1  0.0000000  1.6038667  3
   1914   1912   3938   3908     1  0.0000000  1.6038667  3
   1915   3970   3940   3941     1  0.0000000  1.6038667  3
   1915   3970   3940   3942     1  0.0000000  1.6038667  3
   1916   1915   3970   3940     1  0.0000000  1.6038667  3
   1917   1915   3970   3940     1  0.0000000  1.6038667  3
   1920   1921   1933   1934     1  0.0000000  0.6508444  3
   1920   1921   1933   1935     1  0.0000000  0.6508444  3
   1920   1924   1936   1937     1  0.0000000  0.6508444  3
   1920   1924   1936   1938     1  0.0000000  0.6508444  3
   1920   1927   1930   1931     1  0.0000000  0.6508444  3
   1920   1927   1930   1932     1  0.0000000  0.6508444  3
   1921   1920   1924   1925     1  0.0000000  0.6508444  3
   1921   1920   1924   1926     1  0.0000000  0.6508444  3
   1921   1920   1927   1928     1  0.0000000  0.6508444  3
   1921   1920   1927   1929     1  0.0000000  0.6508444  3
   1921   1933   1945   1946     1  0.0000000  0.6508444  3
   1921   1933   1945   1947     1  0.0000000  0.6508444  3
   1922   1921   1920   1924     1  0.0000000  0.6508444  3
   1922   1921   1920   1927     1  0.0000000  0.6508444  3
   1922   1921   1920   1949     1  0.0000000  0.6508444  3
   1922   1921   1933   1945     1  0.0000000  0.6508444  3
   1922   1921   1933   1934     1  0.0000000  0.6508444  3
   1922   1921   1933   1935     1  0.0000000  0.6508444  3
   1923   1921   1920   1924     1  0.0000000  0.6508444  3
   1923   1921   1920   1927     1  0.0000000  0.6508444  3
   1923   1921   1920   1949     1  0.0000000  0.6508444  3
   1923   1921   1933   1945     1  0.0000000  0.6508444  3
   1923   1921   1933   1934     1  0.0000000  0.6508444  3
   1923   1921   1933   1935     1  0.0000000  0.6508444  3
   1924   1920   1927   1928     1  0.0000000  0.6508444  3
   1924   1920   1927   1929     1  0.0000000  0.6508444  3
   1924   1936   1942   1943     1  0.0000000  0.6508444  3
   1924   1936   1942   1944     1  0.0000000  0.6508444  3
   1925   1924   1920   1927     1  0.0000000  0.6508444  3
   1925   1924   1920   1949     1  0.0000000  0.6508444  3
   1925   1924   1936   1942     1  0.0000000  0.6508444  3
   1925   1924   1936   1937     1  0.0000000  0.6508444  3
   1925   1924   1936   1938     1  0.0000000  0.6508444  3
   1926   1924   1920   1927     1  0.0000000  0.6508444  3
   1926   1924   1920   1949     1  0.0000000  0.6508444  3
   1926   1924   1936   1942     1  0.0000000  0.6508444  3
   1926   1924   1936   1937     1  0.0000000  0.6508444  3
   1926   1924   1936   1938     1  0.0000000  0.6508444  3
   1927   1930   1939   1940     1  0.0000000  0.6508444  3
   1927   1930   1939   1941     1  0.0000000  0.6508444  3
   1928   1927   1920   1949     1  0.0000000  0.6508444  3
   1928   1927   1930   1939     1  0.0000000  0.6508444  3
   1928   1927   1930   1931     1  0.0000000  0.6508444  3
   1928   1927   1930   1932     1  0.0000000  0.6508444  3
   1929   1927   1920   1949     1  0.0000000  0.6508444  3
   1929   1927   1930   1939     1  0.0000000  0.6508444  3
   1929   1927   1930   1931     1  0.0000000  0.6508444  3
   1929   1927   1930   1932     1  0.0000000  0.6508444  3
   1930   1927   1920   1949     1  0.0000000  0.6508444  3
   1931   1930   1939   1948     1  0.0000000  1.0460000  1
   1931   1930   1939   1948     1  0.0000000  0.0000000  3
   1931   1930   1939   1940     1  0.0000000  0.6508444  3
   1931   1930   1939   1941     1  0.0000000  0.6508444  3
   1932   1930   1939   1948     1  0.0000000  1.0460000  1
   1932   1930   1939   1948     1  0.0000000  0.0000000  3
   1932   1930   1939   1940     1  0.0000000  0.6508444  3
   1932   1930   1939   1941     1  0.0000000  0.6508444  3
   1933   1921   1920   1949     1  0.0000000  0.6508444  3
   1934   1933   1945   4034     1  0.0000000  1.0460000  1
   1934   1933   1945   4034     1  0.0000000  0.0000000  3
   1934   1933   1945   1946     1  0.0000000  0.6508444  3
   1934   1933   1945   1947     1  0.0000000  0.6508444  3
   1935   1933   1945   4034     1  0.0000000  1.0460000  1
   1935   1933   1945   4034     1  0.0000000  0.0000000  3
   1935   1933   1945   1946     1  0.0000000  0.6508444  3
   1935   1933   1945   1947     1  0.0000000  0.6508444  3
   1936   1924   1920   1949     1  0.0000000  0.6508444  3
   1937   1936   1942   4002     1  0.0000000  1.0460000  1
   1937   1936   1942   4002     1  0.0000000  0.0000000  3
   1937   1936   1942   1943     1  0.0000000  0.6508444  3
   1937   1936   1942   1944     1  0.0000000  0.6508444  3
   1938   1936   1942   4002     1  0.0000000  1.0460000  1
   1938   1936   1942   4002     1  0.0000000  0.0000000  3
   1938   1936   1942   1943     1  0.0000000  0.6508444  3
   1938   1936   1942   1944     1  0.0000000  0.6508444  3
   1942   4002   3972   3973     1  0.0000000  1.6038667  3
   1942   4002   3972   3974     1  0.0000000  1.6038667  3
   1943   1942   4002   3972     1  0.0000000  1.6038667  3
   1944   1942   4002   3972     1  0.0000000  1.6038667  3
   1945   4034   4004   4005     1  0.0000000  1.6038667  3
   1945   4034   4004   4006     1  0.0000000  1.6038667  3
   1946   1945   4034   4004     1  0.0000000  1.6038667  3
   1947   1945   4034   4004     1  0.0000000  1.6038667  3
   1950   1951   1963   1964     1  0.0000000  0.6508444  3
   1950   1951   1963   1965     1  0.0000000  0.6508444  3
   1950   1954   1966   1967     1  0.0000000  0.6508444  3
   1950   1954   1966   1968     1  0.0000000  0.6508444  3
   1950   1957   1960   1961     1  0.0000000  0.6508444  3
   1950   1957   1960   1962     1  0.0000000  0.6508444  3
   1951   1950   1954   1955     1  0.0000000  0.6508444  3
   1951   1950   1954   1956     1  0.0000000  0.6508444  3
   1951   1950   1957   1958     1  0.0000000  0.6508444  3
   1951   1950   1957   1959     1  0.0000000  0.6508444  3
   1951   1963   1975   1976     1  0.0000000  0.6508444  3
   1951   1963   1975   1977     1  0.0000000  0.6508444  3
   1952   1951   1950   1954     1  0.0000000  0.6508444  3
   1952   1951   1950   1957     1  0.0000000  0.6508444  3
   1952   1951   1950   1979     1  0.0000000  0.6508444  3
   1952   1951   1963   1975     1  0.0000000  0.6508444  3
   1952   1951   1963   1964     1  0.0000000  0.6508444  3
   1952   1951   1963   1965     1  0.0000000  0.6508444  3
   1953   1951   1950   1954     1  0.0000000  0.6508444  3
   1953   1951   1950   1957     1  0.0000000  0.6508444  3
   1953   1951   1950   1979     1  0.0000000  0.6508444  3
   1953   1951   1963   1975     1  0.0000000  0.6508444  3
   1953   1951   1963   1964     1  0.0000000  0.6508444  3
   1953   1951   1963   1965     1  0.0000000  0.6508444  3
   1954   1950   1957   1958     1  0.0000000  0.6508444  3
   1954   1950   1957   1959     1  0.0000000  0.6508444  3
   1954   1966   1972   1973     1  0.0000000  0.6508444  3
   1954   1966   1972   1974     1  0.0000000  0.6508444  3
   1955   1954   1950   1957     1  0.0000000  0.6508444  3
   1955   1954   1950   1979     1  0.0000000  0.6508444  3
   1955   1954   1966   1972     1  0.0000000  0.6508444  3
   1955   1954   1966   1967     1  0.0000000  0.6508444  3
   1955   1954   1966   1968     1  0.0000000  0.6508444  3
   1956   1954   1950   1957     1  0.0000000  0.6508444  3
   1956   1954   1950   1979     1  0.0000000  0.6508444  3
   1956   1954   1966   1972     1  0.0000000  0.6508444  3
   1956   1954   1966   1967     1  0.0000000  0.6508444  3
   1956   1954   1966   1968     1  0.0000000  0.6508444  3
   1957   1960   1969   1970     1  0.0000000  0.6508444  3
   1957   1960   1969   1971     1  0.0000000  0.6508444  3
   1958   1957   1950   1979     1  0.0000000  0.6508444  3
   1958   1957   1960   1969     1  0.0000000  0.6508444  3
   1958   1957   1960   1961     1  0.0000000  0.6508444  3
   1958   1957   1960   1962     1  0.0000000  0.6508444  3
   1959   1957   1950   1979     1  0.0000000  0.6508444  3
   1959   1957   1960   1969     1  0.0000000  0.6508444  3
   1959   1957   1960   1961     1  0.0000000  0.6508444  3
   1959   1957   1960   1962     1  0.0000000  0.6508444  3
   1960   1957   1950   1979     1  0.0000000  0.6508444  3
   1961   1960   1969   1978     1  0.0000000  1.0460000  1
   1961   1960   1969   1978     1  0.0000000  0.0000000  3
   1961   1960   1969   1970     1  0.0000000  0.6508444  3
   1961   1960   1969   1971     1  0.0000000  0.6508444  3
   1962   1960   1969   1978     1  0.0000000  1.0460000  1
   1962   1960   1969   1978     1  0.0000000  0.0000000  3
   1962   1960   1969   1970     1  0.0000000  0.6508444  3
   1962   1960   1969   1971     1  0.0000000  0.6508444  3
   1963   1951   1950   1979     1  0.0000000  0.6508444  3
   1964   1963   1975   4098     1  0.0000000  1.0460000  1
   1964   1963   1975   4098     1  0.0000000  0.0000000  3
   1964   1963   1975   1976     1  0.0000000  0.6508444  3
   1964   1963   1975   1977     1  0.0000000  0.6508444  3
   1965   1963   1975   4098     1  0.0000000  1.0460000  1
   1965   1963   1975   4098     1  0.0000000  0.0000000  3
   1965   1963   1975   1976     1  0.0000000  0.6508444  3
   1965   1963   1975   1977     1  0.0000000  0.6508444  3
   1966   1954   1950   1979     1  0.0000000  0.6508444  3
   1967   1966   1972   4066     1  0.0000000  1.0460000  1
   1967   1966   1972   4066     1  0.0000000  0.0000000  3
   1967   1966   1972   1973     1  0.0000000  0.6508444  3
   1967   1966   1972   1974     1  0.0000000  0.6508444  3
   1968   1966   1972   4066     1  0.0000000  1.0460000  1
   1968   1966   1972   4066     1  0.0000000  0.0000000  3
   1968   1966   1972   1973     1  0.0000000  0.6508444  3
   1968   1966   1972   1974     1  0.0000000  0.6508444  3
   1972   4066   4036   4037     1  0.0000000  1.6038667  3
   1972   4066   4036   4038     1  0.0000000  1.6038667  3
   1973   1972   4066   4036     1  0.0000000  1.6038667  3
   1974   1972   4066   4036     1  0.0000000  1.6038667  3
   1975   4098   4068   4069     1  0.0000000  1.6038667  3
   1975   4098   4068   4070     1  0.0000000  1.6038667  3
   1976   1975   4098   4068     1  0.0000000  1.6038667  3
   1977   1975   4098   4068     1  0.0000000  1.6038667  3
   1980   1981   1993   1994     1  0.0000000  0.6508444  3
   1980   1981   1993   1995     1  0.0000000  0.6508444  3
   1980   1984   1996   1997     1  0.0000000  0.6508444  3
   1980   1984   1996   1998     1  0.0000000  0.6508444  3
   1980   1987   1990   1991     1  0.0000000  0.6508444  3
   1980   1987   1990   1992     1  0.0000000  0.6508444  3
   1981   1980   1984   1985     1  0.0000000  0.6508444  3
   1981   1980   1984   1986     1  0.0000000  0.6508444  3
   1981   1980   1987   1988     1  0.0000000  0.6508444  3
   1981   1980   1987   1989     1  0.0000000  0.6508444  3
   1981   1993   2005   2006     1  0.0000000  0.6508444  3
   1981   1993   2005   2007     1  0.0000000  0.6508444  3
   1982   1981   1980   1984     1  0.0000000  0.6508444  3
   1982   1981   1980   1987     1  0.0000000  0.6508444  3
   1982   1981   1980   2009     1  0.0000000  0.6508444  3
   1982   1981   1993   2005     1  0.0000000  0.6508444  3
   1982   1981   1993   1994     1  0.0000000  0.6508444  3
   1982   1981   1993   1995     1  0.0000000  0.6508444  3
   1983   1981   1980   1984     1  0.0000000  0.6508444  3
   1983   1981   1980   1987     1  0.0000000  0.6508444  3
   1983   1981   1980   2009     1  0.0000000  0.6508444  3
   1983   1981   1993   2005     1  0.0000000  0.6508444  3
   1983   1981   1993   1994     1  0.0000000  0.6508444  3
   1983   1981   1993   1995     1  0.0000000  0.6508444  3
   1984   1980   1987   1988     1  0.0000000  0.6508444  3
   1984   1980   1987   1989     1  0.0000000  0.6508444  3
   1984   1996   2002   2003     1  0.0000000  0.6508444  3
   1984   1996   2002   2004     1  0.0000000  0.6508444  3
   1985   1984   1980   1987     1  0.0000000  0.6508444  3
   1985   1984   1980   2009     1  0.0000000  0.6508444  3
   1985   1984   1996   2002     1  0.0000000  0.6508444  3
   1985   1984   1996   1997     1  0.0000000  0.6508444  3
   1985   1984   1996   1998     1  0.0000000  0.6508444  3
   1986   1984   1980   1987     1  0.0000000  0.6508444  3
   1986   1984   1980   2009     1  0.0000000  0.6508444  3
   1986   1984   1996   2002     1  0.0000000  0.6508444  3
   1986   1984   1996   1997     1  0.0000000  0.6508444  3
   1986   1984   1996   1998     1  0.0000000  0.6508444  3
   1987   1990   1999   2000     1  0.0000000  0.6508444  3
   1987   1990   1999   2001     1  0.0000000  0.6508444  3
   1988   1987   1980   2009     1  0.0000000  0.6508444  3
   1988   1987   1990   1999     1  0.0000000  0.6508444  3
   1988   1987   1990   1991     1  0.0000000  0.6508444  3
   1988   1987   1990   1992     1  0.0000000  0.6508444  3
   1989   1987   1980   2009     1  0.0000000  0.6508444  3
   1989   1987   1990   1999     1  0.0000000  0.6508444  3
   1989   1987   1990   1991     1  0.0000000  0.6508444  3
   1989   1987   1990   1992     1  0.0000000  0.6508444  3
   1990   1987   1980   2009     1  0.0000000  0.6508444  3
   1991   1990   1999   2008     1  0.0000000  1.0460000  1
   1991   1990   1999   2008     1  0.0000000  0.0000000  3
   1991   1990   1999   2000     1  0.0000000  0.6508444  3
   1991   1990   1999   2001     1  0.0000000  0.6508444  3
   1992   1990   1999   2008     1  0.0000000  1.0460000  1
   1992   1990   1999   2008     1  0.0000000  0.0000000  3
   1992   1990   1999   2000     1  0.0000000  0.6508444  3
   1992   1990   1999   2001     1  0.0000000  0.6508444  3
   1993   1981   1980   2009     1  0.0000000  0.6508444  3
   1994   1993   2005   4162     1  0.0000000  1.0460000  1
   1994   1993   2005   4162     1  0.0000000  0.0000000  3
   1994   1993   2005   2006     1  0.0000000  0.6508444  3
   1994   1993   2005   2007     1  0.0000000  0.6508444  3
   1995   1993   2005   4162     1  0.0000000  1.0460000  1
   1995   1993   2005   4162     1  0.0000000  0.0000000  3
   1995   1993   2005   2006     1  0.0000000  0.6508444  3
   1995   1993   2005   2007     1  0.0000000  0.6508444  3
   1996   1984   1980   2009     1  0.0000000  0.6508444  3
   1997   1996   2002   4130     1  0.0000000  1.0460000  1
   1997   1996   2002   4130     1  0.0000000  0.0000000  3
   1997   1996   2002   2003     1  0.0000000  0.6508444  3
   1997   1996   2002   2004     1  0.0000000  0.6508444  3
   1998   1996   2002   4130     1  0.0000000  1.0460000  1
   1998   1996   2002   4130     1  0.0000000  0.0000000  3
   1998   1996   2002   2003     1  0.0000000  0.6508444  3
   1998   1996   2002   2004     1  0.0000000  0.6508444  3
   2002   4130   4100   4101     1  0.0000000  1.6038667  3
   2002   4130   4100   4102     1  0.0000000  1.6038667  3
   2003   2002   4130   4100     1  0.0000000  1.6038667  3
   2004   2002   4130   4100     1  0.0000000  1.6038667  3
   2005   4162   4132   4133     1  0.0000000  1.6038667  3
   2005   4162   4132   4134     1  0.0000000  1.6038667  3
   2006   2005   4162   4132     1  0.0000000  1.6038667  3
   2007   2005   4162   4132     1  0.0000000  1.6038667  3
   2010   2011   2023   2024     1  0.0000000  0.6508444  3
   2010   2011   2023   2025     1  0.0000000  0.6508444  3
   2010   2014   2026   2027     1  0.0000000  0.6508444  3
   2010   2014   2026   2028     1  0.0000000  0.6508444  3
   2010   2017   2020   2021     1  0.0000000  0.6508444  3
   2010   2017   2020   2022     1  0.0000000  0.6508444  3
   2011   2010   2014   2015     1  0.0000000  0.6508444  3
   2011   2010   2014   2016     1  0.0000000  0.6508444  3
   2011   2010   2017   2018     1  0.0000000  0.6508444  3
   2011   2010   2017   2019     1  0.0000000  0.6508444  3
   2011   2023   2035   2036     1  0.0000000  0.6508444  3
   2011   2023   2035   2037     1  0.0000000  0.6508444  3
   2012   2011   2010   2014     1  0.0000000  0.6508444  3
   2012   2011   2010   2017     1  0.0000000  0.6508444  3
   2012   2011   2010   2039     1  0.0000000  0.6508444  3
   2012   2011   2023   2035     1  0.0000000  0.6508444  3
   2012   2011   2023   2024     1  0.0000000  0.6508444  3
   2012   2011   2023   2025     1  0.0000000  0.6508444  3
   2013   2011   2010   2014     1  0.0000000  0.6508444  3
   2013   2011   2010   2017     1  0.0000000  0.6508444  3
   2013   2011   2010   2039     1  0.0000000  0.6508444  3
   2013   2011   2023   2035     1  0.0000000  0.6508444  3
   2013   2011   2023   2024     1  0.0000000  0.6508444  3
   2013   2011   2023   2025     1  0.0000000  0.6508444  3
   2014   2010   2017   2018     1  0.0000000  0.6508444  3
   2014   2010   2017   2019     1  0.0000000  0.6508444  3
   2014   2026   2032   2033     1  0.0000000  0.6508444  3
   2014   2026   2032   2034     1  0.0000000  0.6508444  3
   2015   2014   2010   2017     1  0.0000000  0.6508444  3
   2015   2014   2010   2039     1  0.0000000  0.6508444  3
   2015   2014   2026   2032     1  0.0000000  0.6508444  3
   2015   2014   2026   2027     1  0.0000000  0.6508444  3
   2015   2014   2026   2028     1  0.0000000  0.6508444  3
   2016   2014   2010   2017     1  0.0000000  0.6508444  3
   2016   2014   2010   2039     1  0.0000000  0.6508444  3
   2016   2014   2026   2032     1  0.0000000  0.6508444  3
   2016   2014   2026   2027     1  0.0000000  0.6508444  3
   2016   2014   2026   2028     1  0.0000000  0.6508444  3
   2017   2020   2029   2030     1  0.0000000  0.6508444  3
   2017   2020   2029   2031     1  0.0000000  0.6508444  3
   2018   2017   2010   2039     1  0.0000000  0.6508444  3
   2018   2017   2020   2029     1  0.0000000  0.6508444  3
   2018   2017   2020   2021     1  0.0000000  0.6508444  3
   2018   2017   2020   2022     1  0.0000000  0.6508444  3
   2019   2017   2010   2039     1  0.0000000  0.6508444  3
   2019   2017   2020   2029     1  0.0000000  0.6508444  3
   2019   2017   2020   2021     1  0.0000000  0.6508444  3
   2019   2017   2020   2022     1  0.0000000  0.6508444  3
   2020   2017   2010   2039     1  0.0000000  0.6508444  3
   2021   2020   2029   2038     1  0.0000000  1.0460000  1
   2021   2020   2029   2038     1  0.0000000  0.0000000  3
   2021   2020   2029   2030     1  0.0000000  0.6508444  3
   2021   2020   2029   2031     1  0.0000000  0.6508444  3
   2022   2020   2029   2038     1  0.0000000  1.0460000  1
   2022   2020   2029   2038     1  0.0000000  0.0000000  3
   2022   2020   2029   2030     1  0.0000000  0.6508444  3
   2022   2020   2029   2031     1  0.0000000  0.6508444  3
   2023   2011   2010   2039     1  0.0000000  0.6508444  3
   2024   2023   2035   4226     1  0.0000000  1.0460000  1
   2024   2023   2035   4226     1  0.0000000  0.0000000  3
   2024   2023   2035   2036     1  0.0000000  0.6508444  3
   2024   2023   2035   2037     1  0.0000000  0.6508444  3
   2025   2023   2035   4226     1  0.0000000  1.0460000  1
   2025   2023   2035   4226     1  0.0000000  0.0000000  3
   2025   2023   2035   2036     1  0.0000000  0.6508444  3
   2025   2023   2035   2037     1  0.0000000  0.6508444  3
   2026   2014   2010   2039     1  0.0000000  0.6508444  3
   2027   2026   2032   4194     1  0.0000000  1.0460000  1
   2027   2026   2032   4194     1  0.0000000  0.0000000  3
   2027   2026   2032   2033     1  0.0000000  0.6508444  3
   2027   2026   2032   2034     1  0.0000000  0.6508444  3
   2028   2026   2032   4194     1  0.0000000  1.0460000  1
   2028   2026   2032   4194     1  0.0000000  0.0000000  3
   2028   2026   2032   2033     1  0.0000000  0.6508444  3
   2028   2026   2032   2034     1  0.0000000  0.6508444  3
   2032   4194   4164   4165     1  0.0000000  1.6038667  3
   2032   4194   4164   4166     1  0.0000000  1.6038667  3
   2033   2032   4194   4164     1  0.0000000  1.6038667  3
   2034   2032   4194   4164     1  0.0000000  1.6038667  3
   2035   4226   4196   4197     1  0.0000000  1.6038667  3
   2035   4226   4196   4198     1  0.0000000  1.6038667  3
   2036   2035   4226   4196     1  0.0000000  1.6038667  3
   2037   2035   4226   4196     1  0.0000000  1.6038667  3
   2040   2041   2053   2054     1  0.0000000  0.6508444  3
   2040   2041   2053   2055     1  0.0000000  0.6508444  3
   2040   2044   2056   2057     1  0.0000000  0.6508444  3
   2040   2044   2056   2058     1  0.0000000  0.6508444  3
   2040   2047   2050   2051     1  0.0000000  0.6508444  3
   2040   2047   2050   2052     1  0.0000000  0.6508444  3
   2041   2040   2044   2045     1  0.0000000  0.6508444  3
   2041   2040   2044   2046     1  0.0000000  0.6508444  3
   2041   2040   2047   2048     1  0.0000000  0.6508444  3
   2041   2040   2047   2049     1  0.0000000  0.6508444  3
   2041   2053   2065   2066     1  0.0000000  0.6508444  3
   2041   2053   2065   2067     1  0.0000000  0.6508444  3
   2042   2041   2040   2044     1  0.0000000  0.6508444  3
   2042   2041   2040   2047     1  0.0000000  0.6508444  3
   2042   2041   2040   2069     1  0.0000000  0.6508444  3
   2042   2041   2053   2065     1  0.0000000  0.6508444  3
   2042   2041   2053   2054     1  0.0000000  0.6508444  3
   2042   2041   2053   2055     1  0.0000000  0.6508444  3
   2043   2041   2040   2044     1  0.0000000  0.6508444  3
   2043   2041   2040   2047     1  0.0000000  0.6508444  3
   2043   2041   2040   2069     1  0.0000000  0.6508444  3
   2043   2041   2053   2065     1  0.0000000  0.6508444  3
   2043   2041   2053   2054     1  0.0000000  0.6508444  3
   2043   2041   2053   2055     1  0.0000000  0.6508444  3
   2044   2040   2047   2048     1  0.0000000  0.6508444  3
   2044   2040   2047   2049     1  0.0000000  0.6508444  3
   2044   2056   2062   2063     1  0.0000000  0.6508444  3
   2044   2056   2062   2064     1  0.0000000  0.6508444  3
   2045   2044   2040   2047     1  0.0000000  0.6508444  3
   2045   2044   2040   2069     1  0.0000000  0.6508444  3
   2045   2044   2056   2062     1  0.0000000  0.6508444  3
   2045   2044   2056   2057     1  0.0000000  0.6508444  3
   2045   2044   2056   2058     1  0.0000000  0.6508444  3
   2046   2044   2040   2047     1  0.0000000  0.6508444  3
   2046   2044   2040   2069     1  0.0000000  0.6508444  3
   2046   2044   2056   2062     1  0.0000000  0.6508444  3
   2046   2044   2056   2057     1  0.0000000  0.6508444  3
   2046   2044   2056   2058     1  0.0000000  0.6508444  3
   2047   2050   2059   2060     1  0.0000000  0.6508444  3
   2047   2050   2059   2061     1  0.0000000  0.6508444  3
   2048   2047   2040   2069     1  0.0000000  0.6508444  3
   2048   2047   2050   2059     1  0.0000000  0.6508444  3
   2048   2047   2050   2051     1  0.0000000  0.6508444  3
   2048   2047   2050   2052     1  0.0000000  0.6508444  3
   2049   2047   2040   2069     1  0.0000000  0.6508444  3
   2049   2047   2050   2059     1  0.0000000  0.6508444  3
   2049   2047   2050   2051     1  0.0000000  0.6508444  3
   2049   2047   2050   2052     1  0.0000000  0.6508444  3
   2050   2047   2040   2069     1  0.0000000  0.6508444  3
   2051   2050   2059   2068     1  0.0000000  1.0460000  1
   2051   2050   2059   2068     1  0.0000000  0.0000000  3
   2051   2050   2059   2060     1  0.0000000  0.6508444  3
   2051   2050   2059   2061     1  0.0000000  0.6508444  3
   2052   2050   2059   2068     1  0.0000000  1.0460000  1
   2052   2050   2059   2068     1  0.0000000  0.0000000  3
   2052   2050   2059   2060     1  0.0000000  0.6508444  3
   2052   2050   2059   2061     1  0.0000000  0.6508444  3
   2053   2041   2040   2069     1  0.0000000  0.6508444  3
   2054   2053   2065   4290     1  0.0000000  1.0460000  1
   2054   2053   2065   4290     1  0.0000000  0.0000000  3
   2054   2053   2065   2066     1  0.0000000  0.6508444  3
   2054   2053   2065   2067     1  0.0000000  0.6508444  3
   2055   2053   2065   4290     1  0.0000000  1.0460000  1
   2055   2053   2065   4290     1  0.0000000  0.0000000  3
   2055   2053   2065   2066     1  0.0000000  0.6508444  3
   2055   2053   2065   2067     1  0.0000000  0.6508444  3
   2056   2044   2040   2069     1  0.0000000  0.6508444  3
   2057   2056   2062   4258     1  0.0000000  1.0460000  1
   2057   2056   2062   4258     1  0.0000000  0.0000000  3
   2057   2056   2062   2063     1  0.0000000  0.6508444  3
   2057   2056   2062   2064     1  0.0000000  0.6508444  3
   2058   2056   2062   4258     1  0.0000000  1.0460000  1
   2058   2056   2062   4258     1  0.0000000  0.0000000  3
   2058   2056   2062   2063     1  0.0000000  0.6508444  3
   2058   2056   2062   2064     1  0.0000000  0.6508444  3
   2062   4258   4228   4229     1  0.0000000  1.6038667  3
   2062   4258   4228   4230     1  0.0000000  1.6038667  3
   2063   2062   4258   4228     1  0.0000000  1.6038667  3
   2064   2062   4258   4228     1  0.0000000  1.6038667  3
   2065   4290   4260   4261     1  0.0000000  1.6038667  3
   2065   4290   4260   4262     1  0.0000000  1.6038667  3
   2066   2065   4290   4260     1  0.0000000  1.6038667  3
   2067   2065   4290   4260     1  0.0000000  1.6038667  3
   2070   2071   2083   2084     1  0.0000000  0.6508444  3
   2070   2071   2083   2085     1  0.0000000  0.6508444  3
   2070   2074   2086   2087     1  0.0000000  0.6508444  3
   2070   2074   2086   2088     1  0.0000000  0.6508444  3
   2070   2077   2080   2081     1  0.0000000  0.6508444  3
   2070   2077   2080   2082     1  0.0000000  0.6508444  3
   2071   2070   2074   2075     1  0.0000000  0.6508444  3
   2071   2070   2074   2076     1  0.0000000  0.6508444  3
   2071   2070   2077   2078     1  0.0000000  0.6508444  3
   2071   2070   2077   2079     1  0.0000000  0.6508444  3
   2071   2083   2095   2096     1  0.0000000  0.6508444  3
   2071   2083   2095   2097     1  0.0000000  0.6508444  3
   2072   2071   2070   2074     1  0.0000000  0.6508444  3
   2072   2071   2070   2077     1  0.0000000  0.6508444  3
   2072   2071   2070   2099     1  0.0000000  0.6508444  3
   2072   2071   2083   2095     1  0.0000000  0.6508444  3
   2072   2071   2083   2084     1  0.0000000  0.6508444  3
   2072   2071   2083   2085     1  0.0000000  0.6508444  3
   2073   2071   2070   2074     1  0.0000000  0.6508444  3
   2073   2071   2070   2077     1  0.0000000  0.6508444  3
   2073   2071   2070   2099     1  0.0000000  0.6508444  3
   2073   2071   2083   2095     1  0.0000000  0.6508444  3
   2073   2071   2083   2084     1  0.0000000  0.6508444  3
   2073   2071   2083   2085     1  0.0000000  0.6508444  3
   2074   2070   2077   2078     1  0.0000000  0.6508444  3
   2074   2070   2077   2079     1  0.0000000  0.6508444  3
   2074   2086   2092   2093     1  0.0000000  0.6508444  3
   2074   2086   2092   2094     1  0.0000000  0.6508444  3
   2075   2074   2070   2077     1  0.0000000  0.6508444  3
   2075   2074   2070   2099     1  0.0000000  0.6508444  3
   2075   2074   2086   2092     1  0.0000000  0.6508444  3
   2075   2074   2086   2087     1  0.0000000  0.6508444  3
   2075   2074   2086   2088     1  0.0000000  0.6508444  3
   2076   2074   2070   2077     1  0.0000000  0.6508444  3
   2076   2074   2070   2099     1  0.0000000  0.6508444  3
   2076   2074   2086   2092     1  0.0000000  0.6508444  3
   2076   2074   2086   2087     1  0.0000000  0.6508444  3
   2076   2074   2086   2088     1  0.0000000  0.6508444  3
   2077   2080   2089   2090     1  0.0000000  0.6508444  3
   2077   2080   2089   2091     1  0.0000000  0.6508444  3
   2078   2077   2070   2099     1  0.0000000  0.6508444  3
   2078   2077   2080   2089     1  0.0000000  0.6508444  3
   2078   2077   2080   2081     1  0.0000000  0.6508444  3
   2078   2077   2080   2082     1  0.0000000  0.6508444  3
   2079   2077   2070   2099     1  0.0000000  0.6508444  3
   2079   2077   2080   2089     1  0.0000000  0.6508444  3
   2079   2077   2080   2081     1  0.0000000  0.6508444  3
   2079   2077   2080   2082     1  0.0000000  0.6508444  3
   2080   2077   2070   2099     1  0.0000000  0.6508444  3
   2081   2080   2089   2098     1  0.0000000  1.0460000  1
   2081   2080   2089   2098     1  0.0000000  0.0000000  3
   2081   2080   2089   2090     1  0.0000000  0.6508444  3
   2081   2080   2089   2091     1  0.0000000  0.6508444  3
   2082   2080   2089   2098     1  0.0000000  1.0460000  1
   2082   2080   2089   2098     1  0.0000000  0.0000000  3
   2082   2080   2089   2090     1  0.0000000  0.6508444  3
   2082   2080   2089   2091     1  0.0000000  0.6508444  3
   2083   2071   2070   2099     1  0.0000000  0.6508444  3
   2084   2083   2095   4354     1  0.0000000  1.0460000  1
   2084   2083   2095   4354     1  0.0000000  0.0000000  3
   2084   2083   2095   2096     1  0.0000000  0.6508444  3
   2084   2083   2095   2097     1  0.0000000  0.6508444  3
   2085   2083   2095   4354     1  0.0000000  1.0460000  1
   2085   2083   2095   4354     1  0.0000000  0.0000000  3
   2085   2083   2095   2096     1  0.0000000  0.6508444  3
   2085   2083   2095   2097     1  0.0000000  0.6508444  3
   2086   2074   2070   2099     1  0.0000000  0.6508444  3
   2087   2086   2092   4322     1  0.0000000  1.0460000  1
   2087   2086   2092   4322     1  0.0000000  0.0000000  3
   2087   2086   2092   2093     1  0.0000000  0.6508444  3
   2087   2086   2092   2094     1  0.0000000  0.6508444  3
   2088   2086   2092   4322     1  0.0000000  1.0460000  1
   2088   2086   2092   4322     1  0.0000000  0.0000000  3
   2088   2086   2092   2093     1  0.0000000  0.6508444  3
   2088   2086   2092   2094     1  0.0000000  0.6508444  3
   2092   4322   4292   4293     1  0.0000000  1.6038667  3
   2092   4322   4292   4294     1  0.0000000  1.6038667  3
   2093   2092   4322   4292     1  0.0000000  1.6038667  3
   2094   2092   4322   4292     1  0.0000000  1.6038667  3
   2095   4354   4324   4325     1  0.0000000  1.6038667  3
   2095   4354   4324   4326     1  0.0000000  1.6038667  3
   2096   2095   4354   4324     1  0.0000000  1.6038667  3
   2097   2095   4354   4324     1  0.0000000  1.6038667  3
   2100   2101   2113   2114     1  0.0000000  0.6508444  3
   2100   2101   2113   2115     1  0.0000000  0.6508444  3
   2100   2104   2116   2117     1  0.0000000  0.6508444  3
   2100   2104   2116   2118     1  0.0000000  0.6508444  3
   2100   2107   2110   2111     1  0.0000000  0.6508444  3
   2100   2107   2110   2112     1  0.0000000  0.6508444  3
   2101   2100   2104   2105     1  0.0000000  0.6508444  3
   2101   2100   2104   2106     1  0.0000000  0.6508444  3
   2101   2100   2107   2108     1  0.0000000  0.6508444  3
   2101   2100   2107   2109     1  0.0000000  0.6508444  3
   2101   2113   2125   2126     1  0.0000000  0.6508444  3
   2101   2113   2125   2127     1  0.0000000  0.6508444  3
   2102   2101   2100   2104     1  0.0000000  0.6508444  3
   2102   2101   2100   2107     1  0.0000000  0.6508444  3
   2102   2101   2100   2129     1  0.0000000  0.6508444  3
   2102   2101   2113   2125     1  0.0000000  0.6508444  3
   2102   2101   2113   2114     1  0.0000000  0.6508444  3
   2102   2101   2113   2115     1  0.0000000  0.6508444  3
   2103   2101   2100   2104     1  0.0000000  0.6508444  3
   2103   2101   2100   2107     1  0.0000000  0.6508444  3
   2103   2101   2100   2129     1  0.0000000  0.6508444  3
   2103   2101   2113   2125     1  0.0000000  0.6508444  3
   2103   2101   2113   2114     1  0.0000000  0.6508444  3
   2103   2101   2113   2115     1  0.0000000  0.6508444  3
   2104   2100   2107   2108     1  0.0000000  0.6508444  3
   2104   2100   2107   2109     1  0.0000000  0.6508444  3
   2104   2116   2122   2123     1  0.0000000  0.6508444  3
   2104   2116   2122   2124     1  0.0000000  0.6508444  3
   2105   2104   2100   2107     1  0.0000000  0.6508444  3
   2105   2104   2100   2129     1  0.0000000  0.6508444  3
   2105   2104   2116   2122     1  0.0000000  0.6508444  3
   2105   2104   2116   2117     1  0.0000000  0.6508444  3
   2105   2104   2116   2118     1  0.0000000  0.6508444  3
   2106   2104   2100   2107     1  0.0000000  0.6508444  3
   2106   2104   2100   2129     1  0.0000000  0.6508444  3
   2106   2104   2116   2122     1  0.0000000  0.6508444  3
   2106   2104   2116   2117     1  0.0000000  0.6508444  3
   2106   2104   2116   2118     1  0.0000000  0.6508444  3
   2107   2110   2119   2120     1  0.0000000  0.6508444  3
   2107   2110   2119   2121     1  0.0000000  0.6508444  3
   2108   2107   2100   2129     1  0.0000000  0.6508444  3
   2108   2107   2110   2119     1  0.0000000  0.6508444  3
   2108   2107   2110   2111     1  0.0000000  0.6508444  3
   2108   2107   2110   2112     1  0.0000000  0.6508444  3
   2109   2107   2100   2129     1  0.0000000  0.6508444  3
   2109   2107   2110   2119     1  0.0000000  0.6508444  3
   2109   2107   2110   2111     1  0.0000000  0.6508444  3
   2109   2107   2110   2112     1  0.0000000  0.6508444  3
   2110   2107   2100   2129     1  0.0000000  0.6508444  3
   2111   2110   2119   2128     1  0.0000000  1.0460000  1
   2111   2110   2119   2128     1  0.0000000  0.0000000  3
   2111   2110   2119   2120     1  0.0000000  0.6508444  3
   2111   2110   2119   2121     1  0.0000000  0.6508444  3
   2112   2110   2119   2128     1  0.0000000  1.0460000  1
   2112   2110   2119   2128     1  0.0000000  0.0000000  3
   2112   2110   2119   2120     1  0.0000000  0.6508444  3
   2112   2110   2119   2121     1  0.0000000  0.6508444  3
   2113   2101   2100   2129     1  0.0000000  0.6508444  3
   2114   2113   2125   4418     1  0.0000000  1.0460000  1
   2114   2113   2125   4418     1  0.0000000  0.0000000  3
   2114   2113   2125   2126     1  0.0000000  0.6508444  3
   2114   2113   2125   2127     1  0.0000000  0.6508444  3
   2115   2113   2125   4418     1  0.0000000  1.0460000  1
   2115   2113   2125   4418     1  0.0000000  0.0000000  3
   2115   2113   2125   2126     1  0.0000000  0.6508444  3
   2115   2113   2125   2127     1  0.0000000  0.6508444  3
   2116   2104   2100   2129     1  0.0000000  0.6508444  3
   2117   2116   2122   4386     1  0.0000000  1.0460000  1
   2117   2116   2122   4386     1  0.0000000  0.0000000  3
   2117   2116   2122   2123     1  0.0000000  0.6508444  3
   2117   2116   2122   2124     1  0.0000000  0.6508444  3
   2118   2116   2122   4386     1  0.0000000  1.0460000  1
   2118   2116   2122   4386     1  0.0000000  0.0000000  3
   2118   2116   2122   2123     1  0.0000000  0.6508444  3
   2118   2116   2122   2124     1  0.0000000  0.6508444  3
   2122   4386   4356   4357     1  0.0000000  1.6038667  3
   2122   4386   4356   4358     1  0.0000000  1.6038667  3
   2123   2122   4386   4356     1  0.0000000  1.6038667  3
   2124   2122   4386   4356     1  0.0000000  1.6038667  3
   2125   4418   4388   4389     1  0.0000000  1.6038667  3
   2125   4418   4388   4390     1  0.0000000  1.6038667  3
   2126   2125   4418   4388     1  0.0000000  1.6038667  3
   2127   2125   4418   4388     1  0.0000000  1.6038667  3
   2130   2131   2143   2144     1  0.0000000  0.6508444  3
   2130   2131   2143   2145     1  0.0000000  0.6508444  3
   2130   2134   2146   2147     1  0.0000000  0.6508444  3
   2130   2134   2146   2148     1  0.0000000  0.6508444  3
   2130   2137   2140   2141     1  0.0000000  0.6508444  3
   2130   2137   2140   2142     1  0.0000000  0.6508444  3
   2131   2130   2134   2135     1  0.0000000  0.6508444  3
   2131   2130   2134   2136     1  0.0000000  0.6508444  3
   2131   2130   2137   2138     1  0.0000000  0.6508444  3
   2131   2130   2137   2139     1  0.0000000  0.6508444  3
   2131   2143   2155   2156     1  0.0000000  0.6508444  3
   2131   2143   2155   2157     1  0.0000000  0.6508444  3
   2132   2131   2130   2134     1  0.0000000  0.6508444  3
   2132   2131   2130   2137     1  0.0000000  0.6508444  3
   2132   2131   2130   2159     1  0.0000000  0.6508444  3
   2132   2131   2143   2155     1  0.0000000  0.6508444  3
   2132   2131   2143   2144     1  0.0000000  0.6508444  3
   2132   2131   2143   2145     1  0.0000000  0.6508444  3
   2133   2131   2130   2134     1  0.0000000  0.6508444  3
   2133   2131   2130   2137     1  0.0000000  0.6508444  3
   2133   2131   2130   2159     1  0.0000000  0.6508444  3
   2133   2131   2143   2155     1  0.0000000  0.6508444  3
   2133   2131   2143   2144     1  0.0000000  0.6508444  3
   2133   2131   2143   2145     1  0.0000000  0.6508444  3
   2134   2130   2137   2138     1  0.0000000  0.6508444  3
   2134   2130   2137   2139     1  0.0000000  0.6508444  3
   2134   2146   2152   2153     1  0.0000000  0.6508444  3
   2134   2146   2152   2154     1  0.0000000  0.6508444  3
   2135   2134   2130   2137     1  0.0000000  0.6508444  3
   2135   2134   2130   2159     1  0.0000000  0.6508444  3
   2135   2134   2146   2152     1  0.0000000  0.6508444  3
   2135   2134   2146   2147     1  0.0000000  0.6508444  3
   2135   2134   2146   2148     1  0.0000000  0.6508444  3
   2136   2134   2130   2137     1  0.0000000  0.6508444  3
   2136   2134   2130   2159     1  0.0000000  0.6508444  3
   2136   2134   2146   2152     1  0.0000000  0.6508444  3
   2136   2134   2146   2147     1  0.0000000  0.6508444  3
   2136   2134   2146   2148     1  0.0000000  0.6508444  3
   2137   2140   2149   2150     1  0.0000000  0.6508444  3
   2137   2140   2149   2151     1  0.0000000  0.6508444  3
   2138   2137   2130   2159     1  0.0000000  0.6508444  3
   2138   2137   2140   2149     1  0.0000000  0.6508444  3
   2138   2137   2140   2141     1  0.0000000  0.6508444  3
   2138   2137   2140   2142     1  0.0000000  0.6508444  3
   2139   2137   2130   2159     1  0.0000000  0.6508444  3
   2139   2137   2140   2149     1  0.0000000  0.6508444  3
   2139   2137   2140   2141     1  0.0000000  0.6508444  3
   2139   2137   2140   2142     1  0.0000000  0.6508444  3
   2140   2137   2130   2159     1  0.0000000  0.6508444  3
   2141   2140   2149   2158     1  0.0000000  1.0460000  1
   2141   2140   2149   2158     1  0.0000000  0.0000000  3
   2141   2140   2149   2150     1  0.0000000  0.6508444  3
   2141   2140   2149   2151     1  0.0000000  0.6508444  3
   2142   2140   2149   2158     1  0.0000000  1.0460000  1
   2142   2140   2149   2158     1  0.0000000  0.0000000  3
   2142   2140   2149   2150     1  0.0000000  0.6508444  3
   2142   2140   2149   2151     1  0.0000000  0.6508444  3
   2143   2131   2130   2159     1  0.0000000  0.6508444  3
   2144   2143   2155   4482     1  0.0000000  1.0460000  1
   2144   2143   2155   4482     1  0.0000000  0.0000000  3
   2144   2143   2155   2156     1  0.0000000  0.6508444  3
   2144   2143   2155   2157     1  0.0000000  0.6508444  3
   2145   2143   2155   4482     1  0.0000000  1.0460000  1
   2145   2143   2155   4482     1  0.0000000  0.0000000  3
   2145   2143   2155   2156     1  0.0000000  0.6508444  3
   2145   2143   2155   2157     1  0.0000000  0.6508444  3
   2146   2134   2130   2159     1  0.0000000  0.6508444  3
   2147   2146   2152   4450     1  0.0000000  1.0460000  1
   2147   2146   2152   4450     1  0.0000000  0.0000000  3
   2147   2146   2152   2153     1  0.0000000  0.6508444  3
   2147   2146   2152   2154     1  0.0000000  0.6508444  3
   2148   2146   2152   4450     1  0.0000000  1.0460000  1
   2148   2146   2152   4450     1  0.0000000  0.0000000  3
   2148   2146   2152   2153     1  0.0000000  0.6508444  3
   2148   2146   2152   2154     1  0.0000000  0.6508444  3
   2152   4450   4420   4421     1  0.0000000  1.6038667  3
   2152   4450   4420   4422     1  0.0000000  1.6038667  3
   2153   2152   4450   4420     1  0.0000000  1.6038667  3
   2154   2152   4450   4420     1  0.0000000  1.6038667  3
   2155   4482   4452   4453     1  0.0000000  1.6038667  3
   2155   4482   4452   4454     1  0.0000000  1.6038667  3
   2156   2155   4482   4452     1  0.0000000  1.6038667  3
   2157   2155   4482   4452     1  0.0000000  1.6038667  3
   2160   2161   2173   2174     1  0.0000000  0.6508444  3
   2160   2161   2173   2175     1  0.0000000  0.6508444  3
   2160   2164   2176   2177     1  0.0000000  0.6508444  3
   2160   2164   2176   2178     1  0.0000000  0.6508444  3
   2160   2167   2170   2171     1  0.0000000  0.6508444  3
   2160   2167   2170   2172     1  0.0000000  0.6508444  3
   2161   2160   2164   2165     1  0.0000000  0.6508444  3
   2161   2160   2164   2166     1  0.0000000  0.6508444  3
   2161   2160   2167   2168     1  0.0000000  0.6508444  3
   2161   2160   2167   2169     1  0.0000000  0.6508444  3
   2161   2173   2185   2186     1  0.0000000  0.6508444  3
   2161   2173   2185   2187     1  0.0000000  0.6508444  3
   2162   2161   2160   2164     1  0.0000000  0.6508444  3
   2162   2161   2160   2167     1  0.0000000  0.6508444  3
   2162   2161   2160   2189     1  0.0000000  0.6508444  3
   2162   2161   2173   2185     1  0.0000000  0.6508444  3
   2162   2161   2173   2174     1  0.0000000  0.6508444  3
   2162   2161   2173   2175     1  0.0000000  0.6508444  3
   2163   2161   2160   2164     1  0.0000000  0.6508444  3
   2163   2161   2160   2167     1  0.0000000  0.6508444  3
   2163   2161   2160   2189     1  0.0000000  0.6508444  3
   2163   2161   2173   2185     1  0.0000000  0.6508444  3
   2163   2161   2173   2174     1  0.0000000  0.6508444  3
   2163   2161   2173   2175     1  0.0000000  0.6508444  3
   2164   2160   2167   2168     1  0.0000000  0.6508444  3
   2164   2160   2167   2169     1  0.0000000  0.6508444  3
   2164   2176   2182   2183     1  0.0000000  0.6508444  3
   2164   2176   2182   2184     1  0.0000000  0.6508444  3
   2165   2164   2160   2167     1  0.0000000  0.6508444  3
   2165   2164   2160   2189     1  0.0000000  0.6508444  3
   2165   2164   2176   2182     1  0.0000000  0.6508444  3
   2165   2164   2176   2177     1  0.0000000  0.6508444  3
   2165   2164   2176   2178     1  0.0000000  0.6508444  3
   2166   2164   2160   2167     1  0.0000000  0.6508444  3
   2166   2164   2160   2189     1  0.0000000  0.6508444  3
   2166   2164   2176   2182     1  0.0000000  0.6508444  3
   2166   2164   2176   2177     1  0.0000000  0.6508444  3
   2166   2164   2176   2178     1  0.0000000  0.6508444  3
   2167   2170   2179   2180     1  0.0000000  0.6508444  3
   2167   2170   2179   2181     1  0.0000000  0.6508444  3
   2168   2167   2160   2189     1  0.0000000  0.6508444  3
   2168   2167   2170   2179     1  0.0000000  0.6508444  3
   2168   2167   2170   2171     1  0.0000000  0.6508444  3
   2168   2167   2170   2172     1  0.0000000  0.6508444  3
   2169   2167   2160   2189     1  0.0000000  0.6508444  3
   2169   2167   2170   2179     1  0.0000000  0.6508444  3
   2169   2167   2170   2171     1  0.0000000  0.6508444  3
   2169   2167   2170   2172     1  0.0000000  0.6508444  3
   2170   2167   2160   2189     1  0.0000000  0.6508444  3
   2171   2170   2179   2188     1  0.0000000  1.0460000  1
   2171   2170   2179   2188     1  0.0000000  0.0000000  3
   2171   2170   2179   2180     1  0.0000000  0.6508444  3
   2171   2170   2179   2181     1  0.0000000  0.6508444  3
   2172   2170   2179   2188     1  0.0000000  1.0460000  1
   2172   2170   2179   2188     1  0.0000000  0.0000000  3
   2172   2170   2179   2180     1  0.0000000  0.6508444  3
   2172   2170   2179   2181     1  0.0000000  0.6508444  3
   2173   2161   2160   2189     1  0.0000000  0.6508444  3
   2174   2173   2185   4546     1  0.0000000  1.0460000  1
   2174   2173   2185   4546     1  0.0000000  0.0000000  3
   2174   2173   2185   2186     1  0.0000000  0.6508444  3
   2174   2173   2185   2187     1  0.0000000  0.6508444  3
   2175   2173   2185   4546     1  0.0000000  1.0460000  1
   2175   2173   2185   4546     1  0.0000000  0.0000000  3
   2175   2173   2185   2186     1  0.0000000  0.6508444  3
   2175   2173   2185   2187     1  0.0000000  0.6508444  3
   2176   2164   2160   2189     1  0.0000000  0.6508444  3
   2177   2176   2182   4514     1  0.0000000  1.0460000  1
   2177   2176   2182   4514     1  0.0000000  0.0000000  3
   2177   2176   2182   2183     1  0.0000000  0.6508444  3
   2177   2176   2182   2184     1  0.0000000  0.6508444  3
   2178   2176   2182   4514     1  0.0000000  1.0460000  1
   2178   2176   2182   4514     1  0.0000000  0.0000000  3
   2178   2176   2182   2183     1  0.0000000  0.6508444  3
   2178   2176   2182   2184     1  0.0000000  0.6508444  3
   2182   4514   4484   4485     1  0.0000000  1.6038667  3
   2182   4514   4484   4486     1  0.0000000  1.6038667  3
   2183   2182   4514   4484     1  0.0000000  1.6038667  3
   2184   2182   4514   4484     1  0.0000000  1.6038667  3
   2185   4546   4516   4517     1  0.0000000  1.6038667  3
   2185   4546   4516   4518     1  0.0000000  1.6038667  3
   2186   2185   4546   4516     1  0.0000000  1.6038667  3
   2187   2185   4546   4516     1  0.0000000  1.6038667  3
   2190   2191   2203   2204     1  0.0000000  0.6508444  3
   2190   2191   2203   2205     1  0.0000000  0.6508444  3
   2190   2194   2206   2207     1  0.0000000  0.6508444  3
   2190   2194   2206   2208     1  0.0000000  0.6508444  3
   2190   2197   2200   2201     1  0.0000000  0.6508444  3
   2190   2197   2200   2202     1  0.0000000  0.6508444  3
   2191   2190   2194   2195     1  0.0000000  0.6508444  3
   2191   2190   2194   2196     1  0.0000000  0.6508444  3
   2191   2190   2197   2198     1  0.0000000  0.6508444  3
   2191   2190   2197   2199     1  0.0000000  0.6508444  3
   2191   2203   2215   2216     1  0.0000000  0.6508444  3
   2191   2203   2215   2217     1  0.0000000  0.6508444  3
   2192   2191   2190   2194     1  0.0000000  0.6508444  3
   2192   2191   2190   2197     1  0.0000000  0.6508444  3
   2192   2191   2190   2219     1  0.0000000  0.6508444  3
   2192   2191   2203   2215     1  0.0000000  0.6508444  3
   2192   2191   2203   2204     1  0.0000000  0.6508444  3
   2192   2191   2203   2205     1  0.0000000  0.6508444  3
   2193   2191   2190   2194     1  0.0000000  0.6508444  3
   2193   2191   2190   2197     1  0.0000000  0.6508444  3
   2193   2191   2190   2219     1  0.0000000  0.6508444  3
   2193   2191   2203   2215     1  0.0000000  0.6508444  3
   2193   2191   2203   2204     1  0.0000000  0.6508444  3
   2193   2191   2203   2205     1  0.0000000  0.6508444  3
   2194   2190   2197   2198     1  0.0000000  0.6508444  3
   2194   2190   2197   2199     1  0.0000000  0.6508444  3
   2194   2206   2212   2213     1  0.0000000  0.6508444  3
   2194   2206   2212   2214     1  0.0000000  0.6508444  3
   2195   2194   2190   2197     1  0.0000000  0.6508444  3
   2195   2194   2190   2219     1  0.0000000  0.6508444  3
   2195   2194   2206   2212     1  0.0000000  0.6508444  3
   2195   2194   2206   2207     1  0.0000000  0.6508444  3
   2195   2194   2206   2208     1  0.0000000  0.6508444  3
   2196   2194   2190   2197     1  0.0000000  0.6508444  3
   2196   2194   2190   2219     1  0.0000000  0.6508444  3
   2196   2194   2206   2212     1  0.0000000  0.6508444  3
   2196   2194   2206   2207     1  0.0000000  0.6508444  3
   2196   2194   2206   2208     1  0.0000000  0.6508444  3
   2197   2200   2209   2210     1  0.0000000  0.6508444  3
   2197   2200   2209   2211     1  0.0000000  0.6508444  3
   2198   2197   2190   2219     1  0.0000000  0.6508444  3
   2198   2197   2200   2209     1  0.0000000  0.6508444  3
   2198   2197   2200   2201     1  0.0000000  0.6508444  3
   2198   2197   2200   2202     1  0.0000000  0.6508444  3
   2199   2197   2190   2219     1  0.0000000  0.6508444  3
   2199   2197   2200   2209     1  0.0000000  0.6508444  3
   2199   2197   2200   2201     1  0.0000000  0.6508444  3
   2199   2197   2200   2202     1  0.0000000  0.6508444  3
   2200   2197   2190   2219     1  0.0000000  0.6508444  3
   2201   2200   2209   2218     1  0.0000000  1.0460000  1
   2201   2200   2209   2218     1  0.0000000  0.0000000  3
   2201   2200   2209   2210     1  0.0000000  0.6508444  3
   2201   2200   2209   2211     1  0.0000000  0.6508444  3
   2202   2200   2209   2218     1  0.0000000  1.0460000  1
   2202   2200   2209   2218     1  0.0000000  0.0000000  3
   2202   2200   2209   2210     1  0.0000000  0.6508444  3
   2202   2200   2209   2211     1  0.0000000  0.6508444  3
   2203   2191   2190   2219     1  0.0000000  0.6508444  3
   2204   2203   2215   4610     1  0.0000000  1.0460000  1
   2204   2203   2215   4610     1  0.0000000  0.0000000  3
   2204   2203   2215   2216     1  0.0000000  0.6508444  3
   2204   2203   2215   2217     1  0.0000000  0.6508444  3
   2205   2203   2215   4610     1  0.0000000  1.0460000  1
   2205   2203   2215   4610     1  0.0000000  0.0000000  3
   2205   2203   2215   2216     1  0.0000000  0.6508444  3
   2205   2203   2215   2217     1  0.0000000  0.6508444  3
   2206   2194   2190   2219     1  0.0000000  0.6508444  3
   2207   2206   2212   4578     1  0.0000000  1.0460000  1
   2207   2206   2212   4578     1  0.0000000  0.0000000  3
   2207   2206   2212   2213     1  0.0000000  0.6508444  3
   2207   2206   2212   2214     1  0.0000000  0.6508444  3
   2208   2206   2212   4578     1  0.0000000  1.0460000  1
   2208   2206   2212   4578     1  0.0000000  0.0000000  3
   2208   2206   2212   2213     1  0.0000000  0.6508444  3
   2208   2206   2212   2214     1  0.0000000  0.6508444  3
   2212   4578   4548   4549     1  0.0000000  1.6038667  3
   2212   4578   4548   4550     1  0.0000000  1.6038667  3
   2213   2212   4578   4548     1  0.0000000  1.6038667  3
   2214   2212   4578   4548     1  0.0000000  1.6038667  3
   2215   4610   4580   4581     1  0.0000000  1.6038667  3
   2215   4610   4580   4582     1  0.0000000  1.6038667  3
   2216   2215   4610   4580     1  0.0000000  1.6038667  3
   2217   2215   4610   4580     1  0.0000000  1.6038667  3
   2220   2221   2233   2234     1  0.0000000  0.6508444  3
   2220   2221   2233   2235     1  0.0000000  0.6508444  3
   2220   2224   2236   2237     1  0.0000000  0.6508444  3
   2220   2224   2236   2238     1  0.0000000  0.6508444  3
   2220   2227   2230   2231     1  0.0000000  0.6508444  3
   2220   2227   2230   2232     1  0.0000000  0.6508444  3
   2221   2220   2224   2225     1  0.0000000  0.6508444  3
   2221   2220   2224   2226     1  0.0000000  0.6508444  3
   2221   2220   2227   2228     1  0.0000000  0.6508444  3
   2221   2220   2227   2229     1  0.0000000  0.6508444  3
   2221   2233   2245   2246     1  0.0000000  0.6508444  3
   2221   2233   2245   2247     1  0.0000000  0.6508444  3
   2222   2221   2220   2224     1  0.0000000  0.6508444  3
   2222   2221   2220   2227     1  0.0000000  0.6508444  3
   2222   2221   2220   2249     1  0.0000000  0.6508444  3
   2222   2221   2233   2245     1  0.0000000  0.6508444  3
   2222   2221   2233   2234     1  0.0000000  0.6508444  3
   2222   2221   2233   2235     1  0.0000000  0.6508444  3
   2223   2221   2220   2224     1  0.0000000  0.6508444  3
   2223   2221   2220   2227     1  0.0000000  0.6508444  3
   2223   2221   2220   2249     1  0.0000000  0.6508444  3
   2223   2221   2233   2245     1  0.0000000  0.6508444  3
   2223   2221   2233   2234     1  0.0000000  0.6508444  3
   2223   2221   2233   2235     1  0.0000000  0.6508444  3
   2224   2220   2227   2228     1  0.0000000  0.6508444  3
   2224   2220   2227   2229     1  0.0000000  0.6508444  3
   2224   2236   2242   2243     1  0.0000000  0.6508444  3
   2224   2236   2242   2244     1  0.0000000  0.6508444  3
   2225   2224   2220   2227     1  0.0000000  0.6508444  3
   2225   2224   2220   2249     1  0.0000000  0.6508444  3
   2225   2224   2236   2242     1  0.0000000  0.6508444  3
   2225   2224   2236   2237     1  0.0000000  0.6508444  3
   2225   2224   2236   2238     1  0.0000000  0.6508444  3
   2226   2224   2220   2227     1  0.0000000  0.6508444  3
   2226   2224   2220   2249     1  0.0000000  0.6508444  3
   2226   2224   2236   2242     1  0.0000000  0.6508444  3
   2226   2224   2236   2237     1  0.0000000  0.6508444  3
   2226   2224   2236   2238     1  0.0000000  0.6508444  3
   2227   2230   2239   2240     1  0.0000000  0.6508444  3
   2227   2230   2239   2241     1  0.0000000  0.6508444  3
   2228   2227   2220   2249     1  0.0000000  0.6508444  3
   2228   2227   2230   2239     1  0.0000000  0.6508444  3
   2228   2227   2230   2231     1  0.0000000  0.6508444  3
   2228   2227   2230   2232     1  0.0000000  0.6508444  3
   2229   2227   2220   2249     1  0.0000000  0.6508444  3
   2229   2227   2230   2239     1  0.0000000  0.6508444  3
   2229   2227   2230   2231     1  0.0000000  0.6508444  3
   2229   2227   2230   2232     1  0.0000000  0.6508444  3
   2230   2227   2220   2249     1  0.0000000  0.6508444  3
   2231   2230   2239   2248     1  0.0000000  1.0460000  1
   2231   2230   2239   2248     1  0.0000000  0.0000000  3
   2231   2230   2239   2240     1  0.0000000  0.6508444  3
   2231   2230   2239   2241     1  0.0000000  0.6508444  3
   2232   2230   2239   2248     1  0.0000000  1.0460000  1
   2232   2230   2239   2248     1  0.0000000  0.0000000  3
   2232   2230   2239   2240     1  0.0000000  0.6508444  3
   2232   2230   2239   2241     1  0.0000000  0.6508444  3
   2233   2221   2220   2249     1  0.0000000  0.6508444  3
   2234   2233   2245   4674     1  0.0000000  1.0460000  1
   2234   2233   2245   4674     1  0.0000000  0.0000000  3
   2234   2233   2245   2246     1  0.0000000  0.6508444  3
   2234   2233   2245   2247     1  0.0000000  0.6508444  3
   2235   2233   2245   4674     1  0.0000000  1.0460000  1
   2235   2233   2245   4674     1  0.0000000  0.0000000  3
   2235   2233   2245   2246     1  0.0000000  0.6508444  3
   2235   2233   2245   2247     1  0.0000000  0.6508444  3
   2236   2224   2220   2249     1  0.0000000  0.6508444  3
   2237   2236   2242   4642     1  0.0000000  1.0460000  1
   2237   2236   2242   4642     1  0.0000000  0.0000000  3
   2237   2236   2242   2243     1  0.0000000  0.6508444  3
   2237   2236   2242   2244     1  0.0000000  0.6508444  3
   2238   2236   2242   4642     1  0.0000000  1.0460000  1
   2238   2236   2242   4642     1  0.0000000  0.0000000  3
   2238   2236   2242   2243     1  0.0000000  0.6508444  3
   2238   2236   2242   2244     1  0.0000000  0.6508444  3
   2242   4642   4612   4613     1  0.0000000  1.6038667  3
   2242   4642   4612   4614     1  0.0000000  1.6038667  3
   2243   2242   4642   4612     1  0.0000000  1.6038667  3
   2244   2242   4642   4612     1  0.0000000  1.6038667  3
   2245   4674   4644   4645     1  0.0000000  1.6038667  3
   2245   4674   4644   4646     1  0.0000000  1.6038667  3
   2246   2245   4674   4644     1  0.0000000  1.6038667  3
   2247   2245   4674   4644     1  0.0000000  1.6038667  3
   2250   2251   2263   2264     1  0.0000000  0.6508444  3
   2250   2251   2263   2265     1  0.0000000  0.6508444  3
   2250   2254   2266   2267     1  0.0000000  0.6508444  3
   2250   2254   2266   2268     1  0.0000000  0.6508444  3
   2250   2257   2260   2261     1  0.0000000  0.6508444  3
   2250   2257   2260   2262     1  0.0000000  0.6508444  3
   2251   2250   2254   2255     1  0.0000000  0.6508444  3
   2251   2250   2254   2256     1  0.0000000  0.6508444  3
   2251   2250   2257   2258     1  0.0000000  0.6508444  3
   2251   2250   2257   2259     1  0.0000000  0.6508444  3
   2251   2263   2275   2276     1  0.0000000  0.6508444  3
   2251   2263   2275   2277     1  0.0000000  0.6508444  3
   2252   2251   2250   2254     1  0.0000000  0.6508444  3
   2252   2251   2250   2257     1  0.0000000  0.6508444  3
   2252   2251   2250   2279     1  0.0000000  0.6508444  3
   2252   2251   2263   2275     1  0.0000000  0.6508444  3
   2252   2251   2263   2264     1  0.0000000  0.6508444  3
   2252   2251   2263   2265     1  0.0000000  0.6508444  3
   2253   2251   2250   2254     1  0.0000000  0.6508444  3
   2253   2251   2250   2257     1  0.0000000  0.6508444  3
   2253   2251   2250   2279     1  0.0000000  0.6508444  3
   2253   2251   2263   2275     1  0.0000000  0.6508444  3
   2253   2251   2263   2264     1  0.0000000  0.6508444  3
   2253   2251   2263   2265     1  0.0000000  0.6508444  3
   2254   2250   2257   2258     1  0.0000000  0.6508444  3
   2254   2250   2257   2259     1  0.0000000  0.6508444  3
   2254   2266   2272   2273     1  0.0000000  0.6508444  3
   2254   2266   2272   2274     1  0.0000000  0.6508444  3
   2255   2254   2250   2257     1  0.0000000  0.6508444  3
   2255   2254   2250   2279     1  0.0000000  0.6508444  3
   2255   2254   2266   2272     1  0.0000000  0.6508444  3
   2255   2254   2266   2267     1  0.0000000  0.6508444  3
   2255   2254   2266   2268     1  0.0000000  0.6508444  3
   2256   2254   2250   2257     1  0.0000000  0.6508444  3
   2256   2254   2250   2279     1  0.0000000  0.6508444  3
   2256   2254   2266   2272     1  0.0000000  0.6508444  3
   2256   2254   2266   2267     1  0.0000000  0.6508444  3
   2256   2254   2266   2268     1  0.0000000  0.6508444  3
   2257   2260   2269   2270     1  0.0000000  0.6508444  3
   2257   2260   2269   2271     1  0.0000000  0.6508444  3
   2258   2257   2250   2279     1  0.0000000  0.6508444  3
   2258   2257   2260   2269     1  0.0000000  0.6508444  3
   2258   2257   2260   2261     1  0.0000000  0.6508444  3
   2258   2257   2260   2262     1  0.0000000  0.6508444  3
   2259   2257   2250   2279     1  0.0000000  0.6508444  3
   2259   2257   2260   2269     1  0.0000000  0.6508444  3
   2259   2257   2260   2261     1  0.0000000  0.6508444  3
   2259   2257   2260   2262     1  0.0000000  0.6508444  3
   2260   2257   2250   2279     1  0.0000000  0.6508444  3
   2261   2260   2269   2278     1  0.0000000  1.0460000  1
   2261   2260   2269   2278     1  0.0000000  0.0000000  3
   2261   2260   2269   2270     1  0.0000000  0.6508444  3
   2261   2260   2269   2271     1  0.0000000  0.6508444  3
   2262   2260   2269   2278     1  0.0000000  1.0460000  1
   2262   2260   2269   2278     1  0.0000000  0.0000000  3
   2262   2260   2269   2270     1  0.0000000  0.6508444  3
   2262   2260   2269   2271     1  0.0000000  0.6508444  3
   2263   2251   2250   2279     1  0.0000000  0.6508444  3
   2264   2263   2275   4738     1  0.0000000  1.0460000  1
   2264   2263   2275   4738     1  0.0000000  0.0000000  3
   2264   2263   2275   2276     1  0.0000000  0.6508444  3
   2264   2263   2275   2277     1  0.0000000  0.6508444  3
   2265   2263   2275   4738     1  0.0000000  1.0460000  1
   2265   2263   2275   4738     1  0.0000000  0.0000000  3
   2265   2263   2275   2276     1  0.0000000  0.6508444  3
   2265   2263   2275   2277     1  0.0000000  0.6508444  3
   2266   2254   2250   2279     1  0.0000000  0.6508444  3
   2267   2266   2272   4706     1  0.0000000  1.0460000  1
   2267   2266   2272   4706     1  0.0000000  0.0000000  3
   2267   2266   2272   2273     1  0.0000000  0.6508444  3
   2267   2266   2272   2274     1  0.0000000  0.6508444  3
   2268   2266   2272   4706     1  0.0000000  1.0460000  1
   2268   2266   2272   4706     1  0.0000000  0.0000000  3
   2268   2266   2272   2273     1  0.0000000  0.6508444  3
   2268   2266   2272   2274     1  0.0000000  0.6508444  3
   2272   4706   4676   4677     1  0.0000000  1.6038667  3
   2272   4706   4676   4678     1  0.0000000  1.6038667  3
   2273   2272   4706   4676     1  0.0000000  1.6038667  3
   2274   2272   4706   4676     1  0.0000000  1.6038667  3
   2275   4738   4708   4709     1  0.0000000  1.6038667  3
   2275   4738   4708   4710     1  0.0000000  1.6038667  3
   2276   2275   4738   4708     1  0.0000000  1.6038667  3
   2277   2275   4738   4708     1  0.0000000  1.6038667  3
   2280   2281   2293   2294     1  0.0000000  0.6508444  3
   2280   2281   2293   2295     1  0.0000000  0.6508444  3
   2280   2284   2296   2297     1  0.0000000  0.6508444  3
   2280   2284   2296   2298     1  0.0000000  0.6508444  3
   2280   2287   2290   2291     1  0.0000000  0.6508444  3
   2280   2287   2290   2292     1  0.0000000  0.6508444  3
   2281   2280   2284   2285     1  0.0000000  0.6508444  3
   2281   2280   2284   2286     1  0.0000000  0.6508444  3
   2281   2280   2287   2288     1  0.0000000  0.6508444  3
   2281   2280   2287   2289     1  0.0000000  0.6508444  3
   2281   2293   2305   2306     1  0.0000000  0.6508444  3
   2281   2293   2305   2307     1  0.0000000  0.6508444  3
   2282   2281   2280   2284     1  0.0000000  0.6508444  3
   2282   2281   2280   2287     1  0.0000000  0.6508444  3
   2282   2281   2280   2309     1  0.0000000  0.6508444  3
   2282   2281   2293   2305     1  0.0000000  0.6508444  3
   2282   2281   2293   2294     1  0.0000000  0.6508444  3
   2282   2281   2293   2295     1  0.0000000  0.6508444  3
   2283   2281   2280   2284     1  0.0000000  0.6508444  3
   2283   2281   2280   2287     1  0.0000000  0.6508444  3
   2283   2281   2280   2309     1  0.0000000  0.6508444  3
   2283   2281   2293   2305     1  0.0000000  0.6508444  3
   2283   2281   2293   2294     1  0.0000000  0.6508444  3
   2283   2281   2293   2295     1  0.0000000  0.6508444  3
   2284   2280   2287   2288     1  0.0000000  0.6508444  3
   2284   2280   2287   2289     1  0.0000000  0.6508444  3
   2284   2296   2302   2303     1  0.0000000  0.6508444  3
   2284   2296   2302   2304     1  0.0000000  0.6508444  3
   2285   2284   2280   2287     1  0.0000000  0.6508444  3
   2285   2284   2280   2309     1  0.0000000  0.6508444  3
   2285   2284   2296   2302     1  0.0000000  0.6508444  3
   2285   2284   2296   2297     1  0.0000000  0.6508444  3
   2285   2284   2296   2298     1  0.0000000  0.6508444  3
   2286   2284   2280   2287     1  0.0000000  0.6508444  3
   2286   2284   2280   2309     1  0.0000000  0.6508444  3
   2286   2284   2296   2302     1  0.0000000  0.6508444  3
   2286   2284   2296   2297     1  0.0000000  0.6508444  3
   2286   2284   2296   2298     1  0.0000000  0.6508444  3
   2287   2290   2299   2300     1  0.0000000  0.6508444  3
   2287   2290   2299   2301     1  0.0000000  0.6508444  3
   2288   2287   2280   2309     1  0.0000000  0.6508444  3
   2288   2287   2290   2299     1  0.0000000  0.6508444  3
   2288   2287   2290   2291     1  0.0000000  0.6508444  3
   2288   2287   2290   2292     1  0.0000000  0.6508444  3
   2289   2287   2280   2309     1  0.0000000  0.6508444  3
   2289   2287   2290   2299     1  0.0000000  0.6508444  3
   2289   2287   2290   2291     1  0.0000000  0.6508444  3
   2289   2287   2290   2292     1  0.0000000  0.6508444  3
   2290   2287   2280   2309     1  0.0000000  0.6508444  3
   2291   2290   2299   2308     1  0.0000000  1.0460000  1
   2291   2290   2299   2308     1  0.0000000  0.0000000  3
   2291   2290   2299   2300     1  0.0000000  0.6508444  3
   2291   2290   2299   2301     1  0.0000000  0.6508444  3
   2292   2290   2299   2308     1  0.0000000  1.0460000  1
   2292   2290   2299   2308     1  0.0000000  0.0000000  3
   2292   2290   2299   2300     1  0.0000000  0.6508444  3
   2292   2290   2299   2301     1  0.0000000  0.6508444  3
   2293   2281   2280   2309     1  0.0000000  0.6508444  3
   2294   2293   2305   4802     1  0.0000000  1.0460000  1
   2294   2293   2305   4802     1  0.0000000  0.0000000  3
   2294   2293   2305   2306     1  0.0000000  0.6508444  3
   2294   2293   2305   2307     1  0.0000000  0.6508444  3
   2295   2293   2305   4802     1  0.0000000  1.0460000  1
   2295   2293   2305   4802     1  0.0000000  0.0000000  3
   2295   2293   2305   2306     1  0.0000000  0.6508444  3
   2295   2293   2305   2307     1  0.0000000  0.6508444  3
   2296   2284   2280   2309     1  0.0000000  0.6508444  3
   2297   2296   2302   4770     1  0.0000000  1.0460000  1
   2297   2296   2302   4770     1  0.0000000  0.0000000  3
   2297   2296   2302   2303     1  0.0000000  0.6508444  3
   2297   2296   2302   2304     1  0.0000000  0.6508444  3
   2298   2296   2302   4770     1  0.0000000  1.0460000  1
   2298   2296   2302   4770     1  0.0000000  0.0000000  3
   2298   2296   2302   2303     1  0.0000000  0.6508444  3
   2298   2296   2302   2304     1  0.0000000  0.6508444  3
   2302   4770   4740   4741     1  0.0000000  1.6038667  3
   2302   4770   4740   4742     1  0.0000000  1.6038667  3
   2303   2302   4770   4740     1  0.0000000  1.6038667  3
   2304   2302   4770   4740     1  0.0000000  1.6038667  3
   2305   4802   4772   4773     1  0.0000000  1.6038667  3
   2305   4802   4772   4774     1  0.0000000  1.6038667  3
   2306   2305   4802   4772     1  0.0000000  1.6038667  3
   2307   2305   4802   4772     1  0.0000000  1.6038667  3
   2310   2311   2323   2324     1  0.0000000  0.6508444  3
   2310   2311   2323   2325     1  0.0000000  0.6508444  3
   2310   2314   2326   2327     1  0.0000000  0.6508444  3
   2310   2314   2326   2328     1  0.0000000  0.6508444  3
   2310   2317   2320   2321     1  0.0000000  0.6508444  3
   2310   2317   2320   2322     1  0.0000000  0.6508444  3
   2311   2310   2314   2315     1  0.0000000  0.6508444  3
   2311   2310   2314   2316     1  0.0000000  0.6508444  3
   2311   2310   2317   2318     1  0.0000000  0.6508444  3
   2311   2310   2317   2319     1  0.0000000  0.6508444  3
   2311   2323   2335   2336     1  0.0000000  0.6508444  3
   2311   2323   2335   2337     1  0.0000000  0.6508444  3
   2312   2311   2310   2314     1  0.0000000  0.6508444  3
   2312   2311   2310   2317     1  0.0000000  0.6508444  3
   2312   2311   2310   2339     1  0.0000000  0.6508444  3
   2312   2311   2323   2335     1  0.0000000  0.6508444  3
   2312   2311   2323   2324     1  0.0000000  0.6508444  3
   2312   2311   2323   2325     1  0.0000000  0.6508444  3
   2313   2311   2310   2314     1  0.0000000  0.6508444  3
   2313   2311   2310   2317     1  0.0000000  0.6508444  3
   2313   2311   2310   2339     1  0.0000000  0.6508444  3
   2313   2311   2323   2335     1  0.0000000  0.6508444  3
   2313   2311   2323   2324     1  0.0000000  0.6508444  3
   2313   2311   2323   2325     1  0.0000000  0.6508444  3
   2314   2310   2317   2318     1  0.0000000  0.6508444  3
   2314   2310   2317   2319     1  0.0000000  0.6508444  3
   2314   2326   2332   2333     1  0.0000000  0.6508444  3
   2314   2326   2332   2334     1  0.0000000  0.6508444  3
   2315   2314   2310   2317     1  0.0000000  0.6508444  3
   2315   2314   2310   2339     1  0.0000000  0.6508444  3
   2315   2314   2326   2332     1  0.0000000  0.6508444  3
   2315   2314   2326   2327     1  0.0000000  0.6508444  3
   2315   2314   2326   2328     1  0.0000000  0.6508444  3
   2316   2314   2310   2317     1  0.0000000  0.6508444  3
   2316   2314   2310   2339     1  0.0000000  0.6508444  3
   2316   2314   2326   2332     1  0.0000000  0.6508444  3
   2316   2314   2326   2327     1  0.0000000  0.6508444  3
   2316   2314   2326   2328     1  0.0000000  0.6508444  3
   2317   2320   2329   2330     1  0.0000000  0.6508444  3
   2317   2320   2329   2331     1  0.0000000  0.6508444  3
   2318   2317   2310   2339     1  0.0000000  0.6508444  3
   2318   2317   2320   2329     1  0.0000000  0.6508444  3
   2318   2317   2320   2321     1  0.0000000  0.6508444  3
   2318   2317   2320   2322     1  0.0000000  0.6508444  3
   2319   2317   2310   2339     1  0.0000000  0.6508444  3
   2319   2317   2320   2329     1  0.0000000  0.6508444  3
   2319   2317   2320   2321     1  0.0000000  0.6508444  3
   2319   2317   2320   2322     1  0.0000000  0.6508444  3
   2320   2317   2310   2339     1  0.0000000  0.6508444  3
   2321   2320   2329   2338     1  0.0000000  1.0460000  1
   2321   2320   2329   2338     1  0.0000000  0.0000000  3
   2321   2320   2329   2330     1  0.0000000  0.6508444  3
   2321   2320   2329   2331     1  0.0000000  0.6508444  3
   2322   2320   2329   2338     1  0.0000000  1.0460000  1
   2322   2320   2329   2338     1  0.0000000  0.0000000  3
   2322   2320   2329   2330     1  0.0000000  0.6508444  3
   2322   2320   2329   2331     1  0.0000000  0.6508444  3
   2323   2311   2310   2339     1  0.0000000  0.6508444  3
   2324   2323   2335   4866     1  0.0000000  1.0460000  1
   2324   2323   2335   4866     1  0.0000000  0.0000000  3
   2324   2323   2335   2336     1  0.0000000  0.6508444  3
   2324   2323   2335   2337     1  0.0000000  0.6508444  3
   2325   2323   2335   4866     1  0.0000000  1.0460000  1
   2325   2323   2335   4866     1  0.0000000  0.0000000  3
   2325   2323   2335   2336     1  0.0000000  0.6508444  3
   2325   2323   2335   2337     1  0.0000000  0.6508444  3
   2326   2314   2310   2339     1  0.0000000  0.6508444  3
   2327   2326   2332   4834     1  0.0000000  1.0460000  1
   2327   2326   2332   4834     1  0.0000000  0.0000000  3
   2327   2326   2332   2333     1  0.0000000  0.6508444  3
   2327   2326   2332   2334     1  0.0000000  0.6508444  3
   2328   2326   2332   4834     1  0.0000000  1.0460000  1
   2328   2326   2332   4834     1  0.0000000  0.0000000  3
   2328   2326   2332   2333     1  0.0000000  0.6508444  3
   2328   2326   2332   2334     1  0.0000000  0.6508444  3
   2332   4834   4804   4805     1  0.0000000  1.6038667  3
   2332   4834   4804   4806     1  0.0000000  1.6038667  3
   2333   2332   4834   4804     1  0.0000000  1.6038667  3
   2334   2332   4834   4804     1  0.0000000  1.6038667  3
   2335   4866   4836   4837     1  0.0000000  1.6038667  3
   2335   4866   4836   4838     1  0.0000000  1.6038667  3
   2336   2335   4866   4836     1  0.0000000  1.6038667  3
   2337   2335   4866   4836     1  0.0000000  1.6038667  3
   2340   2341   2353   2354     1  0.0000000  0.6508444  3
   2340   2341   2353   2355     1  0.0000000  0.6508444  3
   2340   2344   2356   2357     1  0.0000000  0.6508444  3
   2340   2344   2356   2358     1  0.0000000  0.6508444  3
   2340   2347   2350   2351     1  0.0000000  0.6508444  3
   2340   2347   2350   2352     1  0.0000000  0.6508444  3
   2341   2340   2344   2345     1  0.0000000  0.6508444  3
   2341   2340   2344   2346     1  0.0000000  0.6508444  3
   2341   2340   2347   2348     1  0.0000000  0.6508444  3
   2341   2340   2347   2349     1  0.0000000  0.6508444  3
   2341   2353   2365   2366     1  0.0000000  0.6508444  3
   2341   2353   2365   2367     1  0.0000000  0.6508444  3
   2342   2341   2340   2344     1  0.0000000  0.6508444  3
   2342   2341   2340   2347     1  0.0000000  0.6508444  3
   2342   2341   2340   2369     1  0.0000000  0.6508444  3
   2342   2341   2353   2365     1  0.0000000  0.6508444  3
   2342   2341   2353   2354     1  0.0000000  0.6508444  3
   2342   2341   2353   2355     1  0.0000000  0.6508444  3
   2343   2341   2340   2344     1  0.0000000  0.6508444  3
   2343   2341   2340   2347     1  0.0000000  0.6508444  3
   2343   2341   2340   2369     1  0.0000000  0.6508444  3
   2343   2341   2353   2365     1  0.0000000  0.6508444  3
   2343   2341   2353   2354     1  0.0000000  0.6508444  3
   2343   2341   2353   2355     1  0.0000000  0.6508444  3
   2344   2340   2347   2348     1  0.0000000  0.6508444  3
   2344   2340   2347   2349     1  0.0000000  0.6508444  3
   2344   2356   2362   2363     1  0.0000000  0.6508444  3
   2344   2356   2362   2364     1  0.0000000  0.6508444  3
   2345   2344   2340   2347     1  0.0000000  0.6508444  3
   2345   2344   2340   2369     1  0.0000000  0.6508444  3
   2345   2344   2356   2362     1  0.0000000  0.6508444  3
   2345   2344   2356   2357     1  0.0000000  0.6508444  3
   2345   2344   2356   2358     1  0.0000000  0.6508444  3
   2346   2344   2340   2347     1  0.0000000  0.6508444  3
   2346   2344   2340   2369     1  0.0000000  0.6508444  3
   2346   2344   2356   2362     1  0.0000000  0.6508444  3
   2346   2344   2356   2357     1  0.0000000  0.6508444  3
   2346   2344   2356   2358     1  0.0000000  0.6508444  3
   2347   2350   2359   2360     1  0.0000000  0.6508444  3
   2347   2350   2359   2361     1  0.0000000  0.6508444  3
   2348   2347   2340   2369     1  0.0000000  0.6508444  3
   2348   2347   2350   2359     1  0.0000000  0.6508444  3
   2348   2347   2350   2351     1  0.0000000  0.6508444  3
   2348   2347   2350   2352     1  0.0000000  0.6508444  3
   2349   2347   2340   2369     1  0.0000000  0.6508444  3
   2349   2347   2350   2359     1  0.0000000  0.6508444  3
   2349   2347   2350   2351     1  0.0000000  0.6508444  3
   2349   2347   2350   2352     1  0.0000000  0.6508444  3
   2350   2347   2340   2369     1  0.0000000  0.6508444  3
   2351   2350   2359   2368     1  0.0000000  1.0460000  1
   2351   2350   2359   2368     1  0.0000000  0.0000000  3
   2351   2350   2359   2360     1  0.0000000  0.6508444  3
   2351   2350   2359   2361     1  0.0000000  0.6508444  3
   2352   2350   2359   2368     1  0.0000000  1.0460000  1
   2352   2350   2359   2368     1  0.0000000  0.0000000  3
   2352   2350   2359   2360     1  0.0000000  0.6508444  3
   2352   2350   2359   2361     1  0.0000000  0.6508444  3
   2353   2341   2340   2369     1  0.0000000  0.6508444  3
   2354   2353   2365   4930     1  0.0000000  1.0460000  1
   2354   2353   2365   4930     1  0.0000000  0.0000000  3
   2354   2353   2365   2366     1  0.0000000  0.6508444  3
   2354   2353   2365   2367     1  0.0000000  0.6508444  3
   2355   2353   2365   4930     1  0.0000000  1.0460000  1
   2355   2353   2365   4930     1  0.0000000  0.0000000  3
   2355   2353   2365   2366     1  0.0000000  0.6508444  3
   2355   2353   2365   2367     1  0.0000000  0.6508444  3
   2356   2344   2340   2369     1  0.0000000  0.6508444  3
   2357   2356   2362   4898     1  0.0000000  1.0460000  1
   2357   2356   2362   4898     1  0.0000000  0.0000000  3
   2357   2356   2362   2363     1  0.0000000  0.6508444  3
   2357   2356   2362   2364     1  0.0000000  0.6508444  3
   2358   2356   2362   4898     1  0.0000000  1.0460000  1
   2358   2356   2362   4898     1  0.0000000  0.0000000  3
   2358   2356   2362   2363     1  0.0000000  0.6508444  3
   2358   2356   2362   2364     1  0.0000000  0.6508444  3
   2362   4898   4868   4869     1  0.0000000  1.6038667  3
   2362   4898   4868   4870     1  0.0000000  1.6038667  3
   2363   2362   4898   4868     1  0.0000000  1.6038667  3
   2364   2362   4898   4868     1  0.0000000  1.6038667  3
   2365   4930   4900   4901     1  0.0000000  1.6038667  3
   2365   4930   4900   4902     1  0.0000000  1.6038667  3
   2366   2365   4930   4900     1  0.0000000  1.6038667  3
   2367   2365   4930   4900     1  0.0000000  1.6038667  3
   2370   2371   2383   2384     1  0.0000000  0.6508444  3
   2370   2371   2383   2385     1  0.0000000  0.6508444  3
   2370   2374   2386   2387     1  0.0000000  0.6508444  3
   2370   2374   2386   2388     1  0.0000000  0.6508444  3
   2370   2377   2380   2381     1  0.0000000  0.6508444  3
   2370   2377   2380   2382     1  0.0000000  0.6508444  3
   2371   2370   2374   2375     1  0.0000000  0.6508444  3
   2371   2370   2374   2376     1  0.0000000  0.6508444  3
   2371   2370   2377   2378     1  0.0000000  0.6508444  3
   2371   2370   2377   2379     1  0.0000000  0.6508444  3
   2371   2383   2395   2396     1  0.0000000  0.6508444  3
   2371   2383   2395   2397     1  0.0000000  0.6508444  3
   2372   2371   2370   2374     1  0.0000000  0.6508444  3
   2372   2371   2370   2377     1  0.0000000  0.6508444  3
   2372   2371   2370   2399     1  0.0000000  0.6508444  3
   2372   2371   2383   2395     1  0.0000000  0.6508444  3
   2372   2371   2383   2384     1  0.0000000  0.6508444  3
   2372   2371   2383   2385     1  0.0000000  0.6508444  3
   2373   2371   2370   2374     1  0.0000000  0.6508444  3
   2373   2371   2370   2377     1  0.0000000  0.6508444  3
   2373   2371   2370   2399     1  0.0000000  0.6508444  3
   2373   2371   2383   2395     1  0.0000000  0.6508444  3
   2373   2371   2383   2384     1  0.0000000  0.6508444  3
   2373   2371   2383   2385     1  0.0000000  0.6508444  3
   2374   2370   2377   2378     1  0.0000000  0.6508444  3
   2374   2370   2377   2379     1  0.0000000  0.6508444  3
   2374   2386   2392   2393     1  0.0000000  0.6508444  3
   2374   2386   2392   2394     1  0.0000000  0.6508444  3
   2375   2374   2370   2377     1  0.0000000  0.6508444  3
   2375   2374   2370   2399     1  0.0000000  0.6508444  3
   2375   2374   2386   2392     1  0.0000000  0.6508444  3
   2375   2374   2386   2387     1  0.0000000  0.6508444  3
   2375   2374   2386   2388     1  0.0000000  0.6508444  3
   2376   2374   2370   2377     1  0.0000000  0.6508444  3
   2376   2374   2370   2399     1  0.0000000  0.6508444  3
   2376   2374   2386   2392     1  0.0000000  0.6508444  3
   2376   2374   2386   2387     1  0.0000000  0.6508444  3
   2376   2374   2386   2388     1  0.0000000  0.6508444  3
   2377   2380   2389   2390     1  0.0000000  0.6508444  3
   2377   2380   2389   2391     1  0.0000000  0.6508444  3
   2378   2377   2370   2399     1  0.0000000  0.6508444  3
   2378   2377   2380   2389     1  0.0000000  0.6508444  3
   2378   2377   2380   2381     1  0.0000000  0.6508444  3
   2378   2377   2380   2382     1  0.0000000  0.6508444  3
   2379   2377   2370   2399     1  0.0000000  0.6508444  3
   2379   2377   2380   2389     1  0.0000000  0.6508444  3
   2379   2377   2380   2381     1  0.0000000  0.6508444  3
   2379   2377   2380   2382     1  0.0000000  0.6508444  3
   2380   2377   2370   2399     1  0.0000000  0.6508444  3
   2381   2380   2389   2398     1  0.0000000  1.0460000  1
   2381   2380   2389   2398     1  0.0000000  0.0000000  3
   2381   2380   2389   2390     1  0.0000000  0.6508444  3
   2381   2380   2389   2391     1  0.0000000  0.6508444  3
   2382   2380   2389   2398     1  0.0000000  1.0460000  1
   2382   2380   2389   2398     1  0.0000000  0.0000000  3
   2382   2380   2389   2390     1  0.0000000  0.6508444  3
   2382   2380   2389   2391     1  0.0000000  0.6508444  3
   2383   2371   2370   2399     1  0.0000000  0.6508444  3
   2384   2383   2395   4994     1  0.0000000  1.0460000  1
   2384   2383   2395   4994     1  0.0000000  0.0000000  3
   2384   2383   2395   2396     1  0.0000000  0.6508444  3
   2384   2383   2395   2397     1  0.0000000  0.6508444  3
   2385   2383   2395   4994     1  0.0000000  1.0460000  1
   2385   2383   2395   4994     1  0.0000000  0.0000000  3
   2385   2383   2395   2396     1  0.0000000  0.6508444  3
   2385   2383   2395   2397     1  0.0000000  0.6508444  3
   2386   2374   2370   2399     1  0.0000000  0.6508444  3
   2387   2386   2392   4962     1  0.0000000  1.0460000  1
   2387   2386   2392   4962     1  0.0000000  0.0000000  3
   2387   2386   2392   2393     1  0.0000000  0.6508444  3
   2387   2386   2392   2394     1  0.0000000  0.6508444  3
   2388   2386   2392   4962     1  0.0000000  1.0460000  1
   2388   2386   2392   4962     1  0.0000000  0.0000000  3
   2388   2386   2392   2393     1  0.0000000  0.6508444  3
   2388   2386   2392   2394     1  0.0000000  0.6508444  3
   2392   4962   4932   4933     1  0.0000000  1.6038667  3
   2392   4962   4932   4934     1  0.0000000  1.6038667  3
   2393   2392   4962   4932     1  0.0000000  1.6038667  3
   2394   2392   4962   4932     1  0.0000000  1.6038667  3
   2395   4994   4964   4965     1  0.0000000  1.6038667  3
   2395   4994   4964   4966     1  0.0000000  1.6038667  3
   2396   2395   4994   4964     1  0.0000000  1.6038667  3
   2397   2395   4994   4964     1  0.0000000  1.6038667  3
   2400   2401   2413   2414     1  0.0000000  0.6508444  3
   2400   2401   2413   2415     1  0.0000000  0.6508444  3
   2400   2404   2416   2417     1  0.0000000  0.6508444  3
   2400   2404   2416   2418     1  0.0000000  0.6508444  3
   2400   2407   2410   2411     1  0.0000000  0.6508444  3
   2400   2407   2410   2412     1  0.0000000  0.6508444  3
   2401   2400   2404   2405     1  0.0000000  0.6508444  3
   2401   2400   2404   2406     1  0.0000000  0.6508444  3
   2401   2400   2407   2408     1  0.0000000  0.6508444  3
   2401   2400   2407   2409     1  0.0000000  0.6508444  3
   2401   2413   2425   2426     1  0.0000000  0.6508444  3
   2401   2413   2425   2427     1  0.0000000  0.6508444  3
   2402   2401   2400   2404     1  0.0000000  0.6508444  3
   2402   2401   2400   2407     1  0.0000000  0.6508444  3
   2402   2401   2400   2429     1  0.0000000  0.6508444  3
   2402   2401   2413   2425     1  0.0000000  0.6508444  3
   2402   2401   2413   2414     1  0.0000000  0.6508444  3
   2402   2401   2413   2415     1  0.0000000  0.6508444  3
   2403   2401   2400   2404     1  0.0000000  0.6508444  3
   2403   2401   2400   2407     1  0.0000000  0.6508444  3
   2403   2401   2400   2429     1  0.0000000  0.6508444  3
   2403   2401   2413   2425     1  0.0000000  0.6508444  3
   2403   2401   2413   2414     1  0.0000000  0.6508444  3
   2403   2401   2413   2415     1  0.0000000  0.6508444  3
   2404   2400   2407   2408     1  0.0000000  0.6508444  3
   2404   2400   2407   2409     1  0.0000000  0.6508444  3
   2404   2416   2422   2423     1  0.0000000  0.6508444  3
   2404   2416   2422   2424     1  0.0000000  0.6508444  3
   2405   2404   2400   2407     1  0.0000000  0.6508444  3
   2405   2404   2400   2429     1  0.0000000  0.6508444  3
   2405   2404   2416   2422     1  0.0000000  0.6508444  3
   2405   2404   2416   2417     1  0.0000000  0.6508444  3
   2405   2404   2416   2418     1  0.0000000  0.6508444  3
   2406   2404   2400   2407     1  0.0000000  0.6508444  3
   2406   2404   2400   2429     1  0.0000000  0.6508444  3
   2406   2404   2416   2422     1  0.0000000  0.6508444  3
   2406   2404   2416   2417     1  0.0000000  0.6508444  3
   2406   2404   2416   2418     1  0.0000000  0.6508444  3
   2407   2410   2419   2420     1  0.0000000  0.6508444  3
   2407   2410   2419   2421     1  0.0000000  0.6508444  3
   2408   2407   2400   2429     1  0.0000000  0.6508444  3
   2408   2407   2410   2419     1  0.0000000  0.6508444  3
   2408   2407   2410   2411     1  0.0000000  0.6508444  3
   2408   2407   2410   2412     1  0.0000000  0.6508444  3
   2409   2407   2400   2429     1  0.0000000  0.6508444  3
   2409   2407   2410   2419     1  0.0000000  0.6508444  3
   2409   2407   2410   2411     1  0.0000000  0.6508444  3
   2409   2407   2410   2412     1  0.0000000  0.6508444  3
   2410   2407   2400   2429     1  0.0000000  0.6508444  3
   2411   2410   2419   2428     1  0.0000000  1.0460000  1
   2411   2410   2419   2428     1  0.0000000  0.0000000  3
   2411   2410   2419   2420     1  0.0000000  0.6508444  3
   2411   2410   2419   2421     1  0.0000000  0.6508444  3
   2412   2410   2419   2428     1  0.0000000  1.0460000  1
   2412   2410   2419   2428     1  0.0000000  0.0000000  3
   2412   2410   2419   2420     1  0.0000000  0.6508444  3
   2412   2410   2419   2421     1  0.0000000  0.6508444  3
   2413   2401   2400   2429     1  0.0000000  0.6508444  3
   2414   2413   2425   5058     1  0.0000000  1.0460000  1
   2414   2413   2425   5058     1  0.0000000  0.0000000  3
   2414   2413   2425   2426     1  0.0000000  0.6508444  3
   2414   2413   2425   2427     1  0.0000000  0.6508444  3
   2415   2413   2425   5058     1  0.0000000  1.0460000  1
   2415   2413   2425   5058     1  0.0000000  0.0000000  3
   2415   2413   2425   2426     1  0.0000000  0.6508444  3
   2415   2413   2425   2427     1  0.0000000  0.6508444  3
   2416   2404   2400   2429     1  0.0000000  0.6508444  3
   2417   2416   2422   5026     1  0.0000000  1.0460000  1
   2417   2416   2422   5026     1  0.0000000  0.0000000  3
   2417   2416   2422   2423     1  0.0000000  0.6508444  3
   2417   2416   2422   2424     1  0.0000000  0.6508444  3
   2418   2416   2422   5026     1  0.0000000  1.0460000  1
   2418   2416   2422   5026     1  0.0000000  0.0000000  3
   2418   2416   2422   2423     1  0.0000000  0.6508444  3
   2418   2416   2422   2424     1  0.0000000  0.6508444  3
   2422   5026   4996   4997     1  0.0000000  1.6038667  3
   2422   5026   4996   4998     1  0.0000000  1.6038667  3
   2423   2422   5026   4996     1  0.0000000  1.6038667  3
   2424   2422   5026   4996     1  0.0000000  1.6038667  3
   2425   5058   5028   5029     1  0.0000000  1.6038667  3
   2425   5058   5028   5030     1  0.0000000  1.6038667  3
   2426   2425   5058   5028     1  0.0000000  1.6038667  3
   2427   2425   5058   5028     1  0.0000000  1.6038667  3
   2430   2431   2443   2444     1  0.0000000  0.6508444  3
   2430   2431   2443   2445     1  0.0000000  0.6508444  3
   2430   2434   2446   2447     1  0.0000000  0.6508444  3
   2430   2434   2446   2448     1  0.0000000  0.6508444  3
   2430   2437   2440   2441     1  0.0000000  0.6508444  3
   2430   2437   2440   2442     1  0.0000000  0.6508444  3
   2431   2430   2434   2435     1  0.0000000  0.6508444  3
   2431   2430   2434   2436     1  0.0000000  0.6508444  3
   2431   2430   2437   2438     1  0.0000000  0.6508444  3
   2431   2430   2437   2439     1  0.0000000  0.6508444  3
   2431   2443   2455   2456     1  0.0000000  0.6508444  3
   2431   2443   2455   2457     1  0.0000000  0.6508444  3
   2432   2431   2430   2434     1  0.0000000  0.6508444  3
   2432   2431   2430   2437     1  0.0000000  0.6508444  3
   2432   2431   2430   2459     1  0.0000000  0.6508444  3
   2432   2431   2443   2455     1  0.0000000  0.6508444  3
   2432   2431   2443   2444     1  0.0000000  0.6508444  3
   2432   2431   2443   2445     1  0.0000000  0.6508444  3
   2433   2431   2430   2434     1  0.0000000  0.6508444  3
   2433   2431   2430   2437     1  0.0000000  0.6508444  3
   2433   2431   2430   2459     1  0.0000000  0.6508444  3
   2433   2431   2443   2455     1  0.0000000  0.6508444  3
   2433   2431   2443   2444     1  0.0000000  0.6508444  3
   2433   2431   2443   2445     1  0.0000000  0.6508444  3
   2434   2430   2437   2438     1  0.0000000  0.6508444  3
   2434   2430   2437   2439     1  0.0000000  0.6508444  3
   2434   2446   2452   2453     1  0.0000000  0.6508444  3
   2434   2446   2452   2454     1  0.0000000  0.6508444  3
   2435   2434   2430   2437     1  0.0000000  0.6508444  3
   2435   2434   2430   2459     1  0.0000000  0.6508444  3
   2435   2434   2446   2452     1  0.0000000  0.6508444  3
   2435   2434   2446   2447     1  0.0000000  0.6508444  3
   2435   2434   2446   2448     1  0.0000000  0.6508444  3
   2436   2434   2430   2437     1  0.0000000  0.6508444  3
   2436   2434   2430   2459     1  0.0000000  0.6508444  3
   2436   2434   2446   2452     1  0.0000000  0.6508444  3
   2436   2434   2446   2447     1  0.0000000  0.6508444  3
   2436   2434   2446   2448     1  0.0000000  0.6508444  3
   2437   2440   2449   2450     1  0.0000000  0.6508444  3
   2437   2440   2449   2451     1  0.0000000  0.6508444  3
   2438   2437   2430   2459     1  0.0000000  0.6508444  3
   2438   2437   2440   2449     1  0.0000000  0.6508444  3
   2438   2437   2440   2441     1  0.0000000  0.6508444  3
   2438   2437   2440   2442     1  0.0000000  0.6508444  3
   2439   2437   2430   2459     1  0.0000000  0.6508444  3
   2439   2437   2440   2449     1  0.0000000  0.6508444  3
   2439   2437   2440   2441     1  0.0000000  0.6508444  3
   2439   2437   2440   2442     1  0.0000000  0.6508444  3
   2440   2437   2430   2459     1  0.0000000  0.6508444  3
   2441   2440   2449   2458     1  0.0000000  1.0460000  1
   2441   2440   2449   2458     1  0.0000000  0.0000000  3
   2441   2440   2449   2450     1  0.0000000  0.6508444  3
   2441   2440   2449   2451     1  0.0000000  0.6508444  3
   2442   2440   2449   2458     1  0.0000000  1.0460000  1
   2442   2440   2449   2458     1  0.0000000  0.0000000  3
   2442   2440   2449   2450     1  0.0000000  0.6508444  3
   2442   2440   2449   2451     1  0.0000000  0.6508444  3
   2443   2431   2430   2459     1  0.0000000  0.6508444  3
   2444   2443   2455   5122     1  0.0000000  1.0460000  1
   2444   2443   2455   5122     1  0.0000000  0.0000000  3
   2444   2443   2455   2456     1  0.0000000  0.6508444  3
   2444   2443   2455   2457     1  0.0000000  0.6508444  3
   2445   2443   2455   5122     1  0.0000000  1.0460000  1
   2445   2443   2455   5122     1  0.0000000  0.0000000  3
   2445   2443   2455   2456     1  0.0000000  0.6508444  3
   2445   2443   2455   2457     1  0.0000000  0.6508444  3
   2446   2434   2430   2459     1  0.0000000  0.6508444  3
   2447   2446   2452   5090     1  0.0000000  1.0460000  1
   2447   2446   2452   5090     1  0.0000000  0.0000000  3
   2447   2446   2452   2453     1  0.0000000  0.6508444  3
   2447   2446   2452   2454     1  0.0000000  0.6508444  3
   2448   2446   2452   5090     1  0.0000000  1.0460000  1
   2448   2446   2452   5090     1  0.0000000  0.0000000  3
   2448   2446   2452   2453     1  0.0000000  0.6508444  3
   2448   2446   2452   2454     1  0.0000000  0.6508444  3
   2452   5090   5060   5061     1  0.0000000  1.6038667  3
   2452   5090   5060   5062     1  0.0000000  1.6038667  3
   2453   2452   5090   5060     1  0.0000000  1.6038667  3
   2454   2452   5090   5060     1  0.0000000  1.6038667  3
   2455   5122   5092   5093     1  0.0000000  1.6038667  3
   2455   5122   5092   5094     1  0.0000000  1.6038667  3
   2456   2455   5122   5092     1  0.0000000  1.6038667  3
   2457   2455   5122   5092     1  0.0000000  1.6038667  3
   2460   2461   2473   2474     1  0.0000000  0.6508444  3
   2460   2461   2473   2475     1  0.0000000  0.6508444  3
   2460   2464   2476   2477     1  0.0000000  0.6508444  3
   2460   2464   2476   2478     1  0.0000000  0.6508444  3
   2460   2467   2470   2471     1  0.0000000  0.6508444  3
   2460   2467   2470   2472     1  0.0000000  0.6508444  3
   2461   2460   2464   2465     1  0.0000000  0.6508444  3
   2461   2460   2464   2466     1  0.0000000  0.6508444  3
   2461   2460   2467   2468     1  0.0000000  0.6508444  3
   2461   2460   2467   2469     1  0.0000000  0.6508444  3
   2461   2473   2485   2486     1  0.0000000  0.6508444  3
   2461   2473   2485   2487     1  0.0000000  0.6508444  3
   2462   2461   2460   2464     1  0.0000000  0.6508444  3
   2462   2461   2460   2467     1  0.0000000  0.6508444  3
   2462   2461   2460   2489     1  0.0000000  0.6508444  3
   2462   2461   2473   2485     1  0.0000000  0.6508444  3
   2462   2461   2473   2474     1  0.0000000  0.6508444  3
   2462   2461   2473   2475     1  0.0000000  0.6508444  3
   2463   2461   2460   2464     1  0.0000000  0.6508444  3
   2463   2461   2460   2467     1  0.0000000  0.6508444  3
   2463   2461   2460   2489     1  0.0000000  0.6508444  3
   2463   2461   2473   2485     1  0.0000000  0.6508444  3
   2463   2461   2473   2474     1  0.0000000  0.6508444  3
   2463   2461   2473   2475     1  0.0000000  0.6508444  3
   2464   2460   2467   2468     1  0.0000000  0.6508444  3
   2464   2460   2467   2469     1  0.0000000  0.6508444  3
   2464   2476   2482   2483     1  0.0000000  0.6508444  3
   2464   2476   2482   2484     1  0.0000000  0.6508444  3
   2465   2464   2460   2467     1  0.0000000  0.6508444  3
   2465   2464   2460   2489     1  0.0000000  0.6508444  3
   2465   2464   2476   2482     1  0.0000000  0.6508444  3
   2465   2464   2476   2477     1  0.0000000  0.6508444  3
   2465   2464   2476   2478     1  0.0000000  0.6508444  3
   2466   2464   2460   2467     1  0.0000000  0.6508444  3
   2466   2464   2460   2489     1  0.0000000  0.6508444  3
   2466   2464   2476   2482     1  0.0000000  0.6508444  3
   2466   2464   2476   2477     1  0.0000000  0.6508444  3
   2466   2464   2476   2478     1  0.0000000  0.6508444  3
   2467   2470   2479   2480     1  0.0000000  0.6508444  3
   2467   2470   2479   2481     1  0.0000000  0.6508444  3
   2468   2467   2460   2489     1  0.0000000  0.6508444  3
   2468   2467   2470   2479     1  0.0000000  0.6508444  3
   2468   2467   2470   2471     1  0.0000000  0.6508444  3
   2468   2467   2470   2472     1  0.0000000  0.6508444  3
   2469   2467   2460   2489     1  0.0000000  0.6508444  3
   2469   2467   2470   2479     1  0.0000000  0.6508444  3
   2469   2467   2470   2471     1  0.0000000  0.6508444  3
   2469   2467   2470   2472     1  0.0000000  0.6508444  3
   2470   2467   2460   2489     1  0.0000000  0.6508444  3
   2471   2470   2479   2488     1  0.0000000  1.0460000  1
   2471   2470   2479   2488     1  0.0000000  0.0000000  3
   2471   2470   2479   2480     1  0.0000000  0.6508444  3
   2471   2470   2479   2481     1  0.0000000  0.6508444  3
   2472   2470   2479   2488     1  0.0000000  1.0460000  1
   2472   2470   2479   2488     1  0.0000000  0.0000000  3
   2472   2470   2479   2480     1  0.0000000  0.6508444  3
   2472   2470   2479   2481     1  0.0000000  0.6508444  3
   2473   2461   2460   2489     1  0.0000000  0.6508444  3
   2474   2473   2485   5186     1  0.0000000  1.0460000  1
   2474   2473   2485   5186     1  0.0000000  0.0000000  3
   2474   2473   2485   2486     1  0.0000000  0.6508444  3
   2474   2473   2485   2487     1  0.0000000  0.6508444  3
   2475   2473   2485   5186     1  0.0000000  1.0460000  1
   2475   2473   2485   5186     1  0.0000000  0.0000000  3
   2475   2473   2485   2486     1  0.0000000  0.6508444  3
   2475   2473   2485   2487     1  0.0000000  0.6508444  3
   2476   2464   2460   2489     1  0.0000000  0.6508444  3
   2477   2476   2482   5154     1  0.0000000  1.0460000  1
   2477   2476   2482   5154     1  0.0000000  0.0000000  3
   2477   2476   2482   2483     1  0.0000000  0.6508444  3
   2477   2476   2482   2484     1  0.0000000  0.6508444  3
   2478   2476   2482   5154     1  0.0000000  1.0460000  1
   2478   2476   2482   5154     1  0.0000000  0.0000000  3
   2478   2476   2482   2483     1  0.0000000  0.6508444  3
   2478   2476   2482   2484     1  0.0000000  0.6508444  3
   2482   5154   5124   5125     1  0.0000000  1.6038667  3
   2482   5154   5124   5126     1  0.0000000  1.6038667  3
   2483   2482   5154   5124     1  0.0000000  1.6038667  3
   2484   2482   5154   5124     1  0.0000000  1.6038667  3
   2485   5186   5156   5157     1  0.0000000  1.6038667  3
   2485   5186   5156   5158     1  0.0000000  1.6038667  3
   2486   2485   5186   5156     1  0.0000000  1.6038667  3
   2487   2485   5186   5156     1  0.0000000  1.6038667  3
   2490   2491   2503   2504     1  0.0000000  0.6508444  3
   2490   2491   2503   2505     1  0.0000000  0.6508444  3
   2490   2494   2506   2507     1  0.0000000  0.6508444  3
   2490   2494   2506   2508     1  0.0000000  0.6508444  3
   2490   2497   2500   2501     1  0.0000000  0.6508444  3
   2490   2497   2500   2502     1  0.0000000  0.6508444  3
   2491   2490   2494   2495     1  0.0000000  0.6508444  3
   2491   2490   2494   2496     1  0.0000000  0.6508444  3
   2491   2490   2497   2498     1  0.0000000  0.6508444  3
   2491   2490   2497   2499     1  0.0000000  0.6508444  3
   2491   2503   2515   2516     1  0.0000000  0.6508444  3
   2491   2503   2515   2517     1  0.0000000  0.6508444  3
   2492   2491   2490   2494     1  0.0000000  0.6508444  3
   2492   2491   2490   2497     1  0.0000000  0.6508444  3
   2492   2491   2490   2519     1  0.0000000  0.6508444  3
   2492   2491   2503   2515     1  0.0000000  0.6508444  3
   2492   2491   2503   2504     1  0.0000000  0.6508444  3
   2492   2491   2503   2505     1  0.0000000  0.6508444  3
   2493   2491   2490   2494     1  0.0000000  0.6508444  3
   2493   2491   2490   2497     1  0.0000000  0.6508444  3
   2493   2491   2490   2519     1  0.0000000  0.6508444  3
   2493   2491   2503   2515     1  0.0000000  0.6508444  3
   2493   2491   2503   2504     1  0.0000000  0.6508444  3
   2493   2491   2503   2505     1  0.0000000  0.6508444  3
   2494   2490   2497   2498     1  0.0000000  0.6508444  3
   2494   2490   2497   2499     1  0.0000000  0.6508444  3
   2494   2506   2512   2513     1  0.0000000  0.6508444  3
   2494   2506   2512   2514     1  0.0000000  0.6508444  3
   2495   2494   2490   2497     1  0.0000000  0.6508444  3
   2495   2494   2490   2519     1  0.0000000  0.6508444  3
   2495   2494   2506   2512     1  0.0000000  0.6508444  3
   2495   2494   2506   2507     1  0.0000000  0.6508444  3
   2495   2494   2506   2508     1  0.0000000  0.6508444  3
   2496   2494   2490   2497     1  0.0000000  0.6508444  3
   2496   2494   2490   2519     1  0.0000000  0.6508444  3
   2496   2494   2506   2512     1  0.0000000  0.6508444  3
   2496   2494   2506   2507     1  0.0000000  0.6508444  3
   2496   2494   2506   2508     1  0.0000000  0.6508444  3
   2497   2500   2509   2510     1  0.0000000  0.6508444  3
   2497   2500   2509   2511     1  0.0000000  0.6508444  3
   2498   2497   2490   2519     1  0.0000000  0.6508444  3
   2498   2497   2500   2509     1  0.0000000  0.6508444  3
   2498   2497   2500   2501     1  0.0000000  0.6508444  3
   2498   2497   2500   2502     1  0.0000000  0.6508444  3
   2499   2497   2490   2519     1  0.0000000  0.6508444  3
   2499   2497   2500   2509     1  0.0000000  0.6508444  3
   2499   2497   2500   2501     1  0.0000000  0.6508444  3
   2499   2497   2500   2502     1  0.0000000  0.6508444  3
   2500   2497   2490   2519     1  0.0000000  0.6508444  3
   2501   2500   2509   2518     1  0.0000000  1.0460000  1
   2501   2500   2509   2518     1  0.0000000  0.0000000  3
   2501   2500   2509   2510     1  0.0000000  0.6508444  3
   2501   2500   2509   2511     1  0.0000000  0.6508444  3
   2502   2500   2509   2518     1  0.0000000  1.0460000  1
   2502   2500   2509   2518     1  0.0000000  0.0000000  3
   2502   2500   2509   2510     1  0.0000000  0.6508444  3
   2502   2500   2509   2511     1  0.0000000  0.6508444  3
   2503   2491   2490   2519     1  0.0000000  0.6508444  3
   2504   2503   2515   5250     1  0.0000000  1.0460000  1
   2504   2503   2515   5250     1  0.0000000  0.0000000  3
   2504   2503   2515   2516     1  0.0000000  0.6508444  3
   2504   2503   2515   2517     1  0.0000000  0.6508444  3
   2505   2503   2515   5250     1  0.0000000  1.0460000  1
   2505   2503   2515   5250     1  0.0000000  0.0000000  3
   2505   2503   2515   2516     1  0.0000000  0.6508444  3
   2505   2503   2515   2517     1  0.0000000  0.6508444  3
   2506   2494   2490   2519     1  0.0000000  0.6508444  3
   2507   2506   2512   5218     1  0.0000000  1.0460000  1
   2507   2506   2512   5218     1  0.0000000  0.0000000  3
   2507   2506   2512   2513     1  0.0000000  0.6508444  3
   2507   2506   2512   2514     1  0.0000000  0.6508444  3
   2508   2506   2512   5218     1  0.0000000  1.0460000  1
   2508   2506   2512   5218     1  0.0000000  0.0000000  3
   2508   2506   2512   2513     1  0.0000000  0.6508444  3
   2508   2506   2512   2514     1  0.0000000  0.6508444  3
   2512   5218   5188   5189     1  0.0000000  1.6038667  3
   2512   5218   5188   5190     1  0.0000000  1.6038667  3
   2513   2512   5218   5188     1  0.0000000  1.6038667  3
   2514   2512   5218   5188     1  0.0000000  1.6038667  3
   2515   5250   5220   5221     1  0.0000000  1.6038667  3
   2515   5250   5220   5222     1  0.0000000  1.6038667  3
   2516   2515   5250   5220     1  0.0000000  1.6038667  3
   2517   2515   5250   5220     1  0.0000000  1.6038667  3
   2520   2521   2533   2534     1  0.0000000  0.6508444  3
   2520   2521   2533   2535     1  0.0000000  0.6508444  3
   2520   2524   2536   2537     1  0.0000000  0.6508444  3
   2520   2524   2536   2538     1  0.0000000  0.6508444  3
   2520   2527   2530   2531     1  0.0000000  0.6508444  3
   2520   2527   2530   2532     1  0.0000000  0.6508444  3
   2521   2520   2524   2525     1  0.0000000  0.6508444  3
   2521   2520   2524   2526     1  0.0000000  0.6508444  3
   2521   2520   2527   2528     1  0.0000000  0.6508444  3
   2521   2520   2527   2529     1  0.0000000  0.6508444  3
   2521   2533   2545   2546     1  0.0000000  0.6508444  3
   2521   2533   2545   2547     1  0.0000000  0.6508444  3
   2522   2521   2520   2524     1  0.0000000  0.6508444  3
   2522   2521   2520   2527     1  0.0000000  0.6508444  3
   2522   2521   2520   2549     1  0.0000000  0.6508444  3
   2522   2521   2533   2545     1  0.0000000  0.6508444  3
   2522   2521   2533   2534     1  0.0000000  0.6508444  3
   2522   2521   2533   2535     1  0.0000000  0.6508444  3
   2523   2521   2520   2524     1  0.0000000  0.6508444  3
   2523   2521   2520   2527     1  0.0000000  0.6508444  3
   2523   2521   2520   2549     1  0.0000000  0.6508444  3
   2523   2521   2533   2545     1  0.0000000  0.6508444  3
   2523   2521   2533   2534     1  0.0000000  0.6508444  3
   2523   2521   2533   2535     1  0.0000000  0.6508444  3
   2524   2520   2527   2528     1  0.0000000  0.6508444  3
   2524   2520   2527   2529     1  0.0000000  0.6508444  3
   2524   2536   2542   2543     1  0.0000000  0.6508444  3
   2524   2536   2542   2544     1  0.0000000  0.6508444  3
   2525   2524   2520   2527     1  0.0000000  0.6508444  3
   2525   2524   2520   2549     1  0.0000000  0.6508444  3
   2525   2524   2536   2542     1  0.0000000  0.6508444  3
   2525   2524   2536   2537     1  0.0000000  0.6508444  3
   2525   2524   2536   2538     1  0.0000000  0.6508444  3
   2526   2524   2520   2527     1  0.0000000  0.6508444  3
   2526   2524   2520   2549     1  0.0000000  0.6508444  3
   2526   2524   2536   2542     1  0.0000000  0.6508444  3
   2526   2524   2536   2537     1  0.0000000  0.6508444  3
   2526   2524   2536   2538     1  0.0000000  0.6508444  3
   2527   2530   2539   2540     1  0.0000000  0.6508444  3
   2527   2530   2539   2541     1  0.0000000  0.6508444  3
   2528   2527   2520   2549     1  0.0000000  0.6508444  3
   2528   2527   2530   2539     1  0.0000000  0.6508444  3
   2528   2527   2530   2531     1  0.0000000  0.6508444  3
   2528   2527   2530   2532     1  0.0000000  0.6508444  3
   2529   2527   2520   2549     1  0.0000000  0.6508444  3
   2529   2527   2530   2539     1  0.0000000  0.6508444  3
   2529   2527   2530   2531     1  0.0000000  0.6508444  3
   2529   2527   2530   2532     1  0.0000000  0.6508444  3
   2530   2527   2520   2549     1  0.0000000  0.6508444  3
   2531   2530   2539   2548     1  0.0000000  1.0460000  1
   2531   2530   2539   2548     1  0.0000000  0.0000000  3
   2531   2530   2539   2540     1  0.0000000  0.6508444  3
   2531   2530   2539   2541     1  0.0000000  0.6508444  3
   2532   2530   2539   2548     1  0.0000000  1.0460000  1
   2532   2530   2539   2548     1  0.0000000  0.0000000  3
   2532   2530   2539   2540     1  0.0000000  0.6508444  3
   2532   2530   2539   2541     1  0.0000000  0.6508444  3
   2533   2521   2520   2549     1  0.0000000  0.6508444  3
   2534   2533   2545   5314     1  0.0000000  1.0460000  1
   2534   2533   2545   5314     1  0.0000000  0.0000000  3
   2534   2533   2545   2546     1  0.0000000  0.6508444  3
   2534   2533   2545   2547     1  0.0000000  0.6508444  3
   2535   2533   2545   5314     1  0.0000000  1.0460000  1
   2535   2533   2545   5314     1  0.0000000  0.0000000  3
   2535   2533   2545   2546     1  0.0000000  0.6508444  3
   2535   2533   2545   2547     1  0.0000000  0.6508444  3
   2536   2524   2520   2549     1  0.0000000  0.6508444  3
   2537   2536   2542   5282     1  0.0000000  1.0460000  1
   2537   2536   2542   5282     1  0.0000000  0.0000000  3
   2537   2536   2542   2543     1  0.0000000  0.6508444  3
   2537   2536   2542   2544     1  0.0000000  0.6508444  3
   2538   2536   2542   5282     1  0.0000000  1.0460000  1
   2538   2536   2542   5282     1  0.0000000  0.0000000  3
   2538   2536   2542   2543     1  0.0000000  0.6508444  3
   2538   2536   2542   2544     1  0.0000000  0.6508444  3
   2542   5282   5252   5253     1  0.0000000  1.6038667  3
   2542   5282   5252   5254     1  0.0000000  1.6038667  3
   2543   2542   5282   5252     1  0.0000000  1.6038667  3
   2544   2542   5282   5252     1  0.0000000  1.6038667  3
   2545   5314   5284   5285     1  0.0000000  1.6038667  3
   2545   5314   5284   5286     1  0.0000000  1.6038667  3
   2546   2545   5314   5284     1  0.0000000  1.6038667  3
   2547   2545   5314   5284     1  0.0000000  1.6038667  3
   2550   2551   2563   2564     1  0.0000000  0.6508444  3
   2550   2551   2563   2565     1  0.0000000  0.6508444  3
   2550   2554   2566   2567     1  0.0000000  0.6508444  3
   2550   2554   2566   2568     1  0.0000000  0.6508444  3
   2550   2557   2560   2561     1  0.0000000  0.6508444  3
   2550   2557   2560   2562     1  0.0000000  0.6508444  3
   2551   2550   2554   2555     1  0.0000000  0.6508444  3
   2551   2550   2554   2556     1  0.0000000  0.6508444  3
   2551   2550   2557   2558     1  0.0000000  0.6508444  3
   2551   2550   2557   2559     1  0.0000000  0.6508444  3
   2551   2563   2575   2576     1  0.0000000  0.6508444  3
   2551   2563   2575   2577     1  0.0000000  0.6508444  3
   2552   2551   2550   2554     1  0.0000000  0.6508444  3
   2552   2551   2550   2557     1  0.0000000  0.6508444  3
   2552   2551   2550   2579     1  0.0000000  0.6508444  3
   2552   2551   2563   2575     1  0.0000000  0.6508444  3
   2552   2551   2563   2564     1  0.0000000  0.6508444  3
   2552   2551   2563   2565     1  0.0000000  0.6508444  3
   2553   2551   2550   2554     1  0.0000000  0.6508444  3
   2553   2551   2550   2557     1  0.0000000  0.6508444  3
   2553   2551   2550   2579     1  0.0000000  0.6508444  3
   2553   2551   2563   2575     1  0.0000000  0.6508444  3
   2553   2551   2563   2564     1  0.0000000  0.6508444  3
   2553   2551   2563   2565     1  0.0000000  0.6508444  3
   2554   2550   2557   2558     1  0.0000000  0.6508444  3
   2554   2550   2557   2559     1  0.0000000  0.6508444  3
   2554   2566   2572   2573     1  0.0000000  0.6508444  3
   2554   2566   2572   2574     1  0.0000000  0.6508444  3
   2555   2554   2550   2557     1  0.0000000  0.6508444  3
   2555   2554   2550   2579     1  0.0000000  0.6508444  3
   2555   2554   2566   2572     1  0.0000000  0.6508444  3
   2555   2554   2566   2567     1  0.0000000  0.6508444  3
   2555   2554   2566   2568     1  0.0000000  0.6508444  3
   2556   2554   2550   2557     1  0.0000000  0.6508444  3
   2556   2554   2550   2579     1  0.0000000  0.6508444  3
   2556   2554   2566   2572     1  0.0000000  0.6508444  3
   2556   2554   2566   2567     1  0.0000000  0.6508444  3
   2556   2554   2566   2568     1  0.0000000  0.6508444  3
   2557   2560   2569   2570     1  0.0000000  0.6508444  3
   2557   2560   2569   2571     1  0.0000000  0.6508444  3
   2558   2557   2550   2579     1  0.0000000  0.6508444  3
   2558   2557   2560   2569     1  0.0000000  0.6508444  3
   2558   2557   2560   2561     1  0.0000000  0.6508444  3
   2558   2557   2560   2562     1  0.0000000  0.6508444  3
   2559   2557   2550   2579     1  0.0000000  0.6508444  3
   2559   2557   2560   2569     1  0.0000000  0.6508444  3
   2559   2557   2560   2561     1  0.0000000  0.6508444  3
   2559   2557   2560   2562     1  0.0000000  0.6508444  3
   2560   2557   2550   2579     1  0.0000000  0.6508444  3
   2561   2560   2569   2578     1  0.0000000  1.0460000  1
   2561   2560   2569   2578     1  0.0000000  0.0000000  3
   2561   2560   2569   2570     1  0.0000000  0.6508444  3
   2561   2560   2569   2571     1  0.0000000  0.6508444  3
   2562   2560   2569   2578     1  0.0000000  1.0460000  1
   2562   2560   2569   2578     1  0.0000000  0.0000000  3
   2562   2560   2569   2570     1  0.0000000  0.6508444  3
   2562   2560   2569   2571     1  0.0000000  0.6508444  3
   2563   2551   2550   2579     1  0.0000000  0.6508444  3
   2564   2563   2575   5378     1  0.0000000  1.0460000  1
   2564   2563   2575   5378     1  0.0000000  0.0000000  3
   2564   2563   2575   2576     1  0.0000000  0.6508444  3
   2564   2563   2575   2577     1  0.0000000  0.6508444  3
   2565   2563   2575   5378     1  0.0000000  1.0460000  1
   2565   2563   2575   5378     1  0.0000000  0.0000000  3
   2565   2563   2575   2576     1  0.0000000  0.6508444  3
   2565   2563   2575   2577     1  0.0000000  0.6508444  3
   2566   2554   2550   2579     1  0.0000000  0.6508444  3
   2567   2566   2572   5346     1  0.0000000  1.0460000  1
   2567   2566   2572   5346     1  0.0000000  0.0000000  3
   2567   2566   2572   2573     1  0.0000000  0.6508444  3
   2567   2566   2572   2574     1  0.0000000  0.6508444  3
   2568   2566   2572   5346     1  0.0000000  1.0460000  1
   2568   2566   2572   5346     1  0.0000000  0.0000000  3
   2568   2566   2572   2573     1  0.0000000  0.6508444  3
   2568   2566   2572   2574     1  0.0000000  0.6508444  3
   2572   5346   5316   5317     1  0.0000000  1.6038667  3
   2572   5346   5316   5318     1  0.0000000  1.6038667  3
   2573   2572   5346   5316     1  0.0000000  1.6038667  3
   2574   2572   5346   5316     1  0.0000000  1.6038667  3
   2575   5378   5348   5349     1  0.0000000  1.6038667  3
   2575   5378   5348   5350     1  0.0000000  1.6038667  3
   2576   2575   5378   5348     1  0.0000000  1.6038667  3
   2577   2575   5378   5348     1  0.0000000  1.6038667  3
   2580   2581   2593   2594     1  0.0000000  0.6508444  3
   2580   2581   2593   2595     1  0.0000000  0.6508444  3
   2580   2584   2596   2597     1  0.0000000  0.6508444  3
   2580   2584   2596   2598     1  0.0000000  0.6508444  3
   2580   2587   2590   2591     1  0.0000000  0.6508444  3
   2580   2587   2590   2592     1  0.0000000  0.6508444  3
   2581   2580   2584   2585     1  0.0000000  0.6508444  3
   2581   2580   2584   2586     1  0.0000000  0.6508444  3
   2581   2580   2587   2588     1  0.0000000  0.6508444  3
   2581   2580   2587   2589     1  0.0000000  0.6508444  3
   2581   2593   2605   2606     1  0.0000000  0.6508444  3
   2581   2593   2605   2607     1  0.0000000  0.6508444  3
   2582   2581   2580   2584     1  0.0000000  0.6508444  3
   2582   2581   2580   2587     1  0.0000000  0.6508444  3
   2582   2581   2580   2609     1  0.0000000  0.6508444  3
   2582   2581   2593   2605     1  0.0000000  0.6508444  3
   2582   2581   2593   2594     1  0.0000000  0.6508444  3
   2582   2581   2593   2595     1  0.0000000  0.6508444  3
   2583   2581   2580   2584     1  0.0000000  0.6508444  3
   2583   2581   2580   2587     1  0.0000000  0.6508444  3
   2583   2581   2580   2609     1  0.0000000  0.6508444  3
   2583   2581   2593   2605     1  0.0000000  0.6508444  3
   2583   2581   2593   2594     1  0.0000000  0.6508444  3
   2583   2581   2593   2595     1  0.0000000  0.6508444  3
   2584   2580   2587   2588     1  0.0000000  0.6508444  3
   2584   2580   2587   2589     1  0.0000000  0.6508444  3
   2584   2596   2602   2603     1  0.0000000  0.6508444  3
   2584   2596   2602   2604     1  0.0000000  0.6508444  3
   2585   2584   2580   2587     1  0.0000000  0.6508444  3
   2585   2584   2580   2609     1  0.0000000  0.6508444  3
   2585   2584   2596   2602     1  0.0000000  0.6508444  3
   2585   2584   2596   2597     1  0.0000000  0.6508444  3
   2585   2584   2596   2598     1  0.0000000  0.6508444  3
   2586   2584   2580   2587     1  0.0000000  0.6508444  3
   2586   2584   2580   2609     1  0.0000000  0.6508444  3
   2586   2584   2596   2602     1  0.0000000  0.6508444  3
   2586   2584   2596   2597     1  0.0000000  0.6508444  3
   2586   2584   2596   2598     1  0.0000000  0.6508444  3
   2587   2590   2599   2600     1  0.0000000  0.6508444  3
   2587   2590   2599   2601     1  0.0000000  0.6508444  3
   2588   2587   2580   2609     1  0.0000000  0.6508444  3
   2588   2587   2590   2599     1  0.0000000  0.6508444  3
   2588   2587   2590   2591     1  0.0000000  0.6508444  3
   2588   2587   2590   2592     1  0.0000000  0.6508444  3
   2589   2587   2580   2609     1  0.0000000  0.6508444  3
   2589   2587   2590   2599     1  0.0000000  0.6508444  3
   2589   2587   2590   2591     1  0.0000000  0.6508444  3
   2589   2587   2590   2592     1  0.0000000  0.6508444  3
   2590   2587   2580   2609     1  0.0000000  0.6508444  3
   2591   2590   2599   2608     1  0.0000000  1.0460000  1
   2591   2590   2599   2608     1  0.0000000  0.0000000  3
   2591   2590   2599   2600     1  0.0000000  0.6508444  3
   2591   2590   2599   2601     1  0.0000000  0.6508444  3
   2592   2590   2599   2608     1  0.0000000  1.0460000  1
   2592   2590   2599   2608     1  0.0000000  0.0000000  3
   2592   2590   2599   2600     1  0.0000000  0.6508444  3
   2592   2590   2599   2601     1  0.0000000  0.6508444  3
   2593   2581   2580   2609     1  0.0000000  0.6508444  3
   2594   2593   2605   5442     1  0.0000000  1.0460000  1
   2594   2593   2605   5442     1  0.0000000  0.0000000  3
   2594   2593   2605   2606     1  0.0000000  0.6508444  3
   2594   2593   2605   2607     1  0.0000000  0.6508444  3
   2595   2593   2605   5442     1  0.0000000  1.0460000  1
   2595   2593   2605   5442     1  0.0000000  0.0000000  3
   2595   2593   2605   2606     1  0.0000000  0.6508444  3
   2595   2593   2605   2607     1  0.0000000  0.6508444  3
   2596   2584   2580   2609     1  0.0000000  0.6508444  3
   2597   2596   2602   5410     1  0.0000000  1.0460000  1
   2597   2596   2602   5410     1  0.0000000  0.0000000  3
   2597   2596   2602   2603     1  0.0000000  0.6508444  3
   2597   2596   2602   2604     1  0.0000000  0.6508444  3
   2598   2596   2602   5410     1  0.0000000  1.0460000  1
   2598   2596   2602   5410     1  0.0000000  0.0000000  3
   2598   2596   2602   2603     1  0.0000000  0.6508444  3
   2598   2596   2602   2604     1  0.0000000  0.6508444  3
   2602   5410   5380   5381     1  0.0000000  1.6038667  3
   2602   5410   5380   5382     1  0.0000000  1.6038667  3
   2603   2602   5410   5380     1  0.0000000  1.6038667  3
   2604   2602   5410   5380     1  0.0000000  1.6038667  3
   2605   5442   5412   5413     1  0.0000000  1.6038667  3
   2605   5442   5412   5414     1  0.0000000  1.6038667  3
   2606   2605   5442   5412     1  0.0000000  1.6038667  3
   2607   2605   5442   5412     1  0.0000000  1.6038667  3
   2610   2611   2623   2624     1  0.0000000  0.6508444  3
   2610   2611   2623   2625     1  0.0000000  0.6508444  3
   2610   2614   2626   2627     1  0.0000000  0.6508444  3
   2610   2614   2626   2628     1  0.0000000  0.6508444  3
   2610   2617   2620   2621     1  0.0000000  0.6508444  3
   2610   2617   2620   2622     1  0.0000000  0.6508444  3
   2611   2610   2614   2615     1  0.0000000  0.6508444  3
   2611   2610   2614   2616     1  0.0000000  0.6508444  3
   2611   2610   2617   2618     1  0.0000000  0.6508444  3
   2611   2610   2617   2619     1  0.0000000  0.6508444  3
   2611   2623   2635   2636     1  0.0000000  0.6508444  3
   2611   2623   2635   2637     1  0.0000000  0.6508444  3
   2612   2611   2610   2614     1  0.0000000  0.6508444  3
   2612   2611   2610   2617     1  0.0000000  0.6508444  3
   2612   2611   2610   2639     1  0.0000000  0.6508444  3
   2612   2611   2623   2635     1  0.0000000  0.6508444  3
   2612   2611   2623   2624     1  0.0000000  0.6508444  3
   2612   2611   2623   2625     1  0.0000000  0.6508444  3
   2613   2611   2610   2614     1  0.0000000  0.6508444  3
   2613   2611   2610   2617     1  0.0000000  0.6508444  3
   2613   2611   2610   2639     1  0.0000000  0.6508444  3
   2613   2611   2623   2635     1  0.0000000  0.6508444  3
   2613   2611   2623   2624     1  0.0000000  0.6508444  3
   2613   2611   2623   2625     1  0.0000000  0.6508444  3
   2614   2610   2617   2618     1  0.0000000  0.6508444  3
   2614   2610   2617   2619     1  0.0000000  0.6508444  3
   2614   2626   2632   2633     1  0.0000000  0.6508444  3
   2614   2626   2632   2634     1  0.0000000  0.6508444  3
   2615   2614   2610   2617     1  0.0000000  0.6508444  3
   2615   2614   2610   2639     1  0.0000000  0.6508444  3
   2615   2614   2626   2632     1  0.0000000  0.6508444  3
   2615   2614   2626   2627     1  0.0000000  0.6508444  3
   2615   2614   2626   2628     1  0.0000000  0.6508444  3
   2616   2614   2610   2617     1  0.0000000  0.6508444  3
   2616   2614   2610   2639     1  0.0000000  0.6508444  3
   2616   2614   2626   2632     1  0.0000000  0.6508444  3
   2616   2614   2626   2627     1  0.0000000  0.6508444  3
   2616   2614   2626   2628     1  0.0000000  0.6508444  3
   2617   2620   2629   2630     1  0.0000000  0.6508444  3
   2617   2620   2629   2631     1  0.0000000  0.6508444  3
   2618   2617   2610   2639     1  0.0000000  0.6508444  3
   2618   2617   2620   2629     1  0.0000000  0.6508444  3
   2618   2617   2620   2621     1  0.0000000  0.6508444  3
   2618   2617   2620   2622     1  0.0000000  0.6508444  3
   2619   2617   2610   2639     1  0.0000000  0.6508444  3
   2619   2617   2620   2629     1  0.0000000  0.6508444  3
   2619   2617   2620   2621     1  0.0000000  0.6508444  3
   2619   2617   2620   2622     1  0.0000000  0.6508444  3
   2620   2617   2610   2639     1  0.0000000  0.6508444  3
   2621   2620   2629   2638     1  0.0000000  1.0460000  1
   2621   2620   2629   2638     1  0.0000000  0.0000000  3
   2621   2620   2629   2630     1  0.0000000  0.6508444  3
   2621   2620   2629   2631     1  0.0000000  0.6508444  3
   2622   2620   2629   2638     1  0.0000000  1.0460000  1
   2622   2620   2629   2638     1  0.0000000  0.0000000  3
   2622   2620   2629   2630     1  0.0000000  0.6508444  3
   2622   2620   2629   2631     1  0.0000000  0.6508444  3
   2623   2611   2610   2639     1  0.0000000  0.6508444  3
   2624   2623   2635   5506     1  0.0000000  1.0460000  1
   2624   2623   2635   5506     1  0.0000000  0.0000000  3
   2624   2623   2635   2636     1  0.0000000  0.6508444  3
   2624   2623   2635   2637     1  0.0000000  0.6508444  3
   2625   2623   2635   5506     1  0.0000000  1.0460000  1
   2625   2623   2635   5506     1  0.0000000  0.0000000  3
   2625   2623   2635   2636     1  0.0000000  0.6508444  3
   2625   2623   2635   2637     1  0.0000000  0.6508444  3
   2626   2614   2610   2639     1  0.0000000  0.6508444  3
   2627   2626   2632   5474     1  0.0000000  1.0460000  1
   2627   2626   2632   5474     1  0.0000000  0.0000000  3
   2627   2626   2632   2633     1  0.0000000  0.6508444  3
   2627   2626   2632   2634     1  0.0000000  0.6508444  3
   2628   2626   2632   5474     1  0.0000000  1.0460000  1
   2628   2626   2632   5474     1  0.0000000  0.0000000  3
   2628   2626   2632   2633     1  0.0000000  0.6508444  3
   2628   2626   2632   2634     1  0.0000000  0.6508444  3
   2632   5474   5444   5445     1  0.0000000  1.6038667  3
   2632   5474   5444   5446     1  0.0000000  1.6038667  3
   2633   2632   5474   5444     1  0.0000000  1.6038667  3
   2634   2632   5474   5444     1  0.0000000  1.6038667  3
   2635   5506   5476   5477     1  0.0000000  1.6038667  3
   2635   5506   5476   5478     1  0.0000000  1.6038667  3
   2636   2635   5506   5476     1  0.0000000  1.6038667  3
   2637   2635   5506   5476     1  0.0000000  1.6038667  3
   2640   2641   2653   2654     1  0.0000000  0.6508444  3
   2640   2641   2653   2655     1  0.0000000  0.6508444  3
   2640   2644   2656   2657     1  0.0000000  0.6508444  3
   2640   2644   2656   2658     1  0.0000000  0.6508444  3
   2640   2647   2650   2651     1  0.0000000  0.6508444  3
   2640   2647   2650   2652     1  0.0000000  0.6508444  3
   2641   2640   2644   2645     1  0.0000000  0.6508444  3
   2641   2640   2644   2646     1  0.0000000  0.6508444  3
   2641   2640   2647   2648     1  0.0000000  0.6508444  3
   2641   2640   2647   2649     1  0.0000000  0.6508444  3
   2641   2653   2665   2666     1  0.0000000  0.6508444  3
   2641   2653   2665   2667     1  0.0000000  0.6508444  3
   2642   2641   2640   2644     1  0.0000000  0.6508444  3
   2642   2641   2640   2647     1  0.0000000  0.6508444  3
   2642   2641   2640   2669     1  0.0000000  0.6508444  3
   2642   2641   2653   2665     1  0.0000000  0.6508444  3
   2642   2641   2653   2654     1  0.0000000  0.6508444  3
   2642   2641   2653   2655     1  0.0000000  0.6508444  3
   2643   2641   2640   2644     1  0.0000000  0.6508444  3
   2643   2641   2640   2647     1  0.0000000  0.6508444  3
   2643   2641   2640   2669     1  0.0000000  0.6508444  3
   2643   2641   2653   2665     1  0.0000000  0.6508444  3
   2643   2641   2653   2654     1  0.0000000  0.6508444  3
   2643   2641   2653   2655     1  0.0000000  0.6508444  3
   2644   2640   2647   2648     1  0.0000000  0.6508444  3
   2644   2640   2647   2649     1  0.0000000  0.6508444  3
   2644   2656   2662   2663     1  0.0000000  0.6508444  3
   2644   2656   2662   2664     1  0.0000000  0.6508444  3
   2645   2644   2640   2647     1  0.0000000  0.6508444  3
   2645   2644   2640   2669     1  0.0000000  0.6508444  3
   2645   2644   2656   2662     1  0.0000000  0.6508444  3
   2645   2644   2656   2657     1  0.0000000  0.6508444  3
   2645   2644   2656   2658     1  0.0000000  0.6508444  3
   2646   2644   2640   2647     1  0.0000000  0.6508444  3
   2646   2644   2640   2669     1  0.0000000  0.6508444  3
   2646   2644   2656   2662     1  0.0000000  0.6508444  3
   2646   2644   2656   2657     1  0.0000000  0.6508444  3
   2646   2644   2656   2658     1  0.0000000  0.6508444  3
   2647   2650   2659   2660     1  0.0000000  0.6508444  3
   2647   2650   2659   2661     1  0.0000000  0.6508444  3
   2648   2647   2640   2669     1  0.0000000  0.6508444  3
   2648   2647   2650   2659     1  0.0000000  0.6508444  3
   2648   2647   2650   2651     1  0.0000000  0.6508444  3
   2648   2647   2650   2652     1  0.0000000  0.6508444  3
   2649   2647   2640   2669     1  0.0000000  0.6508444  3
   2649   2647   2650   2659     1  0.0000000  0.6508444  3
   2649   2647   2650   2651     1  0.0000000  0.6508444  3
   2649   2647   2650   2652     1  0.0000000  0.6508444  3
   2650   2647   2640   2669     1  0.0000000  0.6508444  3
   2651   2650   2659   2668     1  0.0000000  1.0460000  1
   2651   2650   2659   2668     1  0.0000000  0.0000000  3
   2651   2650   2659   2660     1  0.0000000  0.6508444  3
   2651   2650   2659   2661     1  0.0000000  0.6508444  3
   2652   2650   2659   2668     1  0.0000000  1.0460000  1
   2652   2650   2659   2668     1  0.0000000  0.0000000  3
   2652   2650   2659   2660     1  0.0000000  0.6508444  3
   2652   2650   2659   2661     1  0.0000000  0.6508444  3
   2653   2641   2640   2669     1  0.0000000  0.6508444  3
   2654   2653   2665   5570     1  0.0000000  1.0460000  1
   2654   2653   2665   5570     1  0.0000000  0.0000000  3
   2654   2653   2665   2666     1  0.0000000  0.6508444  3
   2654   2653   2665   2667     1  0.0000000  0.6508444  3
   2655   2653   2665   5570     1  0.0000000  1.0460000  1
   2655   2653   2665   5570     1  0.0000000  0.0000000  3
   2655   2653   2665   2666     1  0.0000000  0.6508444  3
   2655   2653   2665   2667     1  0.0000000  0.6508444  3
   2656   2644   2640   2669     1  0.0000000  0.6508444  3
   2657   2656   2662   5538     1  0.0000000  1.0460000  1
   2657   2656   2662   5538     1  0.0000000  0.0000000  3
   2657   2656   2662   2663     1  0.0000000  0.6508444  3
   2657   2656   2662   2664     1  0.0000000  0.6508444  3
   2658   2656   2662   5538     1  0.0000000  1.0460000  1
   2658   2656   2662   5538     1  0.0000000  0.0000000  3
   2658   2656   2662   2663     1  0.0000000  0.6508444  3
   2658   2656   2662   2664     1  0.0000000  0.6508444  3
   2662   5538   5508   5509     1  0.0000000  1.6038667  3
   2662   5538   5508   5510     1  0.0000000  1.6038667  3
   2663   2662   5538   5508     1  0.0000000  1.6038667  3
   2664   2662   5538   5508     1  0.0000000  1.6038667  3
   2665   5570   5540   5541     1  0.0000000  1.6038667  3
   2665   5570   5540   5542     1  0.0000000  1.6038667  3
   2666   2665   5570   5540     1  0.0000000  1.6038667  3
   2667   2665   5570   5540     1  0.0000000  1.6038667  3
   2670   2671   2683   2684     1  0.0000000  0.6508444  3
   2670   2671   2683   2685     1  0.0000000  0.6508444  3
   2670   2674   2686   2687     1  0.0000000  0.6508444  3
   2670   2674   2686   2688     1  0.0000000  0.6508444  3
   2670   2677   2680   2681     1  0.0000000  0.6508444  3
   2670   2677   2680   2682     1  0.0000000  0.6508444  3
   2671   2670   2674   2675     1  0.0000000  0.6508444  3
   2671   2670   2674   2676     1  0.0000000  0.6508444  3
   2671   2670   2677   2678     1  0.0000000  0.6508444  3
   2671   2670   2677   2679     1  0.0000000  0.6508444  3
   2671   2683   2695   2696     1  0.0000000  0.6508444  3
   2671   2683   2695   2697     1  0.0000000  0.6508444  3
   2672   2671   2670   2674     1  0.0000000  0.6508444  3
   2672   2671   2670   2677     1  0.0000000  0.6508444  3
   2672   2671   2670   2699     1  0.0000000  0.6508444  3
   2672   2671   2683   2695     1  0.0000000  0.6508444  3
   2672   2671   2683   2684     1  0.0000000  0.6508444  3
   2672   2671   2683   2685     1  0.0000000  0.6508444  3
   2673   2671   2670   2674     1  0.0000000  0.6508444  3
   2673   2671   2670   2677     1  0.0000000  0.6508444  3
   2673   2671   2670   2699     1  0.0000000  0.6508444  3
   2673   2671   2683   2695     1  0.0000000  0.6508444  3
   2673   2671   2683   2684     1  0.0000000  0.6508444  3
   2673   2671   2683   2685     1  0.0000000  0.6508444  3
   2674   2670   2677   2678     1  0.0000000  0.6508444  3
   2674   2670   2677   2679     1  0.0000000  0.6508444  3
   2674   2686   2692   2693     1  0.0000000  0.6508444  3
   2674   2686   2692   2694     1  0.0000000  0.6508444  3
   2675   2674   2670   2677     1  0.0000000  0.6508444  3
   2675   2674   2670   2699     1  0.0000000  0.6508444  3
   2675   2674   2686   2692     1  0.0000000  0.6508444  3
   2675   2674   2686   2687     1  0.0000000  0.6508444  3
   2675   2674   2686   2688     1  0.0000000  0.6508444  3
   2676   2674   2670   2677     1  0.0000000  0.6508444  3
   2676   2674   2670   2699     1  0.0000000  0.6508444  3
   2676   2674   2686   2692     1  0.0000000  0.6508444  3
   2676   2674   2686   2687     1  0.0000000  0.6508444  3
   2676   2674   2686   2688     1  0.0000000  0.6508444  3
   2677   2680   2689   2690     1  0.0000000  0.6508444  3
   2677   2680   2689   2691     1  0.0000000  0.6508444  3
   2678   2677   2670   2699     1  0.0000000  0.6508444  3
   2678   2677   2680   2689     1  0.0000000  0.6508444  3
   2678   2677   2680   2681     1  0.0000000  0.6508444  3
   2678   2677   2680   2682     1  0.0000000  0.6508444  3
   2679   2677   2670   2699     1  0.0000000  0.6508444  3
   2679   2677   2680   2689     1  0.0000000  0.6508444  3
   2679   2677   2680   2681     1  0.0000000  0.6508444  3
   2679   2677   2680   2682     1  0.0000000  0.6508444  3
   2680   2677   2670   2699     1  0.0000000  0.6508444  3
   2681   2680   2689   2698     1  0.0000000  1.0460000  1
   2681   2680   2689   2698     1  0.0000000  0.0000000  3
   2681   2680   2689   2690     1  0.0000000  0.6508444  3
   2681   2680   2689   2691     1  0.0000000  0.6508444  3
   2682   2680   2689   2698     1  0.0000000  1.0460000  1
   2682   2680   2689   2698     1  0.0000000  0.0000000  3
   2682   2680   2689   2690     1  0.0000000  0.6508444  3
   2682   2680   2689   2691     1  0.0000000  0.6508444  3
   2683   2671   2670   2699     1  0.0000000  0.6508444  3
   2684   2683   2695   5634     1  0.0000000  1.0460000  1
   2684   2683   2695   5634     1  0.0000000  0.0000000  3
   2684   2683   2695   2696     1  0.0000000  0.6508444  3
   2684   2683   2695   2697     1  0.0000000  0.6508444  3
   2685   2683   2695   5634     1  0.0000000  1.0460000  1
   2685   2683   2695   5634     1  0.0000000  0.0000000  3
   2685   2683   2695   2696     1  0.0000000  0.6508444  3
   2685   2683   2695   2697     1  0.0000000  0.6508444  3
   2686   2674   2670   2699     1  0.0000000  0.6508444  3
   2687   2686   2692   5602     1  0.0000000  1.0460000  1
   2687   2686   2692   5602     1  0.0000000  0.0000000  3
   2687   2686   2692   2693     1  0.0000000  0.6508444  3
   2687   2686   2692   2694     1  0.0000000  0.6508444  3
   2688   2686   2692   5602     1  0.0000000  1.0460000  1
   2688   2686   2692   5602     1  0.0000000  0.0000000  3
   2688   2686   2692   2693     1  0.0000000  0.6508444  3
   2688   2686   2692   2694     1  0.0000000  0.6508444  3
   2692   5602   5572   5573     1  0.0000000  1.6038667  3
   2692   5602   5572   5574     1  0.0000000  1.6038667  3
   2693   2692   5602   5572     1  0.0000000  1.6038667  3
   2694   2692   5602   5572     1  0.0000000  1.6038667  3
   2695   5634   5604   5605     1  0.0000000  1.6038667  3
   2695   5634   5604   5606     1  0.0000000  1.6038667  3
   2696   2695   5634   5604     1  0.0000000  1.6038667  3
   2697   2695   5634   5604     1  0.0000000  1.6038667  3
   2700   2701   2713   2714     1  0.0000000  0.6508444  3
   2700   2701   2713   2715     1  0.0000000  0.6508444  3
   2700   2704   2716   2717     1  0.0000000  0.6508444  3
   2700   2704   2716   2718     1  0.0000000  0.6508444  3
   2700   2707   2710   2711     1  0.0000000  0.6508444  3
   2700   2707   2710   2712     1  0.0000000  0.6508444  3
   2701   2700   2704   2705     1  0.0000000  0.6508444  3
   2701   2700   2704   2706     1  0.0000000  0.6508444  3
   2701   2700   2707   2708     1  0.0000000  0.6508444  3
   2701   2700   2707   2709     1  0.0000000  0.6508444  3
   2701   2713   2725   2726     1  0.0000000  0.6508444  3
   2701   2713   2725   2727     1  0.0000000  0.6508444  3
   2702   2701   2700   2704     1  0.0000000  0.6508444  3
   2702   2701   2700   2707     1  0.0000000  0.6508444  3
   2702   2701   2700   2729     1  0.0000000  0.6508444  3
   2702   2701   2713   2725     1  0.0000000  0.6508444  3
   2702   2701   2713   2714     1  0.0000000  0.6508444  3
   2702   2701   2713   2715     1  0.0000000  0.6508444  3
   2703   2701   2700   2704     1  0.0000000  0.6508444  3
   2703   2701   2700   2707     1  0.0000000  0.6508444  3
   2703   2701   2700   2729     1  0.0000000  0.6508444  3
   2703   2701   2713   2725     1  0.0000000  0.6508444  3
   2703   2701   2713   2714     1  0.0000000  0.6508444  3
   2703   2701   2713   2715     1  0.0000000  0.6508444  3
   2704   2700   2707   2708     1  0.0000000  0.6508444  3
   2704   2700   2707   2709     1  0.0000000  0.6508444  3
   2704   2716   2722   2723     1  0.0000000  0.6508444  3
   2704   2716   2722   2724     1  0.0000000  0.6508444  3
   2705   2704   2700   2707     1  0.0000000  0.6508444  3
   2705   2704   2700   2729     1  0.0000000  0.6508444  3
   2705   2704   2716   2722     1  0.0000000  0.6508444  3
   2705   2704   2716   2717     1  0.0000000  0.6508444  3
   2705   2704   2716   2718     1  0.0000000  0.6508444  3
   2706   2704   2700   2707     1  0.0000000  0.6508444  3
   2706   2704   2700   2729     1  0.0000000  0.6508444  3
   2706   2704   2716   2722     1  0.0000000  0.6508444  3
   2706   2704   2716   2717     1  0.0000000  0.6508444  3
   2706   2704   2716   2718     1  0.0000000  0.6508444  3
   2707   2710   2719   2720     1  0.0000000  0.6508444  3
   2707   2710   2719   2721     1  0.0000000  0.6508444  3
   2708   2707   2700   2729     1  0.0000000  0.6508444  3
   2708   2707   2710   2719     1  0.0000000  0.6508444  3
   2708   2707   2710   2711     1  0.0000000  0.6508444  3
   2708   2707   2710   2712     1  0.0000000  0.6508444  3
   2709   2707   2700   2729     1  0.0000000  0.6508444  3
   2709   2707   2710   2719     1  0.0000000  0.6508444  3
   2709   2707   2710   2711     1  0.0000000  0.6508444  3
   2709   2707   2710   2712     1  0.0000000  0.6508444  3
   2710   2707   2700   2729     1  0.0000000  0.6508444  3
   2711   2710   2719   2728     1  0.0000000  1.0460000  1
   2711   2710   2719   2728     1  0.0000000  0.0000000  3
   2711   2710   2719   2720     1  0.0000000  0.6508444  3
   2711   2710   2719   2721     1  0.0000000  0.6508444  3
   2712   2710   2719   2728     1  0.0000000  1.0460000  1
   2712   2710   2719   2728     1  0.0000000  0.0000000  3
   2712   2710   2719   2720     1  0.0000000  0.6508444  3
   2712   2710   2719   2721     1  0.0000000  0.6508444  3
   2713   2701   2700   2729     1  0.0000000  0.6508444  3
   2714   2713   2725   5698     1  0.0000000  1.0460000  1
   2714   2713   2725   5698     1  0.0000000  0.0000000  3
   2714   2713   2725   2726     1  0.0000000  0.6508444  3
   2714   2713   2725   2727     1  0.0000000  0.6508444  3
   2715   2713   2725   5698     1  0.0000000  1.0460000  1
   2715   2713   2725   5698     1  0.0000000  0.0000000  3
   2715   2713   2725   2726     1  0.0000000  0.6508444  3
   2715   2713   2725   2727     1  0.0000000  0.6508444  3
   2716   2704   2700   2729     1  0.0000000  0.6508444  3
   2717   2716   2722   5666     1  0.0000000  1.0460000  1
   2717   2716   2722   5666     1  0.0000000  0.0000000  3
   2717   2716   2722   2723     1  0.0000000  0.6508444  3
   2717   2716   2722   2724     1  0.0000000  0.6508444  3
   2718   2716   2722   5666     1  0.0000000  1.0460000  1
   2718   2716   2722   5666     1  0.0000000  0.0000000  3
   2718   2716   2722   2723     1  0.0000000  0.6508444  3
   2718   2716   2722   2724     1  0.0000000  0.6508444  3
   2722   5666   5636   5637     1  0.0000000  1.6038667  3
   2722   5666   5636   5638     1  0.0000000  1.6038667  3
   2723   2722   5666   5636     1  0.0000000  1.6038667  3
   2724   2722   5666   5636     1  0.0000000  1.6038667  3
   2725   5698   5668   5669     1  0.0000000  1.6038667  3
   2725   5698   5668   5670     1  0.0000000  1.6038667  3
   2726   2725   5698   5668     1  0.0000000  1.6038667  3
   2727   2725   5698   5668     1  0.0000000  1.6038667  3
   2730   2731   2743   2744     1  0.0000000  0.6508444  3
   2730   2731   2743   2745     1  0.0000000  0.6508444  3
   2730   2734   2746   2747     1  0.0000000  0.6508444  3
   2730   2734   2746   2748     1  0.0000000  0.6508444  3
   2730   2737   2740   2741     1  0.0000000  0.6508444  3
   2730   2737   2740   2742     1  0.0000000  0.6508444  3
   2731   2730   2734   2735     1  0.0000000  0.6508444  3
   2731   2730   2734   2736     1  0.0000000  0.6508444  3
   2731   2730   2737   2738     1  0.0000000  0.6508444  3
   2731   2730   2737   2739     1  0.0000000  0.6508444  3
   2731   2743   2755   2756     1  0.0000000  0.6508444  3
   2731   2743   2755   2757     1  0.0000000  0.6508444  3
   2732   2731   2730   2734     1  0.0000000  0.6508444  3
   2732   2731   2730   2737     1  0.0000000  0.6508444  3
   2732   2731   2730   2759     1  0.0000000  0.6508444  3
   2732   2731   2743   2755     1  0.0000000  0.6508444  3
   2732   2731   2743   2744     1  0.0000000  0.6508444  3
   2732   2731   2743   2745     1  0.0000000  0.6508444  3
   2733   2731   2730   2734     1  0.0000000  0.6508444  3
   2733   2731   2730   2737     1  0.0000000  0.6508444  3
   2733   2731   2730   2759     1  0.0000000  0.6508444  3
   2733   2731   2743   2755     1  0.0000000  0.6508444  3
   2733   2731   2743   2744     1  0.0000000  0.6508444  3
   2733   2731   2743   2745     1  0.0000000  0.6508444  3
   2734   2730   2737   2738     1  0.0000000  0.6508444  3
   2734   2730   2737   2739     1  0.0000000  0.6508444  3
   2734   2746   2752   2753     1  0.0000000  0.6508444  3
   2734   2746   2752   2754     1  0.0000000  0.6508444  3
   2735   2734   2730   2737     1  0.0000000  0.6508444  3
   2735   2734   2730   2759     1  0.0000000  0.6508444  3
   2735   2734   2746   2752     1  0.0000000  0.6508444  3
   2735   2734   2746   2747     1  0.0000000  0.6508444  3
   2735   2734   2746   2748     1  0.0000000  0.6508444  3
   2736   2734   2730   2737     1  0.0000000  0.6508444  3
   2736   2734   2730   2759     1  0.0000000  0.6508444  3
   2736   2734   2746   2752     1  0.0000000  0.6508444  3
   2736   2734   2746   2747     1  0.0000000  0.6508444  3
   2736   2734   2746   2748     1  0.0000000  0.6508444  3
   2737   2740   2749   2750     1  0.0000000  0.6508444  3
   2737   2740   2749   2751     1  0.0000000  0.6508444  3
   2738   2737   2730   2759     1  0.0000000  0.6508444  3
   2738   2737   2740   2749     1  0.0000000  0.6508444  3
   2738   2737   2740   2741     1  0.0000000  0.6508444  3
   2738   2737   2740   2742     1  0.0000000  0.6508444  3
   2739   2737   2730   2759     1  0.0000000  0.6508444  3
   2739   2737   2740   2749     1  0.0000000  0.6508444  3
   2739   2737   2740   2741     1  0.0000000  0.6508444  3
   2739   2737   2740   2742     1  0.0000000  0.6508444  3
   2740   2737   2730   2759     1  0.0000000  0.6508444  3
   2741   2740   2749   2758     1  0.0000000  1.0460000  1
   2741   2740   2749   2758     1  0.0000000  0.0000000  3
   2741   2740   2749   2750     1  0.0000000  0.6508444  3
   2741   2740   2749   2751     1  0.0000000  0.6508444  3
   2742   2740   2749   2758     1  0.0000000  1.0460000  1
   2742   2740   2749   2758     1  0.0000000  0.0000000  3
   2742   2740   2749   2750     1  0.0000000  0.6508444  3
   2742   2740   2749   2751     1  0.0000000  0.6508444  3
   2743   2731   2730   2759     1  0.0000000  0.6508444  3
   2744   2743   2755   5762     1  0.0000000  1.0460000  1
   2744   2743   2755   5762     1  0.0000000  0.0000000  3
   2744   2743   2755   2756     1  0.0000000  0.6508444  3
   2744   2743   2755   2757     1  0.0000000  0.6508444  3
   2745   2743   2755   5762     1  0.0000000  1.0460000  1
   2745   2743   2755   5762     1  0.0000000  0.0000000  3
   2745   2743   2755   2756     1  0.0000000  0.6508444  3
   2745   2743   2755   2757     1  0.0000000  0.6508444  3
   2746   2734   2730   2759     1  0.0000000  0.6508444  3
   2747   2746   2752   5730     1  0.0000000  1.0460000  1
   2747   2746   2752   5730     1  0.0000000  0.0000000  3
   2747   2746   2752   2753     1  0.0000000  0.6508444  3
   2747   2746   2752   2754     1  0.0000000  0.6508444  3
   2748   2746   2752   5730     1  0.0000000  1.0460000  1
   2748   2746   2752   5730     1  0.0000000  0.0000000  3
   2748   2746   2752   2753     1  0.0000000  0.6508444  3
   2748   2746   2752   2754     1  0.0000000  0.6508444  3
   2752   5730   5700   5701     1  0.0000000  1.6038667  3
   2752   5730   5700   5702     1  0.0000000  1.6038667  3
   2753   2752   5730   5700     1  0.0000000  1.6038667  3
   2754   2752   5730   5700     1  0.0000000  1.6038667  3
   2755   5762   5732   5733     1  0.0000000  1.6038667  3
   2755   5762   5732   5734     1  0.0000000  1.6038667  3
   2756   2755   5762   5732     1  0.0000000  1.6038667  3
   2757   2755   5762   5732     1  0.0000000  1.6038667  3
   2760   2761   2773   2774     1  0.0000000  0.6508444  3
   2760   2761   2773   2775     1  0.0000000  0.6508444  3
   2760   2764   2776   2777     1  0.0000000  0.6508444  3
   2760   2764   2776   2778     1  0.0000000  0.6508444  3
   2760   2767   2770   2771     1  0.0000000  0.6508444  3
   2760   2767   2770   2772     1  0.0000000  0.6508444  3
   2761   2760   2764   2765     1  0.0000000  0.6508444  3
   2761   2760   2764   2766     1  0.0000000  0.6508444  3
   2761   2760   2767   2768     1  0.0000000  0.6508444  3
   2761   2760   2767   2769     1  0.0000000  0.6508444  3
   2761   2773   2785   2786     1  0.0000000  0.6508444  3
   2761   2773   2785   2787     1  0.0000000  0.6508444  3
   2762   2761   2760   2764     1  0.0000000  0.6508444  3
   2762   2761   2760   2767     1  0.0000000  0.6508444  3
   2762   2761   2760   2789     1  0.0000000  0.6508444  3
   2762   2761   2773   2785     1  0.0000000  0.6508444  3
   2762   2761   2773   2774     1  0.0000000  0.6508444  3
   2762   2761   2773   2775     1  0.0000000  0.6508444  3
   2763   2761   2760   2764     1  0.0000000  0.6508444  3
   2763   2761   2760   2767     1  0.0000000  0.6508444  3
   2763   2761   2760   2789     1  0.0000000  0.6508444  3
   2763   2761   2773   2785     1  0.0000000  0.6508444  3
   2763   2761   2773   2774     1  0.0000000  0.6508444  3
   2763   2761   2773   2775     1  0.0000000  0.6508444  3
   2764   2760   2767   2768     1  0.0000000  0.6508444  3
   2764   2760   2767   2769     1  0.0000000  0.6508444  3
   2764   2776   2782   2783     1  0.0000000  0.6508444  3
   2764   2776   2782   2784     1  0.0000000  0.6508444  3
   2765   2764   2760   2767     1  0.0000000  0.6508444  3
   2765   2764   2760   2789     1  0.0000000  0.6508444  3
   2765   2764   2776   2782     1  0.0000000  0.6508444  3
   2765   2764   2776   2777     1  0.0000000  0.6508444  3
   2765   2764   2776   2778     1  0.0000000  0.6508444  3
   2766   2764   2760   2767     1  0.0000000  0.6508444  3
   2766   2764   2760   2789     1  0.0000000  0.6508444  3
   2766   2764   2776   2782     1  0.0000000  0.6508444  3
   2766   2764   2776   2777     1  0.0000000  0.6508444  3
   2766   2764   2776   2778     1  0.0000000  0.6508444  3
   2767   2770   2779   2780     1  0.0000000  0.6508444  3
   2767   2770   2779   2781     1  0.0000000  0.6508444  3
   2768   2767   2760   2789     1  0.0000000  0.6508444  3
   2768   2767   2770   2779     1  0.0000000  0.6508444  3
   2768   2767   2770   2771     1  0.0000000  0.6508444  3
   2768   2767   2770   2772     1  0.0000000  0.6508444  3
   2769   2767   2760   2789     1  0.0000000  0.6508444  3
   2769   2767   2770   2779     1  0.0000000  0.6508444  3
   2769   2767   2770   2771     1  0.0000000  0.6508444  3
   2769   2767   2770   2772     1  0.0000000  0.6508444  3
   2770   2767   2760   2789     1  0.0000000  0.6508444  3
   2771   2770   2779   2788     1  0.0000000  1.0460000  1
   2771   2770   2779   2788     1  0.0000000  0.0000000  3
   2771   2770   2779   2780     1  0.0000000  0.6508444  3
   2771   2770   2779   2781     1  0.0000000  0.6508444  3
   2772   2770   2779   2788     1  0.0000000  1.0460000  1
   2772   2770   2779   2788     1  0.0000000  0.0000000  3
   2772   2770   2779   2780     1  0.0000000  0.6508444  3
   2772   2770   2779   2781     1  0.0000000  0.6508444  3
   2773   2761   2760   2789     1  0.0000000  0.6508444  3
   2774   2773   2785   5826     1  0.0000000  1.0460000  1
   2774   2773   2785   5826     1  0.0000000  0.0000000  3
   2774   2773   2785   2786     1  0.0000000  0.6508444  3
   2774   2773   2785   2787     1  0.0000000  0.6508444  3
   2775   2773   2785   5826     1  0.0000000  1.0460000  1
   2775   2773   2785   5826     1  0.0000000  0.0000000  3
   2775   2773   2785   2786     1  0.0000000  0.6508444  3
   2775   2773   2785   2787     1  0.0000000  0.6508444  3
   2776   2764   2760   2789     1  0.0000000  0.6508444  3
   2777   2776   2782   5794     1  0.0000000  1.0460000  1
   2777   2776   2782   5794     1  0.0000000  0.0000000  3
   2777   2776   2782   2783     1  0.0000000  0.6508444  3
   2777   2776   2782   2784     1  0.0000000  0.6508444  3
   2778   2776   2782   5794     1  0.0000000  1.0460000  1
   2778   2776   2782   5794     1  0.0000000  0.0000000  3
   2778   2776   2782   2783     1  0.0000000  0.6508444  3
   2778   2776   2782   2784     1  0.0000000  0.6508444  3
   2782   5794   5764   5765     1  0.0000000  1.6038667  3
   2782   5794   5764   5766     1  0.0000000  1.6038667  3
   2783   2782   5794   5764     1  0.0000000  1.6038667  3
   2784   2782   5794   5764     1  0.0000000  1.6038667  3
   2785   5826   5796   5797     1  0.0000000  1.6038667  3
   2785   5826   5796   5798     1  0.0000000  1.6038667  3
   2786   2785   5826   5796     1  0.0000000  1.6038667  3
   2787   2785   5826   5796     1  0.0000000  1.6038667  3
   2790   2791   2803   2804     1  0.0000000  0.6508444  3
   2790   2791   2803   2805     1  0.0000000  0.6508444  3
   2790   2794   2806   2807     1  0.0000000  0.6508444  3
   2790   2794   2806   2808     1  0.0000000  0.6508444  3
   2790   2797   2800   2801     1  0.0000000  0.6508444  3
   2790   2797   2800   2802     1  0.0000000  0.6508444  3
   2791   2790   2794   2795     1  0.0000000  0.6508444  3
   2791   2790   2794   2796     1  0.0000000  0.6508444  3
   2791   2790   2797   2798     1  0.0000000  0.6508444  3
   2791   2790   2797   2799     1  0.0000000  0.6508444  3
   2791   2803   2815   2816     1  0.0000000  0.6508444  3
   2791   2803   2815   2817     1  0.0000000  0.6508444  3
   2792   2791   2790   2794     1  0.0000000  0.6508444  3
   2792   2791   2790   2797     1  0.0000000  0.6508444  3
   2792   2791   2790   2819     1  0.0000000  0.6508444  3
   2792   2791   2803   2815     1  0.0000000  0.6508444  3
   2792   2791   2803   2804     1  0.0000000  0.6508444  3
   2792   2791   2803   2805     1  0.0000000  0.6508444  3
   2793   2791   2790   2794     1  0.0000000  0.6508444  3
   2793   2791   2790   2797     1  0.0000000  0.6508444  3
   2793   2791   2790   2819     1  0.0000000  0.6508444  3
   2793   2791   2803   2815     1  0.0000000  0.6508444  3
   2793   2791   2803   2804     1  0.0000000  0.6508444  3
   2793   2791   2803   2805     1  0.0000000  0.6508444  3
   2794   2790   2797   2798     1  0.0000000  0.6508444  3
   2794   2790   2797   2799     1  0.0000000  0.6508444  3
   2794   2806   2812   2813     1  0.0000000  0.6508444  3
   2794   2806   2812   2814     1  0.0000000  0.6508444  3
   2795   2794   2790   2797     1  0.0000000  0.6508444  3
   2795   2794   2790   2819     1  0.0000000  0.6508444  3
   2795   2794   2806   2812     1  0.0000000  0.6508444  3
   2795   2794   2806   2807     1  0.0000000  0.6508444  3
   2795   2794   2806   2808     1  0.0000000  0.6508444  3
   2796   2794   2790   2797     1  0.0000000  0.6508444  3
   2796   2794   2790   2819     1  0.0000000  0.6508444  3
   2796   2794   2806   2812     1  0.0000000  0.6508444  3
   2796   2794   2806   2807     1  0.0000000  0.6508444  3
   2796   2794   2806   2808     1  0.0000000  0.6508444  3
   2797   2800   2809   2810     1  0.0000000  0.6508444  3
   2797   2800   2809   2811     1  0.0000000  0.6508444  3
   2798   2797   2790   2819     1  0.0000000  0.6508444  3
   2798   2797   2800   2809     1  0.0000000  0.6508444  3
   2798   2797   2800   2801     1  0.0000000  0.6508444  3
   2798   2797   2800   2802     1  0.0000000  0.6508444  3
   2799   2797   2790   2819     1  0.0000000  0.6508444  3
   2799   2797   2800   2809     1  0.0000000  0.6508444  3
   2799   2797   2800   2801     1  0.0000000  0.6508444  3
   2799   2797   2800   2802     1  0.0000000  0.6508444  3
   2800   2797   2790   2819     1  0.0000000  0.6508444  3
   2801   2800   2809   2818     1  0.0000000  1.0460000  1
   2801   2800   2809   2818     1  0.0000000  0.0000000  3
   2801   2800   2809   2810     1  0.0000000  0.6508444  3
   2801   2800   2809   2811     1  0.0000000  0.6508444  3
   2802   2800   2809   2818     1  0.0000000  1.0460000  1
   2802   2800   2809   2818     1  0.0000000  0.0000000  3
   2802   2800   2809   2810     1  0.0000000  0.6508444  3
   2802   2800   2809   2811     1  0.0000000  0.6508444  3
   2803   2791   2790   2819     1  0.0000000  0.6508444  3
   2804   2803   2815   5890     1  0.0000000  1.0460000  1
   2804   2803   2815   5890     1  0.0000000  0.0000000  3
   2804   2803   2815   2816     1  0.0000000  0.6508444  3
   2804   2803   2815   2817     1  0.0000000  0.6508444  3
   2805   2803   2815   5890     1  0.0000000  1.0460000  1
   2805   2803   2815   5890     1  0.0000000  0.0000000  3
   2805   2803   2815   2816     1  0.0000000  0.6508444  3
   2805   2803   2815   2817     1  0.0000000  0.6508444  3
   2806   2794   2790   2819     1  0.0000000  0.6508444  3
   2807   2806   2812   5858     1  0.0000000  1.0460000  1
   2807   2806   2812   5858     1  0.0000000  0.0000000  3
   2807   2806   2812   2813     1  0.0000000  0.6508444  3
   2807   2806   2812   2814     1  0.0000000  0.6508444  3
   2808   2806   2812   5858     1  0.0000000  1.0460000  1
   2808   2806   2812   5858     1  0.0000000  0.0000000  3
   2808   2806   2812   2813     1  0.0000000  0.6508444  3
   2808   2806   2812   2814     1  0.0000000  0.6508444  3
   2812   5858   5828   5829     1  0.0000000  1.6038667  3
   2812   5858   5828   5830     1  0.0000000  1.6038667  3
   2813   2812   5858   5828     1  0.0000000  1.6038667  3
   2814   2812   5858   5828     1  0.0000000  1.6038667  3
   2815   5890   5860   5861     1  0.0000000  1.6038667  3
   2815   5890   5860   5862     1  0.0000000  1.6038667  3
   2816   2815   5890   5860     1  0.0000000  1.6038667  3
   2817   2815   5890   5860     1  0.0000000  1.6038667  3
   2820   2823   2826   2827     1  0.0000000  0.6508444  3
   2820   2823   2826   2828     1  0.0000000  0.6508444  3
   2821   2820   2823   2826     1  0.0000000  0.6508444  3
   2821   2820   2823   2824     1  0.0000000  0.6508444  3
   2821   2820   2823   2825     1  0.0000000  0.6508444  3
   2822   2820   2823   2826     1  0.0000000  0.6508444  3
   2822   2820   2823   2824     1  0.0000000  0.6508444  3
   2822   2820   2823   2825     1  0.0000000  0.6508444  3
   2823   2826   2829   2851     1  0.0000000  0.6508444  3
   2824   2823   2820   2850     1  0.0000000  1.0460000  1
   2824   2823   2820   2850     1  0.0000000  0.0000000  3
   2824   2823   2826   2829     1  0.0000000  0.6508444  3
   2824   2823   2826   2827     1  0.0000000  0.6508444  3
   2824   2823   2826   2828     1  0.0000000  0.6508444  3
   2825   2823   2820   2850     1  0.0000000  1.0460000  1
   2825   2823   2820   2850     1  0.0000000  0.0000000  3
   2825   2823   2826   2829     1  0.0000000  0.6508444  3
   2825   2823   2826   2827     1  0.0000000  0.6508444  3
   2825   2823   2826   2828     1  0.0000000  0.6508444  3
   2826   2829   2830   2831     1  0.0000000  0.6508444  3
   2826   2829   2830   2832     1  0.0000000  0.6508444  3
   2826   2829   2840   2841     1  0.0000000  0.6508444  3
   2826   2829   2840   2842     1  0.0000000  0.6508444  3
   2827   2826   2829   2830     1  0.0000000  0.6508444  3
   2827   2826   2829   2840     1  0.0000000  0.6508444  3
   2827   2826   2829   2851     1  0.0000000  0.6508444  3
   2828   2826   2829   2830     1  0.0000000  0.6508444  3
   2828   2826   2829   2840     1  0.0000000  0.6508444  3
   2828   2826   2829   2851     1  0.0000000  0.6508444  3
   2829   2830   2833   2834     1  0.0000000  0.6508444  3
   2829   2830   2833   2835     1  0.0000000  0.6508444  3
   2829   2840   2843   2844     1  0.0000000  0.6508444  3
   2829   2840   2843   2845     1  0.0000000  0.6508444  3
   2830   2829   2840   2841     1  0.0000000  0.6508444  3
   2830   2829   2840   2842     1  0.0000000  0.6508444  3
   2831   2830   2829   2840     1  0.0000000  0.6508444  3
   2831   2830   2829   2851     1  0.0000000  0.6508444  3
   2831   2830   2833   2836     1  0.0000000  0.6508444  3
   2831   2830   2833   2834     1  0.0000000  0.6508444  3
   2831   2830   2833   2835     1  0.0000000  0.6508444  3
   2832   2830   2829   2840     1  0.0000000  0.6508444  3
   2832   2830   2829   2851     1  0.0000000  0.6508444  3
   2832   2830   2833   2836     1  0.0000000  0.6508444  3
   2832   2830   2833   2834     1  0.0000000  0.6508444  3
   2832   2830   2833   2835     1  0.0000000  0.6508444  3
   2833   2830   2829   2851     1  0.0000000  0.6508444  3
   2833   2836   2838   2839     1  180.0000771  9.6232000  2
   2834   2833   2836   2837     1  0.0000000  3.3472000  1
   2834   2833   2836   2837     1  0.0000000  0.0000000  2
   2834   2833   2836   2837     1  180.0000771  0.3347200  3
   2834   2833   2836   2838     1  180.0000771  0.0000000  2
   2835   2833   2836   2837     1  0.0000000  3.3472000  1
   2835   2833   2836   2837     1  0.0000000  0.0000000  2
   2835   2833   2836   2837     1  180.0000771  0.3347200  3
   2835   2833   2836   2838     1  180.0000771  0.0000000  2
   2837   2836   2838   2839     1  0.0000000  7.9496000  1
   2837   2836   2838   2839     1  180.0000771  9.6232000  2
   2841   2840   2829   2851     1  0.0000000  0.6508444  3
   2841   2840   2843   2846     1  0.0000000  0.6508444  3
   2841   2840   2843   2844     1  0.0000000  0.6508444  3
   2841   2840   2843   2845     1  0.0000000  0.6508444  3
   2842   2840   2829   2851     1  0.0000000  0.6508444  3
   2842   2840   2843   2846     1  0.0000000  0.6508444  3
   2842   2840   2843   2844     1  0.0000000  0.6508444  3
   2842   2840   2843   2845     1  0.0000000  0.6508444  3
   2843   2840   2829   2851     1  0.0000000  0.6508444  3
   2843   2846   2848   2849     1  180.0000771  9.6232000  2
   2844   2843   2846   2847     1  0.0000000  3.3472000  1
   2844   2843   2846   2847     1  0.0000000  0.0000000  2
   2844   2843   2846   2847     1  180.0000771  0.3347200  3
   2844   2843   2846   2848     1  180.0000771  0.0000000  2
   2845   2843   2846   2847     1  0.0000000  3.3472000  1
   2845   2843   2846   2847     1  0.0000000  0.0000000  2
   2845   2843   2846   2847     1  180.0000771  0.3347200  3
   2845   2843   2846   2848     1  180.0000771  0.0000000  2
   2847   2846   2848   2849     1  0.0000000  7.9496000  1
   2847   2846   2848   2849     1  180.0000771  9.6232000  2
   2852   2855   2858   2859     1  0.0000000  0.6508444  3
   2852   2855   2858   2860     1  0.0000000  0.6508444  3
   2853   2852   2855   2858     1  0.0000000  0.6508444  3
   2853   2852   2855   2856     1  0.0000000  0.6508444  3
   2853   2852   2855   2857     1  0.0000000  0.6508444  3
   2854   2852   2855   2858     1  0.0000000  0.6508444  3
   2854   2852   2855   2856     1  0.0000000  0.6508444  3
   2854   2852   2855   2857     1  0.0000000  0.6508444  3
   2855   2858   2861   2883     1  0.0000000  0.6508444  3
   2856   2855   2858   2861     1  0.0000000  0.6508444  3
   2856   2855   2858   2859     1  0.0000000  0.6508444  3
   2856   2855   2858   2860     1  0.0000000  0.6508444  3
   2856   2855   2852   2882     1  0.0000000  1.0460000  1
   2856   2855   2852   2882     1  0.0000000  0.0000000  3
   2857   2855   2858   2861     1  0.0000000  0.6508444  3
   2857   2855   2858   2859     1  0.0000000  0.6508444  3
   2857   2855   2858   2860     1  0.0000000  0.6508444  3
   2857   2855   2852   2882     1  0.0000000  1.0460000  1
   2857   2855   2852   2882     1  0.0000000  0.0000000  3
   2858   2861   2862   2863     1  0.0000000  0.6508444  3
   2858   2861   2862   2864     1  0.0000000  0.6508444  3
   2858   2861   2872   2873     1  0.0000000  0.6508444  3
   2858   2861   2872   2874     1  0.0000000  0.6508444  3
   2859   2858   2861   2862     1  0.0000000  0.6508444  3
   2859   2858   2861   2872     1  0.0000000  0.6508444  3
   2859   2858   2861   2883     1  0.0000000  0.6508444  3
   2860   2858   2861   2862     1  0.0000000  0.6508444  3
   2860   2858   2861   2872     1  0.0000000  0.6508444  3
   2860   2858   2861   2883     1  0.0000000  0.6508444  3
   2861   2862   2865   2866     1  0.0000000  0.6508444  3
   2861   2862   2865   2867     1  0.0000000  0.6508444  3
   2861   2872   2875   2876     1  0.0000000  0.6508444  3
   2861   2872   2875   2877     1  0.0000000  0.6508444  3
   2862   2861   2872   2873     1  0.0000000  0.6508444  3
   2862   2861   2872   2874     1  0.0000000  0.6508444  3
   2863   2862   2865   2868     1  0.0000000  0.6508444  3
   2863   2862   2865   2866     1  0.0000000  0.6508444  3
   2863   2862   2865   2867     1  0.0000000  0.6508444  3
   2863   2862   2861   2872     1  0.0000000  0.6508444  3
   2863   2862   2861   2883     1  0.0000000  0.6508444  3
   2864   2862   2865   2868     1  0.0000000  0.6508444  3
   2864   2862   2865   2866     1  0.0000000  0.6508444  3
   2864   2862   2865   2867     1  0.0000000  0.6508444  3
   2864   2862   2861   2872     1  0.0000000  0.6508444  3
   2864   2862   2861   2883     1  0.0000000  0.6508444  3
   2865   2868   2870   2871     1  180.0000771  9.6232000  2
   2865   2862   2861   2883     1  0.0000000  0.6508444  3
   2866   2865   2868   2869     1  0.0000000  3.3472000  1
   2866   2865   2868   2869     1  0.0000000  0.0000000  2
   2866   2865   2868   2869     1  180.0000771  0.3347200  3
   2866   2865   2868   2870     1  180.0000771  0.0000000  2
   2867   2865   2868   2869     1  0.0000000  3.3472000  1
   2867   2865   2868   2869     1  0.0000000  0.0000000  2
   2867   2865   2868   2869     1  180.0000771  0.3347200  3
   2867   2865   2868   2870     1  180.0000771  0.0000000  2
   2869   2868   2870   2871     1  0.0000000  7.9496000  1
   2869   2868   2870   2871     1  180.0000771  9.6232000  2
   2873   2872   2875   2878     1  0.0000000  0.6508444  3
   2873   2872   2875   2876     1  0.0000000  0.6508444  3
   2873   2872   2875   2877     1  0.0000000  0.6508444  3
   2873   2872   2861   2883     1  0.0000000  0.6508444  3
   2874   2872   2875   2878     1  0.0000000  0.6508444  3
   2874   2872   2875   2876     1  0.0000000  0.6508444  3
   2874   2872   2875   2877     1  0.0000000  0.6508444  3
   2874   2872   2861   2883     1  0.0000000  0.6508444  3
   2875   2878   2880   2881     1  180.0000771  9.6232000  2
   2875   2872   2861   2883     1  0.0000000  0.6508444  3
   2876   2875   2878   2879     1  0.0000000  3.3472000  1
   2876   2875   2878   2879     1  0.0000000  0.0000000  2
   2876   2875   2878   2879     1  180.0000771  0.3347200  3
   2876   2875   2878   2880     1  180.0000771  0.0000000  2
   2877   2875   2878   2879     1  0.0000000  3.3472000  1
   2877   2875   2878   2879     1  0.0000000  0.0000000  2
   2877   2875   2878   2879     1  180.0000771  0.3347200  3
   2877   2875   2878   2880     1  180.0000771  0.0000000  2
   2879   2878   2880   2881     1  0.0000000  7.9496000  1
   2879   2878   2880   2881     1  180.0000771  9.6232000  2
   2884   2887   2890   2891     1  0.0000000  0.6508444  3
   2884   2887   2890   2892     1  0.0000000  0.6508444  3
   2885   2884   2887   2890     1  0.0000000  0.6508444  3
   2885   2884   2887   2888     1  0.0000000  0.6508444  3
   2885   2884   2887   2889     1  0.0000000  0.6508444  3
   2886   2884   2887   2890     1  0.0000000  0.6508444  3
   2886   2884   2887   2888     1  0.0000000  0.6508444  3
   2886   2884   2887   2889     1  0.0000000  0.6508444  3
   2887   2890   2893   2915     1  0.0000000  0.6508444  3
   2888   2887   2884   2914     1  0.0000000  1.0460000  1
   2888   2887   2884   2914     1  0.0000000  0.0000000  3
   2888   2887   2890   2893     1  0.0000000  0.6508444  3
   2888   2887   2890   2891     1  0.0000000  0.6508444  3
   2888   2887   2890   2892     1  0.0000000  0.6508444  3
   2889   2887   2884   2914     1  0.0000000  1.0460000  1
   2889   2887   2884   2914     1  0.0000000  0.0000000  3
   2889   2887   2890   2893     1  0.0000000  0.6508444  3
   2889   2887   2890   2891     1  0.0000000  0.6508444  3
   2889   2887   2890   2892     1  0.0000000  0.6508444  3
   2890   2893   2894   2895     1  0.0000000  0.6508444  3
   2890   2893   2894   2896     1  0.0000000  0.6508444  3
   2890   2893   2904   2905     1  0.0000000  0.6508444  3
   2890   2893   2904   2906     1  0.0000000  0.6508444  3
   2891   2890   2893   2894     1  0.0000000  0.6508444  3
   2891   2890   2893   2904     1  0.0000000  0.6508444  3
   2891   2890   2893   2915     1  0.0000000  0.6508444  3
   2892   2890   2893   2894     1  0.0000000  0.6508444  3
   2892   2890   2893   2904     1  0.0000000  0.6508444  3
   2892   2890   2893   2915     1  0.0000000  0.6508444  3
   2893   2894   2897   2898     1  0.0000000  0.6508444  3
   2893   2894   2897   2899     1  0.0000000  0.6508444  3
   2893   2904   2907   2908     1  0.0000000  0.6508444  3
   2893   2904   2907   2909     1  0.0000000  0.6508444  3
   2894   2893   2904   2905     1  0.0000000  0.6508444  3
   2894   2893   2904   2906     1  0.0000000  0.6508444  3
   2895   2894   2893   2904     1  0.0000000  0.6508444  3
   2895   2894   2893   2915     1  0.0000000  0.6508444  3
   2895   2894   2897   2900     1  0.0000000  0.6508444  3
   2895   2894   2897   2898     1  0.0000000  0.6508444  3
   2895   2894   2897   2899     1  0.0000000  0.6508444  3
   2896   2894   2893   2904     1  0.0000000  0.6508444  3
   2896   2894   2893   2915     1  0.0000000  0.6508444  3
   2896   2894   2897   2900     1  0.0000000  0.6508444  3
   2896   2894   2897   2898     1  0.0000000  0.6508444  3
   2896   2894   2897   2899     1  0.0000000  0.6508444  3
   2897   2894   2893   2915     1  0.0000000  0.6508444  3
   2897   2900   2902   2903     1  180.0000771  9.6232000  2
   2898   2897   2900   2901     1  0.0000000  3.3472000  1
   2898   2897   2900   2901     1  0.0000000  0.0000000  2
   2898   2897   2900   2901     1  180.0000771  0.3347200  3
   2898   2897   2900   2902     1  180.0000771  0.0000000  2
   2899   2897   2900   2901     1  0.0000000  3.3472000  1
   2899   2897   2900   2901     1  0.0000000  0.0000000  2
   2899   2897   2900   2901     1  180.0000771  0.3347200  3
   2899   2897   2900   2902     1  180.0000771  0.0000000  2
   2901   2900   2902   2903     1  0.0000000  7.9496000  1
   2901   2900   2902   2903     1  180.0000771  9.6232000  2
   2905   2904   2893   2915     1  0.0000000  0.6508444  3
   2905   2904   2907   2910     1  0.0000000  0.6508444  3
   2905   2904   2907   2908     1  0.0000000  0.6508444  3
   2905   2904   2907   2909     1  0.0000000  0.6508444  3
   2906   2904   2893   2915     1  0.0000000  0.6508444  3
   2906   2904   2907   2910     1  0.0000000  0.6508444  3
   2906   2904   2907   2908     1  0.0000000  0.6508444  3
   2906   2904   2907   2909     1  0.0000000  0.6508444  3
   2907   2904   2893   2915     1  0.0000000  0.6508444  3
   2907   2910   2912   2913     1  180.0000771  9.6232000  2
   2908   2907   2910   2911     1  0.0000000  3.3472000  1
   2908   2907   2910   2911     1  0.0000000  0.0000000  2
   2908   2907   2910   2911     1  180.0000771  0.3347200  3
   2908   2907   2910   2912     1  180.0000771  0.0000000  2
   2909   2907   2910   2911     1  0.0000000  3.3472000  1
   2909   2907   2910   2911     1  0.0000000  0.0000000  2
   2909   2907   2910   2911     1  180.0000771  0.3347200  3
   2909   2907   2910   2912     1  180.0000771  0.0000000  2
   2911   2910   2912   2913     1  0.0000000  7.9496000  1
   2911   2910   2912   2913     1  180.0000771  9.6232000  2
   2916   2919   2922   2923     1  0.0000000  0.6508444  3
   2916   2919   2922   2924     1  0.0000000  0.6508444  3
   2917   2916   2919   2922     1  0.0000000  0.6508444  3
   2917   2916   2919   2920     1  0.0000000  0.6508444  3
   2917   2916   2919   2921     1  0.0000000  0.6508444  3
   2918   2916   2919   2922     1  0.0000000  0.6508444  3
   2918   2916   2919   2920     1  0.0000000  0.6508444  3
   2918   2916   2919   2921     1  0.0000000  0.6508444  3
   2919   2922   2925   2947     1  0.0000000  0.6508444  3
   2920   2919   2922   2925     1  0.0000000  0.6508444  3
   2920   2919   2922   2923     1  0.0000000  0.6508444  3
   2920   2919   2922   2924     1  0.0000000  0.6508444  3
   2920   2919   2916   2946     1  0.0000000  1.0460000  1
   2920   2919   2916   2946     1  0.0000000  0.0000000  3
   2921   2919   2922   2925     1  0.0000000  0.6508444  3
   2921   2919   2922   2923     1  0.0000000  0.6508444  3
   2921   2919   2922   2924     1  0.0000000  0.6508444  3
   2921   2919   2916   2946     1  0.0000000  1.0460000  1
   2921   2919   2916   2946     1  0.0000000  0.0000000  3
   2922   2925   2926   2927     1  0.0000000  0.6508444  3
   2922   2925   2926   2928     1  0.0000000  0.6508444  3
   2922   2925   2936   2937     1  0.0000000  0.6508444  3
   2922   2925   2936   2938     1  0.0000000  0.6508444  3
   2923   2922   2925   2926     1  0.0000000  0.6508444  3
   2923   2922   2925   2936     1  0.0000000  0.6508444  3
   2923   2922   2925   2947     1  0.0000000  0.6508444  3
   2924   2922   2925   2926     1  0.0000000  0.6508444  3
   2924   2922   2925   2936     1  0.0000000  0.6508444  3
   2924   2922   2925   2947     1  0.0000000  0.6508444  3
   2925   2926   2929   2930     1  0.0000000  0.6508444  3
   2925   2926   2929   2931     1  0.0000000  0.6508444  3
   2925   2936   2939   2940     1  0.0000000  0.6508444  3
   2925   2936   2939   2941     1  0.0000000  0.6508444  3
   2926   2925   2936   2937     1  0.0000000  0.6508444  3
   2926   2925   2936   2938     1  0.0000000  0.6508444  3
   2927   2926   2929   2932     1  0.0000000  0.6508444  3
   2927   2926   2929   2930     1  0.0000000  0.6508444  3
   2927   2926   2929   2931     1  0.0000000  0.6508444  3
   2927   2926   2925   2936     1  0.0000000  0.6508444  3
   2927   2926   2925   2947     1  0.0000000  0.6508444  3
   2928   2926   2929   2932     1  0.0000000  0.6508444  3
   2928   2926   2929   2930     1  0.0000000  0.6508444  3
   2928   2926   2929   2931     1  0.0000000  0.6508444  3
   2928   2926   2925   2936     1  0.0000000  0.6508444  3
   2928   2926   2925   2947     1  0.0000000  0.6508444  3
   2929   2932   2934   2935     1  180.0000771  9.6232000  2
   2929   2926   2925   2947     1  0.0000000  0.6508444  3
   2930   2929   2932   2933     1  0.0000000  3.3472000  1
   2930   2929   2932   2933     1  0.0000000  0.0000000  2
   2930   2929   2932   2933     1  180.0000771  0.3347200  3
   2930   2929   2932   2934     1  180.0000771  0.0000000  2
   2931   2929   2932   2933     1  0.0000000  3.3472000  1
   2931   2929   2932   2933     1  0.0000000  0.0000000  2
   2931   2929   2932   2933     1  180.0000771  0.3347200  3
   2931   2929   2932   2934     1  180.0000771  0.0000000  2
   2933   2932   2934   2935     1  0.0000000  7.9496000  1
   2933   2932   2934   2935     1  180.0000771  9.6232000  2
   2937   2936   2939   2942     1  0.0000000  0.6508444  3
   2937   2936   2939   2940     1  0.0000000  0.6508444  3
   2937   2936   2939   2941     1  0.0000000  0.6508444  3
   2937   2936   2925   2947     1  0.0000000  0.6508444  3
   2938   2936   2939   2942     1  0.0000000  0.6508444  3
   2938   2936   2939   2940     1  0.0000000  0.6508444  3
   2938   2936   2939   2941     1  0.0000000  0.6508444  3
   2938   2936   2925   2947     1  0.0000000  0.6508444  3
   2939   2942   2944   2945     1  180.0000771  9.6232000  2
   2939   2936   2925   2947     1  0.0000000  0.6508444  3
   2940   2939   2942   2943     1  0.0000000  3.3472000  1
   2940   2939   2942   2943     1  0.0000000  0.0000000  2
   2940   2939   2942   2943     1  180.0000771  0.3347200  3
   2940   2939   2942   2944     1  180.0000771  0.0000000  2
   2941   2939   2942   2943     1  0.0000000  3.3472000  1
   2941   2939   2942   2943     1  0.0000000  0.0000000  2
   2941   2939   2942   2943     1  180.0000771  0.3347200  3
   2941   2939   2942   2944     1  180.0000771  0.0000000  2
   2943   2942   2944   2945     1  0.0000000  7.9496000  1
   2943   2942   2944   2945     1  180.0000771  9.6232000  2
   2948   2951   2954   2955     1  0.0000000  0.6508444  3
   2948   2951   2954   2956     1  0.0000000  0.6508444  3
   2949   2948   2951   2954     1  0.0000000  0.6508444  3
   2949   2948   2951   2952     1  0.0000000  0.6508444  3
   2949   2948   2951   2953     1  0.0000000  0.6508444  3
   2950   2948   2951   2954     1  0.0000000  0.6508444  3
   2950   2948   2951   2952     1  0.0000000  0.6508444  3
   2950   2948   2951   2953     1  0.0000000  0.6508444  3
   2951   2954   2957   2979     1  0.0000000  0.6508444  3
   2952   2951   2948   2978     1  0.0000000  1.0460000  1
   2952   2951   2948   2978     1  0.0000000  0.0000000  3
   2952   2951   2954   2957     1  0.0000000  0.6508444  3
   2952   2951   2954   2955     1  0.0000000  0.6508444  3
   2952   2951   2954   2956     1  0.0000000  0.6508444  3
   2953   2951   2948   2978     1  0.0000000  1.0460000  1
   2953   2951   2948   2978     1  0.0000000  0.0000000  3
   2953   2951   2954   2957     1  0.0000000  0.6508444  3
   2953   2951   2954   2955     1  0.0000000  0.6508444  3
   2953   2951   2954   2956     1  0.0000000  0.6508444  3
   2954   2957   2958   2959     1  0.0000000  0.6508444  3
   2954   2957   2958   2960     1  0.0000000  0.6508444  3
   2954   2957   2968   2969     1  0.0000000  0.6508444  3
   2954   2957   2968   2970     1  0.0000000  0.6508444  3
   2955   2954   2957   2958     1  0.0000000  0.6508444  3
   2955   2954   2957   2968     1  0.0000000  0.6508444  3
   2955   2954   2957   2979     1  0.0000000  0.6508444  3
   2956   2954   2957   2958     1  0.0000000  0.6508444  3
   2956   2954   2957   2968     1  0.0000000  0.6508444  3
   2956   2954   2957   2979     1  0.0000000  0.6508444  3
   2957   2958   2961   2962     1  0.0000000  0.6508444  3
   2957   2958   2961   2963     1  0.0000000  0.6508444  3
   2957   2968   2971   2972     1  0.0000000  0.6508444  3
   2957   2968   2971   2973     1  0.0000000  0.6508444  3
   2958   2957   2968   2969     1  0.0000000  0.6508444  3
   2958   2957   2968   2970     1  0.0000000  0.6508444  3
   2959   2958   2957   2968     1  0.0000000  0.6508444  3
   2959   2958   2957   2979     1  0.0000000  0.6508444  3
   2959   2958   2961   2964     1  0.0000000  0.6508444  3
   2959   2958   2961   2962     1  0.0000000  0.6508444  3
   2959   2958   2961   2963     1  0.0000000  0.6508444  3
   2960   2958   2957   2968     1  0.0000000  0.6508444  3
   2960   2958   2957   2979     1  0.0000000  0.6508444  3
   2960   2958   2961   2964     1  0.0000000  0.6508444  3
   2960   2958   2961   2962     1  0.0000000  0.6508444  3
   2960   2958   2961   2963     1  0.0000000  0.6508444  3
   2961   2958   2957   2979     1  0.0000000  0.6508444  3
   2961   2964   2966   2967     1  180.0000771  9.6232000  2
   2962   2961   2964   2965     1  0.0000000  3.3472000  1
   2962   2961   2964   2965     1  0.0000000  0.0000000  2
   2962   2961   2964   2965     1  180.0000771  0.3347200  3
   2962   2961   2964   2966     1  180.0000771  0.0000000  2
   2963   2961   2964   2965     1  0.0000000  3.3472000  1
   2963   2961   2964   2965     1  0.0000000  0.0000000  2
   2963   2961   2964   2965     1  180.0000771  0.3347200  3
   2963   2961   2964   2966     1  180.0000771  0.0000000  2
   2965   2964   2966   2967     1  0.0000000  7.9496000  1
   2965   2964   2966   2967     1  180.0000771  9.6232000  2
   2969   2968   2957   2979     1  0.0000000  0.6508444  3
   2969   2968   2971   2974     1  0.0000000  0.6508444  3
   2969   2968   2971   2972     1  0.0000000  0.6508444  3
   2969   2968   2971   2973     1  0.0000000  0.6508444  3
   2970   2968   2957   2979     1  0.0000000  0.6508444  3
   2970   2968   2971   2974     1  0.0000000  0.6508444  3
   2970   2968   2971   2972     1  0.0000000  0.6508444  3
   2970   2968   2971   2973     1  0.0000000  0.6508444  3
   2971   2968   2957   2979     1  0.0000000  0.6508444  3
   2971   2974   2976   2977     1  180.0000771  9.6232000  2
   2972   2971   2974   2975     1  0.0000000  3.3472000  1
   2972   2971   2974   2975     1  0.0000000  0.0000000  2
   2972   2971   2974   2975     1  180.0000771  0.3347200  3
   2972   2971   2974   2976     1  180.0000771  0.0000000  2
   2973   2971   2974   2975     1  0.0000000  3.3472000  1
   2973   2971   2974   2975     1  0.0000000  0.0000000  2
   2973   2971   2974   2975     1  180.0000771  0.3347200  3
   2973   2971   2974   2976     1  180.0000771  0.0000000  2
   2975   2974   2976   2977     1  0.0000000  7.9496000  1
   2975   2974   2976   2977     1  180.0000771  9.6232000  2
   2980   2983   2986   2987     1  0.0000000  0.6508444  3
   2980   2983   2986   2988     1  0.0000000  0.6508444  3
   2981   2980   2983   2986     1  0.0000000  0.6508444  3
   2981   2980   2983   2984     1  0.0000000  0.6508444  3
   2981   2980   2983   2985     1  0.0000000  0.6508444  3
   2982   2980   2983   2986     1  0.0000000  0.6508444  3
   2982   2980   2983   2984     1  0.0000000  0.6508444  3
   2982   2980   2983   2985     1  0.0000000  0.6508444  3
   2983   2986   2989   3011     1  0.0000000  0.6508444  3
   2984   2983   2986   2989     1  0.0000000  0.6508444  3
   2984   2983   2986   2987     1  0.0000000  0.6508444  3
   2984   2983   2986   2988     1  0.0000000  0.6508444  3
   2984   2983   2980   3010     1  0.0000000  1.0460000  1
   2984   2983   2980   3010     1  0.0000000  0.0000000  3
   2985   2983   2986   2989     1  0.0000000  0.6508444  3
   2985   2983   2986   2987     1  0.0000000  0.6508444  3
   2985   2983   2986   2988     1  0.0000000  0.6508444  3
   2985   2983   2980   3010     1  0.0000000  1.0460000  1
   2985   2983   2980   3010     1  0.0000000  0.0000000  3
   2986   2989   2990   2991     1  0.0000000  0.6508444  3
   2986   2989   2990   2992     1  0.0000000  0.6508444  3
   2986   2989   3000   3001     1  0.0000000  0.6508444  3
   2986   2989   3000   3002     1  0.0000000  0.6508444  3
   2987   2986   2989   2990     1  0.0000000  0.6508444  3
   2987   2986   2989   3000     1  0.0000000  0.6508444  3
   2987   2986   2989   3011     1  0.0000000  0.6508444  3
   2988   2986   2989   2990     1  0.0000000  0.6508444  3
   2988   2986   2989   3000     1  0.0000000  0.6508444  3
   2988   2986   2989   3011     1  0.0000000  0.6508444  3
   2989   2990   2993   2994     1  0.0000000  0.6508444  3
   2989   2990   2993   2995     1  0.0000000  0.6508444  3
   2989   3000   3003   3004     1  0.0000000  0.6508444  3
   2989   3000   3003   3005     1  0.0000000  0.6508444  3
   2990   2989   3000   3001     1  0.0000000  0.6508444  3
   2990   2989   3000   3002     1  0.0000000  0.6508444  3
   2991   2990   2993   2996     1  0.0000000  0.6508444  3
   2991   2990   2993   2994     1  0.0000000  0.6508444  3
   2991   2990   2993   2995     1  0.0000000  0.6508444  3
   2991   2990   2989   3000     1  0.0000000  0.6508444  3
   2991   2990   2989   3011     1  0.0000000  0.6508444  3
   2992   2990   2993   2996     1  0.0000000  0.6508444  3
   2992   2990   2993   2994     1  0.0000000  0.6508444  3
   2992   2990   2993   2995     1  0.0000000  0.6508444  3
   2992   2990   2989   3000     1  0.0000000  0.6508444  3
   2992   2990   2989   3011     1  0.0000000  0.6508444  3
   2993   2996   2998   2999     1  180.0000771  9.6232000  2
   2993   2990   2989   3011     1  0.0000000  0.6508444  3
   2994   2993   2996   2997     1  0.0000000  3.3472000  1
   2994   2993   2996   2997     1  0.0000000  0.0000000  2
   2994   2993   2996   2997     1  180.0000771  0.3347200  3
   2994   2993   2996   2998     1  180.0000771  0.0000000  2
   2995   2993   2996   2997     1  0.0000000  3.3472000  1
   2995   2993   2996   2997     1  0.0000000  0.0000000  2
   2995   2993   2996   2997     1  180.0000771  0.3347200  3
   2995   2993   2996   2998     1  180.0000771  0.0000000  2
   2997   2996   2998   2999     1  0.0000000  7.9496000  1
   2997   2996   2998   2999     1  180.0000771  9.6232000  2
   3001   3000   3003   3006     1  0.0000000  0.6508444  3
   3001   3000   3003   3004     1  0.0000000  0.6508444  3
   3001   3000   3003   3005     1  0.0000000  0.6508444  3
   3001   3000   2989   3011     1  0.0000000  0.6508444  3
   3002   3000   3003   3006     1  0.0000000  0.6508444  3
   3002   3000   3003   3004     1  0.0000000  0.6508444  3
   3002   3000   3003   3005     1  0.0000000  0.6508444  3
   3002   3000   2989   3011     1  0.0000000  0.6508444  3
   3003   3006   3008   3009     1  180.0000771  9.6232000  2
   3003   3000   2989   3011     1  0.0000000  0.6508444  3
   3004   3003   3006   3007     1  0.0000000  3.3472000  1
   3004   3003   3006   3007     1  0.0000000  0.0000000  2
   3004   3003   3006   3007     1  180.0000771  0.3347200  3
   3004   3003   3006   3008     1  180.0000771  0.0000000  2
   3005   3003   3006   3007     1  0.0000000  3.3472000  1
   3005   3003   3006   3007     1  0.0000000  0.0000000  2
   3005   3003   3006   3007     1  180.0000771  0.3347200  3
   3005   3003   3006   3008     1  180.0000771  0.0000000  2
   3007   3006   3008   3009     1  0.0000000  7.9496000  1
   3007   3006   3008   3009     1  180.0000771  9.6232000  2
   3012   3015   3018   3019     1  0.0000000  0.6508444  3
   3012   3015   3018   3020     1  0.0000000  0.6508444  3
   3013   3012   3015   3018     1  0.0000000  0.6508444  3
   3013   3012   3015   3016     1  0.0000000  0.6508444  3
   3013   3012   3015   3017     1  0.0000000  0.6508444  3
   3014   3012   3015   3018     1  0.0000000  0.6508444  3
   3014   3012   3015   3016     1  0.0000000  0.6508444  3
   3014   3012   3015   3017     1  0.0000000  0.6508444  3
   3015   3018   3021   3043     1  0.0000000  0.6508444  3
   3016   3015   3012   3042     1  0.0000000  1.0460000  1
   3016   3015   3012   3042     1  0.0000000  0.0000000  3
   3016   3015   3018   3021     1  0.0000000  0.6508444  3
   3016   3015   3018   3019     1  0.0000000  0.6508444  3
   3016   3015   3018   3020     1  0.0000000  0.6508444  3
   3017   3015   3012   3042     1  0.0000000  1.0460000  1
   3017   3015   3012   3042     1  0.0000000  0.0000000  3
   3017   3015   3018   3021     1  0.0000000  0.6508444  3
   3017   3015   3018   3019     1  0.0000000  0.6508444  3
   3017   3015   3018   3020     1  0.0000000  0.6508444  3
   3018   3021   3022   3023     1  0.0000000  0.6508444  3
   3018   3021   3022   3024     1  0.0000000  0.6508444  3
   3018   3021   3032   3033     1  0.0000000  0.6508444  3
   3018   3021   3032   3034     1  0.0000000  0.6508444  3
   3019   3018   3021   3022     1  0.0000000  0.6508444  3
   3019   3018   3021   3032     1  0.0000000  0.6508444  3
   3019   3018   3021   3043     1  0.0000000  0.6508444  3
   3020   3018   3021   3022     1  0.0000000  0.6508444  3
   3020   3018   3021   3032     1  0.0000000  0.6508444  3
   3020   3018   3021   3043     1  0.0000000  0.6508444  3
   3021   3022   3025   3026     1  0.0000000  0.6508444  3
   3021   3022   3025   3027     1  0.0000000  0.6508444  3
   3021   3032   3035   3036     1  0.0000000  0.6508444  3
   3021   3032   3035   3037     1  0.0000000  0.6508444  3
   3022   3021   3032   3033     1  0.0000000  0.6508444  3
   3022   3021   3032   3034     1  0.0000000  0.6508444  3
   3023   3022   3021   3032     1  0.0000000  0.6508444  3
   3023   3022   3021   3043     1  0.0000000  0.6508444  3
   3023   3022   3025   3028     1  0.0000000  0.6508444  3
   3023   3022   3025   3026     1  0.0000000  0.6508444  3
   3023   3022   3025   3027     1  0.0000000  0.6508444  3
   3024   3022   3021   3032     1  0.0000000  0.6508444  3
   3024   3022   3021   3043     1  0.0000000  0.6508444  3
   3024   3022   3025   3028     1  0.0000000  0.6508444  3
   3024   3022   3025   3026     1  0.0000000  0.6508444  3
   3024   3022   3025   3027     1  0.0000000  0.6508444  3
   3025   3022   3021   3043     1  0.0000000  0.6508444  3
   3025   3028   3030   3031     1  180.0000771  9.6232000  2
   3026   3025   3028   3029     1  0.0000000  3.3472000  1
   3026   3025   3028   3029     1  0.0000000  0.0000000  2
   3026   3025   3028   3029     1  180.0000771  0.3347200  3
   3026   3025   3028   3030     1  180.0000771  0.0000000  2
   3027   3025   3028   3029     1  0.0000000  3.3472000  1
   3027   3025   3028   3029     1  0.0000000  0.0000000  2
   3027   3025   3028   3029     1  180.0000771  0.3347200  3
   3027   3025   3028   3030     1  180.0000771  0.0000000  2
   3029   3028   3030   3031     1  0.0000000  7.9496000  1
   3029   3028   3030   3031     1  180.0000771  9.6232000  2
   3033   3032   3021   3043     1  0.0000000  0.6508444  3
   3033   3032   3035   3038     1  0.0000000  0.6508444  3
   3033   3032   3035   3036     1  0.0000000  0.6508444  3
   3033   3032   3035   3037     1  0.0000000  0.6508444  3
   3034   3032   3021   3043     1  0.0000000  0.6508444  3
   3034   3032   3035   3038     1  0.0000000  0.6508444  3
   3034   3032   3035   3036     1  0.0000000  0.6508444  3
   3034   3032   3035   3037     1  0.0000000  0.6508444  3
   3035   3032   3021   3043     1  0.0000000  0.6508444  3
   3035   3038   3040   3041     1  180.0000771  9.6232000  2
   3036   3035   3038   3039     1  0.0000000  3.3472000  1
   3036   3035   3038   3039     1  0.0000000  0.0000000  2
   3036   3035   3038   3039     1  180.0000771  0.3347200  3
   3036   3035   3038   3040     1  180.0000771  0.0000000  2
   3037   3035   3038   3039     1  0.0000000  3.3472000  1
   3037   3035   3038   3039     1  0.0000000  0.0000000  2
   3037   3035   3038   3039     1  180.0000771  0.3347200  3
   3037   3035   3038   3040     1  180.0000771  0.0000000  2
   3039   3038   3040   3041     1  0.0000000  7.9496000  1
   3039   3038   3040   3041     1  180.0000771  9.6232000  2
   3044   3047   3050   3051     1  0.0000000  0.6508444  3
   3044   3047   3050   3052     1  0.0000000  0.6508444  3
   3045   3044   3047   3050     1  0.0000000  0.6508444  3
   3045   3044   3047   3048     1  0.0000000  0.6508444  3
   3045   3044   3047   3049     1  0.0000000  0.6508444  3
   3046   3044   3047   3050     1  0.0000000  0.6508444  3
   3046   3044   3047   3048     1  0.0000000  0.6508444  3
   3046   3044   3047   3049     1  0.0000000  0.6508444  3
   3047   3050   3053   3075     1  0.0000000  0.6508444  3
   3048   3047   3050   3053     1  0.0000000  0.6508444  3
   3048   3047   3050   3051     1  0.0000000  0.6508444  3
   3048   3047   3050   3052     1  0.0000000  0.6508444  3
   3048   3047   3044   3074     1  0.0000000  1.0460000  1
   3048   3047   3044   3074     1  0.0000000  0.0000000  3
   3049   3047   3050   3053     1  0.0000000  0.6508444  3
   3049   3047   3050   3051     1  0.0000000  0.6508444  3
   3049   3047   3050   3052     1  0.0000000  0.6508444  3
   3049   3047   3044   3074     1  0.0000000  1.0460000  1
   3049   3047   3044   3074     1  0.0000000  0.0000000  3
   3050   3053   3054   3055     1  0.0000000  0.6508444  3
   3050   3053   3054   3056     1  0.0000000  0.6508444  3
   3050   3053   3064   3065     1  0.0000000  0.6508444  3
   3050   3053   3064   3066     1  0.0000000  0.6508444  3
   3051   3050   3053   3054     1  0.0000000  0.6508444  3
   3051   3050   3053   3064     1  0.0000000  0.6508444  3
   3051   3050   3053   3075     1  0.0000000  0.6508444  3
   3052   3050   3053   3054     1  0.0000000  0.6508444  3
   3052   3050   3053   3064     1  0.0000000  0.6508444  3
   3052   3050   3053   3075     1  0.0000000  0.6508444  3
   3053   3054   3057   3058     1  0.0000000  0.6508444  3
   3053   3054   3057   3059     1  0.0000000  0.6508444  3
   3053   3064   3067   3068     1  0.0000000  0.6508444  3
   3053   3064   3067   3069     1  0.0000000  0.6508444  3
   3054   3053   3064   3065     1  0.0000000  0.6508444  3
   3054   3053   3064   3066     1  0.0000000  0.6508444  3
   3055   3054   3057   3060     1  0.0000000  0.6508444  3
   3055   3054   3057   3058     1  0.0000000  0.6508444  3
   3055   3054   3057   3059     1  0.0000000  0.6508444  3
   3055   3054   3053   3064     1  0.0000000  0.6508444  3
   3055   3054   3053   3075     1  0.0000000  0.6508444  3
   3056   3054   3057   3060     1  0.0000000  0.6508444  3
   3056   3054   3057   3058     1  0.0000000  0.6508444  3
   3056   3054   3057   3059     1  0.0000000  0.6508444  3
   3056   3054   3053   3064     1  0.0000000  0.6508444  3
   3056   3054   3053   3075     1  0.0000000  0.6508444  3
   3057   3060   3062   3063     1  180.0000771  9.6232000  2
   3057   3054   3053   3075     1  0.0000000  0.6508444  3
   3058   3057   3060   3061     1  0.0000000  3.3472000  1
   3058   3057   3060   3061     1  0.0000000  0.0000000  2
   3058   3057   3060   3061     1  180.0000771  0.3347200  3
   3058   3057   3060   3062     1  180.0000771  0.0000000  2
   3059   3057   3060   3061     1  0.0000000  3.3472000  1
   3059   3057   3060   3061     1  0.0000000  0.0000000  2
   3059   3057   3060   3061     1  180.0000771  0.3347200  3
   3059   3057   3060   3062     1  180.0000771  0.0000000  2
   3061   3060   3062   3063     1  0.0000000  7.9496000  1
   3061   3060   3062   3063     1  180.0000771  9.6232000  2
   3065   3064   3067   3070     1  0.0000000  0.6508444  3
   3065   3064   3067   3068     1  0.0000000  0.6508444  3
   3065   3064   3067   3069     1  0.0000000  0.6508444  3
   3065   3064   3053   3075     1  0.0000000  0.6508444  3
   3066   3064   3067   3070     1  0.0000000  0.6508444  3
   3066   3064   3067   3068     1  0.0000000  0.6508444  3
   3066   3064   3067   3069     1  0.0000000  0.6508444  3
   3066   3064   3053   3075     1  0.0000000  0.6508444  3
   3067   3070   3072   3073     1  180.0000771  9.6232000  2
   3067   3064   3053   3075     1  0.0000000  0.6508444  3
   3068   3067   3070   3071     1  0.0000000  3.3472000  1
   3068   3067   3070   3071     1  0.0000000  0.0000000  2
   3068   3067   3070   3071     1  180.0000771  0.3347200  3
   3068   3067   3070   3072     1  180.0000771  0.0000000  2
   3069   3067   3070   3071     1  0.0000000  3.3472000  1
   3069   3067   3070   3071     1  0.0000000  0.0000000  2
   3069   3067   3070   3071     1  180.0000771  0.3347200  3
   3069   3067   3070   3072     1  180.0000771  0.0000000  2
   3071   3070   3072   3073     1  0.0000000  7.9496000  1
   3071   3070   3072   3073     1  180.0000771  9.6232000  2
   3076   3079   3082   3083     1  0.0000000  0.6508444  3
   3076   3079   3082   3084     1  0.0000000  0.6508444  3
   3077   3076   3079   3082     1  0.0000000  0.6508444  3
   3077   3076   3079   3080     1  0.0000000  0.6508444  3
   3077   3076   3079   3081     1  0.0000000  0.6508444  3
   3078   3076   3079   3082     1  0.0000000  0.6508444  3
   3078   3076   3079   3080     1  0.0000000  0.6508444  3
   3078   3076   3079   3081     1  0.0000000  0.6508444  3
   3079   3082   3085   3107     1  0.0000000  0.6508444  3
   3080   3079   3076   3106     1  0.0000000  1.0460000  1
   3080   3079   3076   3106     1  0.0000000  0.0000000  3
   3080   3079   3082   3085     1  0.0000000  0.6508444  3
   3080   3079   3082   3083     1  0.0000000  0.6508444  3
   3080   3079   3082   3084     1  0.0000000  0.6508444  3
   3081   3079   3076   3106     1  0.0000000  1.0460000  1
   3081   3079   3076   3106     1  0.0000000  0.0000000  3
   3081   3079   3082   3085     1  0.0000000  0.6508444  3
   3081   3079   3082   3083     1  0.0000000  0.6508444  3
   3081   3079   3082   3084     1  0.0000000  0.6508444  3
   3082   3085   3086   3087     1  0.0000000  0.6508444  3
   3082   3085   3086   3088     1  0.0000000  0.6508444  3
   3082   3085   3096   3097     1  0.0000000  0.6508444  3
   3082   3085   3096   3098     1  0.0000000  0.6508444  3
   3083   3082   3085   3086     1  0.0000000  0.6508444  3
   3083   3082   3085   3096     1  0.0000000  0.6508444  3
   3083   3082   3085   3107     1  0.0000000  0.6508444  3
   3084   3082   3085   3086     1  0.0000000  0.6508444  3
   3084   3082   3085   3096     1  0.0000000  0.6508444  3
   3084   3082   3085   3107     1  0.0000000  0.6508444  3
   3085   3086   3089   3090     1  0.0000000  0.6508444  3
   3085   3086   3089   3091     1  0.0000000  0.6508444  3
   3085   3096   3099   3100     1  0.0000000  0.6508444  3
   3085   3096   3099   3101     1  0.0000000  0.6508444  3
   3086   3085   3096   3097     1  0.0000000  0.6508444  3
   3086   3085   3096   3098     1  0.0000000  0.6508444  3
   3087   3086   3085   3096     1  0.0000000  0.6508444  3
   3087   3086   3085   3107     1  0.0000000  0.6508444  3
   3087   3086   3089   3092     1  0.0000000  0.6508444  3
   3087   3086   3089   3090     1  0.0000000  0.6508444  3
   3087   3086   3089   3091     1  0.0000000  0.6508444  3
   3088   3086   3085   3096     1  0.0000000  0.6508444  3
   3088   3086   3085   3107     1  0.0000000  0.6508444  3
   3088   3086   3089   3092     1  0.0000000  0.6508444  3
   3088   3086   3089   3090     1  0.0000000  0.6508444  3
   3088   3086   3089   3091     1  0.0000000  0.6508444  3
   3089   3086   3085   3107     1  0.0000000  0.6508444  3
   3089   3092   3094   3095     1  180.0000771  9.6232000  2
   3090   3089   3092   3093     1  0.0000000  3.3472000  1
   3090   3089   3092   3093     1  0.0000000  0.0000000  2
   3090   3089   3092   3093     1  180.0000771  0.3347200  3
   3090   3089   3092   3094     1  180.0000771  0.0000000  2
   3091   3089   3092   3093     1  0.0000000  3.3472000  1
   3091   3089   3092   3093     1  0.0000000  0.0000000  2
   3091   3089   3092   3093     1  180.0000771  0.3347200  3
   3091   3089   3092   3094     1  180.0000771  0.0000000  2
   3093   3092   3094   3095     1  0.0000000  7.9496000  1
   3093   3092   3094   3095     1  180.0000771  9.6232000  2
   3097   3096   3085   3107     1  0.0000000  0.6508444  3
   3097   3096   3099   3102     1  0.0000000  0.6508444  3
   3097   3096   3099   3100     1  0.0000000  0.6508444  3
   3097   3096   3099   3101     1  0.0000000  0.6508444  3
   3098   3096   3085   3107     1  0.0000000  0.6508444  3
   3098   3096   3099   3102     1  0.0000000  0.6508444  3
   3098   3096   3099   3100     1  0.0000000  0.6508444  3
   3098   3096   3099   3101     1  0.0000000  0.6508444  3
   3099   3096   3085   3107     1  0.0000000  0.6508444  3
   3099   3102   3104   3105     1  180.0000771  9.6232000  2
   3100   3099   3102   3103     1  0.0000000  3.3472000  1
   3100   3099   3102   3103     1  0.0000000  0.0000000  2
   3100   3099   3102   3103     1  180.0000771  0.3347200  3
   3100   3099   3102   3104     1  180.0000771  0.0000000  2
   3101   3099   3102   3103     1  0.0000000  3.3472000  1
   3101   3099   3102   3103     1  0.0000000  0.0000000  2
   3101   3099   3102   3103     1  180.0000771  0.3347200  3
   3101   3099   3102   3104     1  180.0000771  0.0000000  2
   3103   3102   3104   3105     1  0.0000000  7.9496000  1
   3103   3102   3104   3105     1  180.0000771  9.6232000  2
   3108   3111   3114   3115     1  0.0000000  0.6508444  3
   3108   3111   3114   3116     1  0.0000000  0.6508444  3
   3109   3108   3111   3114     1  0.0000000  0.6508444  3
   3109   3108   3111   3112     1  0.0000000  0.6508444  3
   3109   3108   3111   3113     1  0.0000000  0.6508444  3
   3110   3108   3111   3114     1  0.0000000  0.6508444  3
   3110   3108   3111   3112     1  0.0000000  0.6508444  3
   3110   3108   3111   3113     1  0.0000000  0.6508444  3
   3111   3114   3117   3139     1  0.0000000  0.6508444  3
   3112   3111   3114   3117     1  0.0000000  0.6508444  3
   3112   3111   3114   3115     1  0.0000000  0.6508444  3
   3112   3111   3114   3116     1  0.0000000  0.6508444  3
   3112   3111   3108   3138     1  0.0000000  1.0460000  1
   3112   3111   3108   3138     1  0.0000000  0.0000000  3
   3113   3111   3114   3117     1  0.0000000  0.6508444  3
   3113   3111   3114   3115     1  0.0000000  0.6508444  3
   3113   3111   3114   3116     1  0.0000000  0.6508444  3
   3113   3111   3108   3138     1  0.0000000  1.0460000  1
   3113   3111   3108   3138     1  0.0000000  0.0000000  3
   3114   3117   3118   3119     1  0.0000000  0.6508444  3
   3114   3117   3118   3120     1  0.0000000  0.6508444  3
   3114   3117   3128   3129     1  0.0000000  0.6508444  3
   3114   3117   3128   3130     1  0.0000000  0.6508444  3
   3115   3114   3117   3118     1  0.0000000  0.6508444  3
   3115   3114   3117   3128     1  0.0000000  0.6508444  3
   3115   3114   3117   3139     1  0.0000000  0.6508444  3
   3116   3114   3117   3118     1  0.0000000  0.6508444  3
   3116   3114   3117   3128     1  0.0000000  0.6508444  3
   3116   3114   3117   3139     1  0.0000000  0.6508444  3
   3117   3118   3121   3122     1  0.0000000  0.6508444  3
   3117   3118   3121   3123     1  0.0000000  0.6508444  3
   3117   3128   3131   3132     1  0.0000000  0.6508444  3
   3117   3128   3131   3133     1  0.0000000  0.6508444  3
   3118   3117   3128   3129     1  0.0000000  0.6508444  3
   3118   3117   3128   3130     1  0.0000000  0.6508444  3
   3119   3118   3121   3124     1  0.0000000  0.6508444  3
   3119   3118   3121   3122     1  0.0000000  0.6508444  3
   3119   3118   3121   3123     1  0.0000000  0.6508444  3
   3119   3118   3117   3128     1  0.0000000  0.6508444  3
   3119   3118   3117   3139     1  0.0000000  0.6508444  3
   3120   3118   3121   3124     1  0.0000000  0.6508444  3
   3120   3118   3121   3122     1  0.0000000  0.6508444  3
   3120   3118   3121   3123     1  0.0000000  0.6508444  3
   3120   3118   3117   3128     1  0.0000000  0.6508444  3
   3120   3118   3117   3139     1  0.0000000  0.6508444  3
   3121   3124   3126   3127     1  180.0000771  9.6232000  2
   3121   3118   3117   3139     1  0.0000000  0.6508444  3
   3122   3121   3124   3125     1  0.0000000  3.3472000  1
   3122   3121   3124   3125     1  0.0000000  0.0000000  2
   3122   3121   3124   3125     1  180.0000771  0.3347200  3
   3122   3121   3124   3126     1  180.0000771  0.0000000  2
   3123   3121   3124   3125     1  0.0000000  3.3472000  1
   3123   3121   3124   3125     1  0.0000000  0.0000000  2
   3123   3121   3124   3125     1  180.0000771  0.3347200  3
   3123   3121   3124   3126     1  180.0000771  0.0000000  2
   3125   3124   3126   3127     1  0.0000000  7.9496000  1
   3125   3124   3126   3127     1  180.0000771  9.6232000  2
   3129   3128   3131   3134     1  0.0000000  0.6508444  3
   3129   3128   3131   3132     1  0.0000000  0.6508444  3
   3129   3128   3131   3133     1  0.0000000  0.6508444  3
   3129   3128   3117   3139     1  0.0000000  0.6508444  3
   3130   3128   3131   3134     1  0.0000000  0.6508444  3
   3130   3128   3131   3132     1  0.0000000  0.6508444  3
   3130   3128   3131   3133     1  0.0000000  0.6508444  3
   3130   3128   3117   3139     1  0.0000000  0.6508444  3
   3131   3134   3136   3137     1  180.0000771  9.6232000  2
   3131   3128   3117   3139     1  0.0000000  0.6508444  3
   3132   3131   3134   3135     1  0.0000000  3.3472000  1
   3132   3131   3134   3135     1  0.0000000  0.0000000  2
   3132   3131   3134   3135     1  180.0000771  0.3347200  3
   3132   3131   3134   3136     1  180.0000771  0.0000000  2
   3133   3131   3134   3135     1  0.0000000  3.3472000  1
   3133   3131   3134   3135     1  0.0000000  0.0000000  2
   3133   3131   3134   3135     1  180.0000771  0.3347200  3
   3133   3131   3134   3136     1  180.0000771  0.0000000  2
   3135   3134   3136   3137     1  0.0000000  7.9496000  1
   3135   3134   3136   3137     1  180.0000771  9.6232000  2
   3140   3143   3146   3147     1  0.0000000  0.6508444  3
   3140   3143   3146   3148     1  0.0000000  0.6508444  3
   3141   3140   3143   3146     1  0.0000000  0.6508444  3
   3141   3140   3143   3144     1  0.0000000  0.6508444  3
   3141   3140   3143   3145     1  0.0000000  0.6508444  3
   3142   3140   3143   3146     1  0.0000000  0.6508444  3
   3142   3140   3143   3144     1  0.0000000  0.6508444  3
   3142   3140   3143   3145     1  0.0000000  0.6508444  3
   3143   3146   3149   3171     1  0.0000000  0.6508444  3
   3144   3143   3140   3170     1  0.0000000  1.0460000  1
   3144   3143   3140   3170     1  0.0000000  0.0000000  3
   3144   3143   3146   3149     1  0.0000000  0.6508444  3
   3144   3143   3146   3147     1  0.0000000  0.6508444  3
   3144   3143   3146   3148     1  0.0000000  0.6508444  3
   3145   3143   3140   3170     1  0.0000000  1.0460000  1
   3145   3143   3140   3170     1  0.0000000  0.0000000  3
   3145   3143   3146   3149     1  0.0000000  0.6508444  3
   3145   3143   3146   3147     1  0.0000000  0.6508444  3
   3145   3143   3146   3148     1  0.0000000  0.6508444  3
   3146   3149   3150   3151     1  0.0000000  0.6508444  3
   3146   3149   3150   3152     1  0.0000000  0.6508444  3
   3146   3149   3160   3161     1  0.0000000  0.6508444  3
   3146   3149   3160   3162     1  0.0000000  0.6508444  3
   3147   3146   3149   3150     1  0.0000000  0.6508444  3
   3147   3146   3149   3160     1  0.0000000  0.6508444  3
   3147   3146   3149   3171     1  0.0000000  0.6508444  3
   3148   3146   3149   3150     1  0.0000000  0.6508444  3
   3148   3146   3149   3160     1  0.0000000  0.6508444  3
   3148   3146   3149   3171     1  0.0000000  0.6508444  3
   3149   3150   3153   3154     1  0.0000000  0.6508444  3
   3149   3150   3153   3155     1  0.0000000  0.6508444  3
   3149   3160   3163   3164     1  0.0000000  0.6508444  3
   3149   3160   3163   3165     1  0.0000000  0.6508444  3
   3150   3149   3160   3161     1  0.0000000  0.6508444  3
   3150   3149   3160   3162     1  0.0000000  0.6508444  3
   3151   3150   3149   3160     1  0.0000000  0.6508444  3
   3151   3150   3149   3171     1  0.0000000  0.6508444  3
   3151   3150   3153   3156     1  0.0000000  0.6508444  3
   3151   3150   3153   3154     1  0.0000000  0.6508444  3
   3151   3150   3153   3155     1  0.0000000  0.6508444  3
   3152   3150   3149   3160     1  0.0000000  0.6508444  3
   3152   3150   3149   3171     1  0.0000000  0.6508444  3
   3152   3150   3153   3156     1  0.0000000  0.6508444  3
   3152   3150   3153   3154     1  0.0000000  0.6508444  3
   3152   3150   3153   3155     1  0.0000000  0.6508444  3
   3153   3150   3149   3171     1  0.0000000  0.6508444  3
   3153   3156   3158   3159     1  180.0000771  9.6232000  2
   3154   3153   3156   3157     1  0.0000000  3.3472000  1
   3154   3153   3156   3157     1  0.0000000  0.0000000  2
   3154   3153   3156   3157     1  180.0000771  0.3347200  3
   3154   3153   3156   3158     1  180.0000771  0.0000000  2
   3155   3153   3156   3157     1  0.0000000  3.3472000  1
   3155   3153   3156   3157     1  0.0000000  0.0000000  2
   3155   3153   3156   3157     1  180.0000771  0.3347200  3
   3155   3153   3156   3158     1  180.0000771  0.0000000  2
   3157   3156   3158   3159     1  0.0000000  7.9496000  1
   3157   3156   3158   3159     1  180.0000771  9.6232000  2
   3161   3160   3149   3171     1  0.0000000  0.6508444  3
   3161   3160   3163   3166     1  0.0000000  0.6508444  3
   3161   3160   3163   3164     1  0.0000000  0.6508444  3
   3161   3160   3163   3165     1  0.0000000  0.6508444  3
   3162   3160   3149   3171     1  0.0000000  0.6508444  3
   3162   3160   3163   3166     1  0.0000000  0.6508444  3
   3162   3160   3163   3164     1  0.0000000  0.6508444  3
   3162   3160   3163   3165     1  0.0000000  0.6508444  3
   3163   3160   3149   3171     1  0.0000000  0.6508444  3
   3163   3166   3168   3169     1  180.0000771  9.6232000  2
   3164   3163   3166   3167     1  0.0000000  3.3472000  1
   3164   3163   3166   3167     1  0.0000000  0.0000000  2
   3164   3163   3166   3167     1  180.0000771  0.3347200  3
   3164   3163   3166   3168     1  180.0000771  0.0000000  2
   3165   3163   3166   3167     1  0.0000000  3.3472000  1
   3165   3163   3166   3167     1  0.0000000  0.0000000  2
   3165   3163   3166   3167     1  180.0000771  0.3347200  3
   3165   3163   3166   3168     1  180.0000771  0.0000000  2
   3167   3166   3168   3169     1  0.0000000  7.9496000  1
   3167   3166   3168   3169     1  180.0000771  9.6232000  2
   3172   3175   3178   3179     1  0.0000000  0.6508444  3
   3172   3175   3178   3180     1  0.0000000  0.6508444  3
   3173   3172   3175   3178     1  0.0000000  0.6508444  3
   3173   3172   3175   3176     1  0.0000000  0.6508444  3
   3173   3172   3175   3177     1  0.0000000  0.6508444  3
   3174   3172   3175   3178     1  0.0000000  0.6508444  3
   3174   3172   3175   3176     1  0.0000000  0.6508444  3
   3174   3172   3175   3177     1  0.0000000  0.6508444  3
   3175   3178   3181   3203     1  0.0000000  0.6508444  3
   3176   3175   3178   3181     1  0.0000000  0.6508444  3
   3176   3175   3178   3179     1  0.0000000  0.6508444  3
   3176   3175   3178   3180     1  0.0000000  0.6508444  3
   3176   3175   3172   3202     1  0.0000000  1.0460000  1
   3176   3175   3172   3202     1  0.0000000  0.0000000  3
   3177   3175   3178   3181     1  0.0000000  0.6508444  3
   3177   3175   3178   3179     1  0.0000000  0.6508444  3
   3177   3175   3178   3180     1  0.0000000  0.6508444  3
   3177   3175   3172   3202     1  0.0000000  1.0460000  1
   3177   3175   3172   3202     1  0.0000000  0.0000000  3
   3178   3181   3182   3183     1  0.0000000  0.6508444  3
   3178   3181   3182   3184     1  0.0000000  0.6508444  3
   3178   3181   3192   3193     1  0.0000000  0.6508444  3
   3178   3181   3192   3194     1  0.0000000  0.6508444  3
   3179   3178   3181   3182     1  0.0000000  0.6508444  3
   3179   3178   3181   3192     1  0.0000000  0.6508444  3
   3179   3178   3181   3203     1  0.0000000  0.6508444  3
   3180   3178   3181   3182     1  0.0000000  0.6508444  3
   3180   3178   3181   3192     1  0.0000000  0.6508444  3
   3180   3178   3181   3203     1  0.0000000  0.6508444  3
   3181   3182   3185   3186     1  0.0000000  0.6508444  3
   3181   3182   3185   3187     1  0.0000000  0.6508444  3
   3181   3192   3195   3196     1  0.0000000  0.6508444  3
   3181   3192   3195   3197     1  0.0000000  0.6508444  3
   3182   3181   3192   3193     1  0.0000000  0.6508444  3
   3182   3181   3192   3194     1  0.0000000  0.6508444  3
   3183   3182   3185   3188     1  0.0000000  0.6508444  3
   3183   3182   3185   3186     1  0.0000000  0.6508444  3
   3183   3182   3185   3187     1  0.0000000  0.6508444  3
   3183   3182   3181   3192     1  0.0000000  0.6508444  3
   3183   3182   3181   3203     1  0.0000000  0.6508444  3
   3184   3182   3185   3188     1  0.0000000  0.6508444  3
   3184   3182   3185   3186     1  0.0000000  0.6508444  3
   3184   3182   3185   3187     1  0.0000000  0.6508444  3
   3184   3182   3181   3192     1  0.0000000  0.6508444  3
   3184   3182   3181   3203     1  0.0000000  0.6508444  3
   3185   3188   3190   3191     1  180.0000771  9.6232000  2
   3185   3182   3181   3203     1  0.0000000  0.6508444  3
   3186   3185   3188   3189     1  0.0000000  3.3472000  1
   3186   3185   3188   3189     1  0.0000000  0.0000000  2
   3186   3185   3188   3189     1  180.0000771  0.3347200  3
   3186   3185   3188   3190     1  180.0000771  0.0000000  2
   3187   3185   3188   3189     1  0.0000000  3.3472000  1
   3187   3185   3188   3189     1  0.0000000  0.0000000  2
   3187   3185   3188   3189     1  180.0000771  0.3347200  3
   3187   3185   3188   3190     1  180.0000771  0.0000000  2
   3189   3188   3190   3191     1  0.0000000  7.9496000  1
   3189   3188   3190   3191     1  180.0000771  9.6232000  2
   3193   3192   3195   3198     1  0.0000000  0.6508444  3
   3193   3192   3195   3196     1  0.0000000  0.6508444  3
   3193   3192   3195   3197     1  0.0000000  0.6508444  3
   3193   3192   3181   3203     1  0.0000000  0.6508444  3
   3194   3192   3195   3198     1  0.0000000  0.6508444  3
   3194   3192   3195   3196     1  0.0000000  0.6508444  3
   3194   3192   3195   3197     1  0.0000000  0.6508444  3
   3194   3192   3181   3203     1  0.0000000  0.6508444  3
   3195   3198   3200   3201     1  180.0000771  9.6232000  2
   3195   3192   3181   3203     1  0.0000000  0.6508444  3
   3196   3195   3198   3199     1  0.0000000  3.3472000  1
   3196   3195   3198   3199     1  0.0000000  0.0000000  2
   3196   3195   3198   3199     1  180.0000771  0.3347200  3
   3196   3195   3198   3200     1  180.0000771  0.0000000  2
   3197   3195   3198   3199     1  0.0000000  3.3472000  1
   3197   3195   3198   3199     1  0.0000000  0.0000000  2
   3197   3195   3198   3199     1  180.0000771  0.3347200  3
   3197   3195   3198   3200     1  180.0000771  0.0000000  2
   3199   3198   3200   3201     1  0.0000000  7.9496000  1
   3199   3198   3200   3201     1  180.0000771  9.6232000  2
   3204   3207   3210   3211     1  0.0000000  0.6508444  3
   3204   3207   3210   3212     1  0.0000000  0.6508444  3
   3205   3204   3207   3210     1  0.0000000  0.6508444  3
   3205   3204   3207   3208     1  0.0000000  0.6508444  3
   3205   3204   3207   3209     1  0.0000000  0.6508444  3
   3206   3204   3207   3210     1  0.0000000  0.6508444  3
   3206   3204   3207   3208     1  0.0000000  0.6508444  3
   3206   3204   3207   3209     1  0.0000000  0.6508444  3
   3207   3210   3213   3235     1  0.0000000  0.6508444  3
   3208   3207   3204   3234     1  0.0000000  1.0460000  1
   3208   3207   3204   3234     1  0.0000000  0.0000000  3
   3208   3207   3210   3213     1  0.0000000  0.6508444  3
   3208   3207   3210   3211     1  0.0000000  0.6508444  3
   3208   3207   3210   3212     1  0.0000000  0.6508444  3
   3209   3207   3204   3234     1  0.0000000  1.0460000  1
   3209   3207   3204   3234     1  0.0000000  0.0000000  3
   3209   3207   3210   3213     1  0.0000000  0.6508444  3
   3209   3207   3210   3211     1  0.0000000  0.6508444  3
   3209   3207   3210   3212     1  0.0000000  0.6508444  3
   3210   3213   3214   3215     1  0.0000000  0.6508444  3
   3210   3213   3214   3216     1  0.0000000  0.6508444  3
   3210   3213   3224   3225     1  0.0000000  0.6508444  3
   3210   3213   3224   3226     1  0.0000000  0.6508444  3
   3211   3210   3213   3214     1  0.0000000  0.6508444  3
   3211   3210   3213   3224     1  0.0000000  0.6508444  3
   3211   3210   3213   3235     1  0.0000000  0.6508444  3
   3212   3210   3213   3214     1  0.0000000  0.6508444  3
   3212   3210   3213   3224     1  0.0000000  0.6508444  3
   3212   3210   3213   3235     1  0.0000000  0.6508444  3
   3213   3214   3217   3218     1  0.0000000  0.6508444  3
   3213   3214   3217   3219     1  0.0000000  0.6508444  3
   3213   3224   3227   3228     1  0.0000000  0.6508444  3
   3213   3224   3227   3229     1  0.0000000  0.6508444  3
   3214   3213   3224   3225     1  0.0000000  0.6508444  3
   3214   3213   3224   3226     1  0.0000000  0.6508444  3
   3215   3214   3213   3224     1  0.0000000  0.6508444  3
   3215   3214   3213   3235     1  0.0000000  0.6508444  3
   3215   3214   3217   3220     1  0.0000000  0.6508444  3
   3215   3214   3217   3218     1  0.0000000  0.6508444  3
   3215   3214   3217   3219     1  0.0000000  0.6508444  3
   3216   3214   3213   3224     1  0.0000000  0.6508444  3
   3216   3214   3213   3235     1  0.0000000  0.6508444  3
   3216   3214   3217   3220     1  0.0000000  0.6508444  3
   3216   3214   3217   3218     1  0.0000000  0.6508444  3
   3216   3214   3217   3219     1  0.0000000  0.6508444  3
   3217   3214   3213   3235     1  0.0000000  0.6508444  3
   3217   3220   3222   3223     1  180.0000771  9.6232000  2
   3218   3217   3220   3221     1  0.0000000  3.3472000  1
   3218   3217   3220   3221     1  0.0000000  0.0000000  2
   3218   3217   3220   3221     1  180.0000771  0.3347200  3
   3218   3217   3220   3222     1  180.0000771  0.0000000  2
   3219   3217   3220   3221     1  0.0000000  3.3472000  1
   3219   3217   3220   3221     1  0.0000000  0.0000000  2
   3219   3217   3220   3221     1  180.0000771  0.3347200  3
   3219   3217   3220   3222     1  180.0000771  0.0000000  2
   3221   3220   3222   3223     1  0.0000000  7.9496000  1
   3221   3220   3222   3223     1  180.0000771  9.6232000  2
   3225   3224   3213   3235     1  0.0000000  0.6508444  3
   3225   3224   3227   3230     1  0.0000000  0.6508444  3
   3225   3224   3227   3228     1  0.0000000  0.6508444  3
   3225   3224   3227   3229     1  0.0000000  0.6508444  3
   3226   3224   3213   3235     1  0.0000000  0.6508444  3
   3226   3224   3227   3230     1  0.0000000  0.6508444  3
   3226   3224   3227   3228     1  0.0000000  0.6508444  3
   3226   3224   3227   3229     1  0.0000000  0.6508444  3
   3227   3224   3213   3235     1  0.0000000  0.6508444  3
   3227   3230   3232   3233     1  180.0000771  9.6232000  2
   3228   3227   3230   3231     1  0.0000000  3.3472000  1
   3228   3227   3230   3231     1  0.0000000  0.0000000  2
   3228   3227   3230   3231     1  180.0000771  0.3347200  3
   3228   3227   3230   3232     1  180.0000771  0.0000000  2
   3229   3227   3230   3231     1  0.0000000  3.3472000  1
   3229   3227   3230   3231     1  0.0000000  0.0000000  2
   3229   3227   3230   3231     1  180.0000771  0.3347200  3
   3229   3227   3230   3232     1  180.0000771  0.0000000  2
   3231   3230   3232   3233     1  0.0000000  7.9496000  1
   3231   3230   3232   3233     1  180.0000771  9.6232000  2
   3236   3239   3242   3243     1  0.0000000  0.6508444  3
   3236   3239   3242   3244     1  0.0000000  0.6508444  3
   3237   3236   3239   3242     1  0.0000000  0.6508444  3
   3237   3236   3239   3240     1  0.0000000  0.6508444  3
   3237   3236   3239   3241     1  0.0000000  0.6508444  3
   3238   3236   3239   3242     1  0.0000000  0.6508444  3
   3238   3236   3239   3240     1  0.0000000  0.6508444  3
   3238   3236   3239   3241     1  0.0000000  0.6508444  3
   3239   3242   3245   3267     1  0.0000000  0.6508444  3
   3240   3239   3242   3245     1  0.0000000  0.6508444  3
   3240   3239   3242   3243     1  0.0000000  0.6508444  3
   3240   3239   3242   3244     1  0.0000000  0.6508444  3
   3240   3239   3236   3266     1  0.0000000  1.0460000  1
   3240   3239   3236   3266     1  0.0000000  0.0000000  3
   3241   3239   3242   3245     1  0.0000000  0.6508444  3
   3241   3239   3242   3243     1  0.0000000  0.6508444  3
   3241   3239   3242   3244     1  0.0000000  0.6508444  3
   3241   3239   3236   3266     1  0.0000000  1.0460000  1
   3241   3239   3236   3266     1  0.0000000  0.0000000  3
   3242   3245   3246   3247     1  0.0000000  0.6508444  3
   3242   3245   3246   3248     1  0.0000000  0.6508444  3
   3242   3245   3256   3257     1  0.0000000  0.6508444  3
   3242   3245   3256   3258     1  0.0000000  0.6508444  3
   3243   3242   3245   3246     1  0.0000000  0.6508444  3
   3243   3242   3245   3256     1  0.0000000  0.6508444  3
   3243   3242   3245   3267     1  0.0000000  0.6508444  3
   3244   3242   3245   3246     1  0.0000000  0.6508444  3
   3244   3242   3245   3256     1  0.0000000  0.6508444  3
   3244   3242   3245   3267     1  0.0000000  0.6508444  3
   3245   3246   3249   3250     1  0.0000000  0.6508444  3
   3245   3246   3249   3251     1  0.0000000  0.6508444  3
   3245   3256   3259   3260     1  0.0000000  0.6508444  3
   3245   3256   3259   3261     1  0.0000000  0.6508444  3
   3246   3245   3256   3257     1  0.0000000  0.6508444  3
   3246   3245   3256   3258     1  0.0000000  0.6508444  3
   3247   3246   3249   3252     1  0.0000000  0.6508444  3
   3247   3246   3249   3250     1  0.0000000  0.6508444  3
   3247   3246   3249   3251     1  0.0000000  0.6508444  3
   3247   3246   3245   3256     1  0.0000000  0.6508444  3
   3247   3246   3245   3267     1  0.0000000  0.6508444  3
   3248   3246   3249   3252     1  0.0000000  0.6508444  3
   3248   3246   3249   3250     1  0.0000000  0.6508444  3
   3248   3246   3249   3251     1  0.0000000  0.6508444  3
   3248   3246   3245   3256     1  0.0000000  0.6508444  3
   3248   3246   3245   3267     1  0.0000000  0.6508444  3
   3249   3252   3254   3255     1  180.0000771  9.6232000  2
   3249   3246   3245   3267     1  0.0000000  0.6508444  3
   3250   3249   3252   3253     1  0.0000000  3.3472000  1
   3250   3249   3252   3253     1  0.0000000  0.0000000  2
   3250   3249   3252   3253     1  180.0000771  0.3347200  3
   3250   3249   3252   3254     1  180.0000771  0.0000000  2
   3251   3249   3252   3253     1  0.0000000  3.3472000  1
   3251   3249   3252   3253     1  0.0000000  0.0000000  2
   3251   3249   3252   3253     1  180.0000771  0.3347200  3
   3251   3249   3252   3254     1  180.0000771  0.0000000  2
   3253   3252   3254   3255     1  0.0000000  7.9496000  1
   3253   3252   3254   3255     1  180.0000771  9.6232000  2
   3257   3256   3259   3262     1  0.0000000  0.6508444  3
   3257   3256   3259   3260     1  0.0000000  0.6508444  3
   3257   3256   3259   3261     1  0.0000000  0.6508444  3
   3257   3256   3245   3267     1  0.0000000  0.6508444  3
   3258   3256   3259   3262     1  0.0000000  0.6508444  3
   3258   3256   3259   3260     1  0.0000000  0.6508444  3
   3258   3256   3259   3261     1  0.0000000  0.6508444  3
   3258   3256   3245   3267     1  0.0000000  0.6508444  3
   3259   3262   3264   3265     1  180.0000771  9.6232000  2
   3259   3256   3245   3267     1  0.0000000  0.6508444  3
   3260   3259   3262   3263     1  0.0000000  3.3472000  1
   3260   3259   3262   3263     1  0.0000000  0.0000000  2
   3260   3259   3262   3263     1  180.0000771  0.3347200  3
   3260   3259   3262   3264     1  180.0000771  0.0000000  2
   3261   3259   3262   3263     1  0.0000000  3.3472000  1
   3261   3259   3262   3263     1  0.0000000  0.0000000  2
   3261   3259   3262   3263     1  180.0000771  0.3347200  3
   3261   3259   3262   3264     1  180.0000771  0.0000000  2
   3263   3262   3264   3265     1  0.0000000  7.9496000  1
   3263   3262   3264   3265     1  180.0000771  9.6232000  2
   3268   3271   3274   3275     1  0.0000000  0.6508444  3
   3268   3271   3274   3276     1  0.0000000  0.6508444  3
   3269   3268   3271   3274     1  0.0000000  0.6508444  3
   3269   3268   3271   3272     1  0.0000000  0.6508444  3
   3269   3268   3271   3273     1  0.0000000  0.6508444  3
   3270   3268   3271   3274     1  0.0000000  0.6508444  3
   3270   3268   3271   3272     1  0.0000000  0.6508444  3
   3270   3268   3271   3273     1  0.0000000  0.6508444  3
   3271   3274   3277   3299     1  0.0000000  0.6508444  3
   3272   3271   3268   3298     1  0.0000000  1.0460000  1
   3272   3271   3268   3298     1  0.0000000  0.0000000  3
   3272   3271   3274   3277     1  0.0000000  0.6508444  3
   3272   3271   3274   3275     1  0.0000000  0.6508444  3
   3272   3271   3274   3276     1  0.0000000  0.6508444  3
   3273   3271   3268   3298     1  0.0000000  1.0460000  1
   3273   3271   3268   3298     1  0.0000000  0.0000000  3
   3273   3271   3274   3277     1  0.0000000  0.6508444  3
   3273   3271   3274   3275     1  0.0000000  0.6508444  3
   3273   3271   3274   3276     1  0.0000000  0.6508444  3
   3274   3277   3278   3279     1  0.0000000  0.6508444  3
   3274   3277   3278   3280     1  0.0000000  0.6508444  3
   3274   3277   3288   3289     1  0.0000000  0.6508444  3
   3274   3277   3288   3290     1  0.0000000  0.6508444  3
   3275   3274   3277   3278     1  0.0000000  0.6508444  3
   3275   3274   3277   3288     1  0.0000000  0.6508444  3
   3275   3274   3277   3299     1  0.0000000  0.6508444  3
   3276   3274   3277   3278     1  0.0000000  0.6508444  3
   3276   3274   3277   3288     1  0.0000000  0.6508444  3
   3276   3274   3277   3299     1  0.0000000  0.6508444  3
   3277   3278   3281   3282     1  0.0000000  0.6508444  3
   3277   3278   3281   3283     1  0.0000000  0.6508444  3
   3277   3288   3291   3292     1  0.0000000  0.6508444  3
   3277   3288   3291   3293     1  0.0000000  0.6508444  3
   3278   3277   3288   3289     1  0.0000000  0.6508444  3
   3278   3277   3288   3290     1  0.0000000  0.6508444  3
   3279   3278   3277   3288     1  0.0000000  0.6508444  3
   3279   3278   3277   3299     1  0.0000000  0.6508444  3
   3279   3278   3281   3284     1  0.0000000  0.6508444  3
   3279   3278   3281   3282     1  0.0000000  0.6508444  3
   3279   3278   3281   3283     1  0.0000000  0.6508444  3
   3280   3278   3277   3288     1  0.0000000  0.6508444  3
   3280   3278   3277   3299     1  0.0000000  0.6508444  3
   3280   3278   3281   3284     1  0.0000000  0.6508444  3
   3280   3278   3281   3282     1  0.0000000  0.6508444  3
   3280   3278   3281   3283     1  0.0000000  0.6508444  3
   3281   3278   3277   3299     1  0.0000000  0.6508444  3
   3281   3284   3286   3287     1  180.0000771  9.6232000  2
   3282   3281   3284   3285     1  0.0000000  3.3472000  1
   3282   3281   3284   3285     1  0.0000000  0.0000000  2
   3282   3281   3284   3285     1  180.0000771  0.3347200  3
   3282   3281   3284   3286     1  180.0000771  0.0000000  2
   3283   3281   3284   3285     1  0.0000000  3.3472000  1
   3283   3281   3284   3285     1  0.0000000  0.0000000  2
   3283   3281   3284   3285     1  180.0000771  0.3347200  3
   3283   3281   3284   3286     1  180.0000771  0.0000000  2
   3285   3284   3286   3287     1  0.0000000  7.9496000  1
   3285   3284   3286   3287     1  180.0000771  9.6232000  2
   3289   3288   3277   3299     1  0.0000000  0.6508444  3
   3289   3288   3291   3294     1  0.0000000  0.6508444  3
   3289   3288   3291   3292     1  0.0000000  0.6508444  3
   3289   3288   3291   3293     1  0.0000000  0.6508444  3
   3290   3288   3277   3299     1  0.0000000  0.6508444  3
   3290   3288   3291   3294     1  0.0000000  0.6508444  3
   3290   3288   3291   3292     1  0.0000000  0.6508444  3
   3290   3288   3291   3293     1  0.0000000  0.6508444  3
   3291   3288   3277   3299     1  0.0000000  0.6508444  3
   3291   3294   3296   3297     1  180.0000771  9.6232000  2
   3292   3291   3294   3295     1  0.0000000  3.3472000  1
   3292   3291   3294   3295     1  0.0000000  0.0000000  2
   3292   3291   3294   3295     1  180.0000771  0.3347200  3
   3292   3291   3294   3296     1  180.0000771  0.0000000  2
   3293   3291   3294   3295     1  0.0000000  3.3472000  1
   3293   3291   3294   3295     1  0.0000000  0.0000000  2
   3293   3291   3294   3295     1  180.0000771  0.3347200  3
   3293   3291   3294   3296     1  180.0000771  0.0000000  2
   3295   3294   3296   3297     1  0.0000000  7.9496000  1
   3295   3294   3296   3297     1  180.0000771  9.6232000  2
   3300   3303   3306   3307     1  0.0000000  0.6508444  3
   3300   3303   3306   3308     1  0.0000000  0.6508444  3
   3301   3300   3303   3306     1  0.0000000  0.6508444  3
   3301   3300   3303   3304     1  0.0000000  0.6508444  3
   3301   3300   3303   3305     1  0.0000000  0.6508444  3
   3302   3300   3303   3306     1  0.0000000  0.6508444  3
   3302   3300   3303   3304     1  0.0000000  0.6508444  3
   3302   3300   3303   3305     1  0.0000000  0.6508444  3
   3303   3306   3309   3331     1  0.0000000  0.6508444  3
   3304   3303   3306   3309     1  0.0000000  0.6508444  3
   3304   3303   3306   3307     1  0.0000000  0.6508444  3
   3304   3303   3306   3308     1  0.0000000  0.6508444  3
   3304   3303   3300   3330     1  0.0000000  1.0460000  1
   3304   3303   3300   3330     1  0.0000000  0.0000000  3
   3305   3303   3306   3309     1  0.0000000  0.6508444  3
   3305   3303   3306   3307     1  0.0000000  0.6508444  3
   3305   3303   3306   3308     1  0.0000000  0.6508444  3
   3305   3303   3300   3330     1  0.0000000  1.0460000  1
   3305   3303   3300   3330     1  0.0000000  0.0000000  3
   3306   3309   3310   3311     1  0.0000000  0.6508444  3
   3306   3309   3310   3312     1  0.0000000  0.6508444  3
   3306   3309   3320   3321     1  0.0000000  0.6508444  3
   3306   3309   3320   3322     1  0.0000000  0.6508444  3
   3307   3306   3309   3310     1  0.0000000  0.6508444  3
   3307   3306   3309   3320     1  0.0000000  0.6508444  3
   3307   3306   3309   3331     1  0.0000000  0.6508444  3
   3308   3306   3309   3310     1  0.0000000  0.6508444  3
   3308   3306   3309   3320     1  0.0000000  0.6508444  3
   3308   3306   3309   3331     1  0.0000000  0.6508444  3
   3309   3310   3313   3314     1  0.0000000  0.6508444  3
   3309   3310   3313   3315     1  0.0000000  0.6508444  3
   3309   3320   3323   3324     1  0.0000000  0.6508444  3
   3309   3320   3323   3325     1  0.0000000  0.6508444  3
   3310   3309   3320   3321     1  0.0000000  0.6508444  3
   3310   3309   3320   3322     1  0.0000000  0.6508444  3
   3311   3310   3313   3316     1  0.0000000  0.6508444  3
   3311   3310   3313   3314     1  0.0000000  0.6508444  3
   3311   3310   3313   3315     1  0.0000000  0.6508444  3
   3311   3310   3309   3320     1  0.0000000  0.6508444  3
   3311   3310   3309   3331     1  0.0000000  0.6508444  3
   3312   3310   3313   3316     1  0.0000000  0.6508444  3
   3312   3310   3313   3314     1  0.0000000  0.6508444  3
   3312   3310   3313   3315     1  0.0000000  0.6508444  3
   3312   3310   3309   3320     1  0.0000000  0.6508444  3
   3312   3310   3309   3331     1  0.0000000  0.6508444  3
   3313   3316   3318   3319     1  180.0000771  9.6232000  2
   3313   3310   3309   3331     1  0.0000000  0.6508444  3
   3314   3313   3316   3317     1  0.0000000  3.3472000  1
   3314   3313   3316   3317     1  0.0000000  0.0000000  2
   3314   3313   3316   3317     1  180.0000771  0.3347200  3
   3314   3313   3316   3318     1  180.0000771  0.0000000  2
   3315   3313   3316   3317     1  0.0000000  3.3472000  1
   3315   3313   3316   3317     1  0.0000000  0.0000000  2
   3315   3313   3316   3317     1  180.0000771  0.3347200  3
   3315   3313   3316   3318     1  180.0000771  0.0000000  2
   3317   3316   3318   3319     1  0.0000000  7.9496000  1
   3317   3316   3318   3319     1  180.0000771  9.6232000  2
   3321   3320   3323   3326     1  0.0000000  0.6508444  3
   3321   3320   3323   3324     1  0.0000000  0.6508444  3
   3321   3320   3323   3325     1  0.0000000  0.6508444  3
   3321   3320   3309   3331     1  0.0000000  0.6508444  3
   3322   3320   3323   3326     1  0.0000000  0.6508444  3
   3322   3320   3323   3324     1  0.0000000  0.6508444  3
   3322   3320   3323   3325     1  0.0000000  0.6508444  3
   3322   3320   3309   3331     1  0.0000000  0.6508444  3
   3323   3326   3328   3329     1  180.0000771  9.6232000  2
   3323   3320   3309   3331     1  0.0000000  0.6508444  3
   3324   3323   3326   3327     1  0.0000000  3.3472000  1
   3324   3323   3326   3327     1  0.0000000  0.0000000  2
   3324   3323   3326   3327     1  180.0000771  0.3347200  3
   3324   3323   3326   3328     1  180.0000771  0.0000000  2
   3325   3323   3326   3327     1  0.0000000  3.3472000  1
   3325   3323   3326   3327     1  0.0000000  0.0000000  2
   3325   3323   3326   3327     1  180.0000771  0.3347200  3
   3325   3323   3326   3328     1  180.0000771  0.0000000  2
   3327   3326   3328   3329     1  0.0000000  7.9496000  1
   3327   3326   3328   3329     1  180.0000771  9.6232000  2
   3332   3335   3338   3339     1  0.0000000  0.6508444  3
   3332   3335   3338   3340     1  0.0000000  0.6508444  3
   3333   3332   3335   3338     1  0.0000000  0.6508444  3
   3333   3332   3335   3336     1  0.0000000  0.6508444  3
   3333   3332   3335   3337     1  0.0000000  0.6508444  3
   3334   3332   3335   3338     1  0.0000000  0.6508444  3
   3334   3332   3335   3336     1  0.0000000  0.6508444  3
   3334   3332   3335   3337     1  0.0000000  0.6508444  3
   3335   3338   3341   3363     1  0.0000000  0.6508444  3
   3336   3335   3332   3362     1  0.0000000  1.0460000  1
   3336   3335   3332   3362     1  0.0000000  0.0000000  3
   3336   3335   3338   3341     1  0.0000000  0.6508444  3
   3336   3335   3338   3339     1  0.0000000  0.6508444  3
   3336   3335   3338   3340     1  0.0000000  0.6508444  3
   3337   3335   3332   3362     1  0.0000000  1.0460000  1
   3337   3335   3332   3362     1  0.0000000  0.0000000  3
   3337   3335   3338   3341     1  0.0000000  0.6508444  3
   3337   3335   3338   3339     1  0.0000000  0.6508444  3
   3337   3335   3338   3340     1  0.0000000  0.6508444  3
   3338   3341   3342   3343     1  0.0000000  0.6508444  3
   3338   3341   3342   3344     1  0.0000000  0.6508444  3
   3338   3341   3352   3353     1  0.0000000  0.6508444  3
   3338   3341   3352   3354     1  0.0000000  0.6508444  3
   3339   3338   3341   3342     1  0.0000000  0.6508444  3
   3339   3338   3341   3352     1  0.0000000  0.6508444  3
   3339   3338   3341   3363     1  0.0000000  0.6508444  3
   3340   3338   3341   3342     1  0.0000000  0.6508444  3
   3340   3338   3341   3352     1  0.0000000  0.6508444  3
   3340   3338   3341   3363     1  0.0000000  0.6508444  3
   3341   3342   3345   3346     1  0.0000000  0.6508444  3
   3341   3342   3345   3347     1  0.0000000  0.6508444  3
   3341   3352   3355   3356     1  0.0000000  0.6508444  3
   3341   3352   3355   3357     1  0.0000000  0.6508444  3
   3342   3341   3352   3353     1  0.0000000  0.6508444  3
   3342   3341   3352   3354     1  0.0000000  0.6508444  3
   3343   3342   3341   3352     1  0.0000000  0.6508444  3
   3343   3342   3341   3363     1  0.0000000  0.6508444  3
   3343   3342   3345   3348     1  0.0000000  0.6508444  3
   3343   3342   3345   3346     1  0.0000000  0.6508444  3
   3343   3342   3345   3347     1  0.0000000  0.6508444  3
   3344   3342   3341   3352     1  0.0000000  0.6508444  3
   3344   3342   3341   3363     1  0.0000000  0.6508444  3
   3344   3342   3345   3348     1  0.0000000  0.6508444  3
   3344   3342   3345   3346     1  0.0000000  0.6508444  3
   3344   3342   3345   3347     1  0.0000000  0.6508444  3
   3345   3342   3341   3363     1  0.0000000  0.6508444  3
   3345   3348   3350   3351     1  180.0000771  9.6232000  2
   3346   3345   3348   3349     1  0.0000000  3.3472000  1
   3346   3345   3348   3349     1  0.0000000  0.0000000  2
   3346   3345   3348   3349     1  180.0000771  0.3347200  3
   3346   3345   3348   3350     1  180.0000771  0.0000000  2
   3347   3345   3348   3349     1  0.0000000  3.3472000  1
   3347   3345   3348   3349     1  0.0000000  0.0000000  2
   3347   3345   3348   3349     1  180.0000771  0.3347200  3
   3347   3345   3348   3350     1  180.0000771  0.0000000  2
   3349   3348   3350   3351     1  0.0000000  7.9496000  1
   3349   3348   3350   3351     1  180.0000771  9.6232000  2
   3353   3352   3341   3363     1  0.0000000  0.6508444  3
   3353   3352   3355   3358     1  0.0000000  0.6508444  3
   3353   3352   3355   3356     1  0.0000000  0.6508444  3
   3353   3352   3355   3357     1  0.0000000  0.6508444  3
   3354   3352   3341   3363     1  0.0000000  0.6508444  3
   3354   3352   3355   3358     1  0.0000000  0.6508444  3
   3354   3352   3355   3356     1  0.0000000  0.6508444  3
   3354   3352   3355   3357     1  0.0000000  0.6508444  3
   3355   3352   3341   3363     1  0.0000000  0.6508444  3
   3355   3358   3360   3361     1  180.0000771  9.6232000  2
   3356   3355   3358   3359     1  0.0000000  3.3472000  1
   3356   3355   3358   3359     1  0.0000000  0.0000000  2
   3356   3355   3358   3359     1  180.0000771  0.3347200  3
   3356   3355   3358   3360     1  180.0000771  0.0000000  2
   3357   3355   3358   3359     1  0.0000000  3.3472000  1
   3357   3355   3358   3359     1  0.0000000  0.0000000  2
   3357   3355   3358   3359     1  180.0000771  0.3347200  3
   3357   3355   3358   3360     1  180.0000771  0.0000000  2
   3359   3358   3360   3361     1  0.0000000  7.9496000  1
   3359   3358   3360   3361     1  180.0000771  9.6232000  2
   3364   3367   3370   3371     1  0.0000000  0.6508444  3
   3364   3367   3370   3372     1  0.0000000  0.6508444  3
   3365   3364   3367   3370     1  0.0000000  0.6508444  3
   3365   3364   3367   3368     1  0.0000000  0.6508444  3
   3365   3364   3367   3369     1  0.0000000  0.6508444  3
   3366   3364   3367   3370     1  0.0000000  0.6508444  3
   3366   3364   3367   3368     1  0.0000000  0.6508444  3
   3366   3364   3367   3369     1  0.0000000  0.6508444  3
   3367   3370   3373   3395     1  0.0000000  0.6508444  3
   3368   3367   3370   3373     1  0.0000000  0.6508444  3
   3368   3367   3370   3371     1  0.0000000  0.6508444  3
   3368   3367   3370   3372     1  0.0000000  0.6508444  3
   3368   3367   3364   3394     1  0.0000000  1.0460000  1
   3368   3367   3364   3394     1  0.0000000  0.0000000  3
   3369   3367   3370   3373     1  0.0000000  0.6508444  3
   3369   3367   3370   3371     1  0.0000000  0.6508444  3
   3369   3367   3370   3372     1  0.0000000  0.6508444  3
   3369   3367   3364   3394     1  0.0000000  1.0460000  1
   3369   3367   3364   3394     1  0.0000000  0.0000000  3
   3370   3373   3374   3375     1  0.0000000  0.6508444  3
   3370   3373   3374   3376     1  0.0000000  0.6508444  3
   3370   3373   3384   3385     1  0.0000000  0.6508444  3
   3370   3373   3384   3386     1  0.0000000  0.6508444  3
   3371   3370   3373   3374     1  0.0000000  0.6508444  3
   3371   3370   3373   3384     1  0.0000000  0.6508444  3
   3371   3370   3373   3395     1  0.0000000  0.6508444  3
   3372   3370   3373   3374     1  0.0000000  0.6508444  3
   3372   3370   3373   3384     1  0.0000000  0.6508444  3
   3372   3370   3373   3395     1  0.0000000  0.6508444  3
   3373   3374   3377   3378     1  0.0000000  0.6508444  3
   3373   3374   3377   3379     1  0.0000000  0.6508444  3
   3373   3384   3387   3388     1  0.0000000  0.6508444  3
   3373   3384   3387   3389     1  0.0000000  0.6508444  3
   3374   3373   3384   3385     1  0.0000000  0.6508444  3
   3374   3373   3384   3386     1  0.0000000  0.6508444  3
   3375   3374   3377   3380     1  0.0000000  0.6508444  3
   3375   3374   3377   3378     1  0.0000000  0.6508444  3
   3375   3374   3377   3379     1  0.0000000  0.6508444  3
   3375   3374   3373   3384     1  0.0000000  0.6508444  3
   3375   3374   3373   3395     1  0.0000000  0.6508444  3
   3376   3374   3377   3380     1  0.0000000  0.6508444  3
   3376   3374   3377   3378     1  0.0000000  0.6508444  3
   3376   3374   3377   3379     1  0.0000000  0.6508444  3
   3376   3374   3373   3384     1  0.0000000  0.6508444  3
   3376   3374   3373   3395     1  0.0000000  0.6508444  3
   3377   3380   3382   3383     1  180.0000771  9.6232000  2
   3377   3374   3373   3395     1  0.0000000  0.6508444  3
   3378   3377   3380   3381     1  0.0000000  3.3472000  1
   3378   3377   3380   3381     1  0.0000000  0.0000000  2
   3378   3377   3380   3381     1  180.0000771  0.3347200  3
   3378   3377   3380   3382     1  180.0000771  0.0000000  2
   3379   3377   3380   3381     1  0.0000000  3.3472000  1
   3379   3377   3380   3381     1  0.0000000  0.0000000  2
   3379   3377   3380   3381     1  180.0000771  0.3347200  3
   3379   3377   3380   3382     1  180.0000771  0.0000000  2
   3381   3380   3382   3383     1  0.0000000  7.9496000  1
   3381   3380   3382   3383     1  180.0000771  9.6232000  2
   3385   3384   3387   3390     1  0.0000000  0.6508444  3
   3385   3384   3387   3388     1  0.0000000  0.6508444  3
   3385   3384   3387   3389     1  0.0000000  0.6508444  3
   3385   3384   3373   3395     1  0.0000000  0.6508444  3
   3386   3384   3387   3390     1  0.0000000  0.6508444  3
   3386   3384   3387   3388     1  0.0000000  0.6508444  3
   3386   3384   3387   3389     1  0.0000000  0.6508444  3
   3386   3384   3373   3395     1  0.0000000  0.6508444  3
   3387   3390   3392   3393     1  180.0000771  9.6232000  2
   3387   3384   3373   3395     1  0.0000000  0.6508444  3
   3388   3387   3390   3391     1  0.0000000  3.3472000  1
   3388   3387   3390   3391     1  0.0000000  0.0000000  2
   3388   3387   3390   3391     1  180.0000771  0.3347200  3
   3388   3387   3390   3392     1  180.0000771  0.0000000  2
   3389   3387   3390   3391     1  0.0000000  3.3472000  1
   3389   3387   3390   3391     1  0.0000000  0.0000000  2
   3389   3387   3390   3391     1  180.0000771  0.3347200  3
   3389   3387   3390   3392     1  180.0000771  0.0000000  2
   3391   3390   3392   3393     1  0.0000000  7.9496000  1
   3391   3390   3392   3393     1  180.0000771  9.6232000  2
   3396   3399   3402   3403     1  0.0000000  0.6508444  3
   3396   3399   3402   3404     1  0.0000000  0.6508444  3
   3397   3396   3399   3402     1  0.0000000  0.6508444  3
   3397   3396   3399   3400     1  0.0000000  0.6508444  3
   3397   3396   3399   3401     1  0.0000000  0.6508444  3
   3398   3396   3399   3402     1  0.0000000  0.6508444  3
   3398   3396   3399   3400     1  0.0000000  0.6508444  3
   3398   3396   3399   3401     1  0.0000000  0.6508444  3
   3399   3402   3405   3427     1  0.0000000  0.6508444  3
   3400   3399   3396   3426     1  0.0000000  1.0460000  1
   3400   3399   3396   3426     1  0.0000000  0.0000000  3
   3400   3399   3402   3405     1  0.0000000  0.6508444  3
   3400   3399   3402   3403     1  0.0000000  0.6508444  3
   3400   3399   3402   3404     1  0.0000000  0.6508444  3
   3401   3399   3396   3426     1  0.0000000  1.0460000  1
   3401   3399   3396   3426     1  0.0000000  0.0000000  3
   3401   3399   3402   3405     1  0.0000000  0.6508444  3
   3401   3399   3402   3403     1  0.0000000  0.6508444  3
   3401   3399   3402   3404     1  0.0000000  0.6508444  3
   3402   3405   3406   3407     1  0.0000000  0.6508444  3
   3402   3405   3406   3408     1  0.0000000  0.6508444  3
   3402   3405   3416   3417     1  0.0000000  0.6508444  3
   3402   3405   3416   3418     1  0.0000000  0.6508444  3
   3403   3402   3405   3406     1  0.0000000  0.6508444  3
   3403   3402   3405   3416     1  0.0000000  0.6508444  3
   3403   3402   3405   3427     1  0.0000000  0.6508444  3
   3404   3402   3405   3406     1  0.0000000  0.6508444  3
   3404   3402   3405   3416     1  0.0000000  0.6508444  3
   3404   3402   3405   3427     1  0.0000000  0.6508444  3
   3405   3406   3409   3410     1  0.0000000  0.6508444  3
   3405   3406   3409   3411     1  0.0000000  0.6508444  3
   3405   3416   3419   3420     1  0.0000000  0.6508444  3
   3405   3416   3419   3421     1  0.0000000  0.6508444  3
   3406   3405   3416   3417     1  0.0000000  0.6508444  3
   3406   3405   3416   3418     1  0.0000000  0.6508444  3
   3407   3406   3405   3416     1  0.0000000  0.6508444  3
   3407   3406   3405   3427     1  0.0000000  0.6508444  3
   3407   3406   3409   3412     1  0.0000000  0.6508444  3
   3407   3406   3409   3410     1  0.0000000  0.6508444  3
   3407   3406   3409   3411     1  0.0000000  0.6508444  3
   3408   3406   3405   3416     1  0.0000000  0.6508444  3
   3408   3406   3405   3427     1  0.0000000  0.6508444  3
   3408   3406   3409   3412     1  0.0000000  0.6508444  3
   3408   3406   3409   3410     1  0.0000000  0.6508444  3
   3408   3406   3409   3411     1  0.0000000  0.6508444  3
   3409   3406   3405   3427     1  0.0000000  0.6508444  3
   3409   3412   3414   3415     1  180.0000771  9.6232000  2
   3410   3409   3412   3413     1  0.0000000  3.3472000  1
   3410   3409   3412   3413     1  0.0000000  0.0000000  2
   3410   3409   3412   3413     1  180.0000771  0.3347200  3
   3410   3409   3412   3414     1  180.0000771  0.0000000  2
   3411   3409   3412   3413     1  0.0000000  3.3472000  1
   3411   3409   3412   3413     1  0.0000000  0.0000000  2
   3411   3409   3412   3413     1  180.0000771  0.3347200  3
   3411   3409   3412   3414     1  180.0000771  0.0000000  2
   3413   3412   3414   3415     1  0.0000000  7.9496000  1
   3413   3412   3414   3415     1  180.0000771  9.6232000  2
   3417   3416   3405   3427     1  0.0000000  0.6508444  3
   3417   3416   3419   3422     1  0.0000000  0.6508444  3
   3417   3416   3419   3420     1  0.0000000  0.6508444  3
   3417   3416   3419   3421     1  0.0000000  0.6508444  3
   3418   3416   3405   3427     1  0.0000000  0.6508444  3
   3418   3416   3419   3422     1  0.0000000  0.6508444  3
   3418   3416   3419   3420     1  0.0000000  0.6508444  3
   3418   3416   3419   3421     1  0.0000000  0.6508444  3
   3419   3416   3405   3427     1  0.0000000  0.6508444  3
   3419   3422   3424   3425     1  180.0000771  9.6232000  2
   3420   3419   3422   3423     1  0.0000000  3.3472000  1
   3420   3419   3422   3423     1  0.0000000  0.0000000  2
   3420   3419   3422   3423     1  180.0000771  0.3347200  3
   3420   3419   3422   3424     1  180.0000771  0.0000000  2
   3421   3419   3422   3423     1  0.0000000  3.3472000  1
   3421   3419   3422   3423     1  0.0000000  0.0000000  2
   3421   3419   3422   3423     1  180.0000771  0.3347200  3
   3421   3419   3422   3424     1  180.0000771  0.0000000  2
   3423   3422   3424   3425     1  0.0000000  7.9496000  1
   3423   3422   3424   3425     1  180.0000771  9.6232000  2
   3428   3431   3434   3435     1  0.0000000  0.6508444  3
   3428   3431   3434   3436     1  0.0000000  0.6508444  3
   3429   3428   3431   3434     1  0.0000000  0.6508444  3
   3429   3428   3431   3432     1  0.0000000  0.6508444  3
   3429   3428   3431   3433     1  0.0000000  0.6508444  3
   3430   3428   3431   3434     1  0.0000000  0.6508444  3
   3430   3428   3431   3432     1  0.0000000  0.6508444  3
   3430   3428   3431   3433     1  0.0000000  0.6508444  3
   3431   3434   3437   3459     1  0.0000000  0.6508444  3
   3432   3431   3434   3437     1  0.0000000  0.6508444  3
   3432   3431   3434   3435     1  0.0000000  0.6508444  3
   3432   3431   3434   3436     1  0.0000000  0.6508444  3
   3432   3431   3428   3458     1  0.0000000  1.0460000  1
   3432   3431   3428   3458     1  0.0000000  0.0000000  3
   3433   3431   3434   3437     1  0.0000000  0.6508444  3
   3433   3431   3434   3435     1  0.0000000  0.6508444  3
   3433   3431   3434   3436     1  0.0000000  0.6508444  3
   3433   3431   3428   3458     1  0.0000000  1.0460000  1
   3433   3431   3428   3458     1  0.0000000  0.0000000  3
   3434   3437   3438   3439     1  0.0000000  0.6508444  3
   3434   3437   3438   3440     1  0.0000000  0.6508444  3
   3434   3437   3448   3449     1  0.0000000  0.6508444  3
   3434   3437   3448   3450     1  0.0000000  0.6508444  3
   3435   3434   3437   3438     1  0.0000000  0.6508444  3
   3435   3434   3437   3448     1  0.0000000  0.6508444  3
   3435   3434   3437   3459     1  0.0000000  0.6508444  3
   3436   3434   3437   3438     1  0.0000000  0.6508444  3
   3436   3434   3437   3448     1  0.0000000  0.6508444  3
   3436   3434   3437   3459     1  0.0000000  0.6508444  3
   3437   3438   3441   3442     1  0.0000000  0.6508444  3
   3437   3438   3441   3443     1  0.0000000  0.6508444  3
   3437   3448   3451   3452     1  0.0000000  0.6508444  3
   3437   3448   3451   3453     1  0.0000000  0.6508444  3
   3438   3437   3448   3449     1  0.0000000  0.6508444  3
   3438   3437   3448   3450     1  0.0000000  0.6508444  3
   3439   3438   3441   3444     1  0.0000000  0.6508444  3
   3439   3438   3441   3442     1  0.0000000  0.6508444  3
   3439   3438   3441   3443     1  0.0000000  0.6508444  3
   3439   3438   3437   3448     1  0.0000000  0.6508444  3
   3439   3438   3437   3459     1  0.0000000  0.6508444  3
   3440   3438   3441   3444     1  0.0000000  0.6508444  3
   3440   3438   3441   3442     1  0.0000000  0.6508444  3
   3440   3438   3441   3443     1  0.0000000  0.6508444  3
   3440   3438   3437   3448     1  0.0000000  0.6508444  3
   3440   3438   3437   3459     1  0.0000000  0.6508444  3
   3441   3444   3446   3447     1  180.0000771  9.6232000  2
   3441   3438   3437   3459     1  0.0000000  0.6508444  3
   3442   3441   3444   3445     1  0.0000000  3.3472000  1
   3442   3441   3444   3445     1  0.0000000  0.0000000  2
   3442   3441   3444   3445     1  180.0000771  0.3347200  3
   3442   3441   3444   3446     1  180.0000771  0.0000000  2
   3443   3441   3444   3445     1  0.0000000  3.3472000  1
   3443   3441   3444   3445     1  0.0000000  0.0000000  2
   3443   3441   3444   3445     1  180.0000771  0.3347200  3
   3443   3441   3444   3446     1  180.0000771  0.0000000  2
   3445   3444   3446   3447     1  0.0000000  7.9496000  1
   3445   3444   3446   3447     1  180.0000771  9.6232000  2
   3449   3448   3451   3454     1  0.0000000  0.6508444  3
   3449   3448   3451   3452     1  0.0000000  0.6508444  3
   3449   3448   3451   3453     1  0.0000000  0.6508444  3
   3449   3448   3437   3459     1  0.0000000  0.6508444  3
   3450   3448   3451   3454     1  0.0000000  0.6508444  3
   3450   3448   3451   3452     1  0.0000000  0.6508444  3
   3450   3448   3451   3453     1  0.0000000  0.6508444  3
   3450   3448   3437   3459     1  0.0000000  0.6508444  3
   3451   3454   3456   3457     1  180.0000771  9.6232000  2
   3451   3448   3437   3459     1  0.0000000  0.6508444  3
   3452   3451   3454   3455     1  0.0000000  3.3472000  1
   3452   3451   3454   3455     1  0.0000000  0.0000000  2
   3452   3451   3454   3455     1  180.0000771  0.3347200  3
   3452   3451   3454   3456     1  180.0000771  0.0000000  2
   3453   3451   3454   3455     1  0.0000000  3.3472000  1
   3453   3451   3454   3455     1  0.0000000  0.0000000  2
   3453   3451   3454   3455     1  180.0000771  0.3347200  3
   3453   3451   3454   3456     1  180.0000771  0.0000000  2
   3455   3454   3456   3457     1  0.0000000  7.9496000  1
   3455   3454   3456   3457     1  180.0000771  9.6232000  2
   3460   3463   3466   3467     1  0.0000000  0.6508444  3
   3460   3463   3466   3468     1  0.0000000  0.6508444  3
   3461   3460   3463   3466     1  0.0000000  0.6508444  3
   3461   3460   3463   3464     1  0.0000000  0.6508444  3
   3461   3460   3463   3465     1  0.0000000  0.6508444  3
   3462   3460   3463   3466     1  0.0000000  0.6508444  3
   3462   3460   3463   3464     1  0.0000000  0.6508444  3
   3462   3460   3463   3465     1  0.0000000  0.6508444  3
   3463   3466   3469   3491     1  0.0000000  0.6508444  3
   3464   3463   3460   3490     1  0.0000000  1.0460000  1
   3464   3463   3460   3490     1  0.0000000  0.0000000  3
   3464   3463   3466   3469     1  0.0000000  0.6508444  3
   3464   3463   3466   3467     1  0.0000000  0.6508444  3
   3464   3463   3466   3468     1  0.0000000  0.6508444  3
   3465   3463   3460   3490     1  0.0000000  1.0460000  1
   3465   3463   3460   3490     1  0.0000000  0.0000000  3
   3465   3463   3466   3469     1  0.0000000  0.6508444  3
   3465   3463   3466   3467     1  0.0000000  0.6508444  3
   3465   3463   3466   3468     1  0.0000000  0.6508444  3
   3466   3469   3470   3471     1  0.0000000  0.6508444  3
   3466   3469   3470   3472     1  0.0000000  0.6508444  3
   3466   3469   3480   3481     1  0.0000000  0.6508444  3
   3466   3469   3480   3482     1  0.0000000  0.6508444  3
   3467   3466   3469   3470     1  0.0000000  0.6508444  3
   3467   3466   3469   3480     1  0.0000000  0.6508444  3
   3467   3466   3469   3491     1  0.0000000  0.6508444  3
   3468   3466   3469   3470     1  0.0000000  0.6508444  3
   3468   3466   3469   3480     1  0.0000000  0.6508444  3
   3468   3466   3469   3491     1  0.0000000  0.6508444  3
   3469   3470   3473   3474     1  0.0000000  0.6508444  3
   3469   3470   3473   3475     1  0.0000000  0.6508444  3
   3469   3480   3483   3484     1  0.0000000  0.6508444  3
   3469   3480   3483   3485     1  0.0000000  0.6508444  3
   3470   3469   3480   3481     1  0.0000000  0.6508444  3
   3470   3469   3480   3482     1  0.0000000  0.6508444  3
   3471   3470   3469   3480     1  0.0000000  0.6508444  3
   3471   3470   3469   3491     1  0.0000000  0.6508444  3
   3471   3470   3473   3476     1  0.0000000  0.6508444  3
   3471   3470   3473   3474     1  0.0000000  0.6508444  3
   3471   3470   3473   3475     1  0.0000000  0.6508444  3
   3472   3470   3469   3480     1  0.0000000  0.6508444  3
   3472   3470   3469   3491     1  0.0000000  0.6508444  3
   3472   3470   3473   3476     1  0.0000000  0.6508444  3
   3472   3470   3473   3474     1  0.0000000  0.6508444  3
   3472   3470   3473   3475     1  0.0000000  0.6508444  3
   3473   3470   3469   3491     1  0.0000000  0.6508444  3
   3473   3476   3478   3479     1  180.0000771  9.6232000  2
   3474   3473   3476   3477     1  0.0000000  3.3472000  1
   3474   3473   3476   3477     1  0.0000000  0.0000000  2
   3474   3473   3476   3477     1  180.0000771  0.3347200  3
   3474   3473   3476   3478     1  180.0000771  0.0000000  2
   3475   3473   3476   3477     1  0.0000000  3.3472000  1
   3475   3473   3476   3477     1  0.0000000  0.0000000  2
   3475   3473   3476   3477     1  180.0000771  0.3347200  3
   3475   3473   3476   3478     1  180.0000771  0.0000000  2
   3477   3476   3478   3479     1  0.0000000  7.9496000  1
   3477   3476   3478   3479     1  180.0000771  9.6232000  2
   3481   3480   3469   3491     1  0.0000000  0.6508444  3
   3481   3480   3483   3486     1  0.0000000  0.6508444  3
   3481   3480   3483   3484     1  0.0000000  0.6508444  3
   3481   3480   3483   3485     1  0.0000000  0.6508444  3
   3482   3480   3469   3491     1  0.0000000  0.6508444  3
   3482   3480   3483   3486     1  0.0000000  0.6508444  3
   3482   3480   3483   3484     1  0.0000000  0.6508444  3
   3482   3480   3483   3485     1  0.0000000  0.6508444  3
   3483   3480   3469   3491     1  0.0000000  0.6508444  3
   3483   3486   3488   3489     1  180.0000771  9.6232000  2
   3484   3483   3486   3487     1  0.0000000  3.3472000  1
   3484   3483   3486   3487     1  0.0000000  0.0000000  2
   3484   3483   3486   3487     1  180.0000771  0.3347200  3
   3484   3483   3486   3488     1  180.0000771  0.0000000  2
   3485   3483   3486   3487     1  0.0000000  3.3472000  1
   3485   3483   3486   3487     1  0.0000000  0.0000000  2
   3485   3483   3486   3487     1  180.0000771  0.3347200  3
   3485   3483   3486   3488     1  180.0000771  0.0000000  2
   3487   3486   3488   3489     1  0.0000000  7.9496000  1
   3487   3486   3488   3489     1  180.0000771  9.6232000  2
   3492   3495   3498   3499     1  0.0000000  0.6508444  3
   3492   3495   3498   3500     1  0.0000000  0.6508444  3
   3493   3492   3495   3498     1  0.0000000  0.6508444  3
   3493   3492   3495   3496     1  0.0000000  0.6508444  3
   3493   3492   3495   3497     1  0.0000000  0.6508444  3
   3494   3492   3495   3498     1  0.0000000  0.6508444  3
   3494   3492   3495   3496     1  0.0000000  0.6508444  3
   3494   3492   3495   3497     1  0.0000000  0.6508444  3
   3495   3498   3501   3523     1  0.0000000  0.6508444  3
   3496   3495   3498   3501     1  0.0000000  0.6508444  3
   3496   3495   3498   3499     1  0.0000000  0.6508444  3
   3496   3495   3498   3500     1  0.0000000  0.6508444  3
   3496   3495   3492   3522     1  0.0000000  1.0460000  1
   3496   3495   3492   3522     1  0.0000000  0.0000000  3
   3497   3495   3498   3501     1  0.0000000  0.6508444  3
   3497   3495   3498   3499     1  0.0000000  0.6508444  3
   3497   3495   3498   3500     1  0.0000000  0.6508444  3
   3497   3495   3492   3522     1  0.0000000  1.0460000  1
   3497   3495   3492   3522     1  0.0000000  0.0000000  3
   3498   3501   3502   3503     1  0.0000000  0.6508444  3
   3498   3501   3502   3504     1  0.0000000  0.6508444  3
   3498   3501   3512   3513     1  0.0000000  0.6508444  3
   3498   3501   3512   3514     1  0.0000000  0.6508444  3
   3499   3498   3501   3502     1  0.0000000  0.6508444  3
   3499   3498   3501   3512     1  0.0000000  0.6508444  3
   3499   3498   3501   3523     1  0.0000000  0.6508444  3
   3500   3498   3501   3502     1  0.0000000  0.6508444  3
   3500   3498   3501   3512     1  0.0000000  0.6508444  3
   3500   3498   3501   3523     1  0.0000000  0.6508444  3
   3501   3502   3505   3506     1  0.0000000  0.6508444  3
   3501   3502   3505   3507     1  0.0000000  0.6508444  3
   3501   3512   3515   3516     1  0.0000000  0.6508444  3
   3501   3512   3515   3517     1  0.0000000  0.6508444  3
   3502   3501   3512   3513     1  0.0000000  0.6508444  3
   3502   3501   3512   3514     1  0.0000000  0.6508444  3
   3503   3502   3505   3508     1  0.0000000  0.6508444  3
   3503   3502   3505   3506     1  0.0000000  0.6508444  3
   3503   3502   3505   3507     1  0.0000000  0.6508444  3
   3503   3502   3501   3512     1  0.0000000  0.6508444  3
   3503   3502   3501   3523     1  0.0000000  0.6508444  3
   3504   3502   3505   3508     1  0.0000000  0.6508444  3
   3504   3502   3505   3506     1  0.0000000  0.6508444  3
   3504   3502   3505   3507     1  0.0000000  0.6508444  3
   3504   3502   3501   3512     1  0.0000000  0.6508444  3
   3504   3502   3501   3523     1  0.0000000  0.6508444  3
   3505   3508   3510   3511     1  180.0000771  9.6232000  2
   3505   3502   3501   3523     1  0.0000000  0.6508444  3
   3506   3505   3508   3509     1  0.0000000  3.3472000  1
   3506   3505   3508   3509     1  0.0000000  0.0000000  2
   3506   3505   3508   3509     1  180.0000771  0.3347200  3
   3506   3505   3508   3510     1  180.0000771  0.0000000  2
   3507   3505   3508   3509     1  0.0000000  3.3472000  1
   3507   3505   3508   3509     1  0.0000000  0.0000000  2
   3507   3505   3508   3509     1  180.0000771  0.3347200  3
   3507   3505   3508   3510     1  180.0000771  0.0000000  2
   3509   3508   3510   3511     1  0.0000000  7.9496000  1
   3509   3508   3510   3511     1  180.0000771  9.6232000  2
   3513   3512   3515   3518     1  0.0000000  0.6508444  3
   3513   3512   3515   3516     1  0.0000000  0.6508444  3
   3513   3512   3515   3517     1  0.0000000  0.6508444  3
   3513   3512   3501   3523     1  0.0000000  0.6508444  3
   3514   3512   3515   3518     1  0.0000000  0.6508444  3
   3514   3512   3515   3516     1  0.0000000  0.6508444  3
   3514   3512   3515   3517     1  0.0000000  0.6508444  3
   3514   3512   3501   3523     1  0.0000000  0.6508444  3
   3515   3518   3520   3521     1  180.0000771  9.6232000  2
   3515   3512   3501   3523     1  0.0000000  0.6508444  3
   3516   3515   3518   3519     1  0.0000000  3.3472000  1
   3516   3515   3518   3519     1  0.0000000  0.0000000  2
   3516   3515   3518   3519     1  180.0000771  0.3347200  3
   3516   3515   3518   3520     1  180.0000771  0.0000000  2
   3517   3515   3518   3519     1  0.0000000  3.3472000  1
   3517   3515   3518   3519     1  0.0000000  0.0000000  2
   3517   3515   3518   3519     1  180.0000771  0.3347200  3
   3517   3515   3518   3520     1  180.0000771  0.0000000  2
   3519   3518   3520   3521     1  0.0000000  7.9496000  1
   3519   3518   3520   3521     1  180.0000771  9.6232000  2
   3524   3527   3530   3531     1  0.0000000  0.6508444  3
   3524   3527   3530   3532     1  0.0000000  0.6508444  3
   3525   3524   3527   3530     1  0.0000000  0.6508444  3
   3525   3524   3527   3528     1  0.0000000  0.6508444  3
   3525   3524   3527   3529     1  0.0000000  0.6508444  3
   3526   3524   3527   3530     1  0.0000000  0.6508444  3
   3526   3524   3527   3528     1  0.0000000  0.6508444  3
   3526   3524   3527   3529     1  0.0000000  0.6508444  3
   3527   3530   3533   3555     1  0.0000000  0.6508444  3
   3528   3527   3524   3554     1  0.0000000  1.0460000  1
   3528   3527   3524   3554     1  0.0000000  0.0000000  3
   3528   3527   3530   3533     1  0.0000000  0.6508444  3
   3528   3527   3530   3531     1  0.0000000  0.6508444  3
   3528   3527   3530   3532     1  0.0000000  0.6508444  3
   3529   3527   3524   3554     1  0.0000000  1.0460000  1
   3529   3527   3524   3554     1  0.0000000  0.0000000  3
   3529   3527   3530   3533     1  0.0000000  0.6508444  3
   3529   3527   3530   3531     1  0.0000000  0.6508444  3
   3529   3527   3530   3532     1  0.0000000  0.6508444  3
   3530   3533   3534   3535     1  0.0000000  0.6508444  3
   3530   3533   3534   3536     1  0.0000000  0.6508444  3
   3530   3533   3544   3545     1  0.0000000  0.6508444  3
   3530   3533   3544   3546     1  0.0000000  0.6508444  3
   3531   3530   3533   3534     1  0.0000000  0.6508444  3
   3531   3530   3533   3544     1  0.0000000  0.6508444  3
   3531   3530   3533   3555     1  0.0000000  0.6508444  3
   3532   3530   3533   3534     1  0.0000000  0.6508444  3
   3532   3530   3533   3544     1  0.0000000  0.6508444  3
   3532   3530   3533   3555     1  0.0000000  0.6508444  3
   3533   3534   3537   3538     1  0.0000000  0.6508444  3
   3533   3534   3537   3539     1  0.0000000  0.6508444  3
   3533   3544   3547   3548     1  0.0000000  0.6508444  3
   3533   3544   3547   3549     1  0.0000000  0.6508444  3
   3534   3533   3544   3545     1  0.0000000  0.6508444  3
   3534   3533   3544   3546     1  0.0000000  0.6508444  3
   3535   3534   3533   3544     1  0.0000000  0.6508444  3
   3535   3534   3533   3555     1  0.0000000  0.6508444  3
   3535   3534   3537   3540     1  0.0000000  0.6508444  3
   3535   3534   3537   3538     1  0.0000000  0.6508444  3
   3535   3534   3537   3539     1  0.0000000  0.6508444  3
   3536   3534   3533   3544     1  0.0000000  0.6508444  3
   3536   3534   3533   3555     1  0.0000000  0.6508444  3
   3536   3534   3537   3540     1  0.0000000  0.6508444  3
   3536   3534   3537   3538     1  0.0000000  0.6508444  3
   3536   3534   3537   3539     1  0.0000000  0.6508444  3
   3537   3534   3533   3555     1  0.0000000  0.6508444  3
   3537   3540   3542   3543     1  180.0000771  9.6232000  2
   3538   3537   3540   3541     1  0.0000000  3.3472000  1
   3538   3537   3540   3541     1  0.0000000  0.0000000  2
   3538   3537   3540   3541     1  180.0000771  0.3347200  3
   3538   3537   3540   3542     1  180.0000771  0.0000000  2
   3539   3537   3540   3541     1  0.0000000  3.3472000  1
   3539   3537   3540   3541     1  0.0000000  0.0000000  2
   3539   3537   3540   3541     1  180.0000771  0.3347200  3
   3539   3537   3540   3542     1  180.0000771  0.0000000  2
   3541   3540   3542   3543     1  0.0000000  7.9496000  1
   3541   3540   3542   3543     1  180.0000771  9.6232000  2
   3545   3544   3533   3555     1  0.0000000  0.6508444  3
   3545   3544   3547   3550     1  0.0000000  0.6508444  3
   3545   3544   3547   3548     1  0.0000000  0.6508444  3
   3545   3544   3547   3549     1  0.0000000  0.6508444  3
   3546   3544   3533   3555     1  0.0000000  0.6508444  3
   3546   3544   3547   3550     1  0.0000000  0.6508444  3
   3546   3544   3547   3548     1  0.0000000  0.6508444  3
   3546   3544   3547   3549     1  0.0000000  0.6508444  3
   3547   3544   3533   3555     1  0.0000000  0.6508444  3
   3547   3550   3552   3553     1  180.0000771  9.6232000  2
   3548   3547   3550   3551     1  0.0000000  3.3472000  1
   3548   3547   3550   3551     1  0.0000000  0.0000000  2
   3548   3547   3550   3551     1  180.0000771  0.3347200  3
   3548   3547   3550   3552     1  180.0000771  0.0000000  2
   3549   3547   3550   3551     1  0.0000000  3.3472000  1
   3549   3547   3550   3551     1  0.0000000  0.0000000  2
   3549   3547   3550   3551     1  180.0000771  0.3347200  3
   3549   3547   3550   3552     1  180.0000771  0.0000000  2
   3551   3550   3552   3553     1  0.0000000  7.9496000  1
   3551   3550   3552   3553     1  180.0000771  9.6232000  2
   3556   3559   3562   3563     1  0.0000000  0.6508444  3
   3556   3559   3562   3564     1  0.0000000  0.6508444  3
   3557   3556   3559   3562     1  0.0000000  0.6508444  3
   3557   3556   3559   3560     1  0.0000000  0.6508444  3
   3557   3556   3559   3561     1  0.0000000  0.6508444  3
   3558   3556   3559   3562     1  0.0000000  0.6508444  3
   3558   3556   3559   3560     1  0.0000000  0.6508444  3
   3558   3556   3559   3561     1  0.0000000  0.6508444  3
   3559   3562   3565   3587     1  0.0000000  0.6508444  3
   3560   3559   3562   3565     1  0.0000000  0.6508444  3
   3560   3559   3562   3563     1  0.0000000  0.6508444  3
   3560   3559   3562   3564     1  0.0000000  0.6508444  3
   3560   3559   3556   3586     1  0.0000000  1.0460000  1
   3560   3559   3556   3586     1  0.0000000  0.0000000  3
   3561   3559   3562   3565     1  0.0000000  0.6508444  3
   3561   3559   3562   3563     1  0.0000000  0.6508444  3
   3561   3559   3562   3564     1  0.0000000  0.6508444  3
   3561   3559   3556   3586     1  0.0000000  1.0460000  1
   3561   3559   3556   3586     1  0.0000000  0.0000000  3
   3562   3565   3566   3567     1  0.0000000  0.6508444  3
   3562   3565   3566   3568     1  0.0000000  0.6508444  3
   3562   3565   3576   3577     1  0.0000000  0.6508444  3
   3562   3565   3576   3578     1  0.0000000  0.6508444  3
   3563   3562   3565   3566     1  0.0000000  0.6508444  3
   3563   3562   3565   3576     1  0.0000000  0.6508444  3
   3563   3562   3565   3587     1  0.0000000  0.6508444  3
   3564   3562   3565   3566     1  0.0000000  0.6508444  3
   3564   3562   3565   3576     1  0.0000000  0.6508444  3
   3564   3562   3565   3587     1  0.0000000  0.6508444  3
   3565   3566   3569   3570     1  0.0000000  0.6508444  3
   3565   3566   3569   3571     1  0.0000000  0.6508444  3
   3565   3576   3579   3580     1  0.0000000  0.6508444  3
   3565   3576   3579   3581     1  0.0000000  0.6508444  3
   3566   3565   3576   3577     1  0.0000000  0.6508444  3
   3566   3565   3576   3578     1  0.0000000  0.6508444  3
   3567   3566   3569   3572     1  0.0000000  0.6508444  3
   3567   3566   3569   3570     1  0.0000000  0.6508444  3
   3567   3566   3569   3571     1  0.0000000  0.6508444  3
   3567   3566   3565   3576     1  0.0000000  0.6508444  3
   3567   3566   3565   3587     1  0.0000000  0.6508444  3
   3568   3566   3569   3572     1  0.0000000  0.6508444  3
   3568   3566   3569   3570     1  0.0000000  0.6508444  3
   3568   3566   3569   3571     1  0.0000000  0.6508444  3
   3568   3566   3565   3576     1  0.0000000  0.6508444  3
   3568   3566   3565   3587     1  0.0000000  0.6508444  3
   3569   3572   3574   3575     1  180.0000771  9.6232000  2
   3569   3566   3565   3587     1  0.0000000  0.6508444  3
   3570   3569   3572   3573     1  0.0000000  3.3472000  1
   3570   3569   3572   3573     1  0.0000000  0.0000000  2
   3570   3569   3572   3573     1  180.0000771  0.3347200  3
   3570   3569   3572   3574     1  180.0000771  0.0000000  2
   3571   3569   3572   3573     1  0.0000000  3.3472000  1
   3571   3569   3572   3573     1  0.0000000  0.0000000  2
   3571   3569   3572   3573     1  180.0000771  0.3347200  3
   3571   3569   3572   3574     1  180.0000771  0.0000000  2
   3573   3572   3574   3575     1  0.0000000  7.9496000  1
   3573   3572   3574   3575     1  180.0000771  9.6232000  2
   3577   3576   3579   3582     1  0.0000000  0.6508444  3
   3577   3576   3579   3580     1  0.0000000  0.6508444  3
   3577   3576   3579   3581     1  0.0000000  0.6508444  3
   3577   3576   3565   3587     1  0.0000000  0.6508444  3
   3578   3576   3579   3582     1  0.0000000  0.6508444  3
   3578   3576   3579   3580     1  0.0000000  0.6508444  3
   3578   3576   3579   3581     1  0.0000000  0.6508444  3
   3578   3576   3565   3587     1  0.0000000  0.6508444  3
   3579   3582   3584   3585     1  180.0000771  9.6232000  2
   3579   3576   3565   3587     1  0.0000000  0.6508444  3
   3580   3579   3582   3583     1  0.0000000  3.3472000  1
   3580   3579   3582   3583     1  0.0000000  0.0000000  2
   3580   3579   3582   3583     1  180.0000771  0.3347200  3
   3580   3579   3582   3584     1  180.0000771  0.0000000  2
   3581   3579   3582   3583     1  0.0000000  3.3472000  1
   3581   3579   3582   3583     1  0.0000000  0.0000000  2
   3581   3579   3582   3583     1  180.0000771  0.3347200  3
   3581   3579   3582   3584     1  180.0000771  0.0000000  2
   3583   3582   3584   3585     1  0.0000000  7.9496000  1
   3583   3582   3584   3585     1  180.0000771  9.6232000  2
   3588   3591   3594   3595     1  0.0000000  0.6508444  3
   3588   3591   3594   3596     1  0.0000000  0.6508444  3
   3589   3588   3591   3594     1  0.0000000  0.6508444  3
   3589   3588   3591   3592     1  0.0000000  0.6508444  3
   3589   3588   3591   3593     1  0.0000000  0.6508444  3
   3590   3588   3591   3594     1  0.0000000  0.6508444  3
   3590   3588   3591   3592     1  0.0000000  0.6508444  3
   3590   3588   3591   3593     1  0.0000000  0.6508444  3
   3591   3594   3597   3619     1  0.0000000  0.6508444  3
   3592   3591   3588   3618     1  0.0000000  1.0460000  1
   3592   3591   3588   3618     1  0.0000000  0.0000000  3
   3592   3591   3594   3597     1  0.0000000  0.6508444  3
   3592   3591   3594   3595     1  0.0000000  0.6508444  3
   3592   3591   3594   3596     1  0.0000000  0.6508444  3
   3593   3591   3588   3618     1  0.0000000  1.0460000  1
   3593   3591   3588   3618     1  0.0000000  0.0000000  3
   3593   3591   3594   3597     1  0.0000000  0.6508444  3
   3593   3591   3594   3595     1  0.0000000  0.6508444  3
   3593   3591   3594   3596     1  0.0000000  0.6508444  3
   3594   3597   3598   3599     1  0.0000000  0.6508444  3
   3594   3597   3598   3600     1  0.0000000  0.6508444  3
   3594   3597   3608   3609     1  0.0000000  0.6508444  3
   3594   3597   3608   3610     1  0.0000000  0.6508444  3
   3595   3594   3597   3598     1  0.0000000  0.6508444  3
   3595   3594   3597   3608     1  0.0000000  0.6508444  3
   3595   3594   3597   3619     1  0.0000000  0.6508444  3
   3596   3594   3597   3598     1  0.0000000  0.6508444  3
   3596   3594   3597   3608     1  0.0000000  0.6508444  3
   3596   3594   3597   3619     1  0.0000000  0.6508444  3
   3597   3598   3601   3602     1  0.0000000  0.6508444  3
   3597   3598   3601   3603     1  0.0000000  0.6508444  3
   3597   3608   3611   3612     1  0.0000000  0.6508444  3
   3597   3608   3611   3613     1  0.0000000  0.6508444  3
   3598   3597   3608   3609     1  0.0000000  0.6508444  3
   3598   3597   3608   3610     1  0.0000000  0.6508444  3
   3599   3598   3597   3608     1  0.0000000  0.6508444  3
   3599   3598   3597   3619     1  0.0000000  0.6508444  3
   3599   3598   3601   3604     1  0.0000000  0.6508444  3
   3599   3598   3601   3602     1  0.0000000  0.6508444  3
   3599   3598   3601   3603     1  0.0000000  0.6508444  3
   3600   3598   3597   3608     1  0.0000000  0.6508444  3
   3600   3598   3597   3619     1  0.0000000  0.6508444  3
   3600   3598   3601   3604     1  0.0000000  0.6508444  3
   3600   3598   3601   3602     1  0.0000000  0.6508444  3
   3600   3598   3601   3603     1  0.0000000  0.6508444  3
   3601   3598   3597   3619     1  0.0000000  0.6508444  3
   3601   3604   3606   3607     1  180.0000771  9.6232000  2
   3602   3601   3604   3605     1  0.0000000  3.3472000  1
   3602   3601   3604   3605     1  0.0000000  0.0000000  2
   3602   3601   3604   3605     1  180.0000771  0.3347200  3
   3602   3601   3604   3606     1  180.0000771  0.0000000  2
   3603   3601   3604   3605     1  0.0000000  3.3472000  1
   3603   3601   3604   3605     1  0.0000000  0.0000000  2
   3603   3601   3604   3605     1  180.0000771  0.3347200  3
   3603   3601   3604   3606     1  180.0000771  0.0000000  2
   3605   3604   3606   3607     1  0.0000000  7.9496000  1
   3605   3604   3606   3607     1  180.0000771  9.6232000  2
   3609   3608   3597   3619     1  0.0000000  0.6508444  3
   3609   3608   3611   3614     1  0.0000000  0.6508444  3
   3609   3608   3611   3612     1  0.0000000  0.6508444  3
   3609   3608   3611   3613     1  0.0000000  0.6508444  3
   3610   3608   3597   3619     1  0.0000000  0.6508444  3
   3610   3608   3611   3614     1  0.0000000  0.6508444  3
   3610   3608   3611   3612     1  0.0000000  0.6508444  3
   3610   3608   3611   3613     1  0.0000000  0.6508444  3
   3611   3608   3597   3619     1  0.0000000  0.6508444  3
   3611   3614   3616   3617     1  180.0000771  9.6232000  2
   3612   3611   3614   3615     1  0.0000000  3.3472000  1
   3612   3611   3614   3615     1  0.0000000  0.0000000  2
   3612   3611   3614   3615     1  180.0000771  0.3347200  3
   3612   3611   3614   3616     1  180.0000771  0.0000000  2
   3613   3611   3614   3615     1  0.0000000  3.3472000  1
   3613   3611   3614   3615     1  0.0000000  0.0000000  2
   3613   3611   3614   3615     1  180.0000771  0.3347200  3
   3613   3611   3614   3616     1  180.0000771  0.0000000  2
   3615   3614   3616   3617     1  0.0000000  7.9496000  1
   3615   3614   3616   3617     1  180.0000771  9.6232000  2
   3620   3623   3626   3627     1  0.0000000  0.6508444  3
   3620   3623   3626   3628     1  0.0000000  0.6508444  3
   3621   3620   3623   3626     1  0.0000000  0.6508444  3
   3621   3620   3623   3624     1  0.0000000  0.6508444  3
   3621   3620   3623   3625     1  0.0000000  0.6508444  3
   3622   3620   3623   3626     1  0.0000000  0.6508444  3
   3622   3620   3623   3624     1  0.0000000  0.6508444  3
   3622   3620   3623   3625     1  0.0000000  0.6508444  3
   3623   3626   3629   3651     1  0.0000000  0.6508444  3
   3624   3623   3626   3629     1  0.0000000  0.6508444  3
   3624   3623   3626   3627     1  0.0000000  0.6508444  3
   3624   3623   3626   3628     1  0.0000000  0.6508444  3
   3624   3623   3620   3650     1  0.0000000  1.0460000  1
   3624   3623   3620   3650     1  0.0000000  0.0000000  3
   3625   3623   3626   3629     1  0.0000000  0.6508444  3
   3625   3623   3626   3627     1  0.0000000  0.6508444  3
   3625   3623   3626   3628     1  0.0000000  0.6508444  3
   3625   3623   3620   3650     1  0.0000000  1.0460000  1
   3625   3623   3620   3650     1  0.0000000  0.0000000  3
   3626   3629   3630   3631     1  0.0000000  0.6508444  3
   3626   3629   3630   3632     1  0.0000000  0.6508444  3
   3626   3629   3640   3641     1  0.0000000  0.6508444  3
   3626   3629   3640   3642     1  0.0000000  0.6508444  3
   3627   3626   3629   3630     1  0.0000000  0.6508444  3
   3627   3626   3629   3640     1  0.0000000  0.6508444  3
   3627   3626   3629   3651     1  0.0000000  0.6508444  3
   3628   3626   3629   3630     1  0.0000000  0.6508444  3
   3628   3626   3629   3640     1  0.0000000  0.6508444  3
   3628   3626   3629   3651     1  0.0000000  0.6508444  3
   3629   3630   3633   3634     1  0.0000000  0.6508444  3
   3629   3630   3633   3635     1  0.0000000  0.6508444  3
   3629   3640   3643   3644     1  0.0000000  0.6508444  3
   3629   3640   3643   3645     1  0.0000000  0.6508444  3
   3630   3629   3640   3641     1  0.0000000  0.6508444  3
   3630   3629   3640   3642     1  0.0000000  0.6508444  3
   3631   3630   3633   3636     1  0.0000000  0.6508444  3
   3631   3630   3633   3634     1  0.0000000  0.6508444  3
   3631   3630   3633   3635     1  0.0000000  0.6508444  3
   3631   3630   3629   3640     1  0.0000000  0.6508444  3
   3631   3630   3629   3651     1  0.0000000  0.6508444  3
   3632   3630   3633   3636     1  0.0000000  0.6508444  3
   3632   3630   3633   3634     1  0.0000000  0.6508444  3
   3632   3630   3633   3635     1  0.0000000  0.6508444  3
   3632   3630   3629   3640     1  0.0000000  0.6508444  3
   3632   3630   3629   3651     1  0.0000000  0.6508444  3
   3633   3636   3638   3639     1  180.0000771  9.6232000  2
   3633   3630   3629   3651     1  0.0000000  0.6508444  3
   3634   3633   3636   3637     1  0.0000000  3.3472000  1
   3634   3633   3636   3637     1  0.0000000  0.0000000  2
   3634   3633   3636   3637     1  180.0000771  0.3347200  3
   3634   3633   3636   3638     1  180.0000771  0.0000000  2
   3635   3633   3636   3637     1  0.0000000  3.3472000  1
   3635   3633   3636   3637     1  0.0000000  0.0000000  2
   3635   3633   3636   3637     1  180.0000771  0.3347200  3
   3635   3633   3636   3638     1  180.0000771  0.0000000  2
   3637   3636   3638   3639     1  0.0000000  7.9496000  1
   3637   3636   3638   3639     1  180.0000771  9.6232000  2
   3641   3640   3643   3646     1  0.0000000  0.6508444  3
   3641   3640   3643   3644     1  0.0000000  0.6508444  3
   3641   3640   3643   3645     1  0.0000000  0.6508444  3
   3641   3640   3629   3651     1  0.0000000  0.6508444  3
   3642   3640   3643   3646     1  0.0000000  0.6508444  3
   3642   3640   3643   3644     1  0.0000000  0.6508444  3
   3642   3640   3643   3645     1  0.0000000  0.6508444  3
   3642   3640   3629   3651     1  0.0000000  0.6508444  3
   3643   3646   3648   3649     1  180.0000771  9.6232000  2
   3643   3640   3629   3651     1  0.0000000  0.6508444  3
   3644   3643   3646   3647     1  0.0000000  3.3472000  1
   3644   3643   3646   3647     1  0.0000000  0.0000000  2
   3644   3643   3646   3647     1  180.0000771  0.3347200  3
   3644   3643   3646   3648     1  180.0000771  0.0000000  2
   3645   3643   3646   3647     1  0.0000000  3.3472000  1
   3645   3643   3646   3647     1  0.0000000  0.0000000  2
   3645   3643   3646   3647     1  180.0000771  0.3347200  3
   3645   3643   3646   3648     1  180.0000771  0.0000000  2
   3647   3646   3648   3649     1  0.0000000  7.9496000  1
   3647   3646   3648   3649     1  180.0000771  9.6232000  2
   3652   3655   3658   3659     1  0.0000000  0.6508444  3
   3652   3655   3658   3660     1  0.0000000  0.6508444  3
   3653   3652   3655   3658     1  0.0000000  0.6508444  3
   3653   3652   3655   3656     1  0.0000000  0.6508444  3
   3653   3652   3655   3657     1  0.0000000  0.6508444  3
   3654   3652   3655   3658     1  0.0000000  0.6508444  3
   3654   3652   3655   3656     1  0.0000000  0.6508444  3
   3654   3652   3655   3657     1  0.0000000  0.6508444  3
   3655   3658   3661   3683     1  0.0000000  0.6508444  3
   3656   3655   3652   3682     1  0.0000000  1.0460000  1
   3656   3655   3652   3682     1  0.0000000  0.0000000  3
   3656   3655   3658   3661     1  0.0000000  0.6508444  3
   3656   3655   3658   3659     1  0.0000000  0.6508444  3
   3656   3655   3658   3660     1  0.0000000  0.6508444  3
   3657   3655   3652   3682     1  0.0000000  1.0460000  1
   3657   3655   3652   3682     1  0.0000000  0.0000000  3
   3657   3655   3658   3661     1  0.0000000  0.6508444  3
   3657   3655   3658   3659     1  0.0000000  0.6508444  3
   3657   3655   3658   3660     1  0.0000000  0.6508444  3
   3658   3661   3662   3663     1  0.0000000  0.6508444  3
   3658   3661   3662   3664     1  0.0000000  0.6508444  3
   3658   3661   3672   3673     1  0.0000000  0.6508444  3
   3658   3661   3672   3674     1  0.0000000  0.6508444  3
   3659   3658   3661   3662     1  0.0000000  0.6508444  3
   3659   3658   3661   3672     1  0.0000000  0.6508444  3
   3659   3658   3661   3683     1  0.0000000  0.6508444  3
   3660   3658   3661   3662     1  0.0000000  0.6508444  3
   3660   3658   3661   3672     1  0.0000000  0.6508444  3
   3660   3658   3661   3683     1  0.0000000  0.6508444  3
   3661   3662   3665   3666     1  0.0000000  0.6508444  3
   3661   3662   3665   3667     1  0.0000000  0.6508444  3
   3661   3672   3675   3676     1  0.0000000  0.6508444  3
   3661   3672   3675   3677     1  0.0000000  0.6508444  3
   3662   3661   3672   3673     1  0.0000000  0.6508444  3
   3662   3661   3672   3674     1  0.0000000  0.6508444  3
   3663   3662   3661   3672     1  0.0000000  0.6508444  3
   3663   3662   3661   3683     1  0.0000000  0.6508444  3
   3663   3662   3665   3668     1  0.0000000  0.6508444  3
   3663   3662   3665   3666     1  0.0000000  0.6508444  3
   3663   3662   3665   3667     1  0.0000000  0.6508444  3
   3664   3662   3661   3672     1  0.0000000  0.6508444  3
   3664   3662   3661   3683     1  0.0000000  0.6508444  3
   3664   3662   3665   3668     1  0.0000000  0.6508444  3
   3664   3662   3665   3666     1  0.0000000  0.6508444  3
   3664   3662   3665   3667     1  0.0000000  0.6508444  3
   3665   3662   3661   3683     1  0.0000000  0.6508444  3
   3665   3668   3670   3671     1  180.0000771  9.6232000  2
   3666   3665   3668   3669     1  0.0000000  3.3472000  1
   3666   3665   3668   3669     1  0.0000000  0.0000000  2
   3666   3665   3668   3669     1  180.0000771  0.3347200  3
   3666   3665   3668   3670     1  180.0000771  0.0000000  2
   3667   3665   3668   3669     1  0.0000000  3.3472000  1
   3667   3665   3668   3669     1  0.0000000  0.0000000  2
   3667   3665   3668   3669     1  180.0000771  0.3347200  3
   3667   3665   3668   3670     1  180.0000771  0.0000000  2
   3669   3668   3670   3671     1  0.0000000  7.9496000  1
   3669   3668   3670   3671     1  180.0000771  9.6232000  2
   3673   3672   3661   3683     1  0.0000000  0.6508444  3
   3673   3672   3675   3678     1  0.0000000  0.6508444  3
   3673   3672   3675   3676     1  0.0000000  0.6508444  3
   3673   3672   3675   3677     1  0.0000000  0.6508444  3
   3674   3672   3661   3683     1  0.0000000  0.6508444  3
   3674   3672   3675   3678     1  0.0000000  0.6508444  3
   3674   3672   3675   3676     1  0.0000000  0.6508444  3
   3674   3672   3675   3677     1  0.0000000  0.6508444  3
   3675   3672   3661   3683     1  0.0000000  0.6508444  3
   3675   3678   3680   3681     1  180.0000771  9.6232000  2
   3676   3675   3678   3679     1  0.0000000  3.3472000  1
   3676   3675   3678   3679     1  0.0000000  0.0000000  2
   3676   3675   3678   3679     1  180.0000771  0.3347200  3
   3676   3675   3678   3680     1  180.0000771  0.0000000  2
   3677   3675   3678   3679     1  0.0000000  3.3472000  1
   3677   3675   3678   3679     1  0.0000000  0.0000000  2
   3677   3675   3678   3679     1  180.0000771  0.3347200  3
   3677   3675   3678   3680     1  180.0000771  0.0000000  2
   3679   3678   3680   3681     1  0.0000000  7.9496000  1
   3679   3678   3680   3681     1  180.0000771  9.6232000  2
   3684   3687   3690   3691     1  0.0000000  0.6508444  3
   3684   3687   3690   3692     1  0.0000000  0.6508444  3
   3685   3684   3687   3690     1  0.0000000  0.6508444  3
   3685   3684   3687   3688     1  0.0000000  0.6508444  3
   3685   3684   3687   3689     1  0.0000000  0.6508444  3
   3686   3684   3687   3690     1  0.0000000  0.6508444  3
   3686   3684   3687   3688     1  0.0000000  0.6508444  3
   3686   3684   3687   3689     1  0.0000000  0.6508444  3
   3687   3690   3693   3715     1  0.0000000  0.6508444  3
   3688   3687   3690   3693     1  0.0000000  0.6508444  3
   3688   3687   3690   3691     1  0.0000000  0.6508444  3
   3688   3687   3690   3692     1  0.0000000  0.6508444  3
   3688   3687   3684   3714     1  0.0000000  1.0460000  1
   3688   3687   3684   3714     1  0.0000000  0.0000000  3
   3689   3687   3690   3693     1  0.0000000  0.6508444  3
   3689   3687   3690   3691     1  0.0000000  0.6508444  3
   3689   3687   3690   3692     1  0.0000000  0.6508444  3
   3689   3687   3684   3714     1  0.0000000  1.0460000  1
   3689   3687   3684   3714     1  0.0000000  0.0000000  3
   3690   3693   3694   3695     1  0.0000000  0.6508444  3
   3690   3693   3694   3696     1  0.0000000  0.6508444  3
   3690   3693   3704   3705     1  0.0000000  0.6508444  3
   3690   3693   3704   3706     1  0.0000000  0.6508444  3
   3691   3690   3693   3694     1  0.0000000  0.6508444  3
   3691   3690   3693   3704     1  0.0000000  0.6508444  3
   3691   3690   3693   3715     1  0.0000000  0.6508444  3
   3692   3690   3693   3694     1  0.0000000  0.6508444  3
   3692   3690   3693   3704     1  0.0000000  0.6508444  3
   3692   3690   3693   3715     1  0.0000000  0.6508444  3
   3693   3694   3697   3698     1  0.0000000  0.6508444  3
   3693   3694   3697   3699     1  0.0000000  0.6508444  3
   3693   3704   3707   3708     1  0.0000000  0.6508444  3
   3693   3704   3707   3709     1  0.0000000  0.6508444  3
   3694   3693   3704   3705     1  0.0000000  0.6508444  3
   3694   3693   3704   3706     1  0.0000000  0.6508444  3
   3695   3694   3697   3700     1  0.0000000  0.6508444  3
   3695   3694   3697   3698     1  0.0000000  0.6508444  3
   3695   3694   3697   3699     1  0.0000000  0.6508444  3
   3695   3694   3693   3704     1  0.0000000  0.6508444  3
   3695   3694   3693   3715     1  0.0000000  0.6508444  3
   3696   3694   3697   3700     1  0.0000000  0.6508444  3
   3696   3694   3697   3698     1  0.0000000  0.6508444  3
   3696   3694   3697   3699     1  0.0000000  0.6508444  3
   3696   3694   3693   3704     1  0.0000000  0.6508444  3
   3696   3694   3693   3715     1  0.0000000  0.6508444  3
   3697   3700   3702   3703     1  180.0000771  9.6232000  2
   3697   3694   3693   3715     1  0.0000000  0.6508444  3
   3698   3697   3700   3701     1  0.0000000  3.3472000  1
   3698   3697   3700   3701     1  0.0000000  0.0000000  2
   3698   3697   3700   3701     1  180.0000771  0.3347200  3
   3698   3697   3700   3702     1  180.0000771  0.0000000  2
   3699   3697   3700   3701     1  0.0000000  3.3472000  1
   3699   3697   3700   3701     1  0.0000000  0.0000000  2
   3699   3697   3700   3701     1  180.0000771  0.3347200  3
   3699   3697   3700   3702     1  180.0000771  0.0000000  2
   3701   3700   3702   3703     1  0.0000000  7.9496000  1
   3701   3700   3702   3703     1  180.0000771  9.6232000  2
   3705   3704   3707   3710     1  0.0000000  0.6508444  3
   3705   3704   3707   3708     1  0.0000000  0.6508444  3
   3705   3704   3707   3709     1  0.0000000  0.6508444  3
   3705   3704   3693   3715     1  0.0000000  0.6508444  3
   3706   3704   3707   3710     1  0.0000000  0.6508444  3
   3706   3704   3707   3708     1  0.0000000  0.6508444  3
   3706   3704   3707   3709     1  0.0000000  0.6508444  3
   3706   3704   3693   3715     1  0.0000000  0.6508444  3
   3707   3710   3712   3713     1  180.0000771  9.6232000  2
   3707   3704   3693   3715     1  0.0000000  0.6508444  3
   3708   3707   3710   3711     1  0.0000000  3.3472000  1
   3708   3707   3710   3711     1  0.0000000  0.0000000  2
   3708   3707   3710   3711     1  180.0000771  0.3347200  3
   3708   3707   3710   3712     1  180.0000771  0.0000000  2
   3709   3707   3710   3711     1  0.0000000  3.3472000  1
   3709   3707   3710   3711     1  0.0000000  0.0000000  2
   3709   3707   3710   3711     1  180.0000771  0.3347200  3
   3709   3707   3710   3712     1  180.0000771  0.0000000  2
   3711   3710   3712   3713     1  0.0000000  7.9496000  1
   3711   3710   3712   3713     1  180.0000771  9.6232000  2
   3716   3719   3722   3723     1  0.0000000  0.6508444  3
   3716   3719   3722   3724     1  0.0000000  0.6508444  3
   3717   3716   3719   3722     1  0.0000000  0.6508444  3
   3717   3716   3719   3720     1  0.0000000  0.6508444  3
   3717   3716   3719   3721     1  0.0000000  0.6508444  3
   3718   3716   3719   3722     1  0.0000000  0.6508444  3
   3718   3716   3719   3720     1  0.0000000  0.6508444  3
   3718   3716   3719   3721     1  0.0000000  0.6508444  3
   3719   3722   3725   3747     1  0.0000000  0.6508444  3
   3720   3719   3716   3746     1  0.0000000  1.0460000  1
   3720   3719   3716   3746     1  0.0000000  0.0000000  3
   3720   3719   3722   3725     1  0.0000000  0.6508444  3
   3720   3719   3722   3723     1  0.0000000  0.6508444  3
   3720   3719   3722   3724     1  0.0000000  0.6508444  3
   3721   3719   3716   3746     1  0.0000000  1.0460000  1
   3721   3719   3716   3746     1  0.0000000  0.0000000  3
   3721   3719   3722   3725     1  0.0000000  0.6508444  3
   3721   3719   3722   3723     1  0.0000000  0.6508444  3
   3721   3719   3722   3724     1  0.0000000  0.6508444  3
   3722   3725   3726   3727     1  0.0000000  0.6508444  3
   3722   3725   3726   3728     1  0.0000000  0.6508444  3
   3722   3725   3736   3737     1  0.0000000  0.6508444  3
   3722   3725   3736   3738     1  0.0000000  0.6508444  3
   3723   3722   3725   3726     1  0.0000000  0.6508444  3
   3723   3722   3725   3736     1  0.0000000  0.6508444  3
   3723   3722   3725   3747     1  0.0000000  0.6508444  3
   3724   3722   3725   3726     1  0.0000000  0.6508444  3
   3724   3722   3725   3736     1  0.0000000  0.6508444  3
   3724   3722   3725   3747     1  0.0000000  0.6508444  3
   3725   3726   3729   3730     1  0.0000000  0.6508444  3
   3725   3726   3729   3731     1  0.0000000  0.6508444  3
   3725   3736   3739   3740     1  0.0000000  0.6508444  3
   3725   3736   3739   3741     1  0.0000000  0.6508444  3
   3726   3725   3736   3737     1  0.0000000  0.6508444  3
   3726   3725   3736   3738     1  0.0000000  0.6508444  3
   3727   3726   3725   3736     1  0.0000000  0.6508444  3
   3727   3726   3725   3747     1  0.0000000  0.6508444  3
   3727   3726   3729   3732     1  0.0000000  0.6508444  3
   3727   3726   3729   3730     1  0.0000000  0.6508444  3
   3727   3726   3729   3731     1  0.0000000  0.6508444  3
   3728   3726   3725   3736     1  0.0000000  0.6508444  3
   3728   3726   3725   3747     1  0.0000000  0.6508444  3
   3728   3726   3729   3732     1  0.0000000  0.6508444  3
   3728   3726   3729   3730     1  0.0000000  0.6508444  3
   3728   3726   3729   3731     1  0.0000000  0.6508444  3
   3729   3726   3725   3747     1  0.0000000  0.6508444  3
   3729   3732   3734   3735     1  180.0000771  9.6232000  2
   3730   3729   3732   3733     1  0.0000000  3.3472000  1
   3730   3729   3732   3733     1  0.0000000  0.0000000  2
   3730   3729   3732   3733     1  180.0000771  0.3347200  3
   3730   3729   3732   3734     1  180.0000771  0.0000000  2
   3731   3729   3732   3733     1  0.0000000  3.3472000  1
   3731   3729   3732   3733     1  0.0000000  0.0000000  2
   3731   3729   3732   3733     1  180.0000771  0.3347200  3
   3731   3729   3732   3734     1  180.0000771  0.0000000  2
   3733   3732   3734   3735     1  0.0000000  7.9496000  1
   3733   3732   3734   3735     1  180.0000771  9.6232000  2
   3737   3736   3725   3747     1  0.0000000  0.6508444  3
   3737   3736   3739   3742     1  0.0000000  0.6508444  3
   3737   3736   3739   3740     1  0.0000000  0.6508444  3
   3737   3736   3739   3741     1  0.0000000  0.6508444  3
   3738   3736   3725   3747     1  0.0000000  0.6508444  3
   3738   3736   3739   3742     1  0.0000000  0.6508444  3
   3738   3736   3739   3740     1  0.0000000  0.6508444  3
   3738   3736   3739   3741     1  0.0000000  0.6508444  3
   3739   3736   3725   3747     1  0.0000000  0.6508444  3
   3739   3742   3744   3745     1  180.0000771  9.6232000  2
   3740   3739   3742   3743     1  0.0000000  3.3472000  1
   3740   3739   3742   3743     1  0.0000000  0.0000000  2
   3740   3739   3742   3743     1  180.0000771  0.3347200  3
   3740   3739   3742   3744     1  180.0000771  0.0000000  2
   3741   3739   3742   3743     1  0.0000000  3.3472000  1
   3741   3739   3742   3743     1  0.0000000  0.0000000  2
   3741   3739   3742   3743     1  180.0000771  0.3347200  3
   3741   3739   3742   3744     1  180.0000771  0.0000000  2
   3743   3742   3744   3745     1  0.0000000  7.9496000  1
   3743   3742   3744   3745     1  180.0000771  9.6232000  2
   3748   3751   3754   3755     1  0.0000000  0.6508444  3
   3748   3751   3754   3756     1  0.0000000  0.6508444  3
   3749   3748   3751   3754     1  0.0000000  0.6508444  3
   3749   3748   3751   3752     1  0.0000000  0.6508444  3
   3749   3748   3751   3753     1  0.0000000  0.6508444  3
   3750   3748   3751   3754     1  0.0000000  0.6508444  3
   3750   3748   3751   3752     1  0.0000000  0.6508444  3
   3750   3748   3751   3753     1  0.0000000  0.6508444  3
   3751   3754   3757   3779     1  0.0000000  0.6508444  3
   3752   3751   3754   3757     1  0.0000000  0.6508444  3
   3752   3751   3754   3755     1  0.0000000  0.6508444  3
   3752   3751   3754   3756     1  0.0000000  0.6508444  3
   3752   3751   3748   3778     1  0.0000000  1.0460000  1
   3752   3751   3748   3778     1  0.0000000  0.0000000  3
   3753   3751   3754   3757     1  0.0000000  0.6508444  3
   3753   3751   3754   3755     1  0.0000000  0.6508444  3
   3753   3751   3754   3756     1  0.0000000  0.6508444  3
   3753   3751   3748   3778     1  0.0000000  1.0460000  1
   3753   3751   3748   3778     1  0.0000000  0.0000000  3
   3754   3757   3758   3759     1  0.0000000  0.6508444  3
   3754   3757   3758   3760     1  0.0000000  0.6508444  3
   3754   3757   3768   3769     1  0.0000000  0.6508444  3
   3754   3757   3768   3770     1  0.0000000  0.6508444  3
   3755   3754   3757   3758     1  0.0000000  0.6508444  3
   3755   3754   3757   3768     1  0.0000000  0.6508444  3
   3755   3754   3757   3779     1  0.0000000  0.6508444  3
   3756   3754   3757   3758     1  0.0000000  0.6508444  3
   3756   3754   3757   3768     1  0.0000000  0.6508444  3
   3756   3754   3757   3779     1  0.0000000  0.6508444  3
   3757   3758   3761   3762     1  0.0000000  0.6508444  3
   3757   3758   3761   3763     1  0.0000000  0.6508444  3
   3757   3768   3771   3772     1  0.0000000  0.6508444  3
   3757   3768   3771   3773     1  0.0000000  0.6508444  3
   3758   3757   3768   3769     1  0.0000000  0.6508444  3
   3758   3757   3768   3770     1  0.0000000  0.6508444  3
   3759   3758   3761   3764     1  0.0000000  0.6508444  3
   3759   3758   3761   3762     1  0.0000000  0.6508444  3
   3759   3758   3761   3763     1  0.0000000  0.6508444  3
   3759   3758   3757   3768     1  0.0000000  0.6508444  3
   3759   3758   3757   3779     1  0.0000000  0.6508444  3
   3760   3758   3761   3764     1  0.0000000  0.6508444  3
   3760   3758   3761   3762     1  0.0000000  0.6508444  3
   3760   3758   3761   3763     1  0.0000000  0.6508444  3
   3760   3758   3757   3768     1  0.0000000  0.6508444  3
   3760   3758   3757   3779     1  0.0000000  0.6508444  3
   3761   3764   3766   3767     1  180.0000771  9.6232000  2
   3761   3758   3757   3779     1  0.0000000  0.6508444  3
   3762   3761   3764   3765     1  0.0000000  3.3472000  1
   3762   3761   3764   3765     1  0.0000000  0.0000000  2
   3762   3761   3764   3765     1  180.0000771  0.3347200  3
   3762   3761   3764   3766     1  180.0000771  0.0000000  2
   3763   3761   3764   3765     1  0.0000000  3.3472000  1
   3763   3761   3764   3765     1  0.0000000  0.0000000  2
   3763   3761   3764   3765     1  180.0000771  0.3347200  3
   3763   3761   3764   3766     1  180.0000771  0.0000000  2
   3765   3764   3766   3767     1  0.0000000  7.9496000  1
   3765   3764   3766   3767     1  180.0000771  9.6232000  2
   3769   3768   3771   3774     1  0.0000000  0.6508444  3
   3769   3768   3771   3772     1  0.0000000  0.6508444  3
   3769   3768   3771   3773     1  0.0000000  0.6508444  3
   3769   3768   3757   3779     1  0.0000000  0.6508444  3
   3770   3768   3771   3774     1  0.0000000  0.6508444  3
   3770   3768   3771   3772     1  0.0000000  0.6508444  3
   3770   3768   3771   3773     1  0.0000000  0.6508444  3
   3770   3768   3757   3779     1  0.0000000  0.6508444  3
   3771   3774   3776   3777     1  180.0000771  9.6232000  2
   3771   3768   3757   3779     1  0.0000000  0.6508444  3
   3772   3771   3774   3775     1  0.0000000  3.3472000  1
   3772   3771   3774   3775     1  0.0000000  0.0000000  2
   3772   3771   3774   3775     1  180.0000771  0.3347200  3
   3772   3771   3774   3776     1  180.0000771  0.0000000  2
   3773   3771   3774   3775     1  0.0000000  3.3472000  1
   3773   3771   3774   3775     1  0.0000000  0.0000000  2
   3773   3771   3774   3775     1  180.0000771  0.3347200  3
   3773   3771   3774   3776     1  180.0000771  0.0000000  2
   3775   3774   3776   3777     1  0.0000000  7.9496000  1
   3775   3774   3776   3777     1  180.0000771  9.6232000  2
   3780   3783   3786   3787     1  0.0000000  0.6508444  3
   3780   3783   3786   3788     1  0.0000000  0.6508444  3
   3781   3780   3783   3786     1  0.0000000  0.6508444  3
   3781   3780   3783   3784     1  0.0000000  0.6508444  3
   3781   3780   3783   3785     1  0.0000000  0.6508444  3
   3782   3780   3783   3786     1  0.0000000  0.6508444  3
   3782   3780   3783   3784     1  0.0000000  0.6508444  3
   3782   3780   3783   3785     1  0.0000000  0.6508444  3
   3783   3786   3789   3811     1  0.0000000  0.6508444  3
   3784   3783   3780   3810     1  0.0000000  1.0460000  1
   3784   3783   3780   3810     1  0.0000000  0.0000000  3
   3784   3783   3786   3789     1  0.0000000  0.6508444  3
   3784   3783   3786   3787     1  0.0000000  0.6508444  3
   3784   3783   3786   3788     1  0.0000000  0.6508444  3
   3785   3783   3780   3810     1  0.0000000  1.0460000  1
   3785   3783   3780   3810     1  0.0000000  0.0000000  3
   3785   3783   3786   3789     1  0.0000000  0.6508444  3
   3785   3783   3786   3787     1  0.0000000  0.6508444  3
   3785   3783   3786   3788     1  0.0000000  0.6508444  3
   3786   3789   3790   3791     1  0.0000000  0.6508444  3
   3786   3789   3790   3792     1  0.0000000  0.6508444  3
   3786   3789   3800   3801     1  0.0000000  0.6508444  3
   3786   3789   3800   3802     1  0.0000000  0.6508444  3
   3787   3786   3789   3790     1  0.0000000  0.6508444  3
   3787   3786   3789   3800     1  0.0000000  0.6508444  3
   3787   3786   3789   3811     1  0.0000000  0.6508444  3
   3788   3786   3789   3790     1  0.0000000  0.6508444  3
   3788   3786   3789   3800     1  0.0000000  0.6508444  3
   3788   3786   3789   3811     1  0.0000000  0.6508444  3
   3789   3790   3793   3794     1  0.0000000  0.6508444  3
   3789   3790   3793   3795     1  0.0000000  0.6508444  3
   3789   3800   3803   3804     1  0.0000000  0.6508444  3
   3789   3800   3803   3805     1  0.0000000  0.6508444  3
   3790   3789   3800   3801     1  0.0000000  0.6508444  3
   3790   3789   3800   3802     1  0.0000000  0.6508444  3
   3791   3790   3789   3800     1  0.0000000  0.6508444  3
   3791   3790   3789   3811     1  0.0000000  0.6508444  3
   3791   3790   3793   3796     1  0.0000000  0.6508444  3
   3791   3790   3793   3794     1  0.0000000  0.6508444  3
   3791   3790   3793   3795     1  0.0000000  0.6508444  3
   3792   3790   3789   3800     1  0.0000000  0.6508444  3
   3792   3790   3789   3811     1  0.0000000  0.6508444  3
   3792   3790   3793   3796     1  0.0000000  0.6508444  3
   3792   3790   3793   3794     1  0.0000000  0.6508444  3
   3792   3790   3793   3795     1  0.0000000  0.6508444  3
   3793   3790   3789   3811     1  0.0000000  0.6508444  3
   3793   3796   3798   3799     1  180.0000771  9.6232000  2
   3794   3793   3796   3797     1  0.0000000  3.3472000  1
   3794   3793   3796   3797     1  0.0000000  0.0000000  2
   3794   3793   3796   3797     1  180.0000771  0.3347200  3
   3794   3793   3796   3798     1  180.0000771  0.0000000  2
   3795   3793   3796   3797     1  0.0000000  3.3472000  1
   3795   3793   3796   3797     1  0.0000000  0.0000000  2
   3795   3793   3796   3797     1  180.0000771  0.3347200  3
   3795   3793   3796   3798     1  180.0000771  0.0000000  2
   3797   3796   3798   3799     1  0.0000000  7.9496000  1
   3797   3796   3798   3799     1  180.0000771  9.6232000  2
   3801   3800   3789   3811     1  0.0000000  0.6508444  3
   3801   3800   3803   3806     1  0.0000000  0.6508444  3
   3801   3800   3803   3804     1  0.0000000  0.6508444  3
   3801   3800   3803   3805     1  0.0000000  0.6508444  3
   3802   3800   3789   3811     1  0.0000000  0.6508444  3
   3802   3800   3803   3806     1  0.0000000  0.6508444  3
   3802   3800   3803   3804     1  0.0000000  0.6508444  3
   3802   3800   3803   3805     1  0.0000000  0.6508444  3
   3803   3800   3789   3811     1  0.0000000  0.6508444  3
   3803   3806   3808   3809     1  180.0000771  9.6232000  2
   3804   3803   3806   3807     1  0.0000000  3.3472000  1
   3804   3803   3806   3807     1  0.0000000  0.0000000  2
   3804   3803   3806   3807     1  180.0000771  0.3347200  3
   3804   3803   3806   3808     1  180.0000771  0.0000000  2
   3805   3803   3806   3807     1  0.0000000  3.3472000  1
   3805   3803   3806   3807     1  0.0000000  0.0000000  2
   3805   3803   3806   3807     1  180.0000771  0.3347200  3
   3805   3803   3806   3808     1  180.0000771  0.0000000  2
   3807   3806   3808   3809     1  0.0000000  7.9496000  1
   3807   3806   3808   3809     1  180.0000771  9.6232000  2
   3812   3815   3818   3819     1  0.0000000  0.6508444  3
   3812   3815   3818   3820     1  0.0000000  0.6508444  3
   3813   3812   3815   3818     1  0.0000000  0.6508444  3
   3813   3812   3815   3816     1  0.0000000  0.6508444  3
   3813   3812   3815   3817     1  0.0000000  0.6508444  3
   3814   3812   3815   3818     1  0.0000000  0.6508444  3
   3814   3812   3815   3816     1  0.0000000  0.6508444  3
   3814   3812   3815   3817     1  0.0000000  0.6508444  3
   3815   3818   3821   3843     1  0.0000000  0.6508444  3
   3816   3815   3818   3821     1  0.0000000  0.6508444  3
   3816   3815   3818   3819     1  0.0000000  0.6508444  3
   3816   3815   3818   3820     1  0.0000000  0.6508444  3
   3816   3815   3812   3842     1  0.0000000  1.0460000  1
   3816   3815   3812   3842     1  0.0000000  0.0000000  3
   3817   3815   3818   3821     1  0.0000000  0.6508444  3
   3817   3815   3818   3819     1  0.0000000  0.6508444  3
   3817   3815   3818   3820     1  0.0000000  0.6508444  3
   3817   3815   3812   3842     1  0.0000000  1.0460000  1
   3817   3815   3812   3842     1  0.0000000  0.0000000  3
   3818   3821   3822   3823     1  0.0000000  0.6508444  3
   3818   3821   3822   3824     1  0.0000000  0.6508444  3
   3818   3821   3832   3833     1  0.0000000  0.6508444  3
   3818   3821   3832   3834     1  0.0000000  0.6508444  3
   3819   3818   3821   3822     1  0.0000000  0.6508444  3
   3819   3818   3821   3832     1  0.0000000  0.6508444  3
   3819   3818   3821   3843     1  0.0000000  0.6508444  3
   3820   3818   3821   3822     1  0.0000000  0.6508444  3
   3820   3818   3821   3832     1  0.0000000  0.6508444  3
   3820   3818   3821   3843     1  0.0000000  0.6508444  3
   3821   3822   3825   3826     1  0.0000000  0.6508444  3
   3821   3822   3825   3827     1  0.0000000  0.6508444  3
   3821   3832   3835   3836     1  0.0000000  0.6508444  3
   3821   3832   3835   3837     1  0.0000000  0.6508444  3
   3822   3821   3832   3833     1  0.0000000  0.6508444  3
   3822   3821   3832   3834     1  0.0000000  0.6508444  3
   3823   3822   3825   3828     1  0.0000000  0.6508444  3
   3823   3822   3825   3826     1  0.0000000  0.6508444  3
   3823   3822   3825   3827     1  0.0000000  0.6508444  3
   3823   3822   3821   3832     1  0.0000000  0.6508444  3
   3823   3822   3821   3843     1  0.0000000  0.6508444  3
   3824   3822   3825   3828     1  0.0000000  0.6508444  3
   3824   3822   3825   3826     1  0.0000000  0.6508444  3
   3824   3822   3825   3827     1  0.0000000  0.6508444  3
   3824   3822   3821   3832     1  0.0000000  0.6508444  3
   3824   3822   3821   3843     1  0.0000000  0.6508444  3
   3825   3828   3830   3831     1  180.0000771  9.6232000  2
   3825   3822   3821   3843     1  0.0000000  0.6508444  3
   3826   3825   3828   3829     1  0.0000000  3.3472000  1
   3826   3825   3828   3829     1  0.0000000  0.0000000  2
   3826   3825   3828   3829     1  180.0000771  0.3347200  3
   3826   3825   3828   3830     1  180.0000771  0.0000000  2
   3827   3825   3828   3829     1  0.0000000  3.3472000  1
   3827   3825   3828   3829     1  0.0000000  0.0000000  2
   3827   3825   3828   3829     1  180.0000771  0.3347200  3
   3827   3825   3828   3830     1  180.0000771  0.0000000  2
   3829   3828   3830   3831     1  0.0000000  7.9496000  1
   3829   3828   3830   3831     1  180.0000771  9.6232000  2
   3833   3832   3835   3838     1  0.0000000  0.6508444  3
   3833   3832   3835   3836     1  0.0000000  0.6508444  3
   3833   3832   3835   3837     1  0.0000000  0.6508444  3
   3833   3832   3821   3843     1  0.0000000  0.6508444  3
   3834   3832   3835   3838     1  0.0000000  0.6508444  3
   3834   3832   3835   3836     1  0.0000000  0.6508444  3
   3834   3832   3835   3837     1  0.0000000  0.6508444  3
   3834   3832   3821   3843     1  0.0000000  0.6508444  3
   3835   3838   3840   3841     1  180.0000771  9.6232000  2
   3835   3832   3821   3843     1  0.0000000  0.6508444  3
   3836   3835   3838   3839     1  0.0000000  3.3472000  1
   3836   3835   3838   3839     1  0.0000000  0.0000000  2
   3836   3835   3838   3839     1  180.0000771  0.3347200  3
   3836   3835   3838   3840     1  180.0000771  0.0000000  2
   3837   3835   3838   3839     1  0.0000000  3.3472000  1
   3837   3835   3838   3839     1  0.0000000  0.0000000  2
   3837   3835   3838   3839     1  180.0000771  0.3347200  3
   3837   3835   3838   3840     1  180.0000771  0.0000000  2
   3839   3838   3840   3841     1  0.0000000  7.9496000  1
   3839   3838   3840   3841     1  180.0000771  9.6232000  2
   3844   3847   3850   3851     1  0.0000000  0.6508444  3
   3844   3847   3850   3852     1  0.0000000  0.6508444  3
   3845   3844   3847   3850     1  0.0000000  0.6508444  3
   3845   3844   3847   3848     1  0.0000000  0.6508444  3
   3845   3844   3847   3849     1  0.0000000  0.6508444  3
   3846   3844   3847   3850     1  0.0000000  0.6508444  3
   3846   3844   3847   3848     1  0.0000000  0.6508444  3
   3846   3844   3847   3849     1  0.0000000  0.6508444  3
   3847   3850   3853   3875     1  0.0000000  0.6508444  3
   3848   3847   3844   3874     1  0.0000000  1.0460000  1
   3848   3847   3844   3874     1  0.0000000  0.0000000  3
   3848   3847   3850   3853     1  0.0000000  0.6508444  3
   3848   3847   3850   3851     1  0.0000000  0.6508444  3
   3848   3847   3850   3852     1  0.0000000  0.6508444  3
   3849   3847   3844   3874     1  0.0000000  1.0460000  1
   3849   3847   3844   3874     1  0.0000000  0.0000000  3
   3849   3847   3850   3853     1  0.0000000  0.6508444  3
   3849   3847   3850   3851     1  0.0000000  0.6508444  3
   3849   3847   3850   3852     1  0.0000000  0.6508444  3
   3850   3853   3854   3855     1  0.0000000  0.6508444  3
   3850   3853   3854   3856     1  0.0000000  0.6508444  3
   3850   3853   3864   3865     1  0.0000000  0.6508444  3
   3850   3853   3864   3866     1  0.0000000  0.6508444  3
   3851   3850   3853   3854     1  0.0000000  0.6508444  3
   3851   3850   3853   3864     1  0.0000000  0.6508444  3
   3851   3850   3853   3875     1  0.0000000  0.6508444  3
   3852   3850   3853   3854     1  0.0000000  0.6508444  3
   3852   3850   3853   3864     1  0.0000000  0.6508444  3
   3852   3850   3853   3875     1  0.0000000  0.6508444  3
   3853   3854   3857   3858     1  0.0000000  0.6508444  3
   3853   3854   3857   3859     1  0.0000000  0.6508444  3
   3853   3864   3867   3868     1  0.0000000  0.6508444  3
   3853   3864   3867   3869     1  0.0000000  0.6508444  3
   3854   3853   3864   3865     1  0.0000000  0.6508444  3
   3854   3853   3864   3866     1  0.0000000  0.6508444  3
   3855   3854   3853   3864     1  0.0000000  0.6508444  3
   3855   3854   3853   3875     1  0.0000000  0.6508444  3
   3855   3854   3857   3860     1  0.0000000  0.6508444  3
   3855   3854   3857   3858     1  0.0000000  0.6508444  3
   3855   3854   3857   3859     1  0.0000000  0.6508444  3
   3856   3854   3853   3864     1  0.0000000  0.6508444  3
   3856   3854   3853   3875     1  0.0000000  0.6508444  3
   3856   3854   3857   3860     1  0.0000000  0.6508444  3
   3856   3854   3857   3858     1  0.0000000  0.6508444  3
   3856   3854   3857   3859     1  0.0000000  0.6508444  3
   3857   3854   3853   3875     1  0.0000000  0.6508444  3
   3857   3860   3862   3863     1  180.0000771  9.6232000  2
   3858   3857   3860   3861     1  0.0000000  3.3472000  1
   3858   3857   3860   3861     1  0.0000000  0.0000000  2
   3858   3857   3860   3861     1  180.0000771  0.3347200  3
   3858   3857   3860   3862     1  180.0000771  0.0000000  2
   3859   3857   3860   3861     1  0.0000000  3.3472000  1
   3859   3857   3860   3861     1  0.0000000  0.0000000  2
   3859   3857   3860   3861     1  180.0000771  0.3347200  3
   3859   3857   3860   3862     1  180.0000771  0.0000000  2
   3861   3860   3862   3863     1  0.0000000  7.9496000  1
   3861   3860   3862   3863     1  180.0000771  9.6232000  2
   3865   3864   3853   3875     1  0.0000000  0.6508444  3
   3865   3864   3867   3870     1  0.0000000  0.6508444  3
   3865   3864   3867   3868     1  0.0000000  0.6508444  3
   3865   3864   3867   3869     1  0.0000000  0.6508444  3
   3866   3864   3853   3875     1  0.0000000  0.6508444  3
   3866   3864   3867   3870     1  0.0000000  0.6508444  3
   3866   3864   3867   3868     1  0.0000000  0.6508444  3
   3866   3864   3867   3869     1  0.0000000  0.6508444  3
   3867   3864   3853   3875     1  0.0000000  0.6508444  3
   3867   3870   3872   3873     1  180.0000771  9.6232000  2
   3868   3867   3870   3871     1  0.0000000  3.3472000  1
   3868   3867   3870   3871     1  0.0000000  0.0000000  2
   3868   3867   3870   3871     1  180.0000771  0.3347200  3
   3868   3867   3870   3872     1  180.0000771  0.0000000  2
   3869   3867   3870   3871     1  0.0000000  3.3472000  1
   3869   3867   3870   3871     1  0.0000000  0.0000000  2
   3869   3867   3870   3871     1  180.0000771  0.3347200  3
   3869   3867   3870   3872     1  180.0000771  0.0000000  2
   3871   3870   3872   3873     1  0.0000000  7.9496000  1
   3871   3870   3872   3873     1  180.0000771  9.6232000  2
   3876   3879   3882   3883     1  0.0000000  0.6508444  3
   3876   3879   3882   3884     1  0.0000000  0.6508444  3
   3877   3876   3879   3882     1  0.0000000  0.6508444  3
   3877   3876   3879   3880     1  0.0000000  0.6508444  3
   3877   3876   3879   3881     1  0.0000000  0.6508444  3
   3878   3876   3879   3882     1  0.0000000  0.6508444  3
   3878   3876   3879   3880     1  0.0000000  0.6508444  3
   3878   3876   3879   3881     1  0.0000000  0.6508444  3
   3879   3882   3885   3907     1  0.0000000  0.6508444  3
   3880   3879   3882   3885     1  0.0000000  0.6508444  3
   3880   3879   3882   3883     1  0.0000000  0.6508444  3
   3880   3879   3882   3884     1  0.0000000  0.6508444  3
   3880   3879   3876   3906     1  0.0000000  1.0460000  1
   3880   3879   3876   3906     1  0.0000000  0.0000000  3
   3881   3879   3882   3885     1  0.0000000  0.6508444  3
   3881   3879   3882   3883     1  0.0000000  0.6508444  3
   3881   3879   3882   3884     1  0.0000000  0.6508444  3
   3881   3879   3876   3906     1  0.0000000  1.0460000  1
   3881   3879   3876   3906     1  0.0000000  0.0000000  3
   3882   3885   3886   3887     1  0.0000000  0.6508444  3
   3882   3885   3886   3888     1  0.0000000  0.6508444  3
   3882   3885   3896   3897     1  0.0000000  0.6508444  3
   3882   3885   3896   3898     1  0.0000000  0.6508444  3
   3883   3882   3885   3886     1  0.0000000  0.6508444  3
   3883   3882   3885   3896     1  0.0000000  0.6508444  3
   3883   3882   3885   3907     1  0.0000000  0.6508444  3
   3884   3882   3885   3886     1  0.0000000  0.6508444  3
   3884   3882   3885   3896     1  0.0000000  0.6508444  3
   3884   3882   3885   3907     1  0.0000000  0.6508444  3
   3885   3886   3889   3890     1  0.0000000  0.6508444  3
   3885   3886   3889   3891     1  0.0000000  0.6508444  3
   3885   3896   3899   3900     1  0.0000000  0.6508444  3
   3885   3896   3899   3901     1  0.0000000  0.6508444  3
   3886   3885   3896   3897     1  0.0000000  0.6508444  3
   3886   3885   3896   3898     1  0.0000000  0.6508444  3
   3887   3886   3889   3892     1  0.0000000  0.6508444  3
   3887   3886   3889   3890     1  0.0000000  0.6508444  3
   3887   3886   3889   3891     1  0.0000000  0.6508444  3
   3887   3886   3885   3896     1  0.0000000  0.6508444  3
   3887   3886   3885   3907     1  0.0000000  0.6508444  3
   3888   3886   3889   3892     1  0.0000000  0.6508444  3
   3888   3886   3889   3890     1  0.0000000  0.6508444  3
   3888   3886   3889   3891     1  0.0000000  0.6508444  3
   3888   3886   3885   3896     1  0.0000000  0.6508444  3
   3888   3886   3885   3907     1  0.0000000  0.6508444  3
   3889   3892   3894   3895     1  180.0000771  9.6232000  2
   3889   3886   3885   3907     1  0.0000000  0.6508444  3
   3890   3889   3892   3893     1  0.0000000  3.3472000  1
   3890   3889   3892   3893     1  0.0000000  0.0000000  2
   3890   3889   3892   3893     1  180.0000771  0.3347200  3
   3890   3889   3892   3894     1  180.0000771  0.0000000  2
   3891   3889   3892   3893     1  0.0000000  3.3472000  1
   3891   3889   3892   3893     1  0.0000000  0.0000000  2
   3891   3889   3892   3893     1  180.0000771  0.3347200  3
   3891   3889   3892   3894     1  180.0000771  0.0000000  2
   3893   3892   3894   3895     1  0.0000000  7.9496000  1
   3893   3892   3894   3895     1  180.0000771  9.6232000  2
   3897   3896   3899   3902     1  0.0000000  0.6508444  3
   3897   3896   3899   3900     1  0.0000000  0.6508444  3
   3897   3896   3899   3901     1  0.0000000  0.6508444  3
   3897   3896   3885   3907     1  0.0000000  0.6508444  3
   3898   3896   3899   3902     1  0.0000000  0.6508444  3
   3898   3896   3899   3900     1  0.0000000  0.6508444  3
   3898   3896   3899   3901     1  0.0000000  0.6508444  3
   3898   3896   3885   3907     1  0.0000000  0.6508444  3
   3899   3902   3904   3905     1  180.0000771  9.6232000  2
   3899   3896   3885   3907     1  0.0000000  0.6508444  3
   3900   3899   3902   3903     1  0.0000000  3.3472000  1
   3900   3899   3902   3903     1  0.0000000  0.0000000  2
   3900   3899   3902   3903     1  180.0000771  0.3347200  3
   3900   3899   3902   3904     1  180.0000771  0.0000000  2
   3901   3899   3902   3903     1  0.0000000  3.3472000  1
   3901   3899   3902   3903     1  0.0000000  0.0000000  2
   3901   3899   3902   3903     1  180.0000771  0.3347200  3
   3901   3899   3902   3904     1  180.0000771  0.0000000  2
   3903   3902   3904   3905     1  0.0000000  7.9496000  1
   3903   3902   3904   3905     1  180.0000771  9.6232000  2
   3908   3911   3914   3915     1  0.0000000  0.6508444  3
   3908   3911   3914   3916     1  0.0000000  0.6508444  3
   3909   3908   3911   3914     1  0.0000000  0.6508444  3
   3909   3908   3911   3912     1  0.0000000  0.6508444  3
   3909   3908   3911   3913     1  0.0000000  0.6508444  3
   3910   3908   3911   3914     1  0.0000000  0.6508444  3
   3910   3908   3911   3912     1  0.0000000  0.6508444  3
   3910   3908   3911   3913     1  0.0000000  0.6508444  3
   3911   3914   3917   3939     1  0.0000000  0.6508444  3
   3912   3911   3908   3938     1  0.0000000  1.0460000  1
   3912   3911   3908   3938     1  0.0000000  0.0000000  3
   3912   3911   3914   3917     1  0.0000000  0.6508444  3
   3912   3911   3914   3915     1  0.0000000  0.6508444  3
   3912   3911   3914   3916     1  0.0000000  0.6508444  3
   3913   3911   3908   3938     1  0.0000000  1.0460000  1
   3913   3911   3908   3938     1  0.0000000  0.0000000  3
   3913   3911   3914   3917     1  0.0000000  0.6508444  3
   3913   3911   3914   3915     1  0.0000000  0.6508444  3
   3913   3911   3914   3916     1  0.0000000  0.6508444  3
   3914   3917   3918   3919     1  0.0000000  0.6508444  3
   3914   3917   3918   3920     1  0.0000000  0.6508444  3
   3914   3917   3928   3929     1  0.0000000  0.6508444  3
   3914   3917   3928   3930     1  0.0000000  0.6508444  3
   3915   3914   3917   3918     1  0.0000000  0.6508444  3
   3915   3914   3917   3928     1  0.0000000  0.6508444  3
   3915   3914   3917   3939     1  0.0000000  0.6508444  3
   3916   3914   3917   3918     1  0.0000000  0.6508444  3
   3916   3914   3917   3928     1  0.0000000  0.6508444  3
   3916   3914   3917   3939     1  0.0000000  0.6508444  3
   3917   3918   3921   3922     1  0.0000000  0.6508444  3
   3917   3918   3921   3923     1  0.0000000  0.6508444  3
   3917   3928   3931   3932     1  0.0000000  0.6508444  3
   3917   3928   3931   3933     1  0.0000000  0.6508444  3
   3918   3917   3928   3929     1  0.0000000  0.6508444  3
   3918   3917   3928   3930     1  0.0000000  0.6508444  3
   3919   3918   3917   3928     1  0.0000000  0.6508444  3
   3919   3918   3917   3939     1  0.0000000  0.6508444  3
   3919   3918   3921   3924     1  0.0000000  0.6508444  3
   3919   3918   3921   3922     1  0.0000000  0.6508444  3
   3919   3918   3921   3923     1  0.0000000  0.6508444  3
   3920   3918   3917   3928     1  0.0000000  0.6508444  3
   3920   3918   3917   3939     1  0.0000000  0.6508444  3
   3920   3918   3921   3924     1  0.0000000  0.6508444  3
   3920   3918   3921   3922     1  0.0000000  0.6508444  3
   3920   3918   3921   3923     1  0.0000000  0.6508444  3
   3921   3918   3917   3939     1  0.0000000  0.6508444  3
   3921   3924   3926   3927     1  180.0000771  9.6232000  2
   3922   3921   3924   3925     1  0.0000000  3.3472000  1
   3922   3921   3924   3925     1  0.0000000  0.0000000  2
   3922   3921   3924   3925     1  180.0000771  0.3347200  3
   3922   3921   3924   3926     1  180.0000771  0.0000000  2
   3923   3921   3924   3925     1  0.0000000  3.3472000  1
   3923   3921   3924   3925     1  0.0000000  0.0000000  2
   3923   3921   3924   3925     1  180.0000771  0.3347200  3
   3923   3921   3924   3926     1  180.0000771  0.0000000  2
   3925   3924   3926   3927     1  0.0000000  7.9496000  1
   3925   3924   3926   3927     1  180.0000771  9.6232000  2
   3929   3928   3917   3939     1  0.0000000  0.6508444  3
   3929   3928   3931   3934     1  0.0000000  0.6508444  3
   3929   3928   3931   3932     1  0.0000000  0.6508444  3
   3929   3928   3931   3933     1  0.0000000  0.6508444  3
   3930   3928   3917   3939     1  0.0000000  0.6508444  3
   3930   3928   3931   3934     1  0.0000000  0.6508444  3
   3930   3928   3931   3932     1  0.0000000  0.6508444  3
   3930   3928   3931   3933     1  0.0000000  0.6508444  3
   3931   3928   3917   3939     1  0.0000000  0.6508444  3
   3931   3934   3936   3937     1  180.0000771  9.6232000  2
   3932   3931   3934   3935     1  0.0000000  3.3472000  1
   3932   3931   3934   3935     1  0.0000000  0.0000000  2
   3932   3931   3934   3935     1  180.0000771  0.3347200  3
   3932   3931   3934   3936     1  180.0000771  0.0000000  2
   3933   3931   3934   3935     1  0.0000000  3.3472000  1
   3933   3931   3934   3935     1  0.0000000  0.0000000  2
   3933   3931   3934   3935     1  180.0000771  0.3347200  3
   3933   3931   3934   3936     1  180.0000771  0.0000000  2
   3935   3934   3936   3937     1  0.0000000  7.9496000  1
   3935   3934   3936   3937     1  180.0000771  9.6232000  2
   3940   3943   3946   3947     1  0.0000000  0.6508444  3
   3940   3943   3946   3948     1  0.0000000  0.6508444  3
   3941   3940   3943   3946     1  0.0000000  0.6508444  3
   3941   3940   3943   3944     1  0.0000000  0.6508444  3
   3941   3940   3943   3945     1  0.0000000  0.6508444  3
   3942   3940   3943   3946     1  0.0000000  0.6508444  3
   3942   3940   3943   3944     1  0.0000000  0.6508444  3
   3942   3940   3943   3945     1  0.0000000  0.6508444  3
   3943   3946   3949   3971     1  0.0000000  0.6508444  3
   3944   3943   3946   3949     1  0.0000000  0.6508444  3
   3944   3943   3946   3947     1  0.0000000  0.6508444  3
   3944   3943   3946   3948     1  0.0000000  0.6508444  3
   3944   3943   3940   3970     1  0.0000000  1.0460000  1
   3944   3943   3940   3970     1  0.0000000  0.0000000  3
   3945   3943   3946   3949     1  0.0000000  0.6508444  3
   3945   3943   3946   3947     1  0.0000000  0.6508444  3
   3945   3943   3946   3948     1  0.0000000  0.6508444  3
   3945   3943   3940   3970     1  0.0000000  1.0460000  1
   3945   3943   3940   3970     1  0.0000000  0.0000000  3
   3946   3949   3950   3951     1  0.0000000  0.6508444  3
   3946   3949   3950   3952     1  0.0000000  0.6508444  3
   3946   3949   3960   3961     1  0.0000000  0.6508444  3
   3946   3949   3960   3962     1  0.0000000  0.6508444  3
   3947   3946   3949   3950     1  0.0000000  0.6508444  3
   3947   3946   3949   3960     1  0.0000000  0.6508444  3
   3947   3946   3949   3971     1  0.0000000  0.6508444  3
   3948   3946   3949   3950     1  0.0000000  0.6508444  3
   3948   3946   3949   3960     1  0.0000000  0.6508444  3
   3948   3946   3949   3971     1  0.0000000  0.6508444  3
   3949   3950   3953   3954     1  0.0000000  0.6508444  3
   3949   3950   3953   3955     1  0.0000000  0.6508444  3
   3949   3960   3963   3964     1  0.0000000  0.6508444  3
   3949   3960   3963   3965     1  0.0000000  0.6508444  3
   3950   3949   3960   3961     1  0.0000000  0.6508444  3
   3950   3949   3960   3962     1  0.0000000  0.6508444  3
   3951   3950   3953   3956     1  0.0000000  0.6508444  3
   3951   3950   3953   3954     1  0.0000000  0.6508444  3
   3951   3950   3953   3955     1  0.0000000  0.6508444  3
   3951   3950   3949   3960     1  0.0000000  0.6508444  3
   3951   3950   3949   3971     1  0.0000000  0.6508444  3
   3952   3950   3953   3956     1  0.0000000  0.6508444  3
   3952   3950   3953   3954     1  0.0000000  0.6508444  3
   3952   3950   3953   3955     1  0.0000000  0.6508444  3
   3952   3950   3949   3960     1  0.0000000  0.6508444  3
   3952   3950   3949   3971     1  0.0000000  0.6508444  3
   3953   3956   3958   3959     1  180.0000771  9.6232000  2
   3953   3950   3949   3971     1  0.0000000  0.6508444  3
   3954   3953   3956   3957     1  0.0000000  3.3472000  1
   3954   3953   3956   3957     1  0.0000000  0.0000000  2
   3954   3953   3956   3957     1  180.0000771  0.3347200  3
   3954   3953   3956   3958     1  180.0000771  0.0000000  2
   3955   3953   3956   3957     1  0.0000000  3.3472000  1
   3955   3953   3956   3957     1  0.0000000  0.0000000  2
   3955   3953   3956   3957     1  180.0000771  0.3347200  3
   3955   3953   3956   3958     1  180.0000771  0.0000000  2
   3957   3956   3958   3959     1  0.0000000  7.9496000  1
   3957   3956   3958   3959     1  180.0000771  9.6232000  2
   3961   3960   3963   3966     1  0.0000000  0.6508444  3
   3961   3960   3963   3964     1  0.0000000  0.6508444  3
   3961   3960   3963   3965     1  0.0000000  0.6508444  3
   3961   3960   3949   3971     1  0.0000000  0.6508444  3
   3962   3960   3963   3966     1  0.0000000  0.6508444  3
   3962   3960   3963   3964     1  0.0000000  0.6508444  3
   3962   3960   3963   3965     1  0.0000000  0.6508444  3
   3962   3960   3949   3971     1  0.0000000  0.6508444  3
   3963   3966   3968   3969     1  180.0000771  9.6232000  2
   3963   3960   3949   3971     1  0.0000000  0.6508444  3
   3964   3963   3966   3967     1  0.0000000  3.3472000  1
   3964   3963   3966   3967     1  0.0000000  0.0000000  2
   3964   3963   3966   3967     1  180.0000771  0.3347200  3
   3964   3963   3966   3968     1  180.0000771  0.0000000  2
   3965   3963   3966   3967     1  0.0000000  3.3472000  1
   3965   3963   3966   3967     1  0.0000000  0.0000000  2
   3965   3963   3966   3967     1  180.0000771  0.3347200  3
   3965   3963   3966   3968     1  180.0000771  0.0000000  2
   3967   3966   3968   3969     1  0.0000000  7.9496000  1
   3967   3966   3968   3969     1  180.0000771  9.6232000  2
   3972   3975   3978   3979     1  0.0000000  0.6508444  3
   3972   3975   3978   3980     1  0.0000000  0.6508444  3
   3973   3972   3975   3978     1  0.0000000  0.6508444  3
   3973   3972   3975   3976     1  0.0000000  0.6508444  3
   3973   3972   3975   3977     1  0.0000000  0.6508444  3
   3974   3972   3975   3978     1  0.0000000  0.6508444  3
   3974   3972   3975   3976     1  0.0000000  0.6508444  3
   3974   3972   3975   3977     1  0.0000000  0.6508444  3
   3975   3978   3981   4003     1  0.0000000  0.6508444  3
   3976   3975   3972   4002     1  0.0000000  1.0460000  1
   3976   3975   3972   4002     1  0.0000000  0.0000000  3
   3976   3975   3978   3981     1  0.0000000  0.6508444  3
   3976   3975   3978   3979     1  0.0000000  0.6508444  3
   3976   3975   3978   3980     1  0.0000000  0.6508444  3
   3977   3975   3972   4002     1  0.0000000  1.0460000  1
   3977   3975   3972   4002     1  0.0000000  0.0000000  3
   3977   3975   3978   3981     1  0.0000000  0.6508444  3
   3977   3975   3978   3979     1  0.0000000  0.6508444  3
   3977   3975   3978   3980     1  0.0000000  0.6508444  3
   3978   3981   3982   3983     1  0.0000000  0.6508444  3
   3978   3981   3982   3984     1  0.0000000  0.6508444  3
   3978   3981   3992   3993     1  0.0000000  0.6508444  3
   3978   3981   3992   3994     1  0.0000000  0.6508444  3
   3979   3978   3981   3982     1  0.0000000  0.6508444  3
   3979   3978   3981   3992     1  0.0000000  0.6508444  3
   3979   3978   3981   4003     1  0.0000000  0.6508444  3
   3980   3978   3981   3982     1  0.0000000  0.6508444  3
   3980   3978   3981   3992     1  0.0000000  0.6508444  3
   3980   3978   3981   4003     1  0.0000000  0.6508444  3
   3981   3982   3985   3986     1  0.0000000  0.6508444  3
   3981   3982   3985   3987     1  0.0000000  0.6508444  3
   3981   3992   3995   3996     1  0.0000000  0.6508444  3
   3981   3992   3995   3997     1  0.0000000  0.6508444  3
   3982   3981   3992   3993     1  0.0000000  0.6508444  3
   3982   3981   3992   3994     1  0.0000000  0.6508444  3
   3983   3982   3981   3992     1  0.0000000  0.6508444  3
   3983   3982   3981   4003     1  0.0000000  0.6508444  3
   3983   3982   3985   3988     1  0.0000000  0.6508444  3
   3983   3982   3985   3986     1  0.0000000  0.6508444  3
   3983   3982   3985   3987     1  0.0000000  0.6508444  3
   3984   3982   3981   3992     1  0.0000000  0.6508444  3
   3984   3982   3981   4003     1  0.0000000  0.6508444  3
   3984   3982   3985   3988     1  0.0000000  0.6508444  3
   3984   3982   3985   3986     1  0.0000000  0.6508444  3
   3984   3982   3985   3987     1  0.0000000  0.6508444  3
   3985   3982   3981   4003     1  0.0000000  0.6508444  3
   3985   3988   3990   3991     1  180.0000771  9.6232000  2
   3986   3985   3988   3989     1  0.0000000  3.3472000  1
   3986   3985   3988   3989     1  0.0000000  0.0000000  2
   3986   3985   3988   3989     1  180.0000771  0.3347200  3
   3986   3985   3988   3990     1  180.0000771  0.0000000  2
   3987   3985   3988   3989     1  0.0000000  3.3472000  1
   3987   3985   3988   3989     1  0.0000000  0.0000000  2
   3987   3985   3988   3989     1  180.0000771  0.3347200  3
   3987   3985   3988   3990     1  180.0000771  0.0000000  2
   3989   3988   3990   3991     1  0.0000000  7.9496000  1
   3989   3988   3990   3991     1  180.0000771  9.6232000  2
   3993   3992   3981   4003     1  0.0000000  0.6508444  3
   3993   3992   3995   3998     1  0.0000000  0.6508444  3
   3993   3992   3995   3996     1  0.0000000  0.6508444  3
   3993   3992   3995   3997     1  0.0000000  0.6508444  3
   3994   3992   3981   4003     1  0.0000000  0.6508444  3
   3994   3992   3995   3998     1  0.0000000  0.6508444  3
   3994   3992   3995   3996     1  0.0000000  0.6508444  3
   3994   3992   3995   3997     1  0.0000000  0.6508444  3
   3995   3992   3981   4003     1  0.0000000  0.6508444  3
   3995   3998   4000   4001     1  180.0000771  9.6232000  2
   3996   3995   3998   3999     1  0.0000000  3.3472000  1
   3996   3995   3998   3999     1  0.0000000  0.0000000  2
   3996   3995   3998   3999     1  180.0000771  0.3347200  3
   3996   3995   3998   4000     1  180.0000771  0.0000000  2
   3997   3995   3998   3999     1  0.0000000  3.3472000  1
   3997   3995   3998   3999     1  0.0000000  0.0000000  2
   3997   3995   3998   3999     1  180.0000771  0.3347200  3
   3997   3995   3998   4000     1  180.0000771  0.0000000  2
   3999   3998   4000   4001     1  0.0000000  7.9496000  1
   3999   3998   4000   4001     1  180.0000771  9.6232000  2
   4004   4007   4010   4011     1  0.0000000  0.6508444  3
   4004   4007   4010   4012     1  0.0000000  0.6508444  3
   4005   4004   4007   4010     1  0.0000000  0.6508444  3
   4005   4004   4007   4008     1  0.0000000  0.6508444  3
   4005   4004   4007   4009     1  0.0000000  0.6508444  3
   4006   4004   4007   4010     1  0.0000000  0.6508444  3
   4006   4004   4007   4008     1  0.0000000  0.6508444  3
   4006   4004   4007   4009     1  0.0000000  0.6508444  3
   4007   4010   4013   4035     1  0.0000000  0.6508444  3
   4008   4007   4010   4013     1  0.0000000  0.6508444  3
   4008   4007   4010   4011     1  0.0000000  0.6508444  3
   4008   4007   4010   4012     1  0.0000000  0.6508444  3
   4008   4007   4004   4034     1  0.0000000  1.0460000  1
   4008   4007   4004   4034     1  0.0000000  0.0000000  3
   4009   4007   4010   4013     1  0.0000000  0.6508444  3
   4009   4007   4010   4011     1  0.0000000  0.6508444  3
   4009   4007   4010   4012     1  0.0000000  0.6508444  3
   4009   4007   4004   4034     1  0.0000000  1.0460000  1
   4009   4007   4004   4034     1  0.0000000  0.0000000  3
   4010   4013   4014   4015     1  0.0000000  0.6508444  3
   4010   4013   4014   4016     1  0.0000000  0.6508444  3
   4010   4013   4024   4025     1  0.0000000  0.6508444  3
   4010   4013   4024   4026     1  0.0000000  0.6508444  3
   4011   4010   4013   4014     1  0.0000000  0.6508444  3
   4011   4010   4013   4024     1  0.0000000  0.6508444  3
   4011   4010   4013   4035     1  0.0000000  0.6508444  3
   4012   4010   4013   4014     1  0.0000000  0.6508444  3
   4012   4010   4013   4024     1  0.0000000  0.6508444  3
   4012   4010   4013   4035     1  0.0000000  0.6508444  3
   4013   4014   4017   4018     1  0.0000000  0.6508444  3
   4013   4014   4017   4019     1  0.0000000  0.6508444  3
   4013   4024   4027   4028     1  0.0000000  0.6508444  3
   4013   4024   4027   4029     1  0.0000000  0.6508444  3
   4014   4013   4024   4025     1  0.0000000  0.6508444  3
   4014   4013   4024   4026     1  0.0000000  0.6508444  3
   4015   4014   4017   4020     1  0.0000000  0.6508444  3
   4015   4014   4017   4018     1  0.0000000  0.6508444  3
   4015   4014   4017   4019     1  0.0000000  0.6508444  3
   4015   4014   4013   4024     1  0.0000000  0.6508444  3
   4015   4014   4013   4035     1  0.0000000  0.6508444  3
   4016   4014   4017   4020     1  0.0000000  0.6508444  3
   4016   4014   4017   4018     1  0.0000000  0.6508444  3
   4016   4014   4017   4019     1  0.0000000  0.6508444  3
   4016   4014   4013   4024     1  0.0000000  0.6508444  3
   4016   4014   4013   4035     1  0.0000000  0.6508444  3
   4017   4020   4022   4023     1  180.0000771  9.6232000  2
   4017   4014   4013   4035     1  0.0000000  0.6508444  3
   4018   4017   4020   4021     1  0.0000000  3.3472000  1
   4018   4017   4020   4021     1  0.0000000  0.0000000  2
   4018   4017   4020   4021     1  180.0000771  0.3347200  3
   4018   4017   4020   4022     1  180.0000771  0.0000000  2
   4019   4017   4020   4021     1  0.0000000  3.3472000  1
   4019   4017   4020   4021     1  0.0000000  0.0000000  2
   4019   4017   4020   4021     1  180.0000771  0.3347200  3
   4019   4017   4020   4022     1  180.0000771  0.0000000  2
   4021   4020   4022   4023     1  0.0000000  7.9496000  1
   4021   4020   4022   4023     1  180.0000771  9.6232000  2
   4025   4024   4027   4030     1  0.0000000  0.6508444  3
   4025   4024   4027   4028     1  0.0000000  0.6508444  3
   4025   4024   4027   4029     1  0.0000000  0.6508444  3
   4025   4024   4013   4035     1  0.0000000  0.6508444  3
   4026   4024   4027   4030     1  0.0000000  0.6508444  3
   4026   4024   4027   4028     1  0.0000000  0.6508444  3
   4026   4024   4027   4029     1  0.0000000  0.6508444  3
   4026   4024   4013   4035     1  0.0000000  0.6508444  3
   4027   4030   4032   4033     1  180.0000771  9.6232000  2
   4027   4024   4013   4035     1  0.0000000  0.6508444  3
   4028   4027   4030   4031     1  0.0000000  3.3472000  1
   4028   4027   4030   4031     1  0.0000000  0.0000000  2
   4028   4027   4030   4031     1  180.0000771  0.3347200  3
   4028   4027   4030   4032     1  180.0000771  0.0000000  2
   4029   4027   4030   4031     1  0.0000000  3.3472000  1
   4029   4027   4030   4031     1  0.0000000  0.0000000  2
   4029   4027   4030   4031     1  180.0000771  0.3347200  3
   4029   4027   4030   4032     1  180.0000771  0.0000000  2
   4031   4030   4032   4033     1  0.0000000  7.9496000  1
   4031   4030   4032   4033     1  180.0000771  9.6232000  2
   4036   4039   4042   4043     1  0.0000000  0.6508444  3
   4036   4039   4042   4044     1  0.0000000  0.6508444  3
   4037   4036   4039   4042     1  0.0000000  0.6508444  3
   4037   4036   4039   4040     1  0.0000000  0.6508444  3
   4037   4036   4039   4041     1  0.0000000  0.6508444  3
   4038   4036   4039   4042     1  0.0000000  0.6508444  3
   4038   4036   4039   4040     1  0.0000000  0.6508444  3
   4038   4036   4039   4041     1  0.0000000  0.6508444  3
   4039   4042   4045   4067     1  0.0000000  0.6508444  3
   4040   4039   4036   4066     1  0.0000000  1.0460000  1
   4040   4039   4036   4066     1  0.0000000  0.0000000  3
   4040   4039   4042   4045     1  0.0000000  0.6508444  3
   4040   4039   4042   4043     1  0.0000000  0.6508444  3
   4040   4039   4042   4044     1  0.0000000  0.6508444  3
   4041   4039   4036   4066     1  0.0000000  1.0460000  1
   4041   4039   4036   4066     1  0.0000000  0.0000000  3
   4041   4039   4042   4045     1  0.0000000  0.6508444  3
   4041   4039   4042   4043     1  0.0000000  0.6508444  3
   4041   4039   4042   4044     1  0.0000000  0.6508444  3
   4042   4045   4046   4047     1  0.0000000  0.6508444  3
   4042   4045   4046   4048     1  0.0000000  0.6508444  3
   4042   4045   4056   4057     1  0.0000000  0.6508444  3
   4042   4045   4056   4058     1  0.0000000  0.6508444  3
   4043   4042   4045   4046     1  0.0000000  0.6508444  3
   4043   4042   4045   4056     1  0.0000000  0.6508444  3
   4043   4042   4045   4067     1  0.0000000  0.6508444  3
   4044   4042   4045   4046     1  0.0000000  0.6508444  3
   4044   4042   4045   4056     1  0.0000000  0.6508444  3
   4044   4042   4045   4067     1  0.0000000  0.6508444  3
   4045   4046   4049   4050     1  0.0000000  0.6508444  3
   4045   4046   4049   4051     1  0.0000000  0.6508444  3
   4045   4056   4059   4060     1  0.0000000  0.6508444  3
   4045   4056   4059   4061     1  0.0000000  0.6508444  3
   4046   4045   4056   4057     1  0.0000000  0.6508444  3
   4046   4045   4056   4058     1  0.0000000  0.6508444  3
   4047   4046   4045   4056     1  0.0000000  0.6508444  3
   4047   4046   4045   4067     1  0.0000000  0.6508444  3
   4047   4046   4049   4052     1  0.0000000  0.6508444  3
   4047   4046   4049   4050     1  0.0000000  0.6508444  3
   4047   4046   4049   4051     1  0.0000000  0.6508444  3
   4048   4046   4045   4056     1  0.0000000  0.6508444  3
   4048   4046   4045   4067     1  0.0000000  0.6508444  3
   4048   4046   4049   4052     1  0.0000000  0.6508444  3
   4048   4046   4049   4050     1  0.0000000  0.6508444  3
   4048   4046   4049   4051     1  0.0000000  0.6508444  3
   4049   4046   4045   4067     1  0.0000000  0.6508444  3
   4049   4052   4054   4055     1  180.0000771  9.6232000  2
   4050   4049   4052   4053     1  0.0000000  3.3472000  1
   4050   4049   4052   4053     1  0.0000000  0.0000000  2
   4050   4049   4052   4053     1  180.0000771  0.3347200  3
   4050   4049   4052   4054     1  180.0000771  0.0000000  2
   4051   4049   4052   4053     1  0.0000000  3.3472000  1
   4051   4049   4052   4053     1  0.0000000  0.0000000  2
   4051   4049   4052   4053     1  180.0000771  0.3347200  3
   4051   4049   4052   4054     1  180.0000771  0.0000000  2
   4053   4052   4054   4055     1  0.0000000  7.9496000  1
   4053   4052   4054   4055     1  180.0000771  9.6232000  2
   4057   4056   4045   4067     1  0.0000000  0.6508444  3
   4057   4056   4059   4062     1  0.0000000  0.6508444  3
   4057   4056   4059   4060     1  0.0000000  0.6508444  3
   4057   4056   4059   4061     1  0.0000000  0.6508444  3
   4058   4056   4045   4067     1  0.0000000  0.6508444  3
   4058   4056   4059   4062     1  0.0000000  0.6508444  3
   4058   4056   4059   4060     1  0.0000000  0.6508444  3
   4058   4056   4059   4061     1  0.0000000  0.6508444  3
   4059   4056   4045   4067     1  0.0000000  0.6508444  3
   4059   4062   4064   4065     1  180.0000771  9.6232000  2
   4060   4059   4062   4063     1  0.0000000  3.3472000  1
   4060   4059   4062   4063     1  0.0000000  0.0000000  2
   4060   4059   4062   4063     1  180.0000771  0.3347200  3
   4060   4059   4062   4064     1  180.0000771  0.0000000  2
   4061   4059   4062   4063     1  0.0000000  3.3472000  1
   4061   4059   4062   4063     1  0.0000000  0.0000000  2
   4061   4059   4062   4063     1  180.0000771  0.3347200  3
   4061   4059   4062   4064     1  180.0000771  0.0000000  2
   4063   4062   4064   4065     1  0.0000000  7.9496000  1
   4063   4062   4064   4065     1  180.0000771  9.6232000  2
   4068   4071   4074   4075     1  0.0000000  0.6508444  3
   4068   4071   4074   4076     1  0.0000000  0.6508444  3
   4069   4068   4071   4074     1  0.0000000  0.6508444  3
   4069   4068   4071   4072     1  0.0000000  0.6508444  3
   4069   4068   4071   4073     1  0.0000000  0.6508444  3
   4070   4068   4071   4074     1  0.0000000  0.6508444  3
   4070   4068   4071   4072     1  0.0000000  0.6508444  3
   4070   4068   4071   4073     1  0.0000000  0.6508444  3
   4071   4074   4077   4099     1  0.0000000  0.6508444  3
   4072   4071   4074   4077     1  0.0000000  0.6508444  3
   4072   4071   4074   4075     1  0.0000000  0.6508444  3
   4072   4071   4074   4076     1  0.0000000  0.6508444  3
   4072   4071   4068   4098     1  0.0000000  1.0460000  1
   4072   4071   4068   4098     1  0.0000000  0.0000000  3
   4073   4071   4074   4077     1  0.0000000  0.6508444  3
   4073   4071   4074   4075     1  0.0000000  0.6508444  3
   4073   4071   4074   4076     1  0.0000000  0.6508444  3
   4073   4071   4068   4098     1  0.0000000  1.0460000  1
   4073   4071   4068   4098     1  0.0000000  0.0000000  3
   4074   4077   4078   4079     1  0.0000000  0.6508444  3
   4074   4077   4078   4080     1  0.0000000  0.6508444  3
   4074   4077   4088   4089     1  0.0000000  0.6508444  3
   4074   4077   4088   4090     1  0.0000000  0.6508444  3
   4075   4074   4077   4078     1  0.0000000  0.6508444  3
   4075   4074   4077   4088     1  0.0000000  0.6508444  3
   4075   4074   4077   4099     1  0.0000000  0.6508444  3
   4076   4074   4077   4078     1  0.0000000  0.6508444  3
   4076   4074   4077   4088     1  0.0000000  0.6508444  3
   4076   4074   4077   4099     1  0.0000000  0.6508444  3
   4077   4078   4081   4082     1  0.0000000  0.6508444  3
   4077   4078   4081   4083     1  0.0000000  0.6508444  3
   4077   4088   4091   4092     1  0.0000000  0.6508444  3
   4077   4088   4091   4093     1  0.0000000  0.6508444  3
   4078   4077   4088   4089     1  0.0000000  0.6508444  3
   4078   4077   4088   4090     1  0.0000000  0.6508444  3
   4079   4078   4081   4084     1  0.0000000  0.6508444  3
   4079   4078   4081   4082     1  0.0000000  0.6508444  3
   4079   4078   4081   4083     1  0.0000000  0.6508444  3
   4079   4078   4077   4088     1  0.0000000  0.6508444  3
   4079   4078   4077   4099     1  0.0000000  0.6508444  3
   4080   4078   4081   4084     1  0.0000000  0.6508444  3
   4080   4078   4081   4082     1  0.0000000  0.6508444  3
   4080   4078   4081   4083     1  0.0000000  0.6508444  3
   4080   4078   4077   4088     1  0.0000000  0.6508444  3
   4080   4078   4077   4099     1  0.0000000  0.6508444  3
   4081   4084   4086   4087     1  180.0000771  9.6232000  2
   4081   4078   4077   4099     1  0.0000000  0.6508444  3
   4082   4081   4084   4085     1  0.0000000  3.3472000  1
   4082   4081   4084   4085     1  0.0000000  0.0000000  2
   4082   4081   4084   4085     1  180.0000771  0.3347200  3
   4082   4081   4084   4086     1  180.0000771  0.0000000  2
   4083   4081   4084   4085     1  0.0000000  3.3472000  1
   4083   4081   4084   4085     1  0.0000000  0.0000000  2
   4083   4081   4084   4085     1  180.0000771  0.3347200  3
   4083   4081   4084   4086     1  180.0000771  0.0000000  2
   4085   4084   4086   4087     1  0.0000000  7.9496000  1
   4085   4084   4086   4087     1  180.0000771  9.6232000  2
   4089   4088   4091   4094     1  0.0000000  0.6508444  3
   4089   4088   4091   4092     1  0.0000000  0.6508444  3
   4089   4088   4091   4093     1  0.0000000  0.6508444  3
   4089   4088   4077   4099     1  0.0000000  0.6508444  3
   4090   4088   4091   4094     1  0.0000000  0.6508444  3
   4090   4088   4091   4092     1  0.0000000  0.6508444  3
   4090   4088   4091   4093     1  0.0000000  0.6508444  3
   4090   4088   4077   4099     1  0.0000000  0.6508444  3
   4091   4094   4096   4097     1  180.0000771  9.6232000  2
   4091   4088   4077   4099     1  0.0000000  0.6508444  3
   4092   4091   4094   4095     1  0.0000000  3.3472000  1
   4092   4091   4094   4095     1  0.0000000  0.0000000  2
   4092   4091   4094   4095     1  180.0000771  0.3347200  3
   4092   4091   4094   4096     1  180.0000771  0.0000000  2
   4093   4091   4094   4095     1  0.0000000  3.3472000  1
   4093   4091   4094   4095     1  0.0000000  0.0000000  2
   4093   4091   4094   4095     1  180.0000771  0.3347200  3
   4093   4091   4094   4096     1  180.0000771  0.0000000  2
   4095   4094   4096   4097     1  0.0000000  7.9496000  1
   4095   4094   4096   4097     1  180.0000771  9.6232000  2
   4100   4103   4106   4107     1  0.0000000  0.6508444  3
   4100   4103   4106   4108     1  0.0000000  0.6508444  3
   4101   4100   4103   4106     1  0.0000000  0.6508444  3
   4101   4100   4103   4104     1  0.0000000  0.6508444  3
   4101   4100   4103   4105     1  0.0000000  0.6508444  3
   4102   4100   4103   4106     1  0.0000000  0.6508444  3
   4102   4100   4103   4104     1  0.0000000  0.6508444  3
   4102   4100   4103   4105     1  0.0000000  0.6508444  3
   4103   4106   4109   4131     1  0.0000000  0.6508444  3
   4104   4103   4100   4130     1  0.0000000  1.0460000  1
   4104   4103   4100   4130     1  0.0000000  0.0000000  3
   4104   4103   4106   4109     1  0.0000000  0.6508444  3
   4104   4103   4106   4107     1  0.0000000  0.6508444  3
   4104   4103   4106   4108     1  0.0000000  0.6508444  3
   4105   4103   4100   4130     1  0.0000000  1.0460000  1
   4105   4103   4100   4130     1  0.0000000  0.0000000  3
   4105   4103   4106   4109     1  0.0000000  0.6508444  3
   4105   4103   4106   4107     1  0.0000000  0.6508444  3
   4105   4103   4106   4108     1  0.0000000  0.6508444  3
   4106   4109   4110   4111     1  0.0000000  0.6508444  3
   4106   4109   4110   4112     1  0.0000000  0.6508444  3
   4106   4109   4120   4121     1  0.0000000  0.6508444  3
   4106   4109   4120   4122     1  0.0000000  0.6508444  3
   4107   4106   4109   4110     1  0.0000000  0.6508444  3
   4107   4106   4109   4120     1  0.0000000  0.6508444  3
   4107   4106   4109   4131     1  0.0000000  0.6508444  3
   4108   4106   4109   4110     1  0.0000000  0.6508444  3
   4108   4106   4109   4120     1  0.0000000  0.6508444  3
   4108   4106   4109   4131     1  0.0000000  0.6508444  3
   4109   4110   4113   4114     1  0.0000000  0.6508444  3
   4109   4110   4113   4115     1  0.0000000  0.6508444  3
   4109   4120   4123   4124     1  0.0000000  0.6508444  3
   4109   4120   4123   4125     1  0.0000000  0.6508444  3
   4110   4109   4120   4121     1  0.0000000  0.6508444  3
   4110   4109   4120   4122     1  0.0000000  0.6508444  3
   4111   4110   4109   4120     1  0.0000000  0.6508444  3
   4111   4110   4109   4131     1  0.0000000  0.6508444  3
   4111   4110   4113   4116     1  0.0000000  0.6508444  3
   4111   4110   4113   4114     1  0.0000000  0.6508444  3
   4111   4110   4113   4115     1  0.0000000  0.6508444  3
   4112   4110   4109   4120     1  0.0000000  0.6508444  3
   4112   4110   4109   4131     1  0.0000000  0.6508444  3
   4112   4110   4113   4116     1  0.0000000  0.6508444  3
   4112   4110   4113   4114     1  0.0000000  0.6508444  3
   4112   4110   4113   4115     1  0.0000000  0.6508444  3
   4113   4110   4109   4131     1  0.0000000  0.6508444  3
   4113   4116   4118   4119     1  180.0000771  9.6232000  2
   4114   4113   4116   4117     1  0.0000000  3.3472000  1
   4114   4113   4116   4117     1  0.0000000  0.0000000  2
   4114   4113   4116   4117     1  180.0000771  0.3347200  3
   4114   4113   4116   4118     1  180.0000771  0.0000000  2
   4115   4113   4116   4117     1  0.0000000  3.3472000  1
   4115   4113   4116   4117     1  0.0000000  0.0000000  2
   4115   4113   4116   4117     1  180.0000771  0.3347200  3
   4115   4113   4116   4118     1  180.0000771  0.0000000  2
   4117   4116   4118   4119     1  0.0000000  7.9496000  1
   4117   4116   4118   4119     1  180.0000771  9.6232000  2
   4121   4120   4109   4131     1  0.0000000  0.6508444  3
   4121   4120   4123   4126     1  0.0000000  0.6508444  3
   4121   4120   4123   4124     1  0.0000000  0.6508444  3
   4121   4120   4123   4125     1  0.0000000  0.6508444  3
   4122   4120   4109   4131     1  0.0000000  0.6508444  3
   4122   4120   4123   4126     1  0.0000000  0.6508444  3
   4122   4120   4123   4124     1  0.0000000  0.6508444  3
   4122   4120   4123   4125     1  0.0000000  0.6508444  3
   4123   4120   4109   4131     1  0.0000000  0.6508444  3
   4123   4126   4128   4129     1  180.0000771  9.6232000  2
   4124   4123   4126   4127     1  0.0000000  3.3472000  1
   4124   4123   4126   4127     1  0.0000000  0.0000000  2
   4124   4123   4126   4127     1  180.0000771  0.3347200  3
   4124   4123   4126   4128     1  180.0000771  0.0000000  2
   4125   4123   4126   4127     1  0.0000000  3.3472000  1
   4125   4123   4126   4127     1  0.0000000  0.0000000  2
   4125   4123   4126   4127     1  180.0000771  0.3347200  3
   4125   4123   4126   4128     1  180.0000771  0.0000000  2
   4127   4126   4128   4129     1  0.0000000  7.9496000  1
   4127   4126   4128   4129     1  180.0000771  9.6232000  2
   4132   4135   4138   4139     1  0.0000000  0.6508444  3
   4132   4135   4138   4140     1  0.0000000  0.6508444  3
   4133   4132   4135   4138     1  0.0000000  0.6508444  3
   4133   4132   4135   4136     1  0.0000000  0.6508444  3
   4133   4132   4135   4137     1  0.0000000  0.6508444  3
   4134   4132   4135   4138     1  0.0000000  0.6508444  3
   4134   4132   4135   4136     1  0.0000000  0.6508444  3
   4134   4132   4135   4137     1  0.0000000  0.6508444  3
   4135   4138   4141   4163     1  0.0000000  0.6508444  3
   4136   4135   4138   4141     1  0.0000000  0.6508444  3
   4136   4135   4138   4139     1  0.0000000  0.6508444  3
   4136   4135   4138   4140     1  0.0000000  0.6508444  3
   4136   4135   4132   4162     1  0.0000000  1.0460000  1
   4136   4135   4132   4162     1  0.0000000  0.0000000  3
   4137   4135   4138   4141     1  0.0000000  0.6508444  3
   4137   4135   4138   4139     1  0.0000000  0.6508444  3
   4137   4135   4138   4140     1  0.0000000  0.6508444  3
   4137   4135   4132   4162     1  0.0000000  1.0460000  1
   4137   4135   4132   4162     1  0.0000000  0.0000000  3
   4138   4141   4142   4143     1  0.0000000  0.6508444  3
   4138   4141   4142   4144     1  0.0000000  0.6508444  3
   4138   4141   4152   4153     1  0.0000000  0.6508444  3
   4138   4141   4152   4154     1  0.0000000  0.6508444  3
   4139   4138   4141   4142     1  0.0000000  0.6508444  3
   4139   4138   4141   4152     1  0.0000000  0.6508444  3
   4139   4138   4141   4163     1  0.0000000  0.6508444  3
   4140   4138   4141   4142     1  0.0000000  0.6508444  3
   4140   4138   4141   4152     1  0.0000000  0.6508444  3
   4140   4138   4141   4163     1  0.0000000  0.6508444  3
   4141   4142   4145   4146     1  0.0000000  0.6508444  3
   4141   4142   4145   4147     1  0.0000000  0.6508444  3
   4141   4152   4155   4156     1  0.0000000  0.6508444  3
   4141   4152   4155   4157     1  0.0000000  0.6508444  3
   4142   4141   4152   4153     1  0.0000000  0.6508444  3
   4142   4141   4152   4154     1  0.0000000  0.6508444  3
   4143   4142   4145   4148     1  0.0000000  0.6508444  3
   4143   4142   4145   4146     1  0.0000000  0.6508444  3
   4143   4142   4145   4147     1  0.0000000  0.6508444  3
   4143   4142   4141   4152     1  0.0000000  0.6508444  3
   4143   4142   4141   4163     1  0.0000000  0.6508444  3
   4144   4142   4145   4148     1  0.0000000  0.6508444  3
   4144   4142   4145   4146     1  0.0000000  0.6508444  3
   4144   4142   4145   4147     1  0.0000000  0.6508444  3
   4144   4142   4141   4152     1  0.0000000  0.6508444  3
   4144   4142   4141   4163     1  0.0000000  0.6508444  3
   4145   4148   4150   4151     1  180.0000771  9.6232000  2
   4145   4142   4141   4163     1  0.0000000  0.6508444  3
   4146   4145   4148   4149     1  0.0000000  3.3472000  1
   4146   4145   4148   4149     1  0.0000000  0.0000000  2
   4146   4145   4148   4149     1  180.0000771  0.3347200  3
   4146   4145   4148   4150     1  180.0000771  0.0000000  2
   4147   4145   4148   4149     1  0.0000000  3.3472000  1
   4147   4145   4148   4149     1  0.0000000  0.0000000  2
   4147   4145   4148   4149     1  180.0000771  0.3347200  3
   4147   4145   4148   4150     1  180.0000771  0.0000000  2
   4149   4148   4150   4151     1  0.0000000  7.9496000  1
   4149   4148   4150   4151     1  180.0000771  9.6232000  2
   4153   4152   4155   4158     1  0.0000000  0.6508444  3
   4153   4152   4155   4156     1  0.0000000  0.6508444  3
   4153   4152   4155   4157     1  0.0000000  0.6508444  3
   4153   4152   4141   4163     1  0.0000000  0.6508444  3
   4154   4152   4155   4158     1  0.0000000  0.6508444  3
   4154   4152   4155   4156     1  0.0000000  0.6508444  3
   4154   4152   4155   4157     1  0.0000000  0.6508444  3
   4154   4152   4141   4163     1  0.0000000  0.6508444  3
   4155   4158   4160   4161     1  180.0000771  9.6232000  2
   4155   4152   4141   4163     1  0.0000000  0.6508444  3
   4156   4155   4158   4159     1  0.0000000  3.3472000  1
   4156   4155   4158   4159     1  0.0000000  0.0000000  2
   4156   4155   4158   4159     1  180.0000771  0.3347200  3
   4156   4155   4158   4160     1  180.0000771  0.0000000  2
   4157   4155   4158   4159     1  0.0000000  3.3472000  1
   4157   4155   4158   4159     1  0.0000000  0.0000000  2
   4157   4155   4158   4159     1  180.0000771  0.3347200  3
   4157   4155   4158   4160     1  180.0000771  0.0000000  2
   4159   4158   4160   4161     1  0.0000000  7.9496000  1
   4159   4158   4160   4161     1  180.0000771  9.6232000  2
   4164   4167   4170   4171     1  0.0000000  0.6508444  3
   4164   4167   4170   4172     1  0.0000000  0.6508444  3
   4165   4164   4167   4170     1  0.0000000  0.6508444  3
   4165   4164   4167   4168     1  0.0000000  0.6508444  3
   4165   4164   4167   4169     1  0.0000000  0.6508444  3
   4166   4164   4167   4170     1  0.0000000  0.6508444  3
   4166   4164   4167   4168     1  0.0000000  0.6508444  3
   4166   4164   4167   4169     1  0.0000000  0.6508444  3
   4167   4170   4173   4195     1  0.0000000  0.6508444  3
   4168   4167   4164   4194     1  0.0000000  1.0460000  1
   4168   4167   4164   4194     1  0.0000000  0.0000000  3
   4168   4167   4170   4173     1  0.0000000  0.6508444  3
   4168   4167   4170   4171     1  0.0000000  0.6508444  3
   4168   4167   4170   4172     1  0.0000000  0.6508444  3
   4169   4167   4164   4194     1  0.0000000  1.0460000  1
   4169   4167   4164   4194     1  0.0000000  0.0000000  3
   4169   4167   4170   4173     1  0.0000000  0.6508444  3
   4169   4167   4170   4171     1  0.0000000  0.6508444  3
   4169   4167   4170   4172     1  0.0000000  0.6508444  3
   4170   4173   4174   4175     1  0.0000000  0.6508444  3
   4170   4173   4174   4176     1  0.0000000  0.6508444  3
   4170   4173   4184   4185     1  0.0000000  0.6508444  3
   4170   4173   4184   4186     1  0.0000000  0.6508444  3
   4171   4170   4173   4174     1  0.0000000  0.6508444  3
   4171   4170   4173   4184     1  0.0000000  0.6508444  3
   4171   4170   4173   4195     1  0.0000000  0.6508444  3
   4172   4170   4173   4174     1  0.0000000  0.6508444  3
   4172   4170   4173   4184     1  0.0000000  0.6508444  3
   4172   4170   4173   4195     1  0.0000000  0.6508444  3
   4173   4174   4177   4178     1  0.0000000  0.6508444  3
   4173   4174   4177   4179     1  0.0000000  0.6508444  3
   4173   4184   4187   4188     1  0.0000000  0.6508444  3
   4173   4184   4187   4189     1  0.0000000  0.6508444  3
   4174   4173   4184   4185     1  0.0000000  0.6508444  3
   4174   4173   4184   4186     1  0.0000000  0.6508444  3
   4175   4174   4173   4184     1  0.0000000  0.6508444  3
   4175   4174   4173   4195     1  0.0000000  0.6508444  3
   4175   4174   4177   4180     1  0.0000000  0.6508444  3
   4175   4174   4177   4178     1  0.0000000  0.6508444  3
   4175   4174   4177   4179     1  0.0000000  0.6508444  3
   4176   4174   4173   4184     1  0.0000000  0.6508444  3
   4176   4174   4173   4195     1  0.0000000  0.6508444  3
   4176   4174   4177   4180     1  0.0000000  0.6508444  3
   4176   4174   4177   4178     1  0.0000000  0.6508444  3
   4176   4174   4177   4179     1  0.0000000  0.6508444  3
   4177   4174   4173   4195     1  0.0000000  0.6508444  3
   4177   4180   4182   4183     1  180.0000771  9.6232000  2
   4178   4177   4180   4181     1  0.0000000  3.3472000  1
   4178   4177   4180   4181     1  0.0000000  0.0000000  2
   4178   4177   4180   4181     1  180.0000771  0.3347200  3
   4178   4177   4180   4182     1  180.0000771  0.0000000  2
   4179   4177   4180   4181     1  0.0000000  3.3472000  1
   4179   4177   4180   4181     1  0.0000000  0.0000000  2
   4179   4177   4180   4181     1  180.0000771  0.3347200  3
   4179   4177   4180   4182     1  180.0000771  0.0000000  2
   4181   4180   4182   4183     1  0.0000000  7.9496000  1
   4181   4180   4182   4183     1  180.0000771  9.6232000  2
   4185   4184   4173   4195     1  0.0000000  0.6508444  3
   4185   4184   4187   4190     1  0.0000000  0.6508444  3
   4185   4184   4187   4188     1  0.0000000  0.6508444  3
   4185   4184   4187   4189     1  0.0000000  0.6508444  3
   4186   4184   4173   4195     1  0.0000000  0.6508444  3
   4186   4184   4187   4190     1  0.0000000  0.6508444  3
   4186   4184   4187   4188     1  0.0000000  0.6508444  3
   4186   4184   4187   4189     1  0.0000000  0.6508444  3
   4187   4184   4173   4195     1  0.0000000  0.6508444  3
   4187   4190   4192   4193     1  180.0000771  9.6232000  2
   4188   4187   4190   4191     1  0.0000000  3.3472000  1
   4188   4187   4190   4191     1  0.0000000  0.0000000  2
   4188   4187   4190   4191     1  180.0000771  0.3347200  3
   4188   4187   4190   4192     1  180.0000771  0.0000000  2
   4189   4187   4190   4191     1  0.0000000  3.3472000  1
   4189   4187   4190   4191     1  0.0000000  0.0000000  2
   4189   4187   4190   4191     1  180.0000771  0.3347200  3
   4189   4187   4190   4192     1  180.0000771  0.0000000  2
   4191   4190   4192   4193     1  0.0000000  7.9496000  1
   4191   4190   4192   4193     1  180.0000771  9.6232000  2
   4196   4199   4202   4203     1  0.0000000  0.6508444  3
   4196   4199   4202   4204     1  0.0000000  0.6508444  3
   4197   4196   4199   4202     1  0.0000000  0.6508444  3
   4197   4196   4199   4200     1  0.0000000  0.6508444  3
   4197   4196   4199   4201     1  0.0000000  0.6508444  3
   4198   4196   4199   4202     1  0.0000000  0.6508444  3
   4198   4196   4199   4200     1  0.0000000  0.6508444  3
   4198   4196   4199   4201     1  0.0000000  0.6508444  3
   4199   4202   4205   4227     1  0.0000000  0.6508444  3
   4200   4199   4202   4205     1  0.0000000  0.6508444  3
   4200   4199   4202   4203     1  0.0000000  0.6508444  3
   4200   4199   4202   4204     1  0.0000000  0.6508444  3
   4200   4199   4196   4226     1  0.0000000  1.0460000  1
   4200   4199   4196   4226     1  0.0000000  0.0000000  3
   4201   4199   4202   4205     1  0.0000000  0.6508444  3
   4201   4199   4202   4203     1  0.0000000  0.6508444  3
   4201   4199   4202   4204     1  0.0000000  0.6508444  3
   4201   4199   4196   4226     1  0.0000000  1.0460000  1
   4201   4199   4196   4226     1  0.0000000  0.0000000  3
   4202   4205   4206   4207     1  0.0000000  0.6508444  3
   4202   4205   4206   4208     1  0.0000000  0.6508444  3
   4202   4205   4216   4217     1  0.0000000  0.6508444  3
   4202   4205   4216   4218     1  0.0000000  0.6508444  3
   4203   4202   4205   4206     1  0.0000000  0.6508444  3
   4203   4202   4205   4216     1  0.0000000  0.6508444  3
   4203   4202   4205   4227     1  0.0000000  0.6508444  3
   4204   4202   4205   4206     1  0.0000000  0.6508444  3
   4204   4202   4205   4216     1  0.0000000  0.6508444  3
   4204   4202   4205   4227     1  0.0000000  0.6508444  3
   4205   4206   4209   4210     1  0.0000000  0.6508444  3
   4205   4206   4209   4211     1  0.0000000  0.6508444  3
   4205   4216   4219   4220     1  0.0000000  0.6508444  3
   4205   4216   4219   4221     1  0.0000000  0.6508444  3
   4206   4205   4216   4217     1  0.0000000  0.6508444  3
   4206   4205   4216   4218     1  0.0000000  0.6508444  3
   4207   4206   4209   4212     1  0.0000000  0.6508444  3
   4207   4206   4209   4210     1  0.0000000  0.6508444  3
   4207   4206   4209   4211     1  0.0000000  0.6508444  3
   4207   4206   4205   4216     1  0.0000000  0.6508444  3
   4207   4206   4205   4227     1  0.0000000  0.6508444  3
   4208   4206   4209   4212     1  0.0000000  0.6508444  3
   4208   4206   4209   4210     1  0.0000000  0.6508444  3
   4208   4206   4209   4211     1  0.0000000  0.6508444  3
   4208   4206   4205   4216     1  0.0000000  0.6508444  3
   4208   4206   4205   4227     1  0.0000000  0.6508444  3
   4209   4212   4214   4215     1  180.0000771  9.6232000  2
   4209   4206   4205   4227     1  0.0000000  0.6508444  3
   4210   4209   4212   4213     1  0.0000000  3.3472000  1
   4210   4209   4212   4213     1  0.0000000  0.0000000  2
   4210   4209   4212   4213     1  180.0000771  0.3347200  3
   4210   4209   4212   4214     1  180.0000771  0.0000000  2
   4211   4209   4212   4213     1  0.0000000  3.3472000  1
   4211   4209   4212   4213     1  0.0000000  0.0000000  2
   4211   4209   4212   4213     1  180.0000771  0.3347200  3
   4211   4209   4212   4214     1  180.0000771  0.0000000  2
   4213   4212   4214   4215     1  0.0000000  7.9496000  1
   4213   4212   4214   4215     1  180.0000771  9.6232000  2
   4217   4216   4219   4222     1  0.0000000  0.6508444  3
   4217   4216   4219   4220     1  0.0000000  0.6508444  3
   4217   4216   4219   4221     1  0.0000000  0.6508444  3
   4217   4216   4205   4227     1  0.0000000  0.6508444  3
   4218   4216   4219   4222     1  0.0000000  0.6508444  3
   4218   4216   4219   4220     1  0.0000000  0.6508444  3
   4218   4216   4219   4221     1  0.0000000  0.6508444  3
   4218   4216   4205   4227     1  0.0000000  0.6508444  3
   4219   4222   4224   4225     1  180.0000771  9.6232000  2
   4219   4216   4205   4227     1  0.0000000  0.6508444  3
   4220   4219   4222   4223     1  0.0000000  3.3472000  1
   4220   4219   4222   4223     1  0.0000000  0.0000000  2
   4220   4219   4222   4223     1  180.0000771  0.3347200  3
   4220   4219   4222   4224     1  180.0000771  0.0000000  2
   4221   4219   4222   4223     1  0.0000000  3.3472000  1
   4221   4219   4222   4223     1  0.0000000  0.0000000  2
   4221   4219   4222   4223     1  180.0000771  0.3347200  3
   4221   4219   4222   4224     1  180.0000771  0.0000000  2
   4223   4222   4224   4225     1  0.0000000  7.9496000  1
   4223   4222   4224   4225     1  180.0000771  9.6232000  2
   4228   4231   4234   4235     1  0.0000000  0.6508444  3
   4228   4231   4234   4236     1  0.0000000  0.6508444  3
   4229   4228   4231   4234     1  0.0000000  0.6508444  3
   4229   4228   4231   4232     1  0.0000000  0.6508444  3
   4229   4228   4231   4233     1  0.0000000  0.6508444  3
   4230   4228   4231   4234     1  0.0000000  0.6508444  3
   4230   4228   4231   4232     1  0.0000000  0.6508444  3
   4230   4228   4231   4233     1  0.0000000  0.6508444  3
   4231   4234   4237   4259     1  0.0000000  0.6508444  3
   4232   4231   4228   4258     1  0.0000000  1.0460000  1
   4232   4231   4228   4258     1  0.0000000  0.0000000  3
   4232   4231   4234   4237     1  0.0000000  0.6508444  3
   4232   4231   4234   4235     1  0.0000000  0.6508444  3
   4232   4231   4234   4236     1  0.0000000  0.6508444  3
   4233   4231   4228   4258     1  0.0000000  1.0460000  1
   4233   4231   4228   4258     1  0.0000000  0.0000000  3
   4233   4231   4234   4237     1  0.0000000  0.6508444  3
   4233   4231   4234   4235     1  0.0000000  0.6508444  3
   4233   4231   4234   4236     1  0.0000000  0.6508444  3
   4234   4237   4238   4239     1  0.0000000  0.6508444  3
   4234   4237   4238   4240     1  0.0000000  0.6508444  3
   4234   4237   4248   4249     1  0.0000000  0.6508444  3
   4234   4237   4248   4250     1  0.0000000  0.6508444  3
   4235   4234   4237   4238     1  0.0000000  0.6508444  3
   4235   4234   4237   4248     1  0.0000000  0.6508444  3
   4235   4234   4237   4259     1  0.0000000  0.6508444  3
   4236   4234   4237   4238     1  0.0000000  0.6508444  3
   4236   4234   4237   4248     1  0.0000000  0.6508444  3
   4236   4234   4237   4259     1  0.0000000  0.6508444  3
   4237   4238   4241   4242     1  0.0000000  0.6508444  3
   4237   4238   4241   4243     1  0.0000000  0.6508444  3
   4237   4248   4251   4252     1  0.0000000  0.6508444  3
   4237   4248   4251   4253     1  0.0000000  0.6508444  3
   4238   4237   4248   4249     1  0.0000000  0.6508444  3
   4238   4237   4248   4250     1  0.0000000  0.6508444  3
   4239   4238   4237   4248     1  0.0000000  0.6508444  3
   4239   4238   4237   4259     1  0.0000000  0.6508444  3
   4239   4238   4241   4244     1  0.0000000  0.6508444  3
   4239   4238   4241   4242     1  0.0000000  0.6508444  3
   4239   4238   4241   4243     1  0.0000000  0.6508444  3
   4240   4238   4237   4248     1  0.0000000  0.6508444  3
   4240   4238   4237   4259     1  0.0000000  0.6508444  3
   4240   4238   4241   4244     1  0.0000000  0.6508444  3
   4240   4238   4241   4242     1  0.0000000  0.6508444  3
   4240   4238   4241   4243     1  0.0000000  0.6508444  3
   4241   4238   4237   4259     1  0.0000000  0.6508444  3
   4241   4244   4246   4247     1  180.0000771  9.6232000  2
   4242   4241   4244   4245     1  0.0000000  3.3472000  1
   4242   4241   4244   4245     1  0.0000000  0.0000000  2
   4242   4241   4244   4245     1  180.0000771  0.3347200  3
   4242   4241   4244   4246     1  180.0000771  0.0000000  2
   4243   4241   4244   4245     1  0.0000000  3.3472000  1
   4243   4241   4244   4245     1  0.0000000  0.0000000  2
   4243   4241   4244   4245     1  180.0000771  0.3347200  3
   4243   4241   4244   4246     1  180.0000771  0.0000000  2
   4245   4244   4246   4247     1  0.0000000  7.9496000  1
   4245   4244   4246   4247     1  180.0000771  9.6232000  2
   4249   4248   4237   4259     1  0.0000000  0.6508444  3
   4249   4248   4251   4254     1  0.0000000  0.6508444  3
   4249   4248   4251   4252     1  0.0000000  0.6508444  3
   4249   4248   4251   4253     1  0.0000000  0.6508444  3
   4250   4248   4237   4259     1  0.0000000  0.6508444  3
   4250   4248   4251   4254     1  0.0000000  0.6508444  3
   4250   4248   4251   4252     1  0.0000000  0.6508444  3
   4250   4248   4251   4253     1  0.0000000  0.6508444  3
   4251   4248   4237   4259     1  0.0000000  0.6508444  3
   4251   4254   4256   4257     1  180.0000771  9.6232000  2
   4252   4251   4254   4255     1  0.0000000  3.3472000  1
   4252   4251   4254   4255     1  0.0000000  0.0000000  2
   4252   4251   4254   4255     1  180.0000771  0.3347200  3
   4252   4251   4254   4256     1  180.0000771  0.0000000  2
   4253   4251   4254   4255     1  0.0000000  3.3472000  1
   4253   4251   4254   4255     1  0.0000000  0.0000000  2
   4253   4251   4254   4255     1  180.0000771  0.3347200  3
   4253   4251   4254   4256     1  180.0000771  0.0000000  2
   4255   4254   4256   4257     1  0.0000000  7.9496000  1
   4255   4254   4256   4257     1  180.0000771  9.6232000  2
   4260   4263   4266   4267     1  0.0000000  0.6508444  3
   4260   4263   4266   4268     1  0.0000000  0.6508444  3
   4261   4260   4263   4266     1  0.0000000  0.6508444  3
   4261   4260   4263   4264     1  0.0000000  0.6508444  3
   4261   4260   4263   4265     1  0.0000000  0.6508444  3
   4262   4260   4263   4266     1  0.0000000  0.6508444  3
   4262   4260   4263   4264     1  0.0000000  0.6508444  3
   4262   4260   4263   4265     1  0.0000000  0.6508444  3
   4263   4266   4269   4291     1  0.0000000  0.6508444  3
   4264   4263   4266   4269     1  0.0000000  0.6508444  3
   4264   4263   4266   4267     1  0.0000000  0.6508444  3
   4264   4263   4266   4268     1  0.0000000  0.6508444  3
   4264   4263   4260   4290     1  0.0000000  1.0460000  1
   4264   4263   4260   4290     1  0.0000000  0.0000000  3
   4265   4263   4266   4269     1  0.0000000  0.6508444  3
   4265   4263   4266   4267     1  0.0000000  0.6508444  3
   4265   4263   4266   4268     1  0.0000000  0.6508444  3
   4265   4263   4260   4290     1  0.0000000  1.0460000  1
   4265   4263   4260   4290     1  0.0000000  0.0000000  3
   4266   4269   4270   4271     1  0.0000000  0.6508444  3
   4266   4269   4270   4272     1  0.0000000  0.6508444  3
   4266   4269   4280   4281     1  0.0000000  0.6508444  3
   4266   4269   4280   4282     1  0.0000000  0.6508444  3
   4267   4266   4269   4270     1  0.0000000  0.6508444  3
   4267   4266   4269   4280     1  0.0000000  0.6508444  3
   4267   4266   4269   4291     1  0.0000000  0.6508444  3
   4268   4266   4269   4270     1  0.0000000  0.6508444  3
   4268   4266   4269   4280     1  0.0000000  0.6508444  3
   4268   4266   4269   4291     1  0.0000000  0.6508444  3
   4269   4270   4273   4274     1  0.0000000  0.6508444  3
   4269   4270   4273   4275     1  0.0000000  0.6508444  3
   4269   4280   4283   4284     1  0.0000000  0.6508444  3
   4269   4280   4283   4285     1  0.0000000  0.6508444  3
   4270   4269   4280   4281     1  0.0000000  0.6508444  3
   4270   4269   4280   4282     1  0.0000000  0.6508444  3
   4271   4270   4273   4276     1  0.0000000  0.6508444  3
   4271   4270   4273   4274     1  0.0000000  0.6508444  3
   4271   4270   4273   4275     1  0.0000000  0.6508444  3
   4271   4270   4269   4280     1  0.0000000  0.6508444  3
   4271   4270   4269   4291     1  0.0000000  0.6508444  3
   4272   4270   4273   4276     1  0.0000000  0.6508444  3
   4272   4270   4273   4274     1  0.0000000  0.6508444  3
   4272   4270   4273   4275     1  0.0000000  0.6508444  3
   4272   4270   4269   4280     1  0.0000000  0.6508444  3
   4272   4270   4269   4291     1  0.0000000  0.6508444  3
   4273   4276   4278   4279     1  180.0000771  9.6232000  2
   4273   4270   4269   4291     1  0.0000000  0.6508444  3
   4274   4273   4276   4277     1  0.0000000  3.3472000  1
   4274   4273   4276   4277     1  0.0000000  0.0000000  2
   4274   4273   4276   4277     1  180.0000771  0.3347200  3
   4274   4273   4276   4278     1  180.0000771  0.0000000  2
   4275   4273   4276   4277     1  0.0000000  3.3472000  1
   4275   4273   4276   4277     1  0.0000000  0.0000000  2
   4275   4273   4276   4277     1  180.0000771  0.3347200  3
   4275   4273   4276   4278     1  180.0000771  0.0000000  2
   4277   4276   4278   4279     1  0.0000000  7.9496000  1
   4277   4276   4278   4279     1  180.0000771  9.6232000  2
   4281   4280   4283   4286     1  0.0000000  0.6508444  3
   4281   4280   4283   4284     1  0.0000000  0.6508444  3
   4281   4280   4283   4285     1  0.0000000  0.6508444  3
   4281   4280   4269   4291     1  0.0000000  0.6508444  3
   4282   4280   4283   4286     1  0.0000000  0.6508444  3
   4282   4280   4283   4284     1  0.0000000  0.6508444  3
   4282   4280   4283   4285     1  0.0000000  0.6508444  3
   4282   4280   4269   4291     1  0.0000000  0.6508444  3
   4283   4286   4288   4289     1  180.0000771  9.6232000  2
   4283   4280   4269   4291     1  0.0000000  0.6508444  3
   4284   4283   4286   4287     1  0.0000000  3.3472000  1
   4284   4283   4286   4287     1  0.0000000  0.0000000  2
   4284   4283   4286   4287     1  180.0000771  0.3347200  3
   4284   4283   4286   4288     1  180.0000771  0.0000000  2
   4285   4283   4286   4287     1  0.0000000  3.3472000  1
   4285   4283   4286   4287     1  0.0000000  0.0000000  2
   4285   4283   4286   4287     1  180.0000771  0.3347200  3
   4285   4283   4286   4288     1  180.0000771  0.0000000  2
   4287   4286   4288   4289     1  0.0000000  7.9496000  1
   4287   4286   4288   4289     1  180.0000771  9.6232000  2
   4292   4295   4298   4299     1  0.0000000  0.6508444  3
   4292   4295   4298   4300     1  0.0000000  0.6508444  3
   4293   4292   4295   4298     1  0.0000000  0.6508444  3
   4293   4292   4295   4296     1  0.0000000  0.6508444  3
   4293   4292   4295   4297     1  0.0000000  0.6508444  3
   4294   4292   4295   4298     1  0.0000000  0.6508444  3
   4294   4292   4295   4296     1  0.0000000  0.6508444  3
   4294   4292   4295   4297     1  0.0000000  0.6508444  3
   4295   4298   4301   4323     1  0.0000000  0.6508444  3
   4296   4295   4292   4322     1  0.0000000  1.0460000  1
   4296   4295   4292   4322     1  0.0000000  0.0000000  3
   4296   4295   4298   4301     1  0.0000000  0.6508444  3
   4296   4295   4298   4299     1  0.0000000  0.6508444  3
   4296   4295   4298   4300     1  0.0000000  0.6508444  3
   4297   4295   4292   4322     1  0.0000000  1.0460000  1
   4297   4295   4292   4322     1  0.0000000  0.0000000  3
   4297   4295   4298   4301     1  0.0000000  0.6508444  3
   4297   4295   4298   4299     1  0.0000000  0.6508444  3
   4297   4295   4298   4300     1  0.0000000  0.6508444  3
   4298   4301   4302   4303     1  0.0000000  0.6508444  3
   4298   4301   4302   4304     1  0.0000000  0.6508444  3
   4298   4301   4312   4313     1  0.0000000  0.6508444  3
   4298   4301   4312   4314     1  0.0000000  0.6508444  3
   4299   4298   4301   4302     1  0.0000000  0.6508444  3
   4299   4298   4301   4312     1  0.0000000  0.6508444  3
   4299   4298   4301   4323     1  0.0000000  0.6508444  3
   4300   4298   4301   4302     1  0.0000000  0.6508444  3
   4300   4298   4301   4312     1  0.0000000  0.6508444  3
   4300   4298   4301   4323     1  0.0000000  0.6508444  3
   4301   4302   4305   4306     1  0.0000000  0.6508444  3
   4301   4302   4305   4307     1  0.0000000  0.6508444  3
   4301   4312   4315   4316     1  0.0000000  0.6508444  3
   4301   4312   4315   4317     1  0.0000000  0.6508444  3
   4302   4301   4312   4313     1  0.0000000  0.6508444  3
   4302   4301   4312   4314     1  0.0000000  0.6508444  3
   4303   4302   4301   4312     1  0.0000000  0.6508444  3
   4303   4302   4301   4323     1  0.0000000  0.6508444  3
   4303   4302   4305   4308     1  0.0000000  0.6508444  3
   4303   4302   4305   4306     1  0.0000000  0.6508444  3
   4303   4302   4305   4307     1  0.0000000  0.6508444  3
   4304   4302   4301   4312     1  0.0000000  0.6508444  3
   4304   4302   4301   4323     1  0.0000000  0.6508444  3
   4304   4302   4305   4308     1  0.0000000  0.6508444  3
   4304   4302   4305   4306     1  0.0000000  0.6508444  3
   4304   4302   4305   4307     1  0.0000000  0.6508444  3
   4305   4302   4301   4323     1  0.0000000  0.6508444  3
   4305   4308   4310   4311     1  180.0000771  9.6232000  2
   4306   4305   4308   4309     1  0.0000000  3.3472000  1
   4306   4305   4308   4309     1  0.0000000  0.0000000  2
   4306   4305   4308   4309     1  180.0000771  0.3347200  3
   4306   4305   4308   4310     1  180.0000771  0.0000000  2
   4307   4305   4308   4309     1  0.0000000  3.3472000  1
   4307   4305   4308   4309     1  0.0000000  0.0000000  2
   4307   4305   4308   4309     1  180.0000771  0.3347200  3
   4307   4305   4308   4310     1  180.0000771  0.0000000  2
   4309   4308   4310   4311     1  0.0000000  7.9496000  1
   4309   4308   4310   4311     1  180.0000771  9.6232000  2
   4313   4312   4301   4323     1  0.0000000  0.6508444  3
   4313   4312   4315   4318     1  0.0000000  0.6508444  3
   4313   4312   4315   4316     1  0.0000000  0.6508444  3
   4313   4312   4315   4317     1  0.0000000  0.6508444  3
   4314   4312   4301   4323     1  0.0000000  0.6508444  3
   4314   4312   4315   4318     1  0.0000000  0.6508444  3
   4314   4312   4315   4316     1  0.0000000  0.6508444  3
   4314   4312   4315   4317     1  0.0000000  0.6508444  3
   4315   4312   4301   4323     1  0.0000000  0.6508444  3
   4315   4318   4320   4321     1  180.0000771  9.6232000  2
   4316   4315   4318   4319     1  0.0000000  3.3472000  1
   4316   4315   4318   4319     1  0.0000000  0.0000000  2
   4316   4315   4318   4319     1  180.0000771  0.3347200  3
   4316   4315   4318   4320     1  180.0000771  0.0000000  2
   4317   4315   4318   4319     1  0.0000000  3.3472000  1
   4317   4315   4318   4319     1  0.0000000  0.0000000  2
   4317   4315   4318   4319     1  180.0000771  0.3347200  3
   4317   4315   4318   4320     1  180.0000771  0.0000000  2
   4319   4318   4320   4321     1  0.0000000  7.9496000  1
   4319   4318   4320   4321     1  180.0000771  9.6232000  2
   4324   4327   4330   4331     1  0.0000000  0.6508444  3
   4324   4327   4330   4332     1  0.0000000  0.6508444  3
   4325   4324   4327   4330     1  0.0000000  0.6508444  3
   4325   4324   4327   4328     1  0.0000000  0.6508444  3
   4325   4324   4327   4329     1  0.0000000  0.6508444  3
   4326   4324   4327   4330     1  0.0000000  0.6508444  3
   4326   4324   4327   4328     1  0.0000000  0.6508444  3
   4326   4324   4327   4329     1  0.0000000  0.6508444  3
   4327   4330   4333   4355     1  0.0000000  0.6508444  3
   4328   4327   4330   4333     1  0.0000000  0.6508444  3
   4328   4327   4330   4331     1  0.0000000  0.6508444  3
   4328   4327   4330   4332     1  0.0000000  0.6508444  3
   4328   4327   4324   4354     1  0.0000000  1.0460000  1
   4328   4327   4324   4354     1  0.0000000  0.0000000  3
   4329   4327   4330   4333     1  0.0000000  0.6508444  3
   4329   4327   4330   4331     1  0.0000000  0.6508444  3
   4329   4327   4330   4332     1  0.0000000  0.6508444  3
   4329   4327   4324   4354     1  0.0000000  1.0460000  1
   4329   4327   4324   4354     1  0.0000000  0.0000000  3
   4330   4333   4334   4335     1  0.0000000  0.6508444  3
   4330   4333   4334   4336     1  0.0000000  0.6508444  3
   4330   4333   4344   4345     1  0.0000000  0.6508444  3
   4330   4333   4344   4346     1  0.0000000  0.6508444  3
   4331   4330   4333   4334     1  0.0000000  0.6508444  3
   4331   4330   4333   4344     1  0.0000000  0.6508444  3
   4331   4330   4333   4355     1  0.0000000  0.6508444  3
   4332   4330   4333   4334     1  0.0000000  0.6508444  3
   4332   4330   4333   4344     1  0.0000000  0.6508444  3
   4332   4330   4333   4355     1  0.0000000  0.6508444  3
   4333   4334   4337   4338     1  0.0000000  0.6508444  3
   4333   4334   4337   4339     1  0.0000000  0.6508444  3
   4333   4344   4347   4348     1  0.0000000  0.6508444  3
   4333   4344   4347   4349     1  0.0000000  0.6508444  3
   4334   4333   4344   4345     1  0.0000000  0.6508444  3
   4334   4333   4344   4346     1  0.0000000  0.6508444  3
   4335   4334   4337   4340     1  0.0000000  0.6508444  3
   4335   4334   4337   4338     1  0.0000000  0.6508444  3
   4335   4334   4337   4339     1  0.0000000  0.6508444  3
   4335   4334   4333   4344     1  0.0000000  0.6508444  3
   4335   4334   4333   4355     1  0.0000000  0.6508444  3
   4336   4334   4337   4340     1  0.0000000  0.6508444  3
   4336   4334   4337   4338     1  0.0000000  0.6508444  3
   4336   4334   4337   4339     1  0.0000000  0.6508444  3
   4336   4334   4333   4344     1  0.0000000  0.6508444  3
   4336   4334   4333   4355     1  0.0000000  0.6508444  3
   4337   4340   4342   4343     1  180.0000771  9.6232000  2
   4337   4334   4333   4355     1  0.0000000  0.6508444  3
   4338   4337   4340   4341     1  0.0000000  3.3472000  1
   4338   4337   4340   4341     1  0.0000000  0.0000000  2
   4338   4337   4340   4341     1  180.0000771  0.3347200  3
   4338   4337   4340   4342     1  180.0000771  0.0000000  2
   4339   4337   4340   4341     1  0.0000000  3.3472000  1
   4339   4337   4340   4341     1  0.0000000  0.0000000  2
   4339   4337   4340   4341     1  180.0000771  0.3347200  3
   4339   4337   4340   4342     1  180.0000771  0.0000000  2
   4341   4340   4342   4343     1  0.0000000  7.9496000  1
   4341   4340   4342   4343     1  180.0000771  9.6232000  2
   4345   4344   4347   4350     1  0.0000000  0.6508444  3
   4345   4344   4347   4348     1  0.0000000  0.6508444  3
   4345   4344   4347   4349     1  0.0000000  0.6508444  3
   4345   4344   4333   4355     1  0.0000000  0.6508444  3
   4346   4344   4347   4350     1  0.0000000  0.6508444  3
   4346   4344   4347   4348     1  0.0000000  0.6508444  3
   4346   4344   4347   4349     1  0.0000000  0.6508444  3
   4346   4344   4333   4355     1  0.0000000  0.6508444  3
   4347   4350   4352   4353     1  180.0000771  9.6232000  2
   4347   4344   4333   4355     1  0.0000000  0.6508444  3
   4348   4347   4350   4351     1  0.0000000  3.3472000  1
   4348   4347   4350   4351     1  0.0000000  0.0000000  2
   4348   4347   4350   4351     1  180.0000771  0.3347200  3
   4348   4347   4350   4352     1  180.0000771  0.0000000  2
   4349   4347   4350   4351     1  0.0000000  3.3472000  1
   4349   4347   4350   4351     1  0.0000000  0.0000000  2
   4349   4347   4350   4351     1  180.0000771  0.3347200  3
   4349   4347   4350   4352     1  180.0000771  0.0000000  2
   4351   4350   4352   4353     1  0.0000000  7.9496000  1
   4351   4350   4352   4353     1  180.0000771  9.6232000  2
   4356   4359   4362   4363     1  0.0000000  0.6508444  3
   4356   4359   4362   4364     1  0.0000000  0.6508444  3
   4357   4356   4359   4362     1  0.0000000  0.6508444  3
   4357   4356   4359   4360     1  0.0000000  0.6508444  3
   4357   4356   4359   4361     1  0.0000000  0.6508444  3
   4358   4356   4359   4362     1  0.0000000  0.6508444  3
   4358   4356   4359   4360     1  0.0000000  0.6508444  3
   4358   4356   4359   4361     1  0.0000000  0.6508444  3
   4359   4362   4365   4387     1  0.0000000  0.6508444  3
   4360   4359   4356   4386     1  0.0000000  1.0460000  1
   4360   4359   4356   4386     1  0.0000000  0.0000000  3
   4360   4359   4362   4365     1  0.0000000  0.6508444  3
   4360   4359   4362   4363     1  0.0000000  0.6508444  3
   4360   4359   4362   4364     1  0.0000000  0.6508444  3
   4361   4359   4356   4386     1  0.0000000  1.0460000  1
   4361   4359   4356   4386     1  0.0000000  0.0000000  3
   4361   4359   4362   4365     1  0.0000000  0.6508444  3
   4361   4359   4362   4363     1  0.0000000  0.6508444  3
   4361   4359   4362   4364     1  0.0000000  0.6508444  3
   4362   4365   4366   4367     1  0.0000000  0.6508444  3
   4362   4365   4366   4368     1  0.0000000  0.6508444  3
   4362   4365   4376   4377     1  0.0000000  0.6508444  3
   4362   4365   4376   4378     1  0.0000000  0.6508444  3
   4363   4362   4365   4366     1  0.0000000  0.6508444  3
   4363   4362   4365   4376     1  0.0000000  0.6508444  3
   4363   4362   4365   4387     1  0.0000000  0.6508444  3
   4364   4362   4365   4366     1  0.0000000  0.6508444  3
   4364   4362   4365   4376     1  0.0000000  0.6508444  3
   4364   4362   4365   4387     1  0.0000000  0.6508444  3
   4365   4366   4369   4370     1  0.0000000  0.6508444  3
   4365   4366   4369   4371     1  0.0000000  0.6508444  3
   4365   4376   4379   4380     1  0.0000000  0.6508444  3
   4365   4376   4379   4381     1  0.0000000  0.6508444  3
   4366   4365   4376   4377     1  0.0000000  0.6508444  3
   4366   4365   4376   4378     1  0.0000000  0.6508444  3
   4367   4366   4365   4376     1  0.0000000  0.6508444  3
   4367   4366   4365   4387     1  0.0000000  0.6508444  3
   4367   4366   4369   4372     1  0.0000000  0.6508444  3
   4367   4366   4369   4370     1  0.0000000  0.6508444  3
   4367   4366   4369   4371     1  0.0000000  0.6508444  3
   4368   4366   4365   4376     1  0.0000000  0.6508444  3
   4368   4366   4365   4387     1  0.0000000  0.6508444  3
   4368   4366   4369   4372     1  0.0000000  0.6508444  3
   4368   4366   4369   4370     1  0.0000000  0.6508444  3
   4368   4366   4369   4371     1  0.0000000  0.6508444  3
   4369   4366   4365   4387     1  0.0000000  0.6508444  3
   4369   4372   4374   4375     1  180.0000771  9.6232000  2
   4370   4369   4372   4373     1  0.0000000  3.3472000  1
   4370   4369   4372   4373     1  0.0000000  0.0000000  2
   4370   4369   4372   4373     1  180.0000771  0.3347200  3
   4370   4369   4372   4374     1  180.0000771  0.0000000  2
   4371   4369   4372   4373     1  0.0000000  3.3472000  1
   4371   4369   4372   4373     1  0.0000000  0.0000000  2
   4371   4369   4372   4373     1  180.0000771  0.3347200  3
   4371   4369   4372   4374     1  180.0000771  0.0000000  2
   4373   4372   4374   4375     1  0.0000000  7.9496000  1
   4373   4372   4374   4375     1  180.0000771  9.6232000  2
   4377   4376   4365   4387     1  0.0000000  0.6508444  3
   4377   4376   4379   4382     1  0.0000000  0.6508444  3
   4377   4376   4379   4380     1  0.0000000  0.6508444  3
   4377   4376   4379   4381     1  0.0000000  0.6508444  3
   4378   4376   4365   4387     1  0.0000000  0.6508444  3
   4378   4376   4379   4382     1  0.0000000  0.6508444  3
   4378   4376   4379   4380     1  0.0000000  0.6508444  3
   4378   4376   4379   4381     1  0.0000000  0.6508444  3
   4379   4376   4365   4387     1  0.0000000  0.6508444  3
   4379   4382   4384   4385     1  180.0000771  9.6232000  2
   4380   4379   4382   4383     1  0.0000000  3.3472000  1
   4380   4379   4382   4383     1  0.0000000  0.0000000  2
   4380   4379   4382   4383     1  180.0000771  0.3347200  3
   4380   4379   4382   4384     1  180.0000771  0.0000000  2
   4381   4379   4382   4383     1  0.0000000  3.3472000  1
   4381   4379   4382   4383     1  0.0000000  0.0000000  2
   4381   4379   4382   4383     1  180.0000771  0.3347200  3
   4381   4379   4382   4384     1  180.0000771  0.0000000  2
   4383   4382   4384   4385     1  0.0000000  7.9496000  1
   4383   4382   4384   4385     1  180.0000771  9.6232000  2
   4388   4391   4394   4395     1  0.0000000  0.6508444  3
   4388   4391   4394   4396     1  0.0000000  0.6508444  3
   4389   4388   4391   4394     1  0.0000000  0.6508444  3
   4389   4388   4391   4392     1  0.0000000  0.6508444  3
   4389   4388   4391   4393     1  0.0000000  0.6508444  3
   4390   4388   4391   4394     1  0.0000000  0.6508444  3
   4390   4388   4391   4392     1  0.0000000  0.6508444  3
   4390   4388   4391   4393     1  0.0000000  0.6508444  3
   4391   4394   4397   4419     1  0.0000000  0.6508444  3
   4392   4391   4394   4397     1  0.0000000  0.6508444  3
   4392   4391   4394   4395     1  0.0000000  0.6508444  3
   4392   4391   4394   4396     1  0.0000000  0.6508444  3
   4392   4391   4388   4418     1  0.0000000  1.0460000  1
   4392   4391   4388   4418     1  0.0000000  0.0000000  3
   4393   4391   4394   4397     1  0.0000000  0.6508444  3
   4393   4391   4394   4395     1  0.0000000  0.6508444  3
   4393   4391   4394   4396     1  0.0000000  0.6508444  3
   4393   4391   4388   4418     1  0.0000000  1.0460000  1
   4393   4391   4388   4418     1  0.0000000  0.0000000  3
   4394   4397   4398   4399     1  0.0000000  0.6508444  3
   4394   4397   4398   4400     1  0.0000000  0.6508444  3
   4394   4397   4408   4409     1  0.0000000  0.6508444  3
   4394   4397   4408   4410     1  0.0000000  0.6508444  3
   4395   4394   4397   4398     1  0.0000000  0.6508444  3
   4395   4394   4397   4408     1  0.0000000  0.6508444  3
   4395   4394   4397   4419     1  0.0000000  0.6508444  3
   4396   4394   4397   4398     1  0.0000000  0.6508444  3
   4396   4394   4397   4408     1  0.0000000  0.6508444  3
   4396   4394   4397   4419     1  0.0000000  0.6508444  3
   4397   4398   4401   4402     1  0.0000000  0.6508444  3
   4397   4398   4401   4403     1  0.0000000  0.6508444  3
   4397   4408   4411   4412     1  0.0000000  0.6508444  3
   4397   4408   4411   4413     1  0.0000000  0.6508444  3
   4398   4397   4408   4409     1  0.0000000  0.6508444  3
   4398   4397   4408   4410     1  0.0000000  0.6508444  3
   4399   4398   4401   4404     1  0.0000000  0.6508444  3
   4399   4398   4401   4402     1  0.0000000  0.6508444  3
   4399   4398   4401   4403     1  0.0000000  0.6508444  3
   4399   4398   4397   4408     1  0.0000000  0.6508444  3
   4399   4398   4397   4419     1  0.0000000  0.6508444  3
   4400   4398   4401   4404     1  0.0000000  0.6508444  3
   4400   4398   4401   4402     1  0.0000000  0.6508444  3
   4400   4398   4401   4403     1  0.0000000  0.6508444  3
   4400   4398   4397   4408     1  0.0000000  0.6508444  3
   4400   4398   4397   4419     1  0.0000000  0.6508444  3
   4401   4404   4406   4407     1  180.0000771  9.6232000  2
   4401   4398   4397   4419     1  0.0000000  0.6508444  3
   4402   4401   4404   4405     1  0.0000000  3.3472000  1
   4402   4401   4404   4405     1  0.0000000  0.0000000  2
   4402   4401   4404   4405     1  180.0000771  0.3347200  3
   4402   4401   4404   4406     1  180.0000771  0.0000000  2
   4403   4401   4404   4405     1  0.0000000  3.3472000  1
   4403   4401   4404   4405     1  0.0000000  0.0000000  2
   4403   4401   4404   4405     1  180.0000771  0.3347200  3
   4403   4401   4404   4406     1  180.0000771  0.0000000  2
   4405   4404   4406   4407     1  0.0000000  7.9496000  1
   4405   4404   4406   4407     1  180.0000771  9.6232000  2
   4409   4408   4411   4414     1  0.0000000  0.6508444  3
   4409   4408   4411   4412     1  0.0000000  0.6508444  3
   4409   4408   4411   4413     1  0.0000000  0.6508444  3
   4409   4408   4397   4419     1  0.0000000  0.6508444  3
   4410   4408   4411   4414     1  0.0000000  0.6508444  3
   4410   4408   4411   4412     1  0.0000000  0.6508444  3
   4410   4408   4411   4413     1  0.0000000  0.6508444  3
   4410   4408   4397   4419     1  0.0000000  0.6508444  3
   4411   4414   4416   4417     1  180.0000771  9.6232000  2
   4411   4408   4397   4419     1  0.0000000  0.6508444  3
   4412   4411   4414   4415     1  0.0000000  3.3472000  1
   4412   4411   4414   4415     1  0.0000000  0.0000000  2
   4412   4411   4414   4415     1  180.0000771  0.3347200  3
   4412   4411   4414   4416     1  180.0000771  0.0000000  2
   4413   4411   4414   4415     1  0.0000000  3.3472000  1
   4413   4411   4414   4415     1  0.0000000  0.0000000  2
   4413   4411   4414   4415     1  180.0000771  0.3347200  3
   4413   4411   4414   4416     1  180.0000771  0.0000000  2
   4415   4414   4416   4417     1  0.0000000  7.9496000  1
   4415   4414   4416   4417     1  180.0000771  9.6232000  2
   4420   4423   4426   4427     1  0.0000000  0.6508444  3
   4420   4423   4426   4428     1  0.0000000  0.6508444  3
   4421   4420   4423   4426     1  0.0000000  0.6508444  3
   4421   4420   4423   4424     1  0.0000000  0.6508444  3
   4421   4420   4423   4425     1  0.0000000  0.6508444  3
   4422   4420   4423   4426     1  0.0000000  0.6508444  3
   4422   4420   4423   4424     1  0.0000000  0.6508444  3
   4422   4420   4423   4425     1  0.0000000  0.6508444  3
   4423   4426   4429   4451     1  0.0000000  0.6508444  3
   4424   4423   4420   4450     1  0.0000000  1.0460000  1
   4424   4423   4420   4450     1  0.0000000  0.0000000  3
   4424   4423   4426   4429     1  0.0000000  0.6508444  3
   4424   4423   4426   4427     1  0.0000000  0.6508444  3
   4424   4423   4426   4428     1  0.0000000  0.6508444  3
   4425   4423   4420   4450     1  0.0000000  1.0460000  1
   4425   4423   4420   4450     1  0.0000000  0.0000000  3
   4425   4423   4426   4429     1  0.0000000  0.6508444  3
   4425   4423   4426   4427     1  0.0000000  0.6508444  3
   4425   4423   4426   4428     1  0.0000000  0.6508444  3
   4426   4429   4430   4431     1  0.0000000  0.6508444  3
   4426   4429   4430   4432     1  0.0000000  0.6508444  3
   4426   4429   4440   4441     1  0.0000000  0.6508444  3
   4426   4429   4440   4442     1  0.0000000  0.6508444  3
   4427   4426   4429   4430     1  0.0000000  0.6508444  3
   4427   4426   4429   4440     1  0.0000000  0.6508444  3
   4427   4426   4429   4451     1  0.0000000  0.6508444  3
   4428   4426   4429   4430     1  0.0000000  0.6508444  3
   4428   4426   4429   4440     1  0.0000000  0.6508444  3
   4428   4426   4429   4451     1  0.0000000  0.6508444  3
   4429   4430   4433   4434     1  0.0000000  0.6508444  3
   4429   4430   4433   4435     1  0.0000000  0.6508444  3
   4429   4440   4443   4444     1  0.0000000  0.6508444  3
   4429   4440   4443   4445     1  0.0000000  0.6508444  3
   4430   4429   4440   4441     1  0.0000000  0.6508444  3
   4430   4429   4440   4442     1  0.0000000  0.6508444  3
   4431   4430   4429   4440     1  0.0000000  0.6508444  3
   4431   4430   4429   4451     1  0.0000000  0.6508444  3
   4431   4430   4433   4436     1  0.0000000  0.6508444  3
   4431   4430   4433   4434     1  0.0000000  0.6508444  3
   4431   4430   4433   4435     1  0.0000000  0.6508444  3
   4432   4430   4429   4440     1  0.0000000  0.6508444  3
   4432   4430   4429   4451     1  0.0000000  0.6508444  3
   4432   4430   4433   4436     1  0.0000000  0.6508444  3
   4432   4430   4433   4434     1  0.0000000  0.6508444  3
   4432   4430   4433   4435     1  0.0000000  0.6508444  3
   4433   4430   4429   4451     1  0.0000000  0.6508444  3
   4433   4436   4438   4439     1  180.0000771  9.6232000  2
   4434   4433   4436   4437     1  0.0000000  3.3472000  1
   4434   4433   4436   4437     1  0.0000000  0.0000000  2
   4434   4433   4436   4437     1  180.0000771  0.3347200  3
   4434   4433   4436   4438     1  180.0000771  0.0000000  2
   4435   4433   4436   4437     1  0.0000000  3.3472000  1
   4435   4433   4436   4437     1  0.0000000  0.0000000  2
   4435   4433   4436   4437     1  180.0000771  0.3347200  3
   4435   4433   4436   4438     1  180.0000771  0.0000000  2
   4437   4436   4438   4439     1  0.0000000  7.9496000  1
   4437   4436   4438   4439     1  180.0000771  9.6232000  2
   4441   4440   4429   4451     1  0.0000000  0.6508444  3
   4441   4440   4443   4446     1  0.0000000  0.6508444  3
   4441   4440   4443   4444     1  0.0000000  0.6508444  3
   4441   4440   4443   4445     1  0.0000000  0.6508444  3
   4442   4440   4429   4451     1  0.0000000  0.6508444  3
   4442   4440   4443   4446     1  0.0000000  0.6508444  3
   4442   4440   4443   4444     1  0.0000000  0.6508444  3
   4442   4440   4443   4445     1  0.0000000  0.6508444  3
   4443   4440   4429   4451     1  0.0000000  0.6508444  3
   4443   4446   4448   4449     1  180.0000771  9.6232000  2
   4444   4443   4446   4447     1  0.0000000  3.3472000  1
   4444   4443   4446   4447     1  0.0000000  0.0000000  2
   4444   4443   4446   4447     1  180.0000771  0.3347200  3
   4444   4443   4446   4448     1  180.0000771  0.0000000  2
   4445   4443   4446   4447     1  0.0000000  3.3472000  1
   4445   4443   4446   4447     1  0.0000000  0.0000000  2
   4445   4443   4446   4447     1  180.0000771  0.3347200  3
   4445   4443   4446   4448     1  180.0000771  0.0000000  2
   4447   4446   4448   4449     1  0.0000000  7.9496000  1
   4447   4446   4448   4449     1  180.0000771  9.6232000  2
   4452   4455   4458   4459     1  0.0000000  0.6508444  3
   4452   4455   4458   4460     1  0.0000000  0.6508444  3
   4453   4452   4455   4458     1  0.0000000  0.6508444  3
   4453   4452   4455   4456     1  0.0000000  0.6508444  3
   4453   4452   4455   4457     1  0.0000000  0.6508444  3
   4454   4452   4455   4458     1  0.0000000  0.6508444  3
   4454   4452   4455   4456     1  0.0000000  0.6508444  3
   4454   4452   4455   4457     1  0.0000000  0.6508444  3
   4455   4458   4461   4483     1  0.0000000  0.6508444  3
   4456   4455   4458   4461     1  0.0000000  0.6508444  3
   4456   4455   4458   4459     1  0.0000000  0.6508444  3
   4456   4455   4458   4460     1  0.0000000  0.6508444  3
   4456   4455   4452   4482     1  0.0000000  1.0460000  1
   4456   4455   4452   4482     1  0.0000000  0.0000000  3
   4457   4455   4458   4461     1  0.0000000  0.6508444  3
   4457   4455   4458   4459     1  0.0000000  0.6508444  3
   4457   4455   4458   4460     1  0.0000000  0.6508444  3
   4457   4455   4452   4482     1  0.0000000  1.0460000  1
   4457   4455   4452   4482     1  0.0000000  0.0000000  3
   4458   4461   4462   4463     1  0.0000000  0.6508444  3
   4458   4461   4462   4464     1  0.0000000  0.6508444  3
   4458   4461   4472   4473     1  0.0000000  0.6508444  3
   4458   4461   4472   4474     1  0.0000000  0.6508444  3
   4459   4458   4461   4462     1  0.0000000  0.6508444  3
   4459   4458   4461   4472     1  0.0000000  0.6508444  3
   4459   4458   4461   4483     1  0.0000000  0.6508444  3
   4460   4458   4461   4462     1  0.0000000  0.6508444  3
   4460   4458   4461   4472     1  0.0000000  0.6508444  3
   4460   4458   4461   4483     1  0.0000000  0.6508444  3
   4461   4462   4465   4466     1  0.0000000  0.6508444  3
   4461   4462   4465   4467     1  0.0000000  0.6508444  3
   4461   4472   4475   4476     1  0.0000000  0.6508444  3
   4461   4472   4475   4477     1  0.0000000  0.6508444  3
   4462   4461   4472   4473     1  0.0000000  0.6508444  3
   4462   4461   4472   4474     1  0.0000000  0.6508444  3
   4463   4462   4465   4468     1  0.0000000  0.6508444  3
   4463   4462   4465   4466     1  0.0000000  0.6508444  3
   4463   4462   4465   4467     1  0.0000000  0.6508444  3
   4463   4462   4461   4472     1  0.0000000  0.6508444  3
   4463   4462   4461   4483     1  0.0000000  0.6508444  3
   4464   4462   4465   4468     1  0.0000000  0.6508444  3
   4464   4462   4465   4466     1  0.0000000  0.6508444  3
   4464   4462   4465   4467     1  0.0000000  0.6508444  3
   4464   4462   4461   4472     1  0.0000000  0.6508444  3
   4464   4462   4461   4483     1  0.0000000  0.6508444  3
   4465   4468   4470   4471     1  180.0000771  9.6232000  2
   4465   4462   4461   4483     1  0.0000000  0.6508444  3
   4466   4465   4468   4469     1  0.0000000  3.3472000  1
   4466   4465   4468   4469     1  0.0000000  0.0000000  2
   4466   4465   4468   4469     1  180.0000771  0.3347200  3
   4466   4465   4468   4470     1  180.0000771  0.0000000  2
   4467   4465   4468   4469     1  0.0000000  3.3472000  1
   4467   4465   4468   4469     1  0.0000000  0.0000000  2
   4467   4465   4468   4469     1  180.0000771  0.3347200  3
   4467   4465   4468   4470     1  180.0000771  0.0000000  2
   4469   4468   4470   4471     1  0.0000000  7.9496000  1
   4469   4468   4470   4471     1  180.0000771  9.6232000  2
   4473   4472   4475   4478     1  0.0000000  0.6508444  3
   4473   4472   4475   4476     1  0.0000000  0.6508444  3
   4473   4472   4475   4477     1  0.0000000  0.6508444  3
   4473   4472   4461   4483     1  0.0000000  0.6508444  3
   4474   4472   4475   4478     1  0.0000000  0.6508444  3
   4474   4472   4475   4476     1  0.0000000  0.6508444  3
   4474   4472   4475   4477     1  0.0000000  0.6508444  3
   4474   4472   4461   4483     1  0.0000000  0.6508444  3
   4475   4478   4480   4481     1  180.0000771  9.6232000  2
   4475   4472   4461   4483     1  0.0000000  0.6508444  3
   4476   4475   4478   4479     1  0.0000000  3.3472000  1
   4476   4475   4478   4479     1  0.0000000  0.0000000  2
   4476   4475   4478   4479     1  180.0000771  0.3347200  3
   4476   4475   4478   4480     1  180.0000771  0.0000000  2
   4477   4475   4478   4479     1  0.0000000  3.3472000  1
   4477   4475   4478   4479     1  0.0000000  0.0000000  2
   4477   4475   4478   4479     1  180.0000771  0.3347200  3
   4477   4475   4478   4480     1  180.0000771  0.0000000  2
   4479   4478   4480   4481     1  0.0000000  7.9496000  1
   4479   4478   4480   4481     1  180.0000771  9.6232000  2
   4484   4487   4490   4491     1  0.0000000  0.6508444  3
   4484   4487   4490   4492     1  0.0000000  0.6508444  3
   4485   4484   4487   4490     1  0.0000000  0.6508444  3
   4485   4484   4487   4488     1  0.0000000  0.6508444  3
   4485   4484   4487   4489     1  0.0000000  0.6508444  3
   4486   4484   4487   4490     1  0.0000000  0.6508444  3
   4486   4484   4487   4488     1  0.0000000  0.6508444  3
   4486   4484   4487   4489     1  0.0000000  0.6508444  3
   4487   4490   4493   4515     1  0.0000000  0.6508444  3
   4488   4487   4484   4514     1  0.0000000  1.0460000  1
   4488   4487   4484   4514     1  0.0000000  0.0000000  3
   4488   4487   4490   4493     1  0.0000000  0.6508444  3
   4488   4487   4490   4491     1  0.0000000  0.6508444  3
   4488   4487   4490   4492     1  0.0000000  0.6508444  3
   4489   4487   4484   4514     1  0.0000000  1.0460000  1
   4489   4487   4484   4514     1  0.0000000  0.0000000  3
   4489   4487   4490   4493     1  0.0000000  0.6508444  3
   4489   4487   4490   4491     1  0.0000000  0.6508444  3
   4489   4487   4490   4492     1  0.0000000  0.6508444  3
   4490   4493   4494   4495     1  0.0000000  0.6508444  3
   4490   4493   4494   4496     1  0.0000000  0.6508444  3
   4490   4493   4504   4505     1  0.0000000  0.6508444  3
   4490   4493   4504   4506     1  0.0000000  0.6508444  3
   4491   4490   4493   4494     1  0.0000000  0.6508444  3
   4491   4490   4493   4504     1  0.0000000  0.6508444  3
   4491   4490   4493   4515     1  0.0000000  0.6508444  3
   4492   4490   4493   4494     1  0.0000000  0.6508444  3
   4492   4490   4493   4504     1  0.0000000  0.6508444  3
   4492   4490   4493   4515     1  0.0000000  0.6508444  3
   4493   4494   4497   4498     1  0.0000000  0.6508444  3
   4493   4494   4497   4499     1  0.0000000  0.6508444  3
   4493   4504   4507   4508     1  0.0000000  0.6508444  3
   4493   4504   4507   4509     1  0.0000000  0.6508444  3
   4494   4493   4504   4505     1  0.0000000  0.6508444  3
   4494   4493   4504   4506     1  0.0000000  0.6508444  3
   4495   4494   4493   4504     1  0.0000000  0.6508444  3
   4495   4494   4493   4515     1  0.0000000  0.6508444  3
   4495   4494   4497   4500     1  0.0000000  0.6508444  3
   4495   4494   4497   4498     1  0.0000000  0.6508444  3
   4495   4494   4497   4499     1  0.0000000  0.6508444  3
   4496   4494   4493   4504     1  0.0000000  0.6508444  3
   4496   4494   4493   4515     1  0.0000000  0.6508444  3
   4496   4494   4497   4500     1  0.0000000  0.6508444  3
   4496   4494   4497   4498     1  0.0000000  0.6508444  3
   4496   4494   4497   4499     1  0.0000000  0.6508444  3
   4497   4494   4493   4515     1  0.0000000  0.6508444  3
   4497   4500   4502   4503     1  180.0000771  9.6232000  2
   4498   4497   4500   4501     1  0.0000000  3.3472000  1
   4498   4497   4500   4501     1  0.0000000  0.0000000  2
   4498   4497   4500   4501     1  180.0000771  0.3347200  3
   4498   4497   4500   4502     1  180.0000771  0.0000000  2
   4499   4497   4500   4501     1  0.0000000  3.3472000  1
   4499   4497   4500   4501     1  0.0000000  0.0000000  2
   4499   4497   4500   4501     1  180.0000771  0.3347200  3
   4499   4497   4500   4502     1  180.0000771  0.0000000  2
   4501   4500   4502   4503     1  0.0000000  7.9496000  1
   4501   4500   4502   4503     1  180.0000771  9.6232000  2
   4505   4504   4493   4515     1  0.0000000  0.6508444  3
   4505   4504   4507   4510     1  0.0000000  0.6508444  3
   4505   4504   4507   4508     1  0.0000000  0.6508444  3
   4505   4504   4507   4509     1  0.0000000  0.6508444  3
   4506   4504   4493   4515     1  0.0000000  0.6508444  3
   4506   4504   4507   4510     1  0.0000000  0.6508444  3
   4506   4504   4507   4508     1  0.0000000  0.6508444  3
   4506   4504   4507   4509     1  0.0000000  0.6508444  3
   4507   4504   4493   4515     1  0.0000000  0.6508444  3
   4507   4510   4512   4513     1  180.0000771  9.6232000  2
   4508   4507   4510   4511     1  0.0000000  3.3472000  1
   4508   4507   4510   4511     1  0.0000000  0.0000000  2
   4508   4507   4510   4511     1  180.0000771  0.3347200  3
   4508   4507   4510   4512     1  180.0000771  0.0000000  2
   4509   4507   4510   4511     1  0.0000000  3.3472000  1
   4509   4507   4510   4511     1  0.0000000  0.0000000  2
   4509   4507   4510   4511     1  180.0000771  0.3347200  3
   4509   4507   4510   4512     1  180.0000771  0.0000000  2
   4511   4510   4512   4513     1  0.0000000  7.9496000  1
   4511   4510   4512   4513     1  180.0000771  9.6232000  2
   4516   4519   4522   4523     1  0.0000000  0.6508444  3
   4516   4519   4522   4524     1  0.0000000  0.6508444  3
   4517   4516   4519   4522     1  0.0000000  0.6508444  3
   4517   4516   4519   4520     1  0.0000000  0.6508444  3
   4517   4516   4519   4521     1  0.0000000  0.6508444  3
   4518   4516   4519   4522     1  0.0000000  0.6508444  3
   4518   4516   4519   4520     1  0.0000000  0.6508444  3
   4518   4516   4519   4521     1  0.0000000  0.6508444  3
   4519   4522   4525   4547     1  0.0000000  0.6508444  3
   4520   4519   4522   4525     1  0.0000000  0.6508444  3
   4520   4519   4522   4523     1  0.0000000  0.6508444  3
   4520   4519   4522   4524     1  0.0000000  0.6508444  3
   4520   4519   4516   4546     1  0.0000000  1.0460000  1
   4520   4519   4516   4546     1  0.0000000  0.0000000  3
   4521   4519   4522   4525     1  0.0000000  0.6508444  3
   4521   4519   4522   4523     1  0.0000000  0.6508444  3
   4521   4519   4522   4524     1  0.0000000  0.6508444  3
   4521   4519   4516   4546     1  0.0000000  1.0460000  1
   4521   4519   4516   4546     1  0.0000000  0.0000000  3
   4522   4525   4526   4527     1  0.0000000  0.6508444  3
   4522   4525   4526   4528     1  0.0000000  0.6508444  3
   4522   4525   4536   4537     1  0.0000000  0.6508444  3
   4522   4525   4536   4538     1  0.0000000  0.6508444  3
   4523   4522   4525   4526     1  0.0000000  0.6508444  3
   4523   4522   4525   4536     1  0.0000000  0.6508444  3
   4523   4522   4525   4547     1  0.0000000  0.6508444  3
   4524   4522   4525   4526     1  0.0000000  0.6508444  3
   4524   4522   4525   4536     1  0.0000000  0.6508444  3
   4524   4522   4525   4547     1  0.0000000  0.6508444  3
   4525   4526   4529   4530     1  0.0000000  0.6508444  3
   4525   4526   4529   4531     1  0.0000000  0.6508444  3
   4525   4536   4539   4540     1  0.0000000  0.6508444  3
   4525   4536   4539   4541     1  0.0000000  0.6508444  3
   4526   4525   4536   4537     1  0.0000000  0.6508444  3
   4526   4525   4536   4538     1  0.0000000  0.6508444  3
   4527   4526   4529   4532     1  0.0000000  0.6508444  3
   4527   4526   4529   4530     1  0.0000000  0.6508444  3
   4527   4526   4529   4531     1  0.0000000  0.6508444  3
   4527   4526   4525   4536     1  0.0000000  0.6508444  3
   4527   4526   4525   4547     1  0.0000000  0.6508444  3
   4528   4526   4529   4532     1  0.0000000  0.6508444  3
   4528   4526   4529   4530     1  0.0000000  0.6508444  3
   4528   4526   4529   4531     1  0.0000000  0.6508444  3
   4528   4526   4525   4536     1  0.0000000  0.6508444  3
   4528   4526   4525   4547     1  0.0000000  0.6508444  3
   4529   4532   4534   4535     1  180.0000771  9.6232000  2
   4529   4526   4525   4547     1  0.0000000  0.6508444  3
   4530   4529   4532   4533     1  0.0000000  3.3472000  1
   4530   4529   4532   4533     1  0.0000000  0.0000000  2
   4530   4529   4532   4533     1  180.0000771  0.3347200  3
   4530   4529   4532   4534     1  180.0000771  0.0000000  2
   4531   4529   4532   4533     1  0.0000000  3.3472000  1
   4531   4529   4532   4533     1  0.0000000  0.0000000  2
   4531   4529   4532   4533     1  180.0000771  0.3347200  3
   4531   4529   4532   4534     1  180.0000771  0.0000000  2
   4533   4532   4534   4535     1  0.0000000  7.9496000  1
   4533   4532   4534   4535     1  180.0000771  9.6232000  2
   4537   4536   4539   4542     1  0.0000000  0.6508444  3
   4537   4536   4539   4540     1  0.0000000  0.6508444  3
   4537   4536   4539   4541     1  0.0000000  0.6508444  3
   4537   4536   4525   4547     1  0.0000000  0.6508444  3
   4538   4536   4539   4542     1  0.0000000  0.6508444  3
   4538   4536   4539   4540     1  0.0000000  0.6508444  3
   4538   4536   4539   4541     1  0.0000000  0.6508444  3
   4538   4536   4525   4547     1  0.0000000  0.6508444  3
   4539   4542   4544   4545     1  180.0000771  9.6232000  2
   4539   4536   4525   4547     1  0.0000000  0.6508444  3
   4540   4539   4542   4543     1  0.0000000  3.3472000  1
   4540   4539   4542   4543     1  0.0000000  0.0000000  2
   4540   4539   4542   4543     1  180.0000771  0.3347200  3
   4540   4539   4542   4544     1  180.0000771  0.0000000  2
   4541   4539   4542   4543     1  0.0000000  3.3472000  1
   4541   4539   4542   4543     1  0.0000000  0.0000000  2
   4541   4539   4542   4543     1  180.0000771  0.3347200  3
   4541   4539   4542   4544     1  180.0000771  0.0000000  2
   4543   4542   4544   4545     1  0.0000000  7.9496000  1
   4543   4542   4544   4545     1  180.0000771  9.6232000  2
   4548   4551   4554   4555     1  0.0000000  0.6508444  3
   4548   4551   4554   4556     1  0.0000000  0.6508444  3
   4549   4548   4551   4554     1  0.0000000  0.6508444  3
   4549   4548   4551   4552     1  0.0000000  0.6508444  3
   4549   4548   4551   4553     1  0.0000000  0.6508444  3
   4550   4548   4551   4554     1  0.0000000  0.6508444  3
   4550   4548   4551   4552     1  0.0000000  0.6508444  3
   4550   4548   4551   4553     1  0.0000000  0.6508444  3
   4551   4554   4557   4579     1  0.0000000  0.6508444  3
   4552   4551   4548   4578     1  0.0000000  1.0460000  1
   4552   4551   4548   4578     1  0.0000000  0.0000000  3
   4552   4551   4554   4557     1  0.0000000  0.6508444  3
   4552   4551   4554   4555     1  0.0000000  0.6508444  3
   4552   4551   4554   4556     1  0.0000000  0.6508444  3
   4553   4551   4548   4578     1  0.0000000  1.0460000  1
   4553   4551   4548   4578     1  0.0000000  0.0000000  3
   4553   4551   4554   4557     1  0.0000000  0.6508444  3
   4553   4551   4554   4555     1  0.0000000  0.6508444  3
   4553   4551   4554   4556     1  0.0000000  0.6508444  3
   4554   4557   4558   4559     1  0.0000000  0.6508444  3
   4554   4557   4558   4560     1  0.0000000  0.6508444  3
   4554   4557   4568   4569     1  0.0000000  0.6508444  3
   4554   4557   4568   4570     1  0.0000000  0.6508444  3
   4555   4554   4557   4558     1  0.0000000  0.6508444  3
   4555   4554   4557   4568     1  0.0000000  0.6508444  3
   4555   4554   4557   4579     1  0.0000000  0.6508444  3
   4556   4554   4557   4558     1  0.0000000  0.6508444  3
   4556   4554   4557   4568     1  0.0000000  0.6508444  3
   4556   4554   4557   4579     1  0.0000000  0.6508444  3
   4557   4558   4561   4562     1  0.0000000  0.6508444  3
   4557   4558   4561   4563     1  0.0000000  0.6508444  3
   4557   4568   4571   4572     1  0.0000000  0.6508444  3
   4557   4568   4571   4573     1  0.0000000  0.6508444  3
   4558   4557   4568   4569     1  0.0000000  0.6508444  3
   4558   4557   4568   4570     1  0.0000000  0.6508444  3
   4559   4558   4557   4568     1  0.0000000  0.6508444  3
   4559   4558   4557   4579     1  0.0000000  0.6508444  3
   4559   4558   4561   4564     1  0.0000000  0.6508444  3
   4559   4558   4561   4562     1  0.0000000  0.6508444  3
   4559   4558   4561   4563     1  0.0000000  0.6508444  3
   4560   4558   4557   4568     1  0.0000000  0.6508444  3
   4560   4558   4557   4579     1  0.0000000  0.6508444  3
   4560   4558   4561   4564     1  0.0000000  0.6508444  3
   4560   4558   4561   4562     1  0.0000000  0.6508444  3
   4560   4558   4561   4563     1  0.0000000  0.6508444  3
   4561   4558   4557   4579     1  0.0000000  0.6508444  3
   4561   4564   4566   4567     1  180.0000771  9.6232000  2
   4562   4561   4564   4565     1  0.0000000  3.3472000  1
   4562   4561   4564   4565     1  0.0000000  0.0000000  2
   4562   4561   4564   4565     1  180.0000771  0.3347200  3
   4562   4561   4564   4566     1  180.0000771  0.0000000  2
   4563   4561   4564   4565     1  0.0000000  3.3472000  1
   4563   4561   4564   4565     1  0.0000000  0.0000000  2
   4563   4561   4564   4565     1  180.0000771  0.3347200  3
   4563   4561   4564   4566     1  180.0000771  0.0000000  2
   4565   4564   4566   4567     1  0.0000000  7.9496000  1
   4565   4564   4566   4567     1  180.0000771  9.6232000  2
   4569   4568   4557   4579     1  0.0000000  0.6508444  3
   4569   4568   4571   4574     1  0.0000000  0.6508444  3
   4569   4568   4571   4572     1  0.0000000  0.6508444  3
   4569   4568   4571   4573     1  0.0000000  0.6508444  3
   4570   4568   4557   4579     1  0.0000000  0.6508444  3
   4570   4568   4571   4574     1  0.0000000  0.6508444  3
   4570   4568   4571   4572     1  0.0000000  0.6508444  3
   4570   4568   4571   4573     1  0.0000000  0.6508444  3
   4571   4568   4557   4579     1  0.0000000  0.6508444  3
   4571   4574   4576   4577     1  180.0000771  9.6232000  2
   4572   4571   4574   4575     1  0.0000000  3.3472000  1
   4572   4571   4574   4575     1  0.0000000  0.0000000  2
   4572   4571   4574   4575     1  180.0000771  0.3347200  3
   4572   4571   4574   4576     1  180.0000771  0.0000000  2
   4573   4571   4574   4575     1  0.0000000  3.3472000  1
   4573   4571   4574   4575     1  0.0000000  0.0000000  2
   4573   4571   4574   4575     1  180.0000771  0.3347200  3
   4573   4571   4574   4576     1  180.0000771  0.0000000  2
   4575   4574   4576   4577     1  0.0000000  7.9496000  1
   4575   4574   4576   4577     1  180.0000771  9.6232000  2
   4580   4583   4586   4587     1  0.0000000  0.6508444  3
   4580   4583   4586   4588     1  0.0000000  0.6508444  3
   4581   4580   4583   4586     1  0.0000000  0.6508444  3
   4581   4580   4583   4584     1  0.0000000  0.6508444  3
   4581   4580   4583   4585     1  0.0000000  0.6508444  3
   4582   4580   4583   4586     1  0.0000000  0.6508444  3
   4582   4580   4583   4584     1  0.0000000  0.6508444  3
   4582   4580   4583   4585     1  0.0000000  0.6508444  3
   4583   4586   4589   4611     1  0.0000000  0.6508444  3
   4584   4583   4586   4589     1  0.0000000  0.6508444  3
   4584   4583   4586   4587     1  0.0000000  0.6508444  3
   4584   4583   4586   4588     1  0.0000000  0.6508444  3
   4584   4583   4580   4610     1  0.0000000  1.0460000  1
   4584   4583   4580   4610     1  0.0000000  0.0000000  3
   4585   4583   4586   4589     1  0.0000000  0.6508444  3
   4585   4583   4586   4587     1  0.0000000  0.6508444  3
   4585   4583   4586   4588     1  0.0000000  0.6508444  3
   4585   4583   4580   4610     1  0.0000000  1.0460000  1
   4585   4583   4580   4610     1  0.0000000  0.0000000  3
   4586   4589   4590   4591     1  0.0000000  0.6508444  3
   4586   4589   4590   4592     1  0.0000000  0.6508444  3
   4586   4589   4600   4601     1  0.0000000  0.6508444  3
   4586   4589   4600   4602     1  0.0000000  0.6508444  3
   4587   4586   4589   4590     1  0.0000000  0.6508444  3
   4587   4586   4589   4600     1  0.0000000  0.6508444  3
   4587   4586   4589   4611     1  0.0000000  0.6508444  3
   4588   4586   4589   4590     1  0.0000000  0.6508444  3
   4588   4586   4589   4600     1  0.0000000  0.6508444  3
   4588   4586   4589   4611     1  0.0000000  0.6508444  3
   4589   4590   4593   4594     1  0.0000000  0.6508444  3
   4589   4590   4593   4595     1  0.0000000  0.6508444  3
   4589   4600   4603   4604     1  0.0000000  0.6508444  3
   4589   4600   4603   4605     1  0.0000000  0.6508444  3
   4590   4589   4600   4601     1  0.0000000  0.6508444  3
   4590   4589   4600   4602     1  0.0000000  0.6508444  3
   4591   4590   4593   4596     1  0.0000000  0.6508444  3
   4591   4590   4593   4594     1  0.0000000  0.6508444  3
   4591   4590   4593   4595     1  0.0000000  0.6508444  3
   4591   4590   4589   4600     1  0.0000000  0.6508444  3
   4591   4590   4589   4611     1  0.0000000  0.6508444  3
   4592   4590   4593   4596     1  0.0000000  0.6508444  3
   4592   4590   4593   4594     1  0.0000000  0.6508444  3
   4592   4590   4593   4595     1  0.0000000  0.6508444  3
   4592   4590   4589   4600     1  0.0000000  0.6508444  3
   4592   4590   4589   4611     1  0.0000000  0.6508444  3
   4593   4596   4598   4599     1  180.0000771  9.6232000  2
   4593   4590   4589   4611     1  0.0000000  0.6508444  3
   4594   4593   4596   4597     1  0.0000000  3.3472000  1
   4594   4593   4596   4597     1  0.0000000  0.0000000  2
   4594   4593   4596   4597     1  180.0000771  0.3347200  3
   4594   4593   4596   4598     1  180.0000771  0.0000000  2
   4595   4593   4596   4597     1  0.0000000  3.3472000  1
   4595   4593   4596   4597     1  0.0000000  0.0000000  2
   4595   4593   4596   4597     1  180.0000771  0.3347200  3
   4595   4593   4596   4598     1  180.0000771  0.0000000  2
   4597   4596   4598   4599     1  0.0000000  7.9496000  1
   4597   4596   4598   4599     1  180.0000771  9.6232000  2
   4601   4600   4603   4606     1  0.0000000  0.6508444  3
   4601   4600   4603   4604     1  0.0000000  0.6508444  3
   4601   4600   4603   4605     1  0.0000000  0.6508444  3
   4601   4600   4589   4611     1  0.0000000  0.6508444  3
   4602   4600   4603   4606     1  0.0000000  0.6508444  3
   4602   4600   4603   4604     1  0.0000000  0.6508444  3
   4602   4600   4603   4605     1  0.0000000  0.6508444  3
   4602   4600   4589   4611     1  0.0000000  0.6508444  3
   4603   4606   4608   4609     1  180.0000771  9.6232000  2
   4603   4600   4589   4611     1  0.0000000  0.6508444  3
   4604   4603   4606   4607     1  0.0000000  3.3472000  1
   4604   4603   4606   4607     1  0.0000000  0.0000000  2
   4604   4603   4606   4607     1  180.0000771  0.3347200  3
   4604   4603   4606   4608     1  180.0000771  0.0000000  2
   4605   4603   4606   4607     1  0.0000000  3.3472000  1
   4605   4603   4606   4607     1  0.0000000  0.0000000  2
   4605   4603   4606   4607     1  180.0000771  0.3347200  3
   4605   4603   4606   4608     1  180.0000771  0.0000000  2
   4607   4606   4608   4609     1  0.0000000  7.9496000  1
   4607   4606   4608   4609     1  180.0000771  9.6232000  2
   4612   4615   4618   4619     1  0.0000000  0.6508444  3
   4612   4615   4618   4620     1  0.0000000  0.6508444  3
   4613   4612   4615   4618     1  0.0000000  0.6508444  3
   4613   4612   4615   4616     1  0.0000000  0.6508444  3
   4613   4612   4615   4617     1  0.0000000  0.6508444  3
   4614   4612   4615   4618     1  0.0000000  0.6508444  3
   4614   4612   4615   4616     1  0.0000000  0.6508444  3
   4614   4612   4615   4617     1  0.0000000  0.6508444  3
   4615   4618   4621   4643     1  0.0000000  0.6508444  3
   4616   4615   4612   4642     1  0.0000000  1.0460000  1
   4616   4615   4612   4642     1  0.0000000  0.0000000  3
   4616   4615   4618   4621     1  0.0000000  0.6508444  3
   4616   4615   4618   4619     1  0.0000000  0.6508444  3
   4616   4615   4618   4620     1  0.0000000  0.6508444  3
   4617   4615   4612   4642     1  0.0000000  1.0460000  1
   4617   4615   4612   4642     1  0.0000000  0.0000000  3
   4617   4615   4618   4621     1  0.0000000  0.6508444  3
   4617   4615   4618   4619     1  0.0000000  0.6508444  3
   4617   4615   4618   4620     1  0.0000000  0.6508444  3
   4618   4621   4622   4623     1  0.0000000  0.6508444  3
   4618   4621   4622   4624     1  0.0000000  0.6508444  3
   4618   4621   4632   4633     1  0.0000000  0.6508444  3
   4618   4621   4632   4634     1  0.0000000  0.6508444  3
   4619   4618   4621   4622     1  0.0000000  0.6508444  3
   4619   4618   4621   4632     1  0.0000000  0.6508444  3
   4619   4618   4621   4643     1  0.0000000  0.6508444  3
   4620   4618   4621   4622     1  0.0000000  0.6508444  3
   4620   4618   4621   4632     1  0.0000000  0.6508444  3
   4620   4618   4621   4643     1  0.0000000  0.6508444  3
   4621   4622   4625   4626     1  0.0000000  0.6508444  3
   4621   4622   4625   4627     1  0.0000000  0.6508444  3
   4621   4632   4635   4636     1  0.0000000  0.6508444  3
   4621   4632   4635   4637     1  0.0000000  0.6508444  3
   4622   4621   4632   4633     1  0.0000000  0.6508444  3
   4622   4621   4632   4634     1  0.0000000  0.6508444  3
   4623   4622   4621   4632     1  0.0000000  0.6508444  3
   4623   4622   4621   4643     1  0.0000000  0.6508444  3
   4623   4622   4625   4628     1  0.0000000  0.6508444  3
   4623   4622   4625   4626     1  0.0000000  0.6508444  3
   4623   4622   4625   4627     1  0.0000000  0.6508444  3
   4624   4622   4621   4632     1  0.0000000  0.6508444  3
   4624   4622   4621   4643     1  0.0000000  0.6508444  3
   4624   4622   4625   4628     1  0.0000000  0.6508444  3
   4624   4622   4625   4626     1  0.0000000  0.6508444  3
   4624   4622   4625   4627     1  0.0000000  0.6508444  3
   4625   4622   4621   4643     1  0.0000000  0.6508444  3
   4625   4628   4630   4631     1  180.0000771  9.6232000  2
   4626   4625   4628   4629     1  0.0000000  3.3472000  1
   4626   4625   4628   4629     1  0.0000000  0.0000000  2
   4626   4625   4628   4629     1  180.0000771  0.3347200  3
   4626   4625   4628   4630     1  180.0000771  0.0000000  2
   4627   4625   4628   4629     1  0.0000000  3.3472000  1
   4627   4625   4628   4629     1  0.0000000  0.0000000  2
   4627   4625   4628   4629     1  180.0000771  0.3347200  3
   4627   4625   4628   4630     1  180.0000771  0.0000000  2
   4629   4628   4630   4631     1  0.0000000  7.9496000  1
   4629   4628   4630   4631     1  180.0000771  9.6232000  2
   4633   4632   4621   4643     1  0.0000000  0.6508444  3
   4633   4632   4635   4638     1  0.0000000  0.6508444  3
   4633   4632   4635   4636     1  0.0000000  0.6508444  3
   4633   4632   4635   4637     1  0.0000000  0.6508444  3
   4634   4632   4621   4643     1  0.0000000  0.6508444  3
   4634   4632   4635   4638     1  0.0000000  0.6508444  3
   4634   4632   4635   4636     1  0.0000000  0.6508444  3
   4634   4632   4635   4637     1  0.0000000  0.6508444  3
   4635   4632   4621   4643     1  0.0000000  0.6508444  3
   4635   4638   4640   4641     1  180.0000771  9.6232000  2
   4636   4635   4638   4639     1  0.0000000  3.3472000  1
   4636   4635   4638   4639     1  0.0000000  0.0000000  2
   4636   4635   4638   4639     1  180.0000771  0.3347200  3
   4636   4635   4638   4640     1  180.0000771  0.0000000  2
   4637   4635   4638   4639     1  0.0000000  3.3472000  1
   4637   4635   4638   4639     1  0.0000000  0.0000000  2
   4637   4635   4638   4639     1  180.0000771  0.3347200  3
   4637   4635   4638   4640     1  180.0000771  0.0000000  2
   4639   4638   4640   4641     1  0.0000000  7.9496000  1
   4639   4638   4640   4641     1  180.0000771  9.6232000  2
   4644   4647   4650   4651     1  0.0000000  0.6508444  3
   4644   4647   4650   4652     1  0.0000000  0.6508444  3
   4645   4644   4647   4650     1  0.0000000  0.6508444  3
   4645   4644   4647   4648     1  0.0000000  0.6508444  3
   4645   4644   4647   4649     1  0.0000000  0.6508444  3
   4646   4644   4647   4650     1  0.0000000  0.6508444  3
   4646   4644   4647   4648     1  0.0000000  0.6508444  3
   4646   4644   4647   4649     1  0.0000000  0.6508444  3
   4647   4650   4653   4675     1  0.0000000  0.6508444  3
   4648   4647   4650   4653     1  0.0000000  0.6508444  3
   4648   4647   4650   4651     1  0.0000000  0.6508444  3
   4648   4647   4650   4652     1  0.0000000  0.6508444  3
   4648   4647   4644   4674     1  0.0000000  1.0460000  1
   4648   4647   4644   4674     1  0.0000000  0.0000000  3
   4649   4647   4650   4653     1  0.0000000  0.6508444  3
   4649   4647   4650   4651     1  0.0000000  0.6508444  3
   4649   4647   4650   4652     1  0.0000000  0.6508444  3
   4649   4647   4644   4674     1  0.0000000  1.0460000  1
   4649   4647   4644   4674     1  0.0000000  0.0000000  3
   4650   4653   4654   4655     1  0.0000000  0.6508444  3
   4650   4653   4654   4656     1  0.0000000  0.6508444  3
   4650   4653   4664   4665     1  0.0000000  0.6508444  3
   4650   4653   4664   4666     1  0.0000000  0.6508444  3
   4651   4650   4653   4654     1  0.0000000  0.6508444  3
   4651   4650   4653   4664     1  0.0000000  0.6508444  3
   4651   4650   4653   4675     1  0.0000000  0.6508444  3
   4652   4650   4653   4654     1  0.0000000  0.6508444  3
   4652   4650   4653   4664     1  0.0000000  0.6508444  3
   4652   4650   4653   4675     1  0.0000000  0.6508444  3
   4653   4654   4657   4658     1  0.0000000  0.6508444  3
   4653   4654   4657   4659     1  0.0000000  0.6508444  3
   4653   4664   4667   4668     1  0.0000000  0.6508444  3
   4653   4664   4667   4669     1  0.0000000  0.6508444  3
   4654   4653   4664   4665     1  0.0000000  0.6508444  3
   4654   4653   4664   4666     1  0.0000000  0.6508444  3
   4655   4654   4657   4660     1  0.0000000  0.6508444  3
   4655   4654   4657   4658     1  0.0000000  0.6508444  3
   4655   4654   4657   4659     1  0.0000000  0.6508444  3
   4655   4654   4653   4664     1  0.0000000  0.6508444  3
   4655   4654   4653   4675     1  0.0000000  0.6508444  3
   4656   4654   4657   4660     1  0.0000000  0.6508444  3
   4656   4654   4657   4658     1  0.0000000  0.6508444  3
   4656   4654   4657   4659     1  0.0000000  0.6508444  3
   4656   4654   4653   4664     1  0.0000000  0.6508444  3
   4656   4654   4653   4675     1  0.0000000  0.6508444  3
   4657   4660   4662   4663     1  180.0000771  9.6232000  2
   4657   4654   4653   4675     1  0.0000000  0.6508444  3
   4658   4657   4660   4661     1  0.0000000  3.3472000  1
   4658   4657   4660   4661     1  0.0000000  0.0000000  2
   4658   4657   4660   4661     1  180.0000771  0.3347200  3
   4658   4657   4660   4662     1  180.0000771  0.0000000  2
   4659   4657   4660   4661     1  0.0000000  3.3472000  1
   4659   4657   4660   4661     1  0.0000000  0.0000000  2
   4659   4657   4660   4661     1  180.0000771  0.3347200  3
   4659   4657   4660   4662     1  180.0000771  0.0000000  2
   4661   4660   4662   4663     1  0.0000000  7.9496000  1
   4661   4660   4662   4663     1  180.0000771  9.6232000  2
   4665   4664   4667   4670     1  0.0000000  0.6508444  3
   4665   4664   4667   4668     1  0.0000000  0.6508444  3
   4665   4664   4667   4669     1  0.0000000  0.6508444  3
   4665   4664   4653   4675     1  0.0000000  0.6508444  3
   4666   4664   4667   4670     1  0.0000000  0.6508444  3
   4666   4664   4667   4668     1  0.0000000  0.6508444  3
   4666   4664   4667   4669     1  0.0000000  0.6508444  3
   4666   4664   4653   4675     1  0.0000000  0.6508444  3
   4667   4670   4672   4673     1  180.0000771  9.6232000  2
   4667   4664   4653   4675     1  0.0000000  0.6508444  3
   4668   4667   4670   4671     1  0.0000000  3.3472000  1
   4668   4667   4670   4671     1  0.0000000  0.0000000  2
   4668   4667   4670   4671     1  180.0000771  0.3347200  3
   4668   4667   4670   4672     1  180.0000771  0.0000000  2
   4669   4667   4670   4671     1  0.0000000  3.3472000  1
   4669   4667   4670   4671     1  0.0000000  0.0000000  2
   4669   4667   4670   4671     1  180.0000771  0.3347200  3
   4669   4667   4670   4672     1  180.0000771  0.0000000  2
   4671   4670   4672   4673     1  0.0000000  7.9496000  1
   4671   4670   4672   4673     1  180.0000771  9.6232000  2
   4676   4679   4682   4683     1  0.0000000  0.6508444  3
   4676   4679   4682   4684     1  0.0000000  0.6508444  3
   4677   4676   4679   4682     1  0.0000000  0.6508444  3
   4677   4676   4679   4680     1  0.0000000  0.6508444  3
   4677   4676   4679   4681     1  0.0000000  0.6508444  3
   4678   4676   4679   4682     1  0.0000000  0.6508444  3
   4678   4676   4679   4680     1  0.0000000  0.6508444  3
   4678   4676   4679   4681     1  0.0000000  0.6508444  3
   4679   4682   4685   4707     1  0.0000000  0.6508444  3
   4680   4679   4676   4706     1  0.0000000  1.0460000  1
   4680   4679   4676   4706     1  0.0000000  0.0000000  3
   4680   4679   4682   4685     1  0.0000000  0.6508444  3
   4680   4679   4682   4683     1  0.0000000  0.6508444  3
   4680   4679   4682   4684     1  0.0000000  0.6508444  3
   4681   4679   4676   4706     1  0.0000000  1.0460000  1
   4681   4679   4676   4706     1  0.0000000  0.0000000  3
   4681   4679   4682   4685     1  0.0000000  0.6508444  3
   4681   4679   4682   4683     1  0.0000000  0.6508444  3
   4681   4679   4682   4684     1  0.0000000  0.6508444  3
   4682   4685   4686   4687     1  0.0000000  0.6508444  3
   4682   4685   4686   4688     1  0.0000000  0.6508444  3
   4682   4685   4696   4697     1  0.0000000  0.6508444  3
   4682   4685   4696   4698     1  0.0000000  0.6508444  3
   4683   4682   4685   4686     1  0.0000000  0.6508444  3
   4683   4682   4685   4696     1  0.0000000  0.6508444  3
   4683   4682   4685   4707     1  0.0000000  0.6508444  3
   4684   4682   4685   4686     1  0.0000000  0.6508444  3
   4684   4682   4685   4696     1  0.0000000  0.6508444  3
   4684   4682   4685   4707     1  0.0000000  0.6508444  3
   4685   4686   4689   4690     1  0.0000000  0.6508444  3
   4685   4686   4689   4691     1  0.0000000  0.6508444  3
   4685   4696   4699   4700     1  0.0000000  0.6508444  3
   4685   4696   4699   4701     1  0.0000000  0.6508444  3
   4686   4685   4696   4697     1  0.0000000  0.6508444  3
   4686   4685   4696   4698     1  0.0000000  0.6508444  3
   4687   4686   4685   4696     1  0.0000000  0.6508444  3
   4687   4686   4685   4707     1  0.0000000  0.6508444  3
   4687   4686   4689   4692     1  0.0000000  0.6508444  3
   4687   4686   4689   4690     1  0.0000000  0.6508444  3
   4687   4686   4689   4691     1  0.0000000  0.6508444  3
   4688   4686   4685   4696     1  0.0000000  0.6508444  3
   4688   4686   4685   4707     1  0.0000000  0.6508444  3
   4688   4686   4689   4692     1  0.0000000  0.6508444  3
   4688   4686   4689   4690     1  0.0000000  0.6508444  3
   4688   4686   4689   4691     1  0.0000000  0.6508444  3
   4689   4686   4685   4707     1  0.0000000  0.6508444  3
   4689   4692   4694   4695     1  180.0000771  9.6232000  2
   4690   4689   4692   4693     1  0.0000000  3.3472000  1
   4690   4689   4692   4693     1  0.0000000  0.0000000  2
   4690   4689   4692   4693     1  180.0000771  0.3347200  3
   4690   4689   4692   4694     1  180.0000771  0.0000000  2
   4691   4689   4692   4693     1  0.0000000  3.3472000  1
   4691   4689   4692   4693     1  0.0000000  0.0000000  2
   4691   4689   4692   4693     1  180.0000771  0.3347200  3
   4691   4689   4692   4694     1  180.0000771  0.0000000  2
   4693   4692   4694   4695     1  0.0000000  7.9496000  1
   4693   4692   4694   4695     1  180.0000771  9.6232000  2
   4697   4696   4685   4707     1  0.0000000  0.6508444  3
   4697   4696   4699   4702     1  0.0000000  0.6508444  3
   4697   4696   4699   4700     1  0.0000000  0.6508444  3
   4697   4696   4699   4701     1  0.0000000  0.6508444  3
   4698   4696   4685   4707     1  0.0000000  0.6508444  3
   4698   4696   4699   4702     1  0.0000000  0.6508444  3
   4698   4696   4699   4700     1  0.0000000  0.6508444  3
   4698   4696   4699   4701     1  0.0000000  0.6508444  3
   4699   4696   4685   4707     1  0.0000000  0.6508444  3
   4699   4702   4704   4705     1  180.0000771  9.6232000  2
   4700   4699   4702   4703     1  0.0000000  3.3472000  1
   4700   4699   4702   4703     1  0.0000000  0.0000000  2
   4700   4699   4702   4703     1  180.0000771  0.3347200  3
   4700   4699   4702   4704     1  180.0000771  0.0000000  2
   4701   4699   4702   4703     1  0.0000000  3.3472000  1
   4701   4699   4702   4703     1  0.0000000  0.0000000  2
   4701   4699   4702   4703     1  180.0000771  0.3347200  3
   4701   4699   4702   4704     1  180.0000771  0.0000000  2
   4703   4702   4704   4705     1  0.0000000  7.9496000  1
   4703   4702   4704   4705     1  180.0000771  9.6232000  2
   4708   4711   4714   4715     1  0.0000000  0.6508444  3
   4708   4711   4714   4716     1  0.0000000  0.6508444  3
   4709   4708   4711   4714     1  0.0000000  0.6508444  3
   4709   4708   4711   4712     1  0.0000000  0.6508444  3
   4709   4708   4711   4713     1  0.0000000  0.6508444  3
   4710   4708   4711   4714     1  0.0000000  0.6508444  3
   4710   4708   4711   4712     1  0.0000000  0.6508444  3
   4710   4708   4711   4713     1  0.0000000  0.6508444  3
   4711   4714   4717   4739     1  0.0000000  0.6508444  3
   4712   4711   4714   4717     1  0.0000000  0.6508444  3
   4712   4711   4714   4715     1  0.0000000  0.6508444  3
   4712   4711   4714   4716     1  0.0000000  0.6508444  3
   4712   4711   4708   4738     1  0.0000000  1.0460000  1
   4712   4711   4708   4738     1  0.0000000  0.0000000  3
   4713   4711   4714   4717     1  0.0000000  0.6508444  3
   4713   4711   4714   4715     1  0.0000000  0.6508444  3
   4713   4711   4714   4716     1  0.0000000  0.6508444  3
   4713   4711   4708   4738     1  0.0000000  1.0460000  1
   4713   4711   4708   4738     1  0.0000000  0.0000000  3
   4714   4717   4718   4719     1  0.0000000  0.6508444  3
   4714   4717   4718   4720     1  0.0000000  0.6508444  3
   4714   4717   4728   4729     1  0.0000000  0.6508444  3
   4714   4717   4728   4730     1  0.0000000  0.6508444  3
   4715   4714   4717   4718     1  0.0000000  0.6508444  3
   4715   4714   4717   4728     1  0.0000000  0.6508444  3
   4715   4714   4717   4739     1  0.0000000  0.6508444  3
   4716   4714   4717   4718     1  0.0000000  0.6508444  3
   4716   4714   4717   4728     1  0.0000000  0.6508444  3
   4716   4714   4717   4739     1  0.0000000  0.6508444  3
   4717   4718   4721   4722     1  0.0000000  0.6508444  3
   4717   4718   4721   4723     1  0.0000000  0.6508444  3
   4717   4728   4731   4732     1  0.0000000  0.6508444  3
   4717   4728   4731   4733     1  0.0000000  0.6508444  3
   4718   4717   4728   4729     1  0.0000000  0.6508444  3
   4718   4717   4728   4730     1  0.0000000  0.6508444  3
   4719   4718   4721   4724     1  0.0000000  0.6508444  3
   4719   4718   4721   4722     1  0.0000000  0.6508444  3
   4719   4718   4721   4723     1  0.0000000  0.6508444  3
   4719   4718   4717   4728     1  0.0000000  0.6508444  3
   4719   4718   4717   4739     1  0.0000000  0.6508444  3
   4720   4718   4721   4724     1  0.0000000  0.6508444  3
   4720   4718   4721   4722     1  0.0000000  0.6508444  3
   4720   4718   4721   4723     1  0.0000000  0.6508444  3
   4720   4718   4717   4728     1  0.0000000  0.6508444  3
   4720   4718   4717   4739     1  0.0000000  0.6508444  3
   4721   4724   4726   4727     1  180.0000771  9.6232000  2
   4721   4718   4717   4739     1  0.0000000  0.6508444  3
   4722   4721   4724   4725     1  0.0000000  3.3472000  1
   4722   4721   4724   4725     1  0.0000000  0.0000000  2
   4722   4721   4724   4725     1  180.0000771  0.3347200  3
   4722   4721   4724   4726     1  180.0000771  0.0000000  2
   4723   4721   4724   4725     1  0.0000000  3.3472000  1
   4723   4721   4724   4725     1  0.0000000  0.0000000  2
   4723   4721   4724   4725     1  180.0000771  0.3347200  3
   4723   4721   4724   4726     1  180.0000771  0.0000000  2
   4725   4724   4726   4727     1  0.0000000  7.9496000  1
   4725   4724   4726   4727     1  180.0000771  9.6232000  2
   4729   4728   4731   4734     1  0.0000000  0.6508444  3
   4729   4728   4731   4732     1  0.0000000  0.6508444  3
   4729   4728   4731   4733     1  0.0000000  0.6508444  3
   4729   4728   4717   4739     1  0.0000000  0.6508444  3
   4730   4728   4731   4734     1  0.0000000  0.6508444  3
   4730   4728   4731   4732     1  0.0000000  0.6508444  3
   4730   4728   4731   4733     1  0.0000000  0.6508444  3
   4730   4728   4717   4739     1  0.0000000  0.6508444  3
   4731   4734   4736   4737     1  180.0000771  9.6232000  2
   4731   4728   4717   4739     1  0.0000000  0.6508444  3
   4732   4731   4734   4735     1  0.0000000  3.3472000  1
   4732   4731   4734   4735     1  0.0000000  0.0000000  2
   4732   4731   4734   4735     1  180.0000771  0.3347200  3
   4732   4731   4734   4736     1  180.0000771  0.0000000  2
   4733   4731   4734   4735     1  0.0000000  3.3472000  1
   4733   4731   4734   4735     1  0.0000000  0.0000000  2
   4733   4731   4734   4735     1  180.0000771  0.3347200  3
   4733   4731   4734   4736     1  180.0000771  0.0000000  2
   4735   4734   4736   4737     1  0.0000000  7.9496000  1
   4735   4734   4736   4737     1  180.0000771  9.6232000  2
   4740   4743   4746   4747     1  0.0000000  0.6508444  3
   4740   4743   4746   4748     1  0.0000000  0.6508444  3
   4741   4740   4743   4746     1  0.0000000  0.6508444  3
   4741   4740   4743   4744     1  0.0000000  0.6508444  3
   4741   4740   4743   4745     1  0.0000000  0.6508444  3
   4742   4740   4743   4746     1  0.0000000  0.6508444  3
   4742   4740   4743   4744     1  0.0000000  0.6508444  3
   4742   4740   4743   4745     1  0.0000000  0.6508444  3
   4743   4746   4749   4771     1  0.0000000  0.6508444  3
   4744   4743   4740   4770     1  0.0000000  1.0460000  1
   4744   4743   4740   4770     1  0.0000000  0.0000000  3
   4744   4743   4746   4749     1  0.0000000  0.6508444  3
   4744   4743   4746   4747     1  0.0000000  0.6508444  3
   4744   4743   4746   4748     1  0.0000000  0.6508444  3
   4745   4743   4740   4770     1  0.0000000  1.0460000  1
   4745   4743   4740   4770     1  0.0000000  0.0000000  3
   4745   4743   4746   4749     1  0.0000000  0.6508444  3
   4745   4743   4746   4747     1  0.0000000  0.6508444  3
   4745   4743   4746   4748     1  0.0000000  0.6508444  3
   4746   4749   4750   4751     1  0.0000000  0.6508444  3
   4746   4749   4750   4752     1  0.0000000  0.6508444  3
   4746   4749   4760   4761     1  0.0000000  0.6508444  3
   4746   4749   4760   4762     1  0.0000000  0.6508444  3
   4747   4746   4749   4750     1  0.0000000  0.6508444  3
   4747   4746   4749   4760     1  0.0000000  0.6508444  3
   4747   4746   4749   4771     1  0.0000000  0.6508444  3
   4748   4746   4749   4750     1  0.0000000  0.6508444  3
   4748   4746   4749   4760     1  0.0000000  0.6508444  3
   4748   4746   4749   4771     1  0.0000000  0.6508444  3
   4749   4750   4753   4754     1  0.0000000  0.6508444  3
   4749   4750   4753   4755     1  0.0000000  0.6508444  3
   4749   4760   4763   4764     1  0.0000000  0.6508444  3
   4749   4760   4763   4765     1  0.0000000  0.6508444  3
   4750   4749   4760   4761     1  0.0000000  0.6508444  3
   4750   4749   4760   4762     1  0.0000000  0.6508444  3
   4751   4750   4749   4760     1  0.0000000  0.6508444  3
   4751   4750   4749   4771     1  0.0000000  0.6508444  3
   4751   4750   4753   4756     1  0.0000000  0.6508444  3
   4751   4750   4753   4754     1  0.0000000  0.6508444  3
   4751   4750   4753   4755     1  0.0000000  0.6508444  3
   4752   4750   4749   4760     1  0.0000000  0.6508444  3
   4752   4750   4749   4771     1  0.0000000  0.6508444  3
   4752   4750   4753   4756     1  0.0000000  0.6508444  3
   4752   4750   4753   4754     1  0.0000000  0.6508444  3
   4752   4750   4753   4755     1  0.0000000  0.6508444  3
   4753   4750   4749   4771     1  0.0000000  0.6508444  3
   4753   4756   4758   4759     1  180.0000771  9.6232000  2
   4754   4753   4756   4757     1  0.0000000  3.3472000  1
   4754   4753   4756   4757     1  0.0000000  0.0000000  2
   4754   4753   4756   4757     1  180.0000771  0.3347200  3
   4754   4753   4756   4758     1  180.0000771  0.0000000  2
   4755   4753   4756   4757     1  0.0000000  3.3472000  1
   4755   4753   4756   4757     1  0.0000000  0.0000000  2
   4755   4753   4756   4757     1  180.0000771  0.3347200  3
   4755   4753   4756   4758     1  180.0000771  0.0000000  2
   4757   4756   4758   4759     1  0.0000000  7.9496000  1
   4757   4756   4758   4759     1  180.0000771  9.6232000  2
   4761   4760   4749   4771     1  0.0000000  0.6508444  3
   4761   4760   4763   4766     1  0.0000000  0.6508444  3
   4761   4760   4763   4764     1  0.0000000  0.6508444  3
   4761   4760   4763   4765     1  0.0000000  0.6508444  3
   4762   4760   4749   4771     1  0.0000000  0.6508444  3
   4762   4760   4763   4766     1  0.0000000  0.6508444  3
   4762   4760   4763   4764     1  0.0000000  0.6508444  3
   4762   4760   4763   4765     1  0.0000000  0.6508444  3
   4763   4760   4749   4771     1  0.0000000  0.6508444  3
   4763   4766   4768   4769     1  180.0000771  9.6232000  2
   4764   4763   4766   4767     1  0.0000000  3.3472000  1
   4764   4763   4766   4767     1  0.0000000  0.0000000  2
   4764   4763   4766   4767     1  180.0000771  0.3347200  3
   4764   4763   4766   4768     1  180.0000771  0.0000000  2
   4765   4763   4766   4767     1  0.0000000  3.3472000  1
   4765   4763   4766   4767     1  0.0000000  0.0000000  2
   4765   4763   4766   4767     1  180.0000771  0.3347200  3
   4765   4763   4766   4768     1  180.0000771  0.0000000  2
   4767   4766   4768   4769     1  0.0000000  7.9496000  1
   4767   4766   4768   4769     1  180.0000771  9.6232000  2
   4772   4775   4778   4779     1  0.0000000  0.6508444  3
   4772   4775   4778   4780     1  0.0000000  0.6508444  3
   4773   4772   4775   4778     1  0.0000000  0.6508444  3
   4773   4772   4775   4776     1  0.0000000  0.6508444  3
   4773   4772   4775   4777     1  0.0000000  0.6508444  3
   4774   4772   4775   4778     1  0.0000000  0.6508444  3
   4774   4772   4775   4776     1  0.0000000  0.6508444  3
   4774   4772   4775   4777     1  0.0000000  0.6508444  3
   4775   4778   4781   4803     1  0.0000000  0.6508444  3
   4776   4775   4778   4781     1  0.0000000  0.6508444  3
   4776   4775   4778   4779     1  0.0000000  0.6508444  3
   4776   4775   4778   4780     1  0.0000000  0.6508444  3
   4776   4775   4772   4802     1  0.0000000  1.0460000  1
   4776   4775   4772   4802     1  0.0000000  0.0000000  3
   4777   4775   4778   4781     1  0.0000000  0.6508444  3
   4777   4775   4778   4779     1  0.0000000  0.6508444  3
   4777   4775   4778   4780     1  0.0000000  0.6508444  3
   4777   4775   4772   4802     1  0.0000000  1.0460000  1
   4777   4775   4772   4802     1  0.0000000  0.0000000  3
   4778   4781   4782   4783     1  0.0000000  0.6508444  3
   4778   4781   4782   4784     1  0.0000000  0.6508444  3
   4778   4781   4792   4793     1  0.0000000  0.6508444  3
   4778   4781   4792   4794     1  0.0000000  0.6508444  3
   4779   4778   4781   4782     1  0.0000000  0.6508444  3
   4779   4778   4781   4792     1  0.0000000  0.6508444  3
   4779   4778   4781   4803     1  0.0000000  0.6508444  3
   4780   4778   4781   4782     1  0.0000000  0.6508444  3
   4780   4778   4781   4792     1  0.0000000  0.6508444  3
   4780   4778   4781   4803     1  0.0000000  0.6508444  3
   4781   4782   4785   4786     1  0.0000000  0.6508444  3
   4781   4782   4785   4787     1  0.0000000  0.6508444  3
   4781   4792   4795   4796     1  0.0000000  0.6508444  3
   4781   4792   4795   4797     1  0.0000000  0.6508444  3
   4782   4781   4792   4793     1  0.0000000  0.6508444  3
   4782   4781   4792   4794     1  0.0000000  0.6508444  3
   4783   4782   4785   4788     1  0.0000000  0.6508444  3
   4783   4782   4785   4786     1  0.0000000  0.6508444  3
   4783   4782   4785   4787     1  0.0000000  0.6508444  3
   4783   4782   4781   4792     1  0.0000000  0.6508444  3
   4783   4782   4781   4803     1  0.0000000  0.6508444  3
   4784   4782   4785   4788     1  0.0000000  0.6508444  3
   4784   4782   4785   4786     1  0.0000000  0.6508444  3
   4784   4782   4785   4787     1  0.0000000  0.6508444  3
   4784   4782   4781   4792     1  0.0000000  0.6508444  3
   4784   4782   4781   4803     1  0.0000000  0.6508444  3
   4785   4788   4790   4791     1  180.0000771  9.6232000  2
   4785   4782   4781   4803     1  0.0000000  0.6508444  3
   4786   4785   4788   4789     1  0.0000000  3.3472000  1
   4786   4785   4788   4789     1  0.0000000  0.0000000  2
   4786   4785   4788   4789     1  180.0000771  0.3347200  3
   4786   4785   4788   4790     1  180.0000771  0.0000000  2
   4787   4785   4788   4789     1  0.0000000  3.3472000  1
   4787   4785   4788   4789     1  0.0000000  0.0000000  2
   4787   4785   4788   4789     1  180.0000771  0.3347200  3
   4787   4785   4788   4790     1  180.0000771  0.0000000  2
   4789   4788   4790   4791     1  0.0000000  7.9496000  1
   4789   4788   4790   4791     1  180.0000771  9.6232000  2
   4793   4792   4795   4798     1  0.0000000  0.6508444  3
   4793   4792   4795   4796     1  0.0000000  0.6508444  3
   4793   4792   4795   4797     1  0.0000000  0.6508444  3
   4793   4792   4781   4803     1  0.0000000  0.6508444  3
   4794   4792   4795   4798     1  0.0000000  0.6508444  3
   4794   4792   4795   4796     1  0.0000000  0.6508444  3
   4794   4792   4795   4797     1  0.0000000  0.6508444  3
   4794   4792   4781   4803     1  0.0000000  0.6508444  3
   4795   4798   4800   4801     1  180.0000771  9.6232000  2
   4795   4792   4781   4803     1  0.0000000  0.6508444  3
   4796   4795   4798   4799     1  0.0000000  3.3472000  1
   4796   4795   4798   4799     1  0.0000000  0.0000000  2
   4796   4795   4798   4799     1  180.0000771  0.3347200  3
   4796   4795   4798   4800     1  180.0000771  0.0000000  2
   4797   4795   4798   4799     1  0.0000000  3.3472000  1
   4797   4795   4798   4799     1  0.0000000  0.0000000  2
   4797   4795   4798   4799     1  180.0000771  0.3347200  3
   4797   4795   4798   4800     1  180.0000771  0.0000000  2
   4799   4798   4800   4801     1  0.0000000  7.9496000  1
   4799   4798   4800   4801     1  180.0000771  9.6232000  2
   4804   4807   4810   4811     1  0.0000000  0.6508444  3
   4804   4807   4810   4812     1  0.0000000  0.6508444  3
   4805   4804   4807   4810     1  0.0000000  0.6508444  3
   4805   4804   4807   4808     1  0.0000000  0.6508444  3
   4805   4804   4807   4809     1  0.0000000  0.6508444  3
   4806   4804   4807   4810     1  0.0000000  0.6508444  3
   4806   4804   4807   4808     1  0.0000000  0.6508444  3
   4806   4804   4807   4809     1  0.0000000  0.6508444  3
   4807   4810   4813   4835     1  0.0000000  0.6508444  3
   4808   4807   4804   4834     1  0.0000000  1.0460000  1
   4808   4807   4804   4834     1  0.0000000  0.0000000  3
   4808   4807   4810   4813     1  0.0000000  0.6508444  3
   4808   4807   4810   4811     1  0.0000000  0.6508444  3
   4808   4807   4810   4812     1  0.0000000  0.6508444  3
   4809   4807   4804   4834     1  0.0000000  1.0460000  1
   4809   4807   4804   4834     1  0.0000000  0.0000000  3
   4809   4807   4810   4813     1  0.0000000  0.6508444  3
   4809   4807   4810   4811     1  0.0000000  0.6508444  3
   4809   4807   4810   4812     1  0.0000000  0.6508444  3
   4810   4813   4814   4815     1  0.0000000  0.6508444  3
   4810   4813   4814   4816     1  0.0000000  0.6508444  3
   4810   4813   4824   4825     1  0.0000000  0.6508444  3
   4810   4813   4824   4826     1  0.0000000  0.6508444  3
   4811   4810   4813   4814     1  0.0000000  0.6508444  3
   4811   4810   4813   4824     1  0.0000000  0.6508444  3
   4811   4810   4813   4835     1  0.0000000  0.6508444  3
   4812   4810   4813   4814     1  0.0000000  0.6508444  3
   4812   4810   4813   4824     1  0.0000000  0.6508444  3
   4812   4810   4813   4835     1  0.0000000  0.6508444  3
   4813   4814   4817   4818     1  0.0000000  0.6508444  3
   4813   4814   4817   4819     1  0.0000000  0.6508444  3
   4813   4824   4827   4828     1  0.0000000  0.6508444  3
   4813   4824   4827   4829     1  0.0000000  0.6508444  3
   4814   4813   4824   4825     1  0.0000000  0.6508444  3
   4814   4813   4824   4826     1  0.0000000  0.6508444  3
   4815   4814   4813   4824     1  0.0000000  0.6508444  3
   4815   4814   4813   4835     1  0.0000000  0.6508444  3
   4815   4814   4817   4820     1  0.0000000  0.6508444  3
   4815   4814   4817   4818     1  0.0000000  0.6508444  3
   4815   4814   4817   4819     1  0.0000000  0.6508444  3
   4816   4814   4813   4824     1  0.0000000  0.6508444  3
   4816   4814   4813   4835     1  0.0000000  0.6508444  3
   4816   4814   4817   4820     1  0.0000000  0.6508444  3
   4816   4814   4817   4818     1  0.0000000  0.6508444  3
   4816   4814   4817   4819     1  0.0000000  0.6508444  3
   4817   4814   4813   4835     1  0.0000000  0.6508444  3
   4817   4820   4822   4823     1  180.0000771  9.6232000  2
   4818   4817   4820   4821     1  0.0000000  3.3472000  1
   4818   4817   4820   4821     1  0.0000000  0.0000000  2
   4818   4817   4820   4821     1  180.0000771  0.3347200  3
   4818   4817   4820   4822     1  180.0000771  0.0000000  2
   4819   4817   4820   4821     1  0.0000000  3.3472000  1
   4819   4817   4820   4821     1  0.0000000  0.0000000  2
   4819   4817   4820   4821     1  180.0000771  0.3347200  3
   4819   4817   4820   4822     1  180.0000771  0.0000000  2
   4821   4820   4822   4823     1  0.0000000  7.9496000  1
   4821   4820   4822   4823     1  180.0000771  9.6232000  2
   4825   4824   4813   4835     1  0.0000000  0.6508444  3
   4825   4824   4827   4830     1  0.0000000  0.6508444  3
   4825   4824   4827   4828     1  0.0000000  0.6508444  3
   4825   4824   4827   4829     1  0.0000000  0.6508444  3
   4826   4824   4813   4835     1  0.0000000  0.6508444  3
   4826   4824   4827   4830     1  0.0000000  0.6508444  3
   4826   4824   4827   4828     1  0.0000000  0.6508444  3
   4826   4824   4827   4829     1  0.0000000  0.6508444  3
   4827   4824   4813   4835     1  0.0000000  0.6508444  3
   4827   4830   4832   4833     1  180.0000771  9.6232000  2
   4828   4827   4830   4831     1  0.0000000  3.3472000  1
   4828   4827   4830   4831     1  0.0000000  0.0000000  2
   4828   4827   4830   4831     1  180.0000771  0.3347200  3
   4828   4827   4830   4832     1  180.0000771  0.0000000  2
   4829   4827   4830   4831     1  0.0000000  3.3472000  1
   4829   4827   4830   4831     1  0.0000000  0.0000000  2
   4829   4827   4830   4831     1  180.0000771  0.3347200  3
   4829   4827   4830   4832     1  180.0000771  0.0000000  2
   4831   4830   4832   4833     1  0.0000000  7.9496000  1
   4831   4830   4832   4833     1  180.0000771  9.6232000  2
   4836   4839   4842   4843     1  0.0000000  0.6508444  3
   4836   4839   4842   4844     1  0.0000000  0.6508444  3
   4837   4836   4839   4842     1  0.0000000  0.6508444  3
   4837   4836   4839   4840     1  0.0000000  0.6508444  3
   4837   4836   4839   4841     1  0.0000000  0.6508444  3
   4838   4836   4839   4842     1  0.0000000  0.6508444  3
   4838   4836   4839   4840     1  0.0000000  0.6508444  3
   4838   4836   4839   4841     1  0.0000000  0.6508444  3
   4839   4842   4845   4867     1  0.0000000  0.6508444  3
   4840   4839   4842   4845     1  0.0000000  0.6508444  3
   4840   4839   4842   4843     1  0.0000000  0.6508444  3
   4840   4839   4842   4844     1  0.0000000  0.6508444  3
   4840   4839   4836   4866     1  0.0000000  1.0460000  1
   4840   4839   4836   4866     1  0.0000000  0.0000000  3
   4841   4839   4842   4845     1  0.0000000  0.6508444  3
   4841   4839   4842   4843     1  0.0000000  0.6508444  3
   4841   4839   4842   4844     1  0.0000000  0.6508444  3
   4841   4839   4836   4866     1  0.0000000  1.0460000  1
   4841   4839   4836   4866     1  0.0000000  0.0000000  3
   4842   4845   4846   4847     1  0.0000000  0.6508444  3
   4842   4845   4846   4848     1  0.0000000  0.6508444  3
   4842   4845   4856   4857     1  0.0000000  0.6508444  3
   4842   4845   4856   4858     1  0.0000000  0.6508444  3
   4843   4842   4845   4846     1  0.0000000  0.6508444  3
   4843   4842   4845   4856     1  0.0000000  0.6508444  3
   4843   4842   4845   4867     1  0.0000000  0.6508444  3
   4844   4842   4845   4846     1  0.0000000  0.6508444  3
   4844   4842   4845   4856     1  0.0000000  0.6508444  3
   4844   4842   4845   4867     1  0.0000000  0.6508444  3
   4845   4846   4849   4850     1  0.0000000  0.6508444  3
   4845   4846   4849   4851     1  0.0000000  0.6508444  3
   4845   4856   4859   4860     1  0.0000000  0.6508444  3
   4845   4856   4859   4861     1  0.0000000  0.6508444  3
   4846   4845   4856   4857     1  0.0000000  0.6508444  3
   4846   4845   4856   4858     1  0.0000000  0.6508444  3
   4847   4846   4849   4852     1  0.0000000  0.6508444  3
   4847   4846   4849   4850     1  0.0000000  0.6508444  3
   4847   4846   4849   4851     1  0.0000000  0.6508444  3
   4847   4846   4845   4856     1  0.0000000  0.6508444  3
   4847   4846   4845   4867     1  0.0000000  0.6508444  3
   4848   4846   4849   4852     1  0.0000000  0.6508444  3
   4848   4846   4849   4850     1  0.0000000  0.6508444  3
   4848   4846   4849   4851     1  0.0000000  0.6508444  3
   4848   4846   4845   4856     1  0.0000000  0.6508444  3
   4848   4846   4845   4867     1  0.0000000  0.6508444  3
   4849   4852   4854   4855     1  180.0000771  9.6232000  2
   4849   4846   4845   4867     1  0.0000000  0.6508444  3
   4850   4849   4852   4853     1  0.0000000  3.3472000  1
   4850   4849   4852   4853     1  0.0000000  0.0000000  2
   4850   4849   4852   4853     1  180.0000771  0.3347200  3
   4850   4849   4852   4854     1  180.0000771  0.0000000  2
   4851   4849   4852   4853     1  0.0000000  3.3472000  1
   4851   4849   4852   4853     1  0.0000000  0.0000000  2
   4851   4849   4852   4853     1  180.0000771  0.3347200  3
   4851   4849   4852   4854     1  180.0000771  0.0000000  2
   4853   4852   4854   4855     1  0.0000000  7.9496000  1
   4853   4852   4854   4855     1  180.0000771  9.6232000  2
   4857   4856   4859   4862     1  0.0000000  0.6508444  3
   4857   4856   4859   4860     1  0.0000000  0.6508444  3
   4857   4856   4859   4861     1  0.0000000  0.6508444  3
   4857   4856   4845   4867     1  0.0000000  0.6508444  3
   4858   4856   4859   4862     1  0.0000000  0.6508444  3
   4858   4856   4859   4860     1  0.0000000  0.6508444  3
   4858   4856   4859   4861     1  0.0000000  0.6508444  3
   4858   4856   4845   4867     1  0.0000000  0.6508444  3
   4859   4862   4864   4865     1  180.0000771  9.6232000  2
   4859   4856   4845   4867     1  0.0000000  0.6508444  3
   4860   4859   4862   4863     1  0.0000000  3.3472000  1
   4860   4859   4862   4863     1  0.0000000  0.0000000  2
   4860   4859   4862   4863     1  180.0000771  0.3347200  3
   4860   4859   4862   4864     1  180.0000771  0.0000000  2
   4861   4859   4862   4863     1  0.0000000  3.3472000  1
   4861   4859   4862   4863     1  0.0000000  0.0000000  2
   4861   4859   4862   4863     1  180.0000771  0.3347200  3
   4861   4859   4862   4864     1  180.0000771  0.0000000  2
   4863   4862   4864   4865     1  0.0000000  7.9496000  1
   4863   4862   4864   4865     1  180.0000771  9.6232000  2
   4868   4871   4874   4875     1  0.0000000  0.6508444  3
   4868   4871   4874   4876     1  0.0000000  0.6508444  3
   4869   4868   4871   4874     1  0.0000000  0.6508444  3
   4869   4868   4871   4872     1  0.0000000  0.6508444  3
   4869   4868   4871   4873     1  0.0000000  0.6508444  3
   4870   4868   4871   4874     1  0.0000000  0.6508444  3
   4870   4868   4871   4872     1  0.0000000  0.6508444  3
   4870   4868   4871   4873     1  0.0000000  0.6508444  3
   4871   4874   4877   4899     1  0.0000000  0.6508444  3
   4872   4871   4868   4898     1  0.0000000  1.0460000  1
   4872   4871   4868   4898     1  0.0000000  0.0000000  3
   4872   4871   4874   4877     1  0.0000000  0.6508444  3
   4872   4871   4874   4875     1  0.0000000  0.6508444  3
   4872   4871   4874   4876     1  0.0000000  0.6508444  3
   4873   4871   4868   4898     1  0.0000000  1.0460000  1
   4873   4871   4868   4898     1  0.0000000  0.0000000  3
   4873   4871   4874   4877     1  0.0000000  0.6508444  3
   4873   4871   4874   4875     1  0.0000000  0.6508444  3
   4873   4871   4874   4876     1  0.0000000  0.6508444  3
   4874   4877   4878   4879     1  0.0000000  0.6508444  3
   4874   4877   4878   4880     1  0.0000000  0.6508444  3
   4874   4877   4888   4889     1  0.0000000  0.6508444  3
   4874   4877   4888   4890     1  0.0000000  0.6508444  3
   4875   4874   4877   4878     1  0.0000000  0.6508444  3
   4875   4874   4877   4888     1  0.0000000  0.6508444  3
   4875   4874   4877   4899     1  0.0000000  0.6508444  3
   4876   4874   4877   4878     1  0.0000000  0.6508444  3
   4876   4874   4877   4888     1  0.0000000  0.6508444  3
   4876   4874   4877   4899     1  0.0000000  0.6508444  3
   4877   4878   4881   4882     1  0.0000000  0.6508444  3
   4877   4878   4881   4883     1  0.0000000  0.6508444  3
   4877   4888   4891   4892     1  0.0000000  0.6508444  3
   4877   4888   4891   4893     1  0.0000000  0.6508444  3
   4878   4877   4888   4889     1  0.0000000  0.6508444  3
   4878   4877   4888   4890     1  0.0000000  0.6508444  3
   4879   4878   4877   4888     1  0.0000000  0.6508444  3
   4879   4878   4877   4899     1  0.0000000  0.6508444  3
   4879   4878   4881   4884     1  0.0000000  0.6508444  3
   4879   4878   4881   4882     1  0.0000000  0.6508444  3
   4879   4878   4881   4883     1  0.0000000  0.6508444  3
   4880   4878   4877   4888     1  0.0000000  0.6508444  3
   4880   4878   4877   4899     1  0.0000000  0.6508444  3
   4880   4878   4881   4884     1  0.0000000  0.6508444  3
   4880   4878   4881   4882     1  0.0000000  0.6508444  3
   4880   4878   4881   4883     1  0.0000000  0.6508444  3
   4881   4878   4877   4899     1  0.0000000  0.6508444  3
   4881   4884   4886   4887     1  180.0000771  9.6232000  2
   4882   4881   4884   4885     1  0.0000000  3.3472000  1
   4882   4881   4884   4885     1  0.0000000  0.0000000  2
   4882   4881   4884   4885     1  180.0000771  0.3347200  3
   4882   4881   4884   4886     1  180.0000771  0.0000000  2
   4883   4881   4884   4885     1  0.0000000  3.3472000  1
   4883   4881   4884   4885     1  0.0000000  0.0000000  2
   4883   4881   4884   4885     1  180.0000771  0.3347200  3
   4883   4881   4884   4886     1  180.0000771  0.0000000  2
   4885   4884   4886   4887     1  0.0000000  7.9496000  1
   4885   4884   4886   4887     1  180.0000771  9.6232000  2
   4889   4888   4877   4899     1  0.0000000  0.6508444  3
   4889   4888   4891   4894     1  0.0000000  0.6508444  3
   4889   4888   4891   4892     1  0.0000000  0.6508444  3
   4889   4888   4891   4893     1  0.0000000  0.6508444  3
   4890   4888   4877   4899     1  0.0000000  0.6508444  3
   4890   4888   4891   4894     1  0.0000000  0.6508444  3
   4890   4888   4891   4892     1  0.0000000  0.6508444  3
   4890   4888   4891   4893     1  0.0000000  0.6508444  3
   4891   4888   4877   4899     1  0.0000000  0.6508444  3
   4891   4894   4896   4897     1  180.0000771  9.6232000  2
   4892   4891   4894   4895     1  0.0000000  3.3472000  1
   4892   4891   4894   4895     1  0.0000000  0.0000000  2
   4892   4891   4894   4895     1  180.0000771  0.3347200  3
   4892   4891   4894   4896     1  180.0000771  0.0000000  2
   4893   4891   4894   4895     1  0.0000000  3.3472000  1
   4893   4891   4894   4895     1  0.0000000  0.0000000  2
   4893   4891   4894   4895     1  180.0000771  0.3347200  3
   4893   4891   4894   4896     1  180.0000771  0.0000000  2
   4895   4894   4896   4897     1  0.0000000  7.9496000  1
   4895   4894   4896   4897     1  180.0000771  9.6232000  2
   4900   4903   4906   4907     1  0.0000000  0.6508444  3
   4900   4903   4906   4908     1  0.0000000  0.6508444  3
   4901   4900   4903   4906     1  0.0000000  0.6508444  3
   4901   4900   4903   4904     1  0.0000000  0.6508444  3
   4901   4900   4903   4905     1  0.0000000  0.6508444  3
   4902   4900   4903   4906     1  0.0000000  0.6508444  3
   4902   4900   4903   4904     1  0.0000000  0.6508444  3
   4902   4900   4903   4905     1  0.0000000  0.6508444  3
   4903   4906   4909   4931     1  0.0000000  0.6508444  3
   4904   4903   4906   4909     1  0.0000000  0.6508444  3
   4904   4903   4906   4907     1  0.0000000  0.6508444  3
   4904   4903   4906   4908     1  0.0000000  0.6508444  3
   4904   4903   4900   4930     1  0.0000000  1.0460000  1
   4904   4903   4900   4930     1  0.0000000  0.0000000  3
   4905   4903   4906   4909     1  0.0000000  0.6508444  3
   4905   4903   4906   4907     1  0.0000000  0.6508444  3
   4905   4903   4906   4908     1  0.0000000  0.6508444  3
   4905   4903   4900   4930     1  0.0000000  1.0460000  1
   4905   4903   4900   4930     1  0.0000000  0.0000000  3
   4906   4909   4910   4911     1  0.0000000  0.6508444  3
   4906   4909   4910   4912     1  0.0000000  0.6508444  3
   4906   4909   4920   4921     1  0.0000000  0.6508444  3
   4906   4909   4920   4922     1  0.0000000  0.6508444  3
   4907   4906   4909   4910     1  0.0000000  0.6508444  3
   4907   4906   4909   4920     1  0.0000000  0.6508444  3
   4907   4906   4909   4931     1  0.0000000  0.6508444  3
   4908   4906   4909   4910     1  0.0000000  0.6508444  3
   4908   4906   4909   4920     1  0.0000000  0.6508444  3
   4908   4906   4909   4931     1  0.0000000  0.6508444  3
   4909   4910   4913   4914     1  0.0000000  0.6508444  3
   4909   4910   4913   4915     1  0.0000000  0.6508444  3
   4909   4920   4923   4924     1  0.0000000  0.6508444  3
   4909   4920   4923   4925     1  0.0000000  0.6508444  3
   4910   4909   4920   4921     1  0.0000000  0.6508444  3
   4910   4909   4920   4922     1  0.0000000  0.6508444  3
   4911   4910   4913   4916     1  0.0000000  0.6508444  3
   4911   4910   4913   4914     1  0.0000000  0.6508444  3
   4911   4910   4913   4915     1  0.0000000  0.6508444  3
   4911   4910   4909   4920     1  0.0000000  0.6508444  3
   4911   4910   4909   4931     1  0.0000000  0.6508444  3
   4912   4910   4913   4916     1  0.0000000  0.6508444  3
   4912   4910   4913   4914     1  0.0000000  0.6508444  3
   4912   4910   4913   4915     1  0.0000000  0.6508444  3
   4912   4910   4909   4920     1  0.0000000  0.6508444  3
   4912   4910   4909   4931     1  0.0000000  0.6508444  3
   4913   4916   4918   4919     1  180.0000771  9.6232000  2
   4913   4910   4909   4931     1  0.0000000  0.6508444  3
   4914   4913   4916   4917     1  0.0000000  3.3472000  1
   4914   4913   4916   4917     1  0.0000000  0.0000000  2
   4914   4913   4916   4917     1  180.0000771  0.3347200  3
   4914   4913   4916   4918     1  180.0000771  0.0000000  2
   4915   4913   4916   4917     1  0.0000000  3.3472000  1
   4915   4913   4916   4917     1  0.0000000  0.0000000  2
   4915   4913   4916   4917     1  180.0000771  0.3347200  3
   4915   4913   4916   4918     1  180.0000771  0.0000000  2
   4917   4916   4918   4919     1  0.0000000  7.9496000  1
   4917   4916   4918   4919     1  180.0000771  9.6232000  2
   4921   4920   4923   4926     1  0.0000000  0.6508444  3
   4921   4920   4923   4924     1  0.0000000  0.6508444  3
   4921   4920   4923   4925     1  0.0000000  0.6508444  3
   4921   4920   4909   4931     1  0.0000000  0.6508444  3
   4922   4920   4923   4926     1  0.0000000  0.6508444  3
   4922   4920   4923   4924     1  0.0000000  0.6508444  3
   4922   4920   4923   4925     1  0.0000000  0.6508444  3
   4922   4920   4909   4931     1  0.0000000  0.6508444  3
   4923   4926   4928   4929     1  180.0000771  9.6232000  2
   4923   4920   4909   4931     1  0.0000000  0.6508444  3
   4924   4923   4926   4927     1  0.0000000  3.3472000  1
   4924   4923   4926   4927     1  0.0000000  0.0000000  2
   4924   4923   4926   4927     1  180.0000771  0.3347200  3
   4924   4923   4926   4928     1  180.0000771  0.0000000  2
   4925   4923   4926   4927     1  0.0000000  3.3472000  1
   4925   4923   4926   4927     1  0.0000000  0.0000000  2
   4925   4923   4926   4927     1  180.0000771  0.3347200  3
   4925   4923   4926   4928     1  180.0000771  0.0000000  2
   4927   4926   4928   4929     1  0.0000000  7.9496000  1
   4927   4926   4928   4929     1  180.0000771  9.6232000  2
   4932   4935   4938   4939     1  0.0000000  0.6508444  3
   4932   4935   4938   4940     1  0.0000000  0.6508444  3
   4933   4932   4935   4938     1  0.0000000  0.6508444  3
   4933   4932   4935   4936     1  0.0000000  0.6508444  3
   4933   4932   4935   4937     1  0.0000000  0.6508444  3
   4934   4932   4935   4938     1  0.0000000  0.6508444  3
   4934   4932   4935   4936     1  0.0000000  0.6508444  3
   4934   4932   4935   4937     1  0.0000000  0.6508444  3
   4935   4938   4941   4963     1  0.0000000  0.6508444  3
   4936   4935   4932   4962     1  0.0000000  1.0460000  1
   4936   4935   4932   4962     1  0.0000000  0.0000000  3
   4936   4935   4938   4941     1  0.0000000  0.6508444  3
   4936   4935   4938   4939     1  0.0000000  0.6508444  3
   4936   4935   4938   4940     1  0.0000000  0.6508444  3
   4937   4935   4932   4962     1  0.0000000  1.0460000  1
   4937   4935   4932   4962     1  0.0000000  0.0000000  3
   4937   4935   4938   4941     1  0.0000000  0.6508444  3
   4937   4935   4938   4939     1  0.0000000  0.6508444  3
   4937   4935   4938   4940     1  0.0000000  0.6508444  3
   4938   4941   4942   4943     1  0.0000000  0.6508444  3
   4938   4941   4942   4944     1  0.0000000  0.6508444  3
   4938   4941   4952   4953     1  0.0000000  0.6508444  3
   4938   4941   4952   4954     1  0.0000000  0.6508444  3
   4939   4938   4941   4942     1  0.0000000  0.6508444  3
   4939   4938   4941   4952     1  0.0000000  0.6508444  3
   4939   4938   4941   4963     1  0.0000000  0.6508444  3
   4940   4938   4941   4942     1  0.0000000  0.6508444  3
   4940   4938   4941   4952     1  0.0000000  0.6508444  3
   4940   4938   4941   4963     1  0.0000000  0.6508444  3
   4941   4942   4945   4946     1  0.0000000  0.6508444  3
   4941   4942   4945   4947     1  0.0000000  0.6508444  3
   4941   4952   4955   4956     1  0.0000000  0.6508444  3
   4941   4952   4955   4957     1  0.0000000  0.6508444  3
   4942   4941   4952   4953     1  0.0000000  0.6508444  3
   4942   4941   4952   4954     1  0.0000000  0.6508444  3
   4943   4942   4941   4952     1  0.0000000  0.6508444  3
   4943   4942   4941   4963     1  0.0000000  0.6508444  3
   4943   4942   4945   4948     1  0.0000000  0.6508444  3
   4943   4942   4945   4946     1  0.0000000  0.6508444  3
   4943   4942   4945   4947     1  0.0000000  0.6508444  3
   4944   4942   4941   4952     1  0.0000000  0.6508444  3
   4944   4942   4941   4963     1  0.0000000  0.6508444  3
   4944   4942   4945   4948     1  0.0000000  0.6508444  3
   4944   4942   4945   4946     1  0.0000000  0.6508444  3
   4944   4942   4945   4947     1  0.0000000  0.6508444  3
   4945   4942   4941   4963     1  0.0000000  0.6508444  3
   4945   4948   4950   4951     1  180.0000771  9.6232000  2
   4946   4945   4948   4949     1  0.0000000  3.3472000  1
   4946   4945   4948   4949     1  0.0000000  0.0000000  2
   4946   4945   4948   4949     1  180.0000771  0.3347200  3
   4946   4945   4948   4950     1  180.0000771  0.0000000  2
   4947   4945   4948   4949     1  0.0000000  3.3472000  1
   4947   4945   4948   4949     1  0.0000000  0.0000000  2
   4947   4945   4948   4949     1  180.0000771  0.3347200  3
   4947   4945   4948   4950     1  180.0000771  0.0000000  2
   4949   4948   4950   4951     1  0.0000000  7.9496000  1
   4949   4948   4950   4951     1  180.0000771  9.6232000  2
   4953   4952   4941   4963     1  0.0000000  0.6508444  3
   4953   4952   4955   4958     1  0.0000000  0.6508444  3
   4953   4952   4955   4956     1  0.0000000  0.6508444  3
   4953   4952   4955   4957     1  0.0000000  0.6508444  3
   4954   4952   4941   4963     1  0.0000000  0.6508444  3
   4954   4952   4955   4958     1  0.0000000  0.6508444  3
   4954   4952   4955   4956     1  0.0000000  0.6508444  3
   4954   4952   4955   4957     1  0.0000000  0.6508444  3
   4955   4952   4941   4963     1  0.0000000  0.6508444  3
   4955   4958   4960   4961     1  180.0000771  9.6232000  2
   4956   4955   4958   4959     1  0.0000000  3.3472000  1
   4956   4955   4958   4959     1  0.0000000  0.0000000  2
   4956   4955   4958   4959     1  180.0000771  0.3347200  3
   4956   4955   4958   4960     1  180.0000771  0.0000000  2
   4957   4955   4958   4959     1  0.0000000  3.3472000  1
   4957   4955   4958   4959     1  0.0000000  0.0000000  2
   4957   4955   4958   4959     1  180.0000771  0.3347200  3
   4957   4955   4958   4960     1  180.0000771  0.0000000  2
   4959   4958   4960   4961     1  0.0000000  7.9496000  1
   4959   4958   4960   4961     1  180.0000771  9.6232000  2
   4964   4967   4970   4971     1  0.0000000  0.6508444  3
   4964   4967   4970   4972     1  0.0000000  0.6508444  3
   4965   4964   4967   4970     1  0.0000000  0.6508444  3
   4965   4964   4967   4968     1  0.0000000  0.6508444  3
   4965   4964   4967   4969     1  0.0000000  0.6508444  3
   4966   4964   4967   4970     1  0.0000000  0.6508444  3
   4966   4964   4967   4968     1  0.0000000  0.6508444  3
   4966   4964   4967   4969     1  0.0000000  0.6508444  3
   4967   4970   4973   4995     1  0.0000000  0.6508444  3
   4968   4967   4970   4973     1  0.0000000  0.6508444  3
   4968   4967   4970   4971     1  0.0000000  0.6508444  3
   4968   4967   4970   4972     1  0.0000000  0.6508444  3
   4968   4967   4964   4994     1  0.0000000  1.0460000  1
   4968   4967   4964   4994     1  0.0000000  0.0000000  3
   4969   4967   4970   4973     1  0.0000000  0.6508444  3
   4969   4967   4970   4971     1  0.0000000  0.6508444  3
   4969   4967   4970   4972     1  0.0000000  0.6508444  3
   4969   4967   4964   4994     1  0.0000000  1.0460000  1
   4969   4967   4964   4994     1  0.0000000  0.0000000  3
   4970   4973   4974   4975     1  0.0000000  0.6508444  3
   4970   4973   4974   4976     1  0.0000000  0.6508444  3
   4970   4973   4984   4985     1  0.0000000  0.6508444  3
   4970   4973   4984   4986     1  0.0000000  0.6508444  3
   4971   4970   4973   4974     1  0.0000000  0.6508444  3
   4971   4970   4973   4984     1  0.0000000  0.6508444  3
   4971   4970   4973   4995     1  0.0000000  0.6508444  3
   4972   4970   4973   4974     1  0.0000000  0.6508444  3
   4972   4970   4973   4984     1  0.0000000  0.6508444  3
   4972   4970   4973   4995     1  0.0000000  0.6508444  3
   4973   4974   4977   4978     1  0.0000000  0.6508444  3
   4973   4974   4977   4979     1  0.0000000  0.6508444  3
   4973   4984   4987   4988     1  0.0000000  0.6508444  3
   4973   4984   4987   4989     1  0.0000000  0.6508444  3
   4974   4973   4984   4985     1  0.0000000  0.6508444  3
   4974   4973   4984   4986     1  0.0000000  0.6508444  3
   4975   4974   4977   4980     1  0.0000000  0.6508444  3
   4975   4974   4977   4978     1  0.0000000  0.6508444  3
   4975   4974   4977   4979     1  0.0000000  0.6508444  3
   4975   4974   4973   4984     1  0.0000000  0.6508444  3
   4975   4974   4973   4995     1  0.0000000  0.6508444  3
   4976   4974   4977   4980     1  0.0000000  0.6508444  3
   4976   4974   4977   4978     1  0.0000000  0.6508444  3
   4976   4974   4977   4979     1  0.0000000  0.6508444  3
   4976   4974   4973   4984     1  0.0000000  0.6508444  3
   4976   4974   4973   4995     1  0.0000000  0.6508444  3
   4977   4980   4982   4983     1  180.0000771  9.6232000  2
   4977   4974   4973   4995     1  0.0000000  0.6508444  3
   4978   4977   4980   4981     1  0.0000000  3.3472000  1
   4978   4977   4980   4981     1  0.0000000  0.0000000  2
   4978   4977   4980   4981     1  180.0000771  0.3347200  3
   4978   4977   4980   4982     1  180.0000771  0.0000000  2
   4979   4977   4980   4981     1  0.0000000  3.3472000  1
   4979   4977   4980   4981     1  0.0000000  0.0000000  2
   4979   4977   4980   4981     1  180.0000771  0.3347200  3
   4979   4977   4980   4982     1  180.0000771  0.0000000  2
   4981   4980   4982   4983     1  0.0000000  7.9496000  1
   4981   4980   4982   4983     1  180.0000771  9.6232000  2
   4985   4984   4987   4990     1  0.0000000  0.6508444  3
   4985   4984   4987   4988     1  0.0000000  0.6508444  3
   4985   4984   4987   4989     1  0.0000000  0.6508444  3
   4985   4984   4973   4995     1  0.0000000  0.6508444  3
   4986   4984   4987   4990     1  0.0000000  0.6508444  3
   4986   4984   4987   4988     1  0.0000000  0.6508444  3
   4986   4984   4987   4989     1  0.0000000  0.6508444  3
   4986   4984   4973   4995     1  0.0000000  0.6508444  3
   4987   4990   4992   4993     1  180.0000771  9.6232000  2
   4987   4984   4973   4995     1  0.0000000  0.6508444  3
   4988   4987   4990   4991     1  0.0000000  3.3472000  1
   4988   4987   4990   4991     1  0.0000000  0.0000000  2
   4988   4987   4990   4991     1  180.0000771  0.3347200  3
   4988   4987   4990   4992     1  180.0000771  0.0000000  2
   4989   4987   4990   4991     1  0.0000000  3.3472000  1
   4989   4987   4990   4991     1  0.0000000  0.0000000  2
   4989   4987   4990   4991     1  180.0000771  0.3347200  3
   4989   4987   4990   4992     1  180.0000771  0.0000000  2
   4991   4990   4992   4993     1  0.0000000  7.9496000  1
   4991   4990   4992   4993     1  180.0000771  9.6232000  2
   4996   4999   5002   5003     1  0.0000000  0.6508444  3
   4996   4999   5002   5004     1  0.0000000  0.6508444  3
   4997   4996   4999   5002     1  0.0000000  0.6508444  3
   4997   4996   4999   5000     1  0.0000000  0.6508444  3
   4997   4996   4999   5001     1  0.0000000  0.6508444  3
   4998   4996   4999   5002     1  0.0000000  0.6508444  3
   4998   4996   4999   5000     1  0.0000000  0.6508444  3
   4998   4996   4999   5001     1  0.0000000  0.6508444  3
   4999   5002   5005   5027     1  0.0000000  0.6508444  3
   5000   4999   4996   5026     1  0.0000000  1.0460000  1
   5000   4999   4996   5026     1  0.0000000  0.0000000  3
   5000   4999   5002   5005     1  0.0000000  0.6508444  3
   5000   4999   5002   5003     1  0.0000000  0.6508444  3
   5000   4999   5002   5004     1  0.0000000  0.6508444  3
   5001   4999   4996   5026     1  0.0000000  1.0460000  1
   5001   4999   4996   5026     1  0.0000000  0.0000000  3
   5001   4999   5002   5005     1  0.0000000  0.6508444  3
   5001   4999   5002   5003     1  0.0000000  0.6508444  3
   5001   4999   5002   5004     1  0.0000000  0.6508444  3
   5002   5005   5006   5007     1  0.0000000  0.6508444  3
   5002   5005   5006   5008     1  0.0000000  0.6508444  3
   5002   5005   5016   5017     1  0.0000000  0.6508444  3
   5002   5005   5016   5018     1  0.0000000  0.6508444  3
   5003   5002   5005   5006     1  0.0000000  0.6508444  3
   5003   5002   5005   5016     1  0.0000000  0.6508444  3
   5003   5002   5005   5027     1  0.0000000  0.6508444  3
   5004   5002   5005   5006     1  0.0000000  0.6508444  3
   5004   5002   5005   5016     1  0.0000000  0.6508444  3
   5004   5002   5005   5027     1  0.0000000  0.6508444  3
   5005   5006   5009   5010     1  0.0000000  0.6508444  3
   5005   5006   5009   5011     1  0.0000000  0.6508444  3
   5005   5016   5019   5020     1  0.0000000  0.6508444  3
   5005   5016   5019   5021     1  0.0000000  0.6508444  3
   5006   5005   5016   5017     1  0.0000000  0.6508444  3
   5006   5005   5016   5018     1  0.0000000  0.6508444  3
   5007   5006   5005   5016     1  0.0000000  0.6508444  3
   5007   5006   5005   5027     1  0.0000000  0.6508444  3
   5007   5006   5009   5012     1  0.0000000  0.6508444  3
   5007   5006   5009   5010     1  0.0000000  0.6508444  3
   5007   5006   5009   5011     1  0.0000000  0.6508444  3
   5008   5006   5005   5016     1  0.0000000  0.6508444  3
   5008   5006   5005   5027     1  0.0000000  0.6508444  3
   5008   5006   5009   5012     1  0.0000000  0.6508444  3
   5008   5006   5009   5010     1  0.0000000  0.6508444  3
   5008   5006   5009   5011     1  0.0000000  0.6508444  3
   5009   5006   5005   5027     1  0.0000000  0.6508444  3
   5009   5012   5014   5015     1  180.0000771  9.6232000  2
   5010   5009   5012   5013     1  0.0000000  3.3472000  1
   5010   5009   5012   5013     1  0.0000000  0.0000000  2
   5010   5009   5012   5013     1  180.0000771  0.3347200  3
   5010   5009   5012   5014     1  180.0000771  0.0000000  2
   5011   5009   5012   5013     1  0.0000000  3.3472000  1
   5011   5009   5012   5013     1  0.0000000  0.0000000  2
   5011   5009   5012   5013     1  180.0000771  0.3347200  3
   5011   5009   5012   5014     1  180.0000771  0.0000000  2
   5013   5012   5014   5015     1  0.0000000  7.9496000  1
   5013   5012   5014   5015     1  180.0000771  9.6232000  2
   5017   5016   5005   5027     1  0.0000000  0.6508444  3
   5017   5016   5019   5022     1  0.0000000  0.6508444  3
   5017   5016   5019   5020     1  0.0000000  0.6508444  3
   5017   5016   5019   5021     1  0.0000000  0.6508444  3
   5018   5016   5005   5027     1  0.0000000  0.6508444  3
   5018   5016   5019   5022     1  0.0000000  0.6508444  3
   5018   5016   5019   5020     1  0.0000000  0.6508444  3
   5018   5016   5019   5021     1  0.0000000  0.6508444  3
   5019   5016   5005   5027     1  0.0000000  0.6508444  3
   5019   5022   5024   5025     1  180.0000771  9.6232000  2
   5020   5019   5022   5023     1  0.0000000  3.3472000  1
   5020   5019   5022   5023     1  0.0000000  0.0000000  2
   5020   5019   5022   5023     1  180.0000771  0.3347200  3
   5020   5019   5022   5024     1  180.0000771  0.0000000  2
   5021   5019   5022   5023     1  0.0000000  3.3472000  1
   5021   5019   5022   5023     1  0.0000000  0.0000000  2
   5021   5019   5022   5023     1  180.0000771  0.3347200  3
   5021   5019   5022   5024     1  180.0000771  0.0000000  2
   5023   5022   5024   5025     1  0.0000000  7.9496000  1
   5023   5022   5024   5025     1  180.0000771  9.6232000  2
   5028   5031   5034   5035     1  0.0000000  0.6508444  3
   5028   5031   5034   5036     1  0.0000000  0.6508444  3
   5029   5028   5031   5034     1  0.0000000  0.6508444  3
   5029   5028   5031   5032     1  0.0000000  0.6508444  3
   5029   5028   5031   5033     1  0.0000000  0.6508444  3
   5030   5028   5031   5034     1  0.0000000  0.6508444  3
   5030   5028   5031   5032     1  0.0000000  0.6508444  3
   5030   5028   5031   5033     1  0.0000000  0.6508444  3
   5031   5034   5037   5059     1  0.0000000  0.6508444  3
   5032   5031   5034   5037     1  0.0000000  0.6508444  3
   5032   5031   5034   5035     1  0.0000000  0.6508444  3
   5032   5031   5034   5036     1  0.0000000  0.6508444  3
   5032   5031   5028   5058     1  0.0000000  1.0460000  1
   5032   5031   5028   5058     1  0.0000000  0.0000000  3
   5033   5031   5034   5037     1  0.0000000  0.6508444  3
   5033   5031   5034   5035     1  0.0000000  0.6508444  3
   5033   5031   5034   5036     1  0.0000000  0.6508444  3
   5033   5031   5028   5058     1  0.0000000  1.0460000  1
   5033   5031   5028   5058     1  0.0000000  0.0000000  3
   5034   5037   5038   5039     1  0.0000000  0.6508444  3
   5034   5037   5038   5040     1  0.0000000  0.6508444  3
   5034   5037   5048   5049     1  0.0000000  0.6508444  3
   5034   5037   5048   5050     1  0.0000000  0.6508444  3
   5035   5034   5037   5038     1  0.0000000  0.6508444  3
   5035   5034   5037   5048     1  0.0000000  0.6508444  3
   5035   5034   5037   5059     1  0.0000000  0.6508444  3
   5036   5034   5037   5038     1  0.0000000  0.6508444  3
   5036   5034   5037   5048     1  0.0000000  0.6508444  3
   5036   5034   5037   5059     1  0.0000000  0.6508444  3
   5037   5038   5041   5042     1  0.0000000  0.6508444  3
   5037   5038   5041   5043     1  0.0000000  0.6508444  3
   5037   5048   5051   5052     1  0.0000000  0.6508444  3
   5037   5048   5051   5053     1  0.0000000  0.6508444  3
   5038   5037   5048   5049     1  0.0000000  0.6508444  3
   5038   5037   5048   5050     1  0.0000000  0.6508444  3
   5039   5038   5041   5044     1  0.0000000  0.6508444  3
   5039   5038   5041   5042     1  0.0000000  0.6508444  3
   5039   5038   5041   5043     1  0.0000000  0.6508444  3
   5039   5038   5037   5048     1  0.0000000  0.6508444  3
   5039   5038   5037   5059     1  0.0000000  0.6508444  3
   5040   5038   5041   5044     1  0.0000000  0.6508444  3
   5040   5038   5041   5042     1  0.0000000  0.6508444  3
   5040   5038   5041   5043     1  0.0000000  0.6508444  3
   5040   5038   5037   5048     1  0.0000000  0.6508444  3
   5040   5038   5037   5059     1  0.0000000  0.6508444  3
   5041   5044   5046   5047     1  180.0000771  9.6232000  2
   5041   5038   5037   5059     1  0.0000000  0.6508444  3
   5042   5041   5044   5045     1  0.0000000  3.3472000  1
   5042   5041   5044   5045     1  0.0000000  0.0000000  2
   5042   5041   5044   5045     1  180.0000771  0.3347200  3
   5042   5041   5044   5046     1  180.0000771  0.0000000  2
   5043   5041   5044   5045     1  0.0000000  3.3472000  1
   5043   5041   5044   5045     1  0.0000000  0.0000000  2
   5043   5041   5044   5045     1  180.0000771  0.3347200  3
   5043   5041   5044   5046     1  180.0000771  0.0000000  2
   5045   5044   5046   5047     1  0.0000000  7.9496000  1
   5045   5044   5046   5047     1  180.0000771  9.6232000  2
   5049   5048   5051   5054     1  0.0000000  0.6508444  3
   5049   5048   5051   5052     1  0.0000000  0.6508444  3
   5049   5048   5051   5053     1  0.0000000  0.6508444  3
   5049   5048   5037   5059     1  0.0000000  0.6508444  3
   5050   5048   5051   5054     1  0.0000000  0.6508444  3
   5050   5048   5051   5052     1  0.0000000  0.6508444  3
   5050   5048   5051   5053     1  0.0000000  0.6508444  3
   5050   5048   5037   5059     1  0.0000000  0.6508444  3
   5051   5054   5056   5057     1  180.0000771  9.6232000  2
   5051   5048   5037   5059     1  0.0000000  0.6508444  3
   5052   5051   5054   5055     1  0.0000000  3.3472000  1
   5052   5051   5054   5055     1  0.0000000  0.0000000  2
   5052   5051   5054   5055     1  180.0000771  0.3347200  3
   5052   5051   5054   5056     1  180.0000771  0.0000000  2
   5053   5051   5054   5055     1  0.0000000  3.3472000  1
   5053   5051   5054   5055     1  0.0000000  0.0000000  2
   5053   5051   5054   5055     1  180.0000771  0.3347200  3
   5053   5051   5054   5056     1  180.0000771  0.0000000  2
   5055   5054   5056   5057     1  0.0000000  7.9496000  1
   5055   5054   5056   5057     1  180.0000771  9.6232000  2
   5060   5063   5066   5067     1  0.0000000  0.6508444  3
   5060   5063   5066   5068     1  0.0000000  0.6508444  3
   5061   5060   5063   5066     1  0.0000000  0.6508444  3
   5061   5060   5063   5064     1  0.0000000  0.6508444  3
   5061   5060   5063   5065     1  0.0000000  0.6508444  3
   5062   5060   5063   5066     1  0.0000000  0.6508444  3
   5062   5060   5063   5064     1  0.0000000  0.6508444  3
   5062   5060   5063   5065     1  0.0000000  0.6508444  3
   5063   5066   5069   5091     1  0.0000000  0.6508444  3
   5064   5063   5060   5090     1  0.0000000  1.0460000  1
   5064   5063   5060   5090     1  0.0000000  0.0000000  3
   5064   5063   5066   5069     1  0.0000000  0.6508444  3
   5064   5063   5066   5067     1  0.0000000  0.6508444  3
   5064   5063   5066   5068     1  0.0000000  0.6508444  3
   5065   5063   5060   5090     1  0.0000000  1.0460000  1
   5065   5063   5060   5090     1  0.0000000  0.0000000  3
   5065   5063   5066   5069     1  0.0000000  0.6508444  3
   5065   5063   5066   5067     1  0.0000000  0.6508444  3
   5065   5063   5066   5068     1  0.0000000  0.6508444  3
   5066   5069   5070   5071     1  0.0000000  0.6508444  3
   5066   5069   5070   5072     1  0.0000000  0.6508444  3
   5066   5069   5080   5081     1  0.0000000  0.6508444  3
   5066   5069   5080   5082     1  0.0000000  0.6508444  3
   5067   5066   5069   5070     1  0.0000000  0.6508444  3
   5067   5066   5069   5080     1  0.0000000  0.6508444  3
   5067   5066   5069   5091     1  0.0000000  0.6508444  3
   5068   5066   5069   5070     1  0.0000000  0.6508444  3
   5068   5066   5069   5080     1  0.0000000  0.6508444  3
   5068   5066   5069   5091     1  0.0000000  0.6508444  3
   5069   5070   5073   5074     1  0.0000000  0.6508444  3
   5069   5070   5073   5075     1  0.0000000  0.6508444  3
   5069   5080   5083   5084     1  0.0000000  0.6508444  3
   5069   5080   5083   5085     1  0.0000000  0.6508444  3
   5070   5069   5080   5081     1  0.0000000  0.6508444  3
   5070   5069   5080   5082     1  0.0000000  0.6508444  3
   5071   5070   5069   5080     1  0.0000000  0.6508444  3
   5071   5070   5069   5091     1  0.0000000  0.6508444  3
   5071   5070   5073   5076     1  0.0000000  0.6508444  3
   5071   5070   5073   5074     1  0.0000000  0.6508444  3
   5071   5070   5073   5075     1  0.0000000  0.6508444  3
   5072   5070   5069   5080     1  0.0000000  0.6508444  3
   5072   5070   5069   5091     1  0.0000000  0.6508444  3
   5072   5070   5073   5076     1  0.0000000  0.6508444  3
   5072   5070   5073   5074     1  0.0000000  0.6508444  3
   5072   5070   5073   5075     1  0.0000000  0.6508444  3
   5073   5070   5069   5091     1  0.0000000  0.6508444  3
   5073   5076   5078   5079     1  180.0000771  9.6232000  2
   5074   5073   5076   5077     1  0.0000000  3.3472000  1
   5074   5073   5076   5077     1  0.0000000  0.0000000  2
   5074   5073   5076   5077     1  180.0000771  0.3347200  3
   5074   5073   5076   5078     1  180.0000771  0.0000000  2
   5075   5073   5076   5077     1  0.0000000  3.3472000  1
   5075   5073   5076   5077     1  0.0000000  0.0000000  2
   5075   5073   5076   5077     1  180.0000771  0.3347200  3
   5075   5073   5076   5078     1  180.0000771  0.0000000  2
   5077   5076   5078   5079     1  0.0000000  7.9496000  1
   5077   5076   5078   5079     1  180.0000771  9.6232000  2
   5081   5080   5069   5091     1  0.0000000  0.6508444  3
   5081   5080   5083   5086     1  0.0000000  0.6508444  3
   5081   5080   5083   5084     1  0.0000000  0.6508444  3
   5081   5080   5083   5085     1  0.0000000  0.6508444  3
   5082   5080   5069   5091     1  0.0000000  0.6508444  3
   5082   5080   5083   5086     1  0.0000000  0.6508444  3
   5082   5080   5083   5084     1  0.0000000  0.6508444  3
   5082   5080   5083   5085     1  0.0000000  0.6508444  3
   5083   5080   5069   5091     1  0.0000000  0.6508444  3
   5083   5086   5088   5089     1  180.0000771  9.6232000  2
   5084   5083   5086   5087     1  0.0000000  3.3472000  1
   5084   5083   5086   5087     1  0.0000000  0.0000000  2
   5084   5083   5086   5087     1  180.0000771  0.3347200  3
   5084   5083   5086   5088     1  180.0000771  0.0000000  2
   5085   5083   5086   5087     1  0.0000000  3.3472000  1
   5085   5083   5086   5087     1  0.0000000  0.0000000  2
   5085   5083   5086   5087     1  180.0000771  0.3347200  3
   5085   5083   5086   5088     1  180.0000771  0.0000000  2
   5087   5086   5088   5089     1  0.0000000  7.9496000  1
   5087   5086   5088   5089     1  180.0000771  9.6232000  2
   5092   5095   5098   5099     1  0.0000000  0.6508444  3
   5092   5095   5098   5100     1  0.0000000  0.6508444  3
   5093   5092   5095   5098     1  0.0000000  0.6508444  3
   5093   5092   5095   5096     1  0.0000000  0.6508444  3
   5093   5092   5095   5097     1  0.0000000  0.6508444  3
   5094   5092   5095   5098     1  0.0000000  0.6508444  3
   5094   5092   5095   5096     1  0.0000000  0.6508444  3
   5094   5092   5095   5097     1  0.0000000  0.6508444  3
   5095   5098   5101   5123     1  0.0000000  0.6508444  3
   5096   5095   5098   5101     1  0.0000000  0.6508444  3
   5096   5095   5098   5099     1  0.0000000  0.6508444  3
   5096   5095   5098   5100     1  0.0000000  0.6508444  3
   5096   5095   5092   5122     1  0.0000000  1.0460000  1
   5096   5095   5092   5122     1  0.0000000  0.0000000  3
   5097   5095   5098   5101     1  0.0000000  0.6508444  3
   5097   5095   5098   5099     1  0.0000000  0.6508444  3
   5097   5095   5098   5100     1  0.0000000  0.6508444  3
   5097   5095   5092   5122     1  0.0000000  1.0460000  1
   5097   5095   5092   5122     1  0.0000000  0.0000000  3
   5098   5101   5102   5103     1  0.0000000  0.6508444  3
   5098   5101   5102   5104     1  0.0000000  0.6508444  3
   5098   5101   5112   5113     1  0.0000000  0.6508444  3
   5098   5101   5112   5114     1  0.0000000  0.6508444  3
   5099   5098   5101   5102     1  0.0000000  0.6508444  3
   5099   5098   5101   5112     1  0.0000000  0.6508444  3
   5099   5098   5101   5123     1  0.0000000  0.6508444  3
   5100   5098   5101   5102     1  0.0000000  0.6508444  3
   5100   5098   5101   5112     1  0.0000000  0.6508444  3
   5100   5098   5101   5123     1  0.0000000  0.6508444  3
   5101   5102   5105   5106     1  0.0000000  0.6508444  3
   5101   5102   5105   5107     1  0.0000000  0.6508444  3
   5101   5112   5115   5116     1  0.0000000  0.6508444  3
   5101   5112   5115   5117     1  0.0000000  0.6508444  3
   5102   5101   5112   5113     1  0.0000000  0.6508444  3
   5102   5101   5112   5114     1  0.0000000  0.6508444  3
   5103   5102   5105   5108     1  0.0000000  0.6508444  3
   5103   5102   5105   5106     1  0.0000000  0.6508444  3
   5103   5102   5105   5107     1  0.0000000  0.6508444  3
   5103   5102   5101   5112     1  0.0000000  0.6508444  3
   5103   5102   5101   5123     1  0.0000000  0.6508444  3
   5104   5102   5105   5108     1  0.0000000  0.6508444  3
   5104   5102   5105   5106     1  0.0000000  0.6508444  3
   5104   5102   5105   5107     1  0.0000000  0.6508444  3
   5104   5102   5101   5112     1  0.0000000  0.6508444  3
   5104   5102   5101   5123     1  0.0000000  0.6508444  3
   5105   5108   5110   5111     1  180.0000771  9.6232000  2
   5105   5102   5101   5123     1  0.0000000  0.6508444  3
   5106   5105   5108   5109     1  0.0000000  3.3472000  1
   5106   5105   5108   5109     1  0.0000000  0.0000000  2
   5106   5105   5108   5109     1  180.0000771  0.3347200  3
   5106   5105   5108   5110     1  180.0000771  0.0000000  2
   5107   5105   5108   5109     1  0.0000000  3.3472000  1
   5107   5105   5108   5109     1  0.0000000  0.0000000  2
   5107   5105   5108   5109     1  180.0000771  0.3347200  3
   5107   5105   5108   5110     1  180.0000771  0.0000000  2
   5109   5108   5110   5111     1  0.0000000  7.9496000  1
   5109   5108   5110   5111     1  180.0000771  9.6232000  2
   5113   5112   5115   5118     1  0.0000000  0.6508444  3
   5113   5112   5115   5116     1  0.0000000  0.6508444  3
   5113   5112   5115   5117     1  0.0000000  0.6508444  3
   5113   5112   5101   5123     1  0.0000000  0.6508444  3
   5114   5112   5115   5118     1  0.0000000  0.6508444  3
   5114   5112   5115   5116     1  0.0000000  0.6508444  3
   5114   5112   5115   5117     1  0.0000000  0.6508444  3
   5114   5112   5101   5123     1  0.0000000  0.6508444  3
   5115   5118   5120   5121     1  180.0000771  9.6232000  2
   5115   5112   5101   5123     1  0.0000000  0.6508444  3
   5116   5115   5118   5119     1  0.0000000  3.3472000  1
   5116   5115   5118   5119     1  0.0000000  0.0000000  2
   5116   5115   5118   5119     1  180.0000771  0.3347200  3
   5116   5115   5118   5120     1  180.0000771  0.0000000  2
   5117   5115   5118   5119     1  0.0000000  3.3472000  1
   5117   5115   5118   5119     1  0.0000000  0.0000000  2
   5117   5115   5118   5119     1  180.0000771  0.3347200  3
   5117   5115   5118   5120     1  180.0000771  0.0000000  2
   5119   5118   5120   5121     1  0.0000000  7.9496000  1
   5119   5118   5120   5121     1  180.0000771  9.6232000  2
   5124   5127   5130   5131     1  0.0000000  0.6508444  3
   5124   5127   5130   5132     1  0.0000000  0.6508444  3
   5125   5124   5127   5130     1  0.0000000  0.6508444  3
   5125   5124   5127   5128     1  0.0000000  0.6508444  3
   5125   5124   5127   5129     1  0.0000000  0.6508444  3
   5126   5124   5127   5130     1  0.0000000  0.6508444  3
   5126   5124   5127   5128     1  0.0000000  0.6508444  3
   5126   5124   5127   5129     1  0.0000000  0.6508444  3
   5127   5130   5133   5155     1  0.0000000  0.6508444  3
   5128   5127   5124   5154     1  0.0000000  1.0460000  1
   5128   5127   5124   5154     1  0.0000000  0.0000000  3
   5128   5127   5130   5133     1  0.0000000  0.6508444  3
   5128   5127   5130   5131     1  0.0000000  0.6508444  3
   5128   5127   5130   5132     1  0.0000000  0.6508444  3
   5129   5127   5124   5154     1  0.0000000  1.0460000  1
   5129   5127   5124   5154     1  0.0000000  0.0000000  3
   5129   5127   5130   5133     1  0.0000000  0.6508444  3
   5129   5127   5130   5131     1  0.0000000  0.6508444  3
   5129   5127   5130   5132     1  0.0000000  0.6508444  3
   5130   5133   5134   5135     1  0.0000000  0.6508444  3
   5130   5133   5134   5136     1  0.0000000  0.6508444  3
   5130   5133   5144   5145     1  0.0000000  0.6508444  3
   5130   5133   5144   5146     1  0.0000000  0.6508444  3
   5131   5130   5133   5134     1  0.0000000  0.6508444  3
   5131   5130   5133   5144     1  0.0000000  0.6508444  3
   5131   5130   5133   5155     1  0.0000000  0.6508444  3
   5132   5130   5133   5134     1  0.0000000  0.6508444  3
   5132   5130   5133   5144     1  0.0000000  0.6508444  3
   5132   5130   5133   5155     1  0.0000000  0.6508444  3
   5133   5134   5137   5138     1  0.0000000  0.6508444  3
   5133   5134   5137   5139     1  0.0000000  0.6508444  3
   5133   5144   5147   5148     1  0.0000000  0.6508444  3
   5133   5144   5147   5149     1  0.0000000  0.6508444  3
   5134   5133   5144   5145     1  0.0000000  0.6508444  3
   5134   5133   5144   5146     1  0.0000000  0.6508444  3
   5135   5134   5133   5144     1  0.0000000  0.6508444  3
   5135   5134   5133   5155     1  0.0000000  0.6508444  3
   5135   5134   5137   5140     1  0.0000000  0.6508444  3
   5135   5134   5137   5138     1  0.0000000  0.6508444  3
   5135   5134   5137   5139     1  0.0000000  0.6508444  3
   5136   5134   5133   5144     1  0.0000000  0.6508444  3
   5136   5134   5133   5155     1  0.0000000  0.6508444  3
   5136   5134   5137   5140     1  0.0000000  0.6508444  3
   5136   5134   5137   5138     1  0.0000000  0.6508444  3
   5136   5134   5137   5139     1  0.0000000  0.6508444  3
   5137   5134   5133   5155     1  0.0000000  0.6508444  3
   5137   5140   5142   5143     1  180.0000771  9.6232000  2
   5138   5137   5140   5141     1  0.0000000  3.3472000  1
   5138   5137   5140   5141     1  0.0000000  0.0000000  2
   5138   5137   5140   5141     1  180.0000771  0.3347200  3
   5138   5137   5140   5142     1  180.0000771  0.0000000  2
   5139   5137   5140   5141     1  0.0000000  3.3472000  1
   5139   5137   5140   5141     1  0.0000000  0.0000000  2
   5139   5137   5140   5141     1  180.0000771  0.3347200  3
   5139   5137   5140   5142     1  180.0000771  0.0000000  2
   5141   5140   5142   5143     1  0.0000000  7.9496000  1
   5141   5140   5142   5143     1  180.0000771  9.6232000  2
   5145   5144   5133   5155     1  0.0000000  0.6508444  3
   5145   5144   5147   5150     1  0.0000000  0.6508444  3
   5145   5144   5147   5148     1  0.0000000  0.6508444  3
   5145   5144   5147   5149     1  0.0000000  0.6508444  3
   5146   5144   5133   5155     1  0.0000000  0.6508444  3
   5146   5144   5147   5150     1  0.0000000  0.6508444  3
   5146   5144   5147   5148     1  0.0000000  0.6508444  3
   5146   5144   5147   5149     1  0.0000000  0.6508444  3
   5147   5144   5133   5155     1  0.0000000  0.6508444  3
   5147   5150   5152   5153     1  180.0000771  9.6232000  2
   5148   5147   5150   5151     1  0.0000000  3.3472000  1
   5148   5147   5150   5151     1  0.0000000  0.0000000  2
   5148   5147   5150   5151     1  180.0000771  0.3347200  3
   5148   5147   5150   5152     1  180.0000771  0.0000000  2
   5149   5147   5150   5151     1  0.0000000  3.3472000  1
   5149   5147   5150   5151     1  0.0000000  0.0000000  2
   5149   5147   5150   5151     1  180.0000771  0.3347200  3
   5149   5147   5150   5152     1  180.0000771  0.0000000  2
   5151   5150   5152   5153     1  0.0000000  7.9496000  1
   5151   5150   5152   5153     1  180.0000771  9.6232000  2
   5156   5159   5162   5163     1  0.0000000  0.6508444  3
   5156   5159   5162   5164     1  0.0000000  0.6508444  3
   5157   5156   5159   5162     1  0.0000000  0.6508444  3
   5157   5156   5159   5160     1  0.0000000  0.6508444  3
   5157   5156   5159   5161     1  0.0000000  0.6508444  3
   5158   5156   5159   5162     1  0.0000000  0.6508444  3
   5158   5156   5159   5160     1  0.0000000  0.6508444  3
   5158   5156   5159   5161     1  0.0000000  0.6508444  3
   5159   5162   5165   5187     1  0.0000000  0.6508444  3
   5160   5159   5162   5165     1  0.0000000  0.6508444  3
   5160   5159   5162   5163     1  0.0000000  0.6508444  3
   5160   5159   5162   5164     1  0.0000000  0.6508444  3
   5160   5159   5156   5186     1  0.0000000  1.0460000  1
   5160   5159   5156   5186     1  0.0000000  0.0000000  3
   5161   5159   5162   5165     1  0.0000000  0.6508444  3
   5161   5159   5162   5163     1  0.0000000  0.6508444  3
   5161   5159   5162   5164     1  0.0000000  0.6508444  3
   5161   5159   5156   5186     1  0.0000000  1.0460000  1
   5161   5159   5156   5186     1  0.0000000  0.0000000  3
   5162   5165   5166   5167     1  0.0000000  0.6508444  3
   5162   5165   5166   5168     1  0.0000000  0.6508444  3
   5162   5165   5176   5177     1  0.0000000  0.6508444  3
   5162   5165   5176   5178     1  0.0000000  0.6508444  3
   5163   5162   5165   5166     1  0.0000000  0.6508444  3
   5163   5162   5165   5176     1  0.0000000  0.6508444  3
   5163   5162   5165   5187     1  0.0000000  0.6508444  3
   5164   5162   5165   5166     1  0.0000000  0.6508444  3
   5164   5162   5165   5176     1  0.0000000  0.6508444  3
   5164   5162   5165   5187     1  0.0000000  0.6508444  3
   5165   5166   5169   5170     1  0.0000000  0.6508444  3
   5165   5166   5169   5171     1  0.0000000  0.6508444  3
   5165   5176   5179   5180     1  0.0000000  0.6508444  3
   5165   5176   5179   5181     1  0.0000000  0.6508444  3
   5166   5165   5176   5177     1  0.0000000  0.6508444  3
   5166   5165   5176   5178     1  0.0000000  0.6508444  3
   5167   5166   5169   5172     1  0.0000000  0.6508444  3
   5167   5166   5169   5170     1  0.0000000  0.6508444  3
   5167   5166   5169   5171     1  0.0000000  0.6508444  3
   5167   5166   5165   5176     1  0.0000000  0.6508444  3
   5167   5166   5165   5187     1  0.0000000  0.6508444  3
   5168   5166   5169   5172     1  0.0000000  0.6508444  3
   5168   5166   5169   5170     1  0.0000000  0.6508444  3
   5168   5166   5169   5171     1  0.0000000  0.6508444  3
   5168   5166   5165   5176     1  0.0000000  0.6508444  3
   5168   5166   5165   5187     1  0.0000000  0.6508444  3
   5169   5172   5174   5175     1  180.0000771  9.6232000  2
   5169   5166   5165   5187     1  0.0000000  0.6508444  3
   5170   5169   5172   5173     1  0.0000000  3.3472000  1
   5170   5169   5172   5173     1  0.0000000  0.0000000  2
   5170   5169   5172   5173     1  180.0000771  0.3347200  3
   5170   5169   5172   5174     1  180.0000771  0.0000000  2
   5171   5169   5172   5173     1  0.0000000  3.3472000  1
   5171   5169   5172   5173     1  0.0000000  0.0000000  2
   5171   5169   5172   5173     1  180.0000771  0.3347200  3
   5171   5169   5172   5174     1  180.0000771  0.0000000  2
   5173   5172   5174   5175     1  0.0000000  7.9496000  1
   5173   5172   5174   5175     1  180.0000771  9.6232000  2
   5177   5176   5179   5182     1  0.0000000  0.6508444  3
   5177   5176   5179   5180     1  0.0000000  0.6508444  3
   5177   5176   5179   5181     1  0.0000000  0.6508444  3
   5177   5176   5165   5187     1  0.0000000  0.6508444  3
   5178   5176   5179   5182     1  0.0000000  0.6508444  3
   5178   5176   5179   5180     1  0.0000000  0.6508444  3
   5178   5176   5179   5181     1  0.0000000  0.6508444  3
   5178   5176   5165   5187     1  0.0000000  0.6508444  3
   5179   5182   5184   5185     1  180.0000771  9.6232000  2
   5179   5176   5165   5187     1  0.0000000  0.6508444  3
   5180   5179   5182   5183     1  0.0000000  3.3472000  1
   5180   5179   5182   5183     1  0.0000000  0.0000000  2
   5180   5179   5182   5183     1  180.0000771  0.3347200  3
   5180   5179   5182   5184     1  180.0000771  0.0000000  2
   5181   5179   5182   5183     1  0.0000000  3.3472000  1
   5181   5179   5182   5183     1  0.0000000  0.0000000  2
   5181   5179   5182   5183     1  180.0000771  0.3347200  3
   5181   5179   5182   5184     1  180.0000771  0.0000000  2
   5183   5182   5184   5185     1  0.0000000  7.9496000  1
   5183   5182   5184   5185     1  180.0000771  9.6232000  2
   5188   5191   5194   5195     1  0.0000000  0.6508444  3
   5188   5191   5194   5196     1  0.0000000  0.6508444  3
   5189   5188   5191   5194     1  0.0000000  0.6508444  3
   5189   5188   5191   5192     1  0.0000000  0.6508444  3
   5189   5188   5191   5193     1  0.0000000  0.6508444  3
   5190   5188   5191   5194     1  0.0000000  0.6508444  3
   5190   5188   5191   5192     1  0.0000000  0.6508444  3
   5190   5188   5191   5193     1  0.0000000  0.6508444  3
   5191   5194   5197   5219     1  0.0000000  0.6508444  3
   5192   5191   5188   5218     1  0.0000000  1.0460000  1
   5192   5191   5188   5218     1  0.0000000  0.0000000  3
   5192   5191   5194   5197     1  0.0000000  0.6508444  3
   5192   5191   5194   5195     1  0.0000000  0.6508444  3
   5192   5191   5194   5196     1  0.0000000  0.6508444  3
   5193   5191   5188   5218     1  0.0000000  1.0460000  1
   5193   5191   5188   5218     1  0.0000000  0.0000000  3
   5193   5191   5194   5197     1  0.0000000  0.6508444  3
   5193   5191   5194   5195     1  0.0000000  0.6508444  3
   5193   5191   5194   5196     1  0.0000000  0.6508444  3
   5194   5197   5198   5199     1  0.0000000  0.6508444  3
   5194   5197   5198   5200     1  0.0000000  0.6508444  3
   5194   5197   5208   5209     1  0.0000000  0.6508444  3
   5194   5197   5208   5210     1  0.0000000  0.6508444  3
   5195   5194   5197   5198     1  0.0000000  0.6508444  3
   5195   5194   5197   5208     1  0.0000000  0.6508444  3
   5195   5194   5197   5219     1  0.0000000  0.6508444  3
   5196   5194   5197   5198     1  0.0000000  0.6508444  3
   5196   5194   5197   5208     1  0.0000000  0.6508444  3
   5196   5194   5197   5219     1  0.0000000  0.6508444  3
   5197   5198   5201   5202     1  0.0000000  0.6508444  3
   5197   5198   5201   5203     1  0.0000000  0.6508444  3
   5197   5208   5211   5212     1  0.0000000  0.6508444  3
   5197   5208   5211   5213     1  0.0000000  0.6508444  3
   5198   5197   5208   5209     1  0.0000000  0.6508444  3
   5198   5197   5208   5210     1  0.0000000  0.6508444  3
   5199   5198   5197   5208     1  0.0000000  0.6508444  3
   5199   5198   5197   5219     1  0.0000000  0.6508444  3
   5199   5198   5201   5204     1  0.0000000  0.6508444  3
   5199   5198   5201   5202     1  0.0000000  0.6508444  3
   5199   5198   5201   5203     1  0.0000000  0.6508444  3
   5200   5198   5197   5208     1  0.0000000  0.6508444  3
   5200   5198   5197   5219     1  0.0000000  0.6508444  3
   5200   5198   5201   5204     1  0.0000000  0.6508444  3
   5200   5198   5201   5202     1  0.0000000  0.6508444  3
   5200   5198   5201   5203     1  0.0000000  0.6508444  3
   5201   5198   5197   5219     1  0.0000000  0.6508444  3
   5201   5204   5206   5207     1  180.0000771  9.6232000  2
   5202   5201   5204   5205     1  0.0000000  3.3472000  1
   5202   5201   5204   5205     1  0.0000000  0.0000000  2
   5202   5201   5204   5205     1  180.0000771  0.3347200  3
   5202   5201   5204   5206     1  180.0000771  0.0000000  2
   5203   5201   5204   5205     1  0.0000000  3.3472000  1
   5203   5201   5204   5205     1  0.0000000  0.0000000  2
   5203   5201   5204   5205     1  180.0000771  0.3347200  3
   5203   5201   5204   5206     1  180.0000771  0.0000000  2
   5205   5204   5206   5207     1  0.0000000  7.9496000  1
   5205   5204   5206   5207     1  180.0000771  9.6232000  2
   5209   5208   5197   5219     1  0.0000000  0.6508444  3
   5209   5208   5211   5214     1  0.0000000  0.6508444  3
   5209   5208   5211   5212     1  0.0000000  0.6508444  3
   5209   5208   5211   5213     1  0.0000000  0.6508444  3
   5210   5208   5197   5219     1  0.0000000  0.6508444  3
   5210   5208   5211   5214     1  0.0000000  0.6508444  3
   5210   5208   5211   5212     1  0.0000000  0.6508444  3
   5210   5208   5211   5213     1  0.0000000  0.6508444  3
   5211   5208   5197   5219     1  0.0000000  0.6508444  3
   5211   5214   5216   5217     1  180.0000771  9.6232000  2
   5212   5211   5214   5215     1  0.0000000  3.3472000  1
   5212   5211   5214   5215     1  0.0000000  0.0000000  2
   5212   5211   5214   5215     1  180.0000771  0.3347200  3
   5212   5211   5214   5216     1  180.0000771  0.0000000  2
   5213   5211   5214   5215     1  0.0000000  3.3472000  1
   5213   5211   5214   5215     1  0.0000000  0.0000000  2
   5213   5211   5214   5215     1  180.0000771  0.3347200  3
   5213   5211   5214   5216     1  180.0000771  0.0000000  2
   5215   5214   5216   5217     1  0.0000000  7.9496000  1
   5215   5214   5216   5217     1  180.0000771  9.6232000  2
   5220   5223   5226   5227     1  0.0000000  0.6508444  3
   5220   5223   5226   5228     1  0.0000000  0.6508444  3
   5221   5220   5223   5226     1  0.0000000  0.6508444  3
   5221   5220   5223   5224     1  0.0000000  0.6508444  3
   5221   5220   5223   5225     1  0.0000000  0.6508444  3
   5222   5220   5223   5226     1  0.0000000  0.6508444  3
   5222   5220   5223   5224     1  0.0000000  0.6508444  3
   5222   5220   5223   5225     1  0.0000000  0.6508444  3
   5223   5226   5229   5251     1  0.0000000  0.6508444  3
   5224   5223   5226   5229     1  0.0000000  0.6508444  3
   5224   5223   5226   5227     1  0.0000000  0.6508444  3
   5224   5223   5226   5228     1  0.0000000  0.6508444  3
   5224   5223   5220   5250     1  0.0000000  1.0460000  1
   5224   5223   5220   5250     1  0.0000000  0.0000000  3
   5225   5223   5226   5229     1  0.0000000  0.6508444  3
   5225   5223   5226   5227     1  0.0000000  0.6508444  3
   5225   5223   5226   5228     1  0.0000000  0.6508444  3
   5225   5223   5220   5250     1  0.0000000  1.0460000  1
   5225   5223   5220   5250     1  0.0000000  0.0000000  3
   5226   5229   5230   5231     1  0.0000000  0.6508444  3
   5226   5229   5230   5232     1  0.0000000  0.6508444  3
   5226   5229   5240   5241     1  0.0000000  0.6508444  3
   5226   5229   5240   5242     1  0.0000000  0.6508444  3
   5227   5226   5229   5230     1  0.0000000  0.6508444  3
   5227   5226   5229   5240     1  0.0000000  0.6508444  3
   5227   5226   5229   5251     1  0.0000000  0.6508444  3
   5228   5226   5229   5230     1  0.0000000  0.6508444  3
   5228   5226   5229   5240     1  0.0000000  0.6508444  3
   5228   5226   5229   5251     1  0.0000000  0.6508444  3
   5229   5230   5233   5234     1  0.0000000  0.6508444  3
   5229   5230   5233   5235     1  0.0000000  0.6508444  3
   5229   5240   5243   5244     1  0.0000000  0.6508444  3
   5229   5240   5243   5245     1  0.0000000  0.6508444  3
   5230   5229   5240   5241     1  0.0000000  0.6508444  3
   5230   5229   5240   5242     1  0.0000000  0.6508444  3
   5231   5230   5233   5236     1  0.0000000  0.6508444  3
   5231   5230   5233   5234     1  0.0000000  0.6508444  3
   5231   5230   5233   5235     1  0.0000000  0.6508444  3
   5231   5230   5229   5240     1  0.0000000  0.6508444  3
   5231   5230   5229   5251     1  0.0000000  0.6508444  3
   5232   5230   5233   5236     1  0.0000000  0.6508444  3
   5232   5230   5233   5234     1  0.0000000  0.6508444  3
   5232   5230   5233   5235     1  0.0000000  0.6508444  3
   5232   5230   5229   5240     1  0.0000000  0.6508444  3
   5232   5230   5229   5251     1  0.0000000  0.6508444  3
   5233   5236   5238   5239     1  180.0000771  9.6232000  2
   5233   5230   5229   5251     1  0.0000000  0.6508444  3
   5234   5233   5236   5237     1  0.0000000  3.3472000  1
   5234   5233   5236   5237     1  0.0000000  0.0000000  2
   5234   5233   5236   5237     1  180.0000771  0.3347200  3
   5234   5233   5236   5238     1  180.0000771  0.0000000  2
   5235   5233   5236   5237     1  0.0000000  3.3472000  1
   5235   5233   5236   5237     1  0.0000000  0.0000000  2
   5235   5233   5236   5237     1  180.0000771  0.3347200  3
   5235   5233   5236   5238     1  180.0000771  0.0000000  2
   5237   5236   5238   5239     1  0.0000000  7.9496000  1
   5237   5236   5238   5239     1  180.0000771  9.6232000  2
   5241   5240   5243   5246     1  0.0000000  0.6508444  3
   5241   5240   5243   5244     1  0.0000000  0.6508444  3
   5241   5240   5243   5245     1  0.0000000  0.6508444  3
   5241   5240   5229   5251     1  0.0000000  0.6508444  3
   5242   5240   5243   5246     1  0.0000000  0.6508444  3
   5242   5240   5243   5244     1  0.0000000  0.6508444  3
   5242   5240   5243   5245     1  0.0000000  0.6508444  3
   5242   5240   5229   5251     1  0.0000000  0.6508444  3
   5243   5246   5248   5249     1  180.0000771  9.6232000  2
   5243   5240   5229   5251     1  0.0000000  0.6508444  3
   5244   5243   5246   5247     1  0.0000000  3.3472000  1
   5244   5243   5246   5247     1  0.0000000  0.0000000  2
   5244   5243   5246   5247     1  180.0000771  0.3347200  3
   5244   5243   5246   5248     1  180.0000771  0.0000000  2
   5245   5243   5246   5247     1  0.0000000  3.3472000  1
   5245   5243   5246   5247     1  0.0000000  0.0000000  2
   5245   5243   5246   5247     1  180.0000771  0.3347200  3
   5245   5243   5246   5248     1  180.0000771  0.0000000  2
   5247   5246   5248   5249     1  0.0000000  7.9496000  1
   5247   5246   5248   5249     1  180.0000771  9.6232000  2
   5252   5255   5258   5259     1  0.0000000  0.6508444  3
   5252   5255   5258   5260     1  0.0000000  0.6508444  3
   5253   5252   5255   5258     1  0.0000000  0.6508444  3
   5253   5252   5255   5256     1  0.0000000  0.6508444  3
   5253   5252   5255   5257     1  0.0000000  0.6508444  3
   5254   5252   5255   5258     1  0.0000000  0.6508444  3
   5254   5252   5255   5256     1  0.0000000  0.6508444  3
   5254   5252   5255   5257     1  0.0000000  0.6508444  3
   5255   5258   5261   5283     1  0.0000000  0.6508444  3
   5256   5255   5252   5282     1  0.0000000  1.0460000  1
   5256   5255   5252   5282     1  0.0000000  0.0000000  3
   5256   5255   5258   5261     1  0.0000000  0.6508444  3
   5256   5255   5258   5259     1  0.0000000  0.6508444  3
   5256   5255   5258   5260     1  0.0000000  0.6508444  3
   5257   5255   5252   5282     1  0.0000000  1.0460000  1
   5257   5255   5252   5282     1  0.0000000  0.0000000  3
   5257   5255   5258   5261     1  0.0000000  0.6508444  3
   5257   5255   5258   5259     1  0.0000000  0.6508444  3
   5257   5255   5258   5260     1  0.0000000  0.6508444  3
   5258   5261   5262   5263     1  0.0000000  0.6508444  3
   5258   5261   5262   5264     1  0.0000000  0.6508444  3
   5258   5261   5272   5273     1  0.0000000  0.6508444  3
   5258   5261   5272   5274     1  0.0000000  0.6508444  3
   5259   5258   5261   5262     1  0.0000000  0.6508444  3
   5259   5258   5261   5272     1  0.0000000  0.6508444  3
   5259   5258   5261   5283     1  0.0000000  0.6508444  3
   5260   5258   5261   5262     1  0.0000000  0.6508444  3
   5260   5258   5261   5272     1  0.0000000  0.6508444  3
   5260   5258   5261   5283     1  0.0000000  0.6508444  3
   5261   5262   5265   5266     1  0.0000000  0.6508444  3
   5261   5262   5265   5267     1  0.0000000  0.6508444  3
   5261   5272   5275   5276     1  0.0000000  0.6508444  3
   5261   5272   5275   5277     1  0.0000000  0.6508444  3
   5262   5261   5272   5273     1  0.0000000  0.6508444  3
   5262   5261   5272   5274     1  0.0000000  0.6508444  3
   5263   5262   5261   5272     1  0.0000000  0.6508444  3
   5263   5262   5261   5283     1  0.0000000  0.6508444  3
   5263   5262   5265   5268     1  0.0000000  0.6508444  3
   5263   5262   5265   5266     1  0.0000000  0.6508444  3
   5263   5262   5265   5267     1  0.0000000  0.6508444  3
   5264   5262   5261   5272     1  0.0000000  0.6508444  3
   5264   5262   5261   5283     1  0.0000000  0.6508444  3
   5264   5262   5265   5268     1  0.0000000  0.6508444  3
   5264   5262   5265   5266     1  0.0000000  0.6508444  3
   5264   5262   5265   5267     1  0.0000000  0.6508444  3
   5265   5262   5261   5283     1  0.0000000  0.6508444  3
   5265   5268   5270   5271     1  180.0000771  9.6232000  2
   5266   5265   5268   5269     1  0.0000000  3.3472000  1
   5266   5265   5268   5269     1  0.0000000  0.0000000  2
   5266   5265   5268   5269     1  180.0000771  0.3347200  3
   5266   5265   5268   5270     1  180.0000771  0.0000000  2
   5267   5265   5268   5269     1  0.0000000  3.3472000  1
   5267   5265   5268   5269     1  0.0000000  0.0000000  2
   5267   5265   5268   5269     1  180.0000771  0.3347200  3
   5267   5265   5268   5270     1  180.0000771  0.0000000  2
   5269   5268   5270   5271     1  0.0000000  7.9496000  1
   5269   5268   5270   5271     1  180.0000771  9.6232000  2
   5273   5272   5261   5283     1  0.0000000  0.6508444  3
   5273   5272   5275   5278     1  0.0000000  0.6508444  3
   5273   5272   5275   5276     1  0.0000000  0.6508444  3
   5273   5272   5275   5277     1  0.0000000  0.6508444  3
   5274   5272   5261   5283     1  0.0000000  0.6508444  3
   5274   5272   5275   5278     1  0.0000000  0.6508444  3
   5274   5272   5275   5276     1  0.0000000  0.6508444  3
   5274   5272   5275   5277     1  0.0000000  0.6508444  3
   5275   5272   5261   5283     1  0.0000000  0.6508444  3
   5275   5278   5280   5281     1  180.0000771  9.6232000  2
   5276   5275   5278   5279     1  0.0000000  3.3472000  1
   5276   5275   5278   5279     1  0.0000000  0.0000000  2
   5276   5275   5278   5279     1  180.0000771  0.3347200  3
   5276   5275   5278   5280     1  180.0000771  0.0000000  2
   5277   5275   5278   5279     1  0.0000000  3.3472000  1
   5277   5275   5278   5279     1  0.0000000  0.0000000  2
   5277   5275   5278   5279     1  180.0000771  0.3347200  3
   5277   5275   5278   5280     1  180.0000771  0.0000000  2
   5279   5278   5280   5281     1  0.0000000  7.9496000  1
   5279   5278   5280   5281     1  180.0000771  9.6232000  2
   5284   5287   5290   5291     1  0.0000000  0.6508444  3
   5284   5287   5290   5292     1  0.0000000  0.6508444  3
   5285   5284   5287   5290     1  0.0000000  0.6508444  3
   5285   5284   5287   5288     1  0.0000000  0.6508444  3
   5285   5284   5287   5289     1  0.0000000  0.6508444  3
   5286   5284   5287   5290     1  0.0000000  0.6508444  3
   5286   5284   5287   5288     1  0.0000000  0.6508444  3
   5286   5284   5287   5289     1  0.0000000  0.6508444  3
   5287   5290   5293   5315     1  0.0000000  0.6508444  3
   5288   5287   5290   5293     1  0.0000000  0.6508444  3
   5288   5287   5290   5291     1  0.0000000  0.6508444  3
   5288   5287   5290   5292     1  0.0000000  0.6508444  3
   5288   5287   5284   5314     1  0.0000000  1.0460000  1
   5288   5287   5284   5314     1  0.0000000  0.0000000  3
   5289   5287   5290   5293     1  0.0000000  0.6508444  3
   5289   5287   5290   5291     1  0.0000000  0.6508444  3
   5289   5287   5290   5292     1  0.0000000  0.6508444  3
   5289   5287   5284   5314     1  0.0000000  1.0460000  1
   5289   5287   5284   5314     1  0.0000000  0.0000000  3
   5290   5293   5294   5295     1  0.0000000  0.6508444  3
   5290   5293   5294   5296     1  0.0000000  0.6508444  3
   5290   5293   5304   5305     1  0.0000000  0.6508444  3
   5290   5293   5304   5306     1  0.0000000  0.6508444  3
   5291   5290   5293   5294     1  0.0000000  0.6508444  3
   5291   5290   5293   5304     1  0.0000000  0.6508444  3
   5291   5290   5293   5315     1  0.0000000  0.6508444  3
   5292   5290   5293   5294     1  0.0000000  0.6508444  3
   5292   5290   5293   5304     1  0.0000000  0.6508444  3
   5292   5290   5293   5315     1  0.0000000  0.6508444  3
   5293   5294   5297   5298     1  0.0000000  0.6508444  3
   5293   5294   5297   5299     1  0.0000000  0.6508444  3
   5293   5304   5307   5308     1  0.0000000  0.6508444  3
   5293   5304   5307   5309     1  0.0000000  0.6508444  3
   5294   5293   5304   5305     1  0.0000000  0.6508444  3
   5294   5293   5304   5306     1  0.0000000  0.6508444  3
   5295   5294   5297   5300     1  0.0000000  0.6508444  3
   5295   5294   5297   5298     1  0.0000000  0.6508444  3
   5295   5294   5297   5299     1  0.0000000  0.6508444  3
   5295   5294   5293   5304     1  0.0000000  0.6508444  3
   5295   5294   5293   5315     1  0.0000000  0.6508444  3
   5296   5294   5297   5300     1  0.0000000  0.6508444  3
   5296   5294   5297   5298     1  0.0000000  0.6508444  3
   5296   5294   5297   5299     1  0.0000000  0.6508444  3
   5296   5294   5293   5304     1  0.0000000  0.6508444  3
   5296   5294   5293   5315     1  0.0000000  0.6508444  3
   5297   5300   5302   5303     1  180.0000771  9.6232000  2
   5297   5294   5293   5315     1  0.0000000  0.6508444  3
   5298   5297   5300   5301     1  0.0000000  3.3472000  1
   5298   5297   5300   5301     1  0.0000000  0.0000000  2
   5298   5297   5300   5301     1  180.0000771  0.3347200  3
   5298   5297   5300   5302     1  180.0000771  0.0000000  2
   5299   5297   5300   5301     1  0.0000000  3.3472000  1
   5299   5297   5300   5301     1  0.0000000  0.0000000  2
   5299   5297   5300   5301     1  180.0000771  0.3347200  3
   5299   5297   5300   5302     1  180.0000771  0.0000000  2
   5301   5300   5302   5303     1  0.0000000  7.9496000  1
   5301   5300   5302   5303     1  180.0000771  9.6232000  2
   5305   5304   5307   5310     1  0.0000000  0.6508444  3
   5305   5304   5307   5308     1  0.0000000  0.6508444  3
   5305   5304   5307   5309     1  0.0000000  0.6508444  3
   5305   5304   5293   5315     1  0.0000000  0.6508444  3
   5306   5304   5307   5310     1  0.0000000  0.6508444  3
   5306   5304   5307   5308     1  0.0000000  0.6508444  3
   5306   5304   5307   5309     1  0.0000000  0.6508444  3
   5306   5304   5293   5315     1  0.0000000  0.6508444  3
   5307   5310   5312   5313     1  180.0000771  9.6232000  2
   5307   5304   5293   5315     1  0.0000000  0.6508444  3
   5308   5307   5310   5311     1  0.0000000  3.3472000  1
   5308   5307   5310   5311     1  0.0000000  0.0000000  2
   5308   5307   5310   5311     1  180.0000771  0.3347200  3
   5308   5307   5310   5312     1  180.0000771  0.0000000  2
   5309   5307   5310   5311     1  0.0000000  3.3472000  1
   5309   5307   5310   5311     1  0.0000000  0.0000000  2
   5309   5307   5310   5311     1  180.0000771  0.3347200  3
   5309   5307   5310   5312     1  180.0000771  0.0000000  2
   5311   5310   5312   5313     1  0.0000000  7.9496000  1
   5311   5310   5312   5313     1  180.0000771  9.6232000  2
   5316   5319   5322   5323     1  0.0000000  0.6508444  3
   5316   5319   5322   5324     1  0.0000000  0.6508444  3
   5317   5316   5319   5322     1  0.0000000  0.6508444  3
   5317   5316   5319   5320     1  0.0000000  0.6508444  3
   5317   5316   5319   5321     1  0.0000000  0.6508444  3
   5318   5316   5319   5322     1  0.0000000  0.6508444  3
   5318   5316   5319   5320     1  0.0000000  0.6508444  3
   5318   5316   5319   5321     1  0.0000000  0.6508444  3
   5319   5322   5325   5347     1  0.0000000  0.6508444  3
   5320   5319   5316   5346     1  0.0000000  1.0460000  1
   5320   5319   5316   5346     1  0.0000000  0.0000000  3
   5320   5319   5322   5325     1  0.0000000  0.6508444  3
   5320   5319   5322   5323     1  0.0000000  0.6508444  3
   5320   5319   5322   5324     1  0.0000000  0.6508444  3
   5321   5319   5316   5346     1  0.0000000  1.0460000  1
   5321   5319   5316   5346     1  0.0000000  0.0000000  3
   5321   5319   5322   5325     1  0.0000000  0.6508444  3
   5321   5319   5322   5323     1  0.0000000  0.6508444  3
   5321   5319   5322   5324     1  0.0000000  0.6508444  3
   5322   5325   5326   5327     1  0.0000000  0.6508444  3
   5322   5325   5326   5328     1  0.0000000  0.6508444  3
   5322   5325   5336   5337     1  0.0000000  0.6508444  3
   5322   5325   5336   5338     1  0.0000000  0.6508444  3
   5323   5322   5325   5326     1  0.0000000  0.6508444  3
   5323   5322   5325   5336     1  0.0000000  0.6508444  3
   5323   5322   5325   5347     1  0.0000000  0.6508444  3
   5324   5322   5325   5326     1  0.0000000  0.6508444  3
   5324   5322   5325   5336     1  0.0000000  0.6508444  3
   5324   5322   5325   5347     1  0.0000000  0.6508444  3
   5325   5326   5329   5330     1  0.0000000  0.6508444  3
   5325   5326   5329   5331     1  0.0000000  0.6508444  3
   5325   5336   5339   5340     1  0.0000000  0.6508444  3
   5325   5336   5339   5341     1  0.0000000  0.6508444  3
   5326   5325   5336   5337     1  0.0000000  0.6508444  3
   5326   5325   5336   5338     1  0.0000000  0.6508444  3
   5327   5326   5325   5336     1  0.0000000  0.6508444  3
   5327   5326   5325   5347     1  0.0000000  0.6508444  3
   5327   5326   5329   5332     1  0.0000000  0.6508444  3
   5327   5326   5329   5330     1  0.0000000  0.6508444  3
   5327   5326   5329   5331     1  0.0000000  0.6508444  3
   5328   5326   5325   5336     1  0.0000000  0.6508444  3
   5328   5326   5325   5347     1  0.0000000  0.6508444  3
   5328   5326   5329   5332     1  0.0000000  0.6508444  3
   5328   5326   5329   5330     1  0.0000000  0.6508444  3
   5328   5326   5329   5331     1  0.0000000  0.6508444  3
   5329   5326   5325   5347     1  0.0000000  0.6508444  3
   5329   5332   5334   5335     1  180.0000771  9.6232000  2
   5330   5329   5332   5333     1  0.0000000  3.3472000  1
   5330   5329   5332   5333     1  0.0000000  0.0000000  2
   5330   5329   5332   5333     1  180.0000771  0.3347200  3
   5330   5329   5332   5334     1  180.0000771  0.0000000  2
   5331   5329   5332   5333     1  0.0000000  3.3472000  1
   5331   5329   5332   5333     1  0.0000000  0.0000000  2
   5331   5329   5332   5333     1  180.0000771  0.3347200  3
   5331   5329   5332   5334     1  180.0000771  0.0000000  2
   5333   5332   5334   5335     1  0.0000000  7.9496000  1
   5333   5332   5334   5335     1  180.0000771  9.6232000  2
   5337   5336   5325   5347     1  0.0000000  0.6508444  3
   5337   5336   5339   5342     1  0.0000000  0.6508444  3
   5337   5336   5339   5340     1  0.0000000  0.6508444  3
   5337   5336   5339   5341     1  0.0000000  0.6508444  3
   5338   5336   5325   5347     1  0.0000000  0.6508444  3
   5338   5336   5339   5342     1  0.0000000  0.6508444  3
   5338   5336   5339   5340     1  0.0000000  0.6508444  3
   5338   5336   5339   5341     1  0.0000000  0.6508444  3
   5339   5336   5325   5347     1  0.0000000  0.6508444  3
   5339   5342   5344   5345     1  180.0000771  9.6232000  2
   5340   5339   5342   5343     1  0.0000000  3.3472000  1
   5340   5339   5342   5343     1  0.0000000  0.0000000  2
   5340   5339   5342   5343     1  180.0000771  0.3347200  3
   5340   5339   5342   5344     1  180.0000771  0.0000000  2
   5341   5339   5342   5343     1  0.0000000  3.3472000  1
   5341   5339   5342   5343     1  0.0000000  0.0000000  2
   5341   5339   5342   5343     1  180.0000771  0.3347200  3
   5341   5339   5342   5344     1  180.0000771  0.0000000  2
   5343   5342   5344   5345     1  0.0000000  7.9496000  1
   5343   5342   5344   5345     1  180.0000771  9.6232000  2
   5348   5351   5354   5355     1  0.0000000  0.6508444  3
   5348   5351   5354   5356     1  0.0000000  0.6508444  3
   5349   5348   5351   5354     1  0.0000000  0.6508444  3
   5349   5348   5351   5352     1  0.0000000  0.6508444  3
   5349   5348   5351   5353     1  0.0000000  0.6508444  3
   5350   5348   5351   5354     1  0.0000000  0.6508444  3
   5350   5348   5351   5352     1  0.0000000  0.6508444  3
   5350   5348   5351   5353     1  0.0000000  0.6508444  3
   5351   5354   5357   5379     1  0.0000000  0.6508444  3
   5352   5351   5354   5357     1  0.0000000  0.6508444  3
   5352   5351   5354   5355     1  0.0000000  0.6508444  3
   5352   5351   5354   5356     1  0.0000000  0.6508444  3
   5352   5351   5348   5378     1  0.0000000  1.0460000  1
   5352   5351   5348   5378     1  0.0000000  0.0000000  3
   5353   5351   5354   5357     1  0.0000000  0.6508444  3
   5353   5351   5354   5355     1  0.0000000  0.6508444  3
   5353   5351   5354   5356     1  0.0000000  0.6508444  3
   5353   5351   5348   5378     1  0.0000000  1.0460000  1
   5353   5351   5348   5378     1  0.0000000  0.0000000  3
   5354   5357   5358   5359     1  0.0000000  0.6508444  3
   5354   5357   5358   5360     1  0.0000000  0.6508444  3
   5354   5357   5368   5369     1  0.0000000  0.6508444  3
   5354   5357   5368   5370     1  0.0000000  0.6508444  3
   5355   5354   5357   5358     1  0.0000000  0.6508444  3
   5355   5354   5357   5368     1  0.0000000  0.6508444  3
   5355   5354   5357   5379     1  0.0000000  0.6508444  3
   5356   5354   5357   5358     1  0.0000000  0.6508444  3
   5356   5354   5357   5368     1  0.0000000  0.6508444  3
   5356   5354   5357   5379     1  0.0000000  0.6508444  3
   5357   5358   5361   5362     1  0.0000000  0.6508444  3
   5357   5358   5361   5363     1  0.0000000  0.6508444  3
   5357   5368   5371   5372     1  0.0000000  0.6508444  3
   5357   5368   5371   5373     1  0.0000000  0.6508444  3
   5358   5357   5368   5369     1  0.0000000  0.6508444  3
   5358   5357   5368   5370     1  0.0000000  0.6508444  3
   5359   5358   5361   5364     1  0.0000000  0.6508444  3
   5359   5358   5361   5362     1  0.0000000  0.6508444  3
   5359   5358   5361   5363     1  0.0000000  0.6508444  3
   5359   5358   5357   5368     1  0.0000000  0.6508444  3
   5359   5358   5357   5379     1  0.0000000  0.6508444  3
   5360   5358   5361   5364     1  0.0000000  0.6508444  3
   5360   5358   5361   5362     1  0.0000000  0.6508444  3
   5360   5358   5361   5363     1  0.0000000  0.6508444  3
   5360   5358   5357   5368     1  0.0000000  0.6508444  3
   5360   5358   5357   5379     1  0.0000000  0.6508444  3
   5361   5364   5366   5367     1  180.0000771  9.6232000  2
   5361   5358   5357   5379     1  0.0000000  0.6508444  3
   5362   5361   5364   5365     1  0.0000000  3.3472000  1
   5362   5361   5364   5365     1  0.0000000  0.0000000  2
   5362   5361   5364   5365     1  180.0000771  0.3347200  3
   5362   5361   5364   5366     1  180.0000771  0.0000000  2
   5363   5361   5364   5365     1  0.0000000  3.3472000  1
   5363   5361   5364   5365     1  0.0000000  0.0000000  2
   5363   5361   5364   5365     1  180.0000771  0.3347200  3
   5363   5361   5364   5366     1  180.0000771  0.0000000  2
   5365   5364   5366   5367     1  0.0000000  7.9496000  1
   5365   5364   5366   5367     1  180.0000771  9.6232000  2
   5369   5368   5371   5374     1  0.0000000  0.6508444  3
   5369   5368   5371   5372     1  0.0000000  0.6508444  3
   5369   5368   5371   5373     1  0.0000000  0.6508444  3
   5369   5368   5357   5379     1  0.0000000  0.6508444  3
   5370   5368   5371   5374     1  0.0000000  0.6508444  3
   5370   5368   5371   5372     1  0.0000000  0.6508444  3
   5370   5368   5371   5373     1  0.0000000  0.6508444  3
   5370   5368   5357   5379     1  0.0000000  0.6508444  3
   5371   5374   5376   5377     1  180.0000771  9.6232000  2
   5371   5368   5357   5379     1  0.0000000  0.6508444  3
   5372   5371   5374   5375     1  0.0000000  3.3472000  1
   5372   5371   5374   5375     1  0.0000000  0.0000000  2
   5372   5371   5374   5375     1  180.0000771  0.3347200  3
   5372   5371   5374   5376     1  180.0000771  0.0000000  2
   5373   5371   5374   5375     1  0.0000000  3.3472000  1
   5373   5371   5374   5375     1  0.0000000  0.0000000  2
   5373   5371   5374   5375     1  180.0000771  0.3347200  3
   5373   5371   5374   5376     1  180.0000771  0.0000000  2
   5375   5374   5376   5377     1  0.0000000  7.9496000  1
   5375   5374   5376   5377     1  180.0000771  9.6232000  2
   5380   5383   5386   5387     1  0.0000000  0.6508444  3
   5380   5383   5386   5388     1  0.0000000  0.6508444  3
   5381   5380   5383   5386     1  0.0000000  0.6508444  3
   5381   5380   5383   5384     1  0.0000000  0.6508444  3
   5381   5380   5383   5385     1  0.0000000  0.6508444  3
   5382   5380   5383   5386     1  0.0000000  0.6508444  3
   5382   5380   5383   5384     1  0.0000000  0.6508444  3
   5382   5380   5383   5385     1  0.0000000  0.6508444  3
   5383   5386   5389   5411     1  0.0000000  0.6508444  3
   5384   5383   5380   5410     1  0.0000000  1.0460000  1
   5384   5383   5380   5410     1  0.0000000  0.0000000  3
   5384   5383   5386   5389     1  0.0000000  0.6508444  3
   5384   5383   5386   5387     1  0.0000000  0.6508444  3
   5384   5383   5386   5388     1  0.0000000  0.6508444  3
   5385   5383   5380   5410     1  0.0000000  1.0460000  1
   5385   5383   5380   5410     1  0.0000000  0.0000000  3
   5385   5383   5386   5389     1  0.0000000  0.6508444  3
   5385   5383   5386   5387     1  0.0000000  0.6508444  3
   5385   5383   5386   5388     1  0.0000000  0.6508444  3
   5386   5389   5390   5391     1  0.0000000  0.6508444  3
   5386   5389   5390   5392     1  0.0000000  0.6508444  3
   5386   5389   5400   5401     1  0.0000000  0.6508444  3
   5386   5389   5400   5402     1  0.0000000  0.6508444  3
   5387   5386   5389   5390     1  0.0000000  0.6508444  3
   5387   5386   5389   5400     1  0.0000000  0.6508444  3
   5387   5386   5389   5411     1  0.0000000  0.6508444  3
   5388   5386   5389   5390     1  0.0000000  0.6508444  3
   5388   5386   5389   5400     1  0.0000000  0.6508444  3
   5388   5386   5389   5411     1  0.0000000  0.6508444  3
   5389   5390   5393   5394     1  0.0000000  0.6508444  3
   5389   5390   5393   5395     1  0.0000000  0.6508444  3
   5389   5400   5403   5404     1  0.0000000  0.6508444  3
   5389   5400   5403   5405     1  0.0000000  0.6508444  3
   5390   5389   5400   5401     1  0.0000000  0.6508444  3
   5390   5389   5400   5402     1  0.0000000  0.6508444  3
   5391   5390   5389   5400     1  0.0000000  0.6508444  3
   5391   5390   5389   5411     1  0.0000000  0.6508444  3
   5391   5390   5393   5396     1  0.0000000  0.6508444  3
   5391   5390   5393   5394     1  0.0000000  0.6508444  3
   5391   5390   5393   5395     1  0.0000000  0.6508444  3
   5392   5390   5389   5400     1  0.0000000  0.6508444  3
   5392   5390   5389   5411     1  0.0000000  0.6508444  3
   5392   5390   5393   5396     1  0.0000000  0.6508444  3
   5392   5390   5393   5394     1  0.0000000  0.6508444  3
   5392   5390   5393   5395     1  0.0000000  0.6508444  3
   5393   5390   5389   5411     1  0.0000000  0.6508444  3
   5393   5396   5398   5399     1  180.0000771  9.6232000  2
   5394   5393   5396   5397     1  0.0000000  3.3472000  1
   5394   5393   5396   5397     1  0.0000000  0.0000000  2
   5394   5393   5396   5397     1  180.0000771  0.3347200  3
   5394   5393   5396   5398     1  180.0000771  0.0000000  2
   5395   5393   5396   5397     1  0.0000000  3.3472000  1
   5395   5393   5396   5397     1  0.0000000  0.0000000  2
   5395   5393   5396   5397     1  180.0000771  0.3347200  3
   5395   5393   5396   5398     1  180.0000771  0.0000000  2
   5397   5396   5398   5399     1  0.0000000  7.9496000  1
   5397   5396   5398   5399     1  180.0000771  9.6232000  2
   5401   5400   5389   5411     1  0.0000000  0.6508444  3
   5401   5400   5403   5406     1  0.0000000  0.6508444  3
   5401   5400   5403   5404     1  0.0000000  0.6508444  3
   5401   5400   5403   5405     1  0.0000000  0.6508444  3
   5402   5400   5389   5411     1  0.0000000  0.6508444  3
   5402   5400   5403   5406     1  0.0000000  0.6508444  3
   5402   5400   5403   5404     1  0.0000000  0.6508444  3
   5402   5400   5403   5405     1  0.0000000  0.6508444  3
   5403   5400   5389   5411     1  0.0000000  0.6508444  3
   5403   5406   5408   5409     1  180.0000771  9.6232000  2
   5404   5403   5406   5407     1  0.0000000  3.3472000  1
   5404   5403   5406   5407     1  0.0000000  0.0000000  2
   5404   5403   5406   5407     1  180.0000771  0.3347200  3
   5404   5403   5406   5408     1  180.0000771  0.0000000  2
   5405   5403   5406   5407     1  0.0000000  3.3472000  1
   5405   5403   5406   5407     1  0.0000000  0.0000000  2
   5405   5403   5406   5407     1  180.0000771  0.3347200  3
   5405   5403   5406   5408     1  180.0000771  0.0000000  2
   5407   5406   5408   5409     1  0.0000000  7.9496000  1
   5407   5406   5408   5409     1  180.0000771  9.6232000  2
   5412   5415   5418   5419     1  0.0000000  0.6508444  3
   5412   5415   5418   5420     1  0.0000000  0.6508444  3
   5413   5412   5415   5418     1  0.0000000  0.6508444  3
   5413   5412   5415   5416     1  0.0000000  0.6508444  3
   5413   5412   5415   5417     1  0.0000000  0.6508444  3
   5414   5412   5415   5418     1  0.0000000  0.6508444  3
   5414   5412   5415   5416     1  0.0000000  0.6508444  3
   5414   5412   5415   5417     1  0.0000000  0.6508444  3
   5415   5418   5421   5443     1  0.0000000  0.6508444  3
   5416   5415   5418   5421     1  0.0000000  0.6508444  3
   5416   5415   5418   5419     1  0.0000000  0.6508444  3
   5416   5415   5418   5420     1  0.0000000  0.6508444  3
   5416   5415   5412   5442     1  0.0000000  1.0460000  1
   5416   5415   5412   5442     1  0.0000000  0.0000000  3
   5417   5415   5418   5421     1  0.0000000  0.6508444  3
   5417   5415   5418   5419     1  0.0000000  0.6508444  3
   5417   5415   5418   5420     1  0.0000000  0.6508444  3
   5417   5415   5412   5442     1  0.0000000  1.0460000  1
   5417   5415   5412   5442     1  0.0000000  0.0000000  3
   5418   5421   5422   5423     1  0.0000000  0.6508444  3
   5418   5421   5422   5424     1  0.0000000  0.6508444  3
   5418   5421   5432   5433     1  0.0000000  0.6508444  3
   5418   5421   5432   5434     1  0.0000000  0.6508444  3
   5419   5418   5421   5422     1  0.0000000  0.6508444  3
   5419   5418   5421   5432     1  0.0000000  0.6508444  3
   5419   5418   5421   5443     1  0.0000000  0.6508444  3
   5420   5418   5421   5422     1  0.0000000  0.6508444  3
   5420   5418   5421   5432     1  0.0000000  0.6508444  3
   5420   5418   5421   5443     1  0.0000000  0.6508444  3
   5421   5422   5425   5426     1  0.0000000  0.6508444  3
   5421   5422   5425   5427     1  0.0000000  0.6508444  3
   5421   5432   5435   5436     1  0.0000000  0.6508444  3
   5421   5432   5435   5437     1  0.0000000  0.6508444  3
   5422   5421   5432   5433     1  0.0000000  0.6508444  3
   5422   5421   5432   5434     1  0.0000000  0.6508444  3
   5423   5422   5425   5428     1  0.0000000  0.6508444  3
   5423   5422   5425   5426     1  0.0000000  0.6508444  3
   5423   5422   5425   5427     1  0.0000000  0.6508444  3
   5423   5422   5421   5432     1  0.0000000  0.6508444  3
   5423   5422   5421   5443     1  0.0000000  0.6508444  3
   5424   5422   5425   5428     1  0.0000000  0.6508444  3
   5424   5422   5425   5426     1  0.0000000  0.6508444  3
   5424   5422   5425   5427     1  0.0000000  0.6508444  3
   5424   5422   5421   5432     1  0.0000000  0.6508444  3
   5424   5422   5421   5443     1  0.0000000  0.6508444  3
   5425   5428   5430   5431     1  180.0000771  9.6232000  2
   5425   5422   5421   5443     1  0.0000000  0.6508444  3
   5426   5425   5428   5429     1  0.0000000  3.3472000  1
   5426   5425   5428   5429     1  0.0000000  0.0000000  2
   5426   5425   5428   5429     1  180.0000771  0.3347200  3
   5426   5425   5428   5430     1  180.0000771  0.0000000  2
   5427   5425   5428   5429     1  0.0000000  3.3472000  1
   5427   5425   5428   5429     1  0.0000000  0.0000000  2
   5427   5425   5428   5429     1  180.0000771  0.3347200  3
   5427   5425   5428   5430     1  180.0000771  0.0000000  2
   5429   5428   5430   5431     1  0.0000000  7.9496000  1
   5429   5428   5430   5431     1  180.0000771  9.6232000  2
   5433   5432   5435   5438     1  0.0000000  0.6508444  3
   5433   5432   5435   5436     1  0.0000000  0.6508444  3
   5433   5432   5435   5437     1  0.0000000  0.6508444  3
   5433   5432   5421   5443     1  0.0000000  0.6508444  3
   5434   5432   5435   5438     1  0.0000000  0.6508444  3
   5434   5432   5435   5436     1  0.0000000  0.6508444  3
   5434   5432   5435   5437     1  0.0000000  0.6508444  3
   5434   5432   5421   5443     1  0.0000000  0.6508444  3
   5435   5438   5440   5441     1  180.0000771  9.6232000  2
   5435   5432   5421   5443     1  0.0000000  0.6508444  3
   5436   5435   5438   5439     1  0.0000000  3.3472000  1
   5436   5435   5438   5439     1  0.0000000  0.0000000  2
   5436   5435   5438   5439     1  180.0000771  0.3347200  3
   5436   5435   5438   5440     1  180.0000771  0.0000000  2
   5437   5435   5438   5439     1  0.0000000  3.3472000  1
   5437   5435   5438   5439     1  0.0000000  0.0000000  2
   5437   5435   5438   5439     1  180.0000771  0.3347200  3
   5437   5435   5438   5440     1  180.0000771  0.0000000  2
   5439   5438   5440   5441     1  0.0000000  7.9496000  1
   5439   5438   5440   5441     1  180.0000771  9.6232000  2
   5444   5447   5450   5451     1  0.0000000  0.6508444  3
   5444   5447   5450   5452     1  0.0000000  0.6508444  3
   5445   5444   5447   5450     1  0.0000000  0.6508444  3
   5445   5444   5447   5448     1  0.0000000  0.6508444  3
   5445   5444   5447   5449     1  0.0000000  0.6508444  3
   5446   5444   5447   5450     1  0.0000000  0.6508444  3
   5446   5444   5447   5448     1  0.0000000  0.6508444  3
   5446   5444   5447   5449     1  0.0000000  0.6508444  3
   5447   5450   5453   5475     1  0.0000000  0.6508444  3
   5448   5447   5444   5474     1  0.0000000  1.0460000  1
   5448   5447   5444   5474     1  0.0000000  0.0000000  3
   5448   5447   5450   5453     1  0.0000000  0.6508444  3
   5448   5447   5450   5451     1  0.0000000  0.6508444  3
   5448   5447   5450   5452     1  0.0000000  0.6508444  3
   5449   5447   5444   5474     1  0.0000000  1.0460000  1
   5449   5447   5444   5474     1  0.0000000  0.0000000  3
   5449   5447   5450   5453     1  0.0000000  0.6508444  3
   5449   5447   5450   5451     1  0.0000000  0.6508444  3
   5449   5447   5450   5452     1  0.0000000  0.6508444  3
   5450   5453   5454   5455     1  0.0000000  0.6508444  3
   5450   5453   5454   5456     1  0.0000000  0.6508444  3
   5450   5453   5464   5465     1  0.0000000  0.6508444  3
   5450   5453   5464   5466     1  0.0000000  0.6508444  3
   5451   5450   5453   5454     1  0.0000000  0.6508444  3
   5451   5450   5453   5464     1  0.0000000  0.6508444  3
   5451   5450   5453   5475     1  0.0000000  0.6508444  3
   5452   5450   5453   5454     1  0.0000000  0.6508444  3
   5452   5450   5453   5464     1  0.0000000  0.6508444  3
   5452   5450   5453   5475     1  0.0000000  0.6508444  3
   5453   5454   5457   5458     1  0.0000000  0.6508444  3
   5453   5454   5457   5459     1  0.0000000  0.6508444  3
   5453   5464   5467   5468     1  0.0000000  0.6508444  3
   5453   5464   5467   5469     1  0.0000000  0.6508444  3
   5454   5453   5464   5465     1  0.0000000  0.6508444  3
   5454   5453   5464   5466     1  0.0000000  0.6508444  3
   5455   5454   5453   5464     1  0.0000000  0.6508444  3
   5455   5454   5453   5475     1  0.0000000  0.6508444  3
   5455   5454   5457   5460     1  0.0000000  0.6508444  3
   5455   5454   5457   5458     1  0.0000000  0.6508444  3
   5455   5454   5457   5459     1  0.0000000  0.6508444  3
   5456   5454   5453   5464     1  0.0000000  0.6508444  3
   5456   5454   5453   5475     1  0.0000000  0.6508444  3
   5456   5454   5457   5460     1  0.0000000  0.6508444  3
   5456   5454   5457   5458     1  0.0000000  0.6508444  3
   5456   5454   5457   5459     1  0.0000000  0.6508444  3
   5457   5454   5453   5475     1  0.0000000  0.6508444  3
   5457   5460   5462   5463     1  180.0000771  9.6232000  2
   5458   5457   5460   5461     1  0.0000000  3.3472000  1
   5458   5457   5460   5461     1  0.0000000  0.0000000  2
   5458   5457   5460   5461     1  180.0000771  0.3347200  3
   5458   5457   5460   5462     1  180.0000771  0.0000000  2
   5459   5457   5460   5461     1  0.0000000  3.3472000  1
   5459   5457   5460   5461     1  0.0000000  0.0000000  2
   5459   5457   5460   5461     1  180.0000771  0.3347200  3
   5459   5457   5460   5462     1  180.0000771  0.0000000  2
   5461   5460   5462   5463     1  0.0000000  7.9496000  1
   5461   5460   5462   5463     1  180.0000771  9.6232000  2
   5465   5464   5453   5475     1  0.0000000  0.6508444  3
   5465   5464   5467   5470     1  0.0000000  0.6508444  3
   5465   5464   5467   5468     1  0.0000000  0.6508444  3
   5465   5464   5467   5469     1  0.0000000  0.6508444  3
   5466   5464   5453   5475     1  0.0000000  0.6508444  3
   5466   5464   5467   5470     1  0.0000000  0.6508444  3
   5466   5464   5467   5468     1  0.0000000  0.6508444  3
   5466   5464   5467   5469     1  0.0000000  0.6508444  3
   5467   5464   5453   5475     1  0.0000000  0.6508444  3
   5467   5470   5472   5473     1  180.0000771  9.6232000  2
   5468   5467   5470   5471     1  0.0000000  3.3472000  1
   5468   5467   5470   5471     1  0.0000000  0.0000000  2
   5468   5467   5470   5471     1  180.0000771  0.3347200  3
   5468   5467   5470   5472     1  180.0000771  0.0000000  2
   5469   5467   5470   5471     1  0.0000000  3.3472000  1
   5469   5467   5470   5471     1  0.0000000  0.0000000  2
   5469   5467   5470   5471     1  180.0000771  0.3347200  3
   5469   5467   5470   5472     1  180.0000771  0.0000000  2
   5471   5470   5472   5473     1  0.0000000  7.9496000  1
   5471   5470   5472   5473     1  180.0000771  9.6232000  2
   5476   5479   5482   5483     1  0.0000000  0.6508444  3
   5476   5479   5482   5484     1  0.0000000  0.6508444  3
   5477   5476   5479   5482     1  0.0000000  0.6508444  3
   5477   5476   5479   5480     1  0.0000000  0.6508444  3
   5477   5476   5479   5481     1  0.0000000  0.6508444  3
   5478   5476   5479   5482     1  0.0000000  0.6508444  3
   5478   5476   5479   5480     1  0.0000000  0.6508444  3
   5478   5476   5479   5481     1  0.0000000  0.6508444  3
   5479   5482   5485   5507     1  0.0000000  0.6508444  3
   5480   5479   5482   5485     1  0.0000000  0.6508444  3
   5480   5479   5482   5483     1  0.0000000  0.6508444  3
   5480   5479   5482   5484     1  0.0000000  0.6508444  3
   5480   5479   5476   5506     1  0.0000000  1.0460000  1
   5480   5479   5476   5506     1  0.0000000  0.0000000  3
   5481   5479   5482   5485     1  0.0000000  0.6508444  3
   5481   5479   5482   5483     1  0.0000000  0.6508444  3
   5481   5479   5482   5484     1  0.0000000  0.6508444  3
   5481   5479   5476   5506     1  0.0000000  1.0460000  1
   5481   5479   5476   5506     1  0.0000000  0.0000000  3
   5482   5485   5486   5487     1  0.0000000  0.6508444  3
   5482   5485   5486   5488     1  0.0000000  0.6508444  3
   5482   5485   5496   5497     1  0.0000000  0.6508444  3
   5482   5485   5496   5498     1  0.0000000  0.6508444  3
   5483   5482   5485   5486     1  0.0000000  0.6508444  3
   5483   5482   5485   5496     1  0.0000000  0.6508444  3
   5483   5482   5485   5507     1  0.0000000  0.6508444  3
   5484   5482   5485   5486     1  0.0000000  0.6508444  3
   5484   5482   5485   5496     1  0.0000000  0.6508444  3
   5484   5482   5485   5507     1  0.0000000  0.6508444  3
   5485   5486   5489   5490     1  0.0000000  0.6508444  3
   5485   5486   5489   5491     1  0.0000000  0.6508444  3
   5485   5496   5499   5500     1  0.0000000  0.6508444  3
   5485   5496   5499   5501     1  0.0000000  0.6508444  3
   5486   5485   5496   5497     1  0.0000000  0.6508444  3
   5486   5485   5496   5498     1  0.0000000  0.6508444  3
   5487   5486   5489   5492     1  0.0000000  0.6508444  3
   5487   5486   5489   5490     1  0.0000000  0.6508444  3
   5487   5486   5489   5491     1  0.0000000  0.6508444  3
   5487   5486   5485   5496     1  0.0000000  0.6508444  3
   5487   5486   5485   5507     1  0.0000000  0.6508444  3
   5488   5486   5489   5492     1  0.0000000  0.6508444  3
   5488   5486   5489   5490     1  0.0000000  0.6508444  3
   5488   5486   5489   5491     1  0.0000000  0.6508444  3
   5488   5486   5485   5496     1  0.0000000  0.6508444  3
   5488   5486   5485   5507     1  0.0000000  0.6508444  3
   5489   5492   5494   5495     1  180.0000771  9.6232000  2
   5489   5486   5485   5507     1  0.0000000  0.6508444  3
   5490   5489   5492   5493     1  0.0000000  3.3472000  1
   5490   5489   5492   5493     1  0.0000000  0.0000000  2
   5490   5489   5492   5493     1  180.0000771  0.3347200  3
   5490   5489   5492   5494     1  180.0000771  0.0000000  2
   5491   5489   5492   5493     1  0.0000000  3.3472000  1
   5491   5489   5492   5493     1  0.0000000  0.0000000  2
   5491   5489   5492   5493     1  180.0000771  0.3347200  3
   5491   5489   5492   5494     1  180.0000771  0.0000000  2
   5493   5492   5494   5495     1  0.0000000  7.9496000  1
   5493   5492   5494   5495     1  180.0000771  9.6232000  2
   5497   5496   5499   5502     1  0.0000000  0.6508444  3
   5497   5496   5499   5500     1  0.0000000  0.6508444  3
   5497   5496   5499   5501     1  0.0000000  0.6508444  3
   5497   5496   5485   5507     1  0.0000000  0.6508444  3
   5498   5496   5499   5502     1  0.0000000  0.6508444  3
   5498   5496   5499   5500     1  0.0000000  0.6508444  3
   5498   5496   5499   5501     1  0.0000000  0.6508444  3
   5498   5496   5485   5507     1  0.0000000  0.6508444  3
   5499   5502   5504   5505     1  180.0000771  9.6232000  2
   5499   5496   5485   5507     1  0.0000000  0.6508444  3
   5500   5499   5502   5503     1  0.0000000  3.3472000  1
   5500   5499   5502   5503     1  0.0000000  0.0000000  2
   5500   5499   5502   5503     1  180.0000771  0.3347200  3
   5500   5499   5502   5504     1  180.0000771  0.0000000  2
   5501   5499   5502   5503     1  0.0000000  3.3472000  1
   5501   5499   5502   5503     1  0.0000000  0.0000000  2
   5501   5499   5502   5503     1  180.0000771  0.3347200  3
   5501   5499   5502   5504     1  180.0000771  0.0000000  2
   5503   5502   5504   5505     1  0.0000000  7.9496000  1
   5503   5502   5504   5505     1  180.0000771  9.6232000  2
   5508   5511   5514   5515     1  0.0000000  0.6508444  3
   5508   5511   5514   5516     1  0.0000000  0.6508444  3
   5509   5508   5511   5514     1  0.0000000  0.6508444  3
   5509   5508   5511   5512     1  0.0000000  0.6508444  3
   5509   5508   5511   5513     1  0.0000000  0.6508444  3
   5510   5508   5511   5514     1  0.0000000  0.6508444  3
   5510   5508   5511   5512     1  0.0000000  0.6508444  3
   5510   5508   5511   5513     1  0.0000000  0.6508444  3
   5511   5514   5517   5539     1  0.0000000  0.6508444  3
   5512   5511   5508   5538     1  0.0000000  1.0460000  1
   5512   5511   5508   5538     1  0.0000000  0.0000000  3
   5512   5511   5514   5517     1  0.0000000  0.6508444  3
   5512   5511   5514   5515     1  0.0000000  0.6508444  3
   5512   5511   5514   5516     1  0.0000000  0.6508444  3
   5513   5511   5508   5538     1  0.0000000  1.0460000  1
   5513   5511   5508   5538     1  0.0000000  0.0000000  3
   5513   5511   5514   5517     1  0.0000000  0.6508444  3
   5513   5511   5514   5515     1  0.0000000  0.6508444  3
   5513   5511   5514   5516     1  0.0000000  0.6508444  3
   5514   5517   5518   5519     1  0.0000000  0.6508444  3
   5514   5517   5518   5520     1  0.0000000  0.6508444  3
   5514   5517   5528   5529     1  0.0000000  0.6508444  3
   5514   5517   5528   5530     1  0.0000000  0.6508444  3
   5515   5514   5517   5518     1  0.0000000  0.6508444  3
   5515   5514   5517   5528     1  0.0000000  0.6508444  3
   5515   5514   5517   5539     1  0.0000000  0.6508444  3
   5516   5514   5517   5518     1  0.0000000  0.6508444  3
   5516   5514   5517   5528     1  0.0000000  0.6508444  3
   5516   5514   5517   5539     1  0.0000000  0.6508444  3
   5517   5518   5521   5522     1  0.0000000  0.6508444  3
   5517   5518   5521   5523     1  0.0000000  0.6508444  3
   5517   5528   5531   5532     1  0.0000000  0.6508444  3
   5517   5528   5531   5533     1  0.0000000  0.6508444  3
   5518   5517   5528   5529     1  0.0000000  0.6508444  3
   5518   5517   5528   5530     1  0.0000000  0.6508444  3
   5519   5518   5517   5528     1  0.0000000  0.6508444  3
   5519   5518   5517   5539     1  0.0000000  0.6508444  3
   5519   5518   5521   5524     1  0.0000000  0.6508444  3
   5519   5518   5521   5522     1  0.0000000  0.6508444  3
   5519   5518   5521   5523     1  0.0000000  0.6508444  3
   5520   5518   5517   5528     1  0.0000000  0.6508444  3
   5520   5518   5517   5539     1  0.0000000  0.6508444  3
   5520   5518   5521   5524     1  0.0000000  0.6508444  3
   5520   5518   5521   5522     1  0.0000000  0.6508444  3
   5520   5518   5521   5523     1  0.0000000  0.6508444  3
   5521   5518   5517   5539     1  0.0000000  0.6508444  3
   5521   5524   5526   5527     1  180.0000771  9.6232000  2
   5522   5521   5524   5525     1  0.0000000  3.3472000  1
   5522   5521   5524   5525     1  0.0000000  0.0000000  2
   5522   5521   5524   5525     1  180.0000771  0.3347200  3
   5522   5521   5524   5526     1  180.0000771  0.0000000  2
   5523   5521   5524   5525     1  0.0000000  3.3472000  1
   5523   5521   5524   5525     1  0.0000000  0.0000000  2
   5523   5521   5524   5525     1  180.0000771  0.3347200  3
   5523   5521   5524   5526     1  180.0000771  0.0000000  2
   5525   5524   5526   5527     1  0.0000000  7.9496000  1
   5525   5524   5526   5527     1  180.0000771  9.6232000  2
   5529   5528   5517   5539     1  0.0000000  0.6508444  3
   5529   5528   5531   5534     1  0.0000000  0.6508444  3
   5529   5528   5531   5532     1  0.0000000  0.6508444  3
   5529   5528   5531   5533     1  0.0000000  0.6508444  3
   5530   5528   5517   5539     1  0.0000000  0.6508444  3
   5530   5528   5531   5534     1  0.0000000  0.6508444  3
   5530   5528   5531   5532     1  0.0000000  0.6508444  3
   5530   5528   5531   5533     1  0.0000000  0.6508444  3
   5531   5528   5517   5539     1  0.0000000  0.6508444  3
   5531   5534   5536   5537     1  180.0000771  9.6232000  2
   5532   5531   5534   5535     1  0.0000000  3.3472000  1
   5532   5531   5534   5535     1  0.0000000  0.0000000  2
   5532   5531   5534   5535     1  180.0000771  0.3347200  3
   5532   5531   5534   5536     1  180.0000771  0.0000000  2
   5533   5531   5534   5535     1  0.0000000  3.3472000  1
   5533   5531   5534   5535     1  0.0000000  0.0000000  2
   5533   5531   5534   5535     1  180.0000771  0.3347200  3
   5533   5531   5534   5536     1  180.0000771  0.0000000  2
   5535   5534   5536   5537     1  0.0000000  7.9496000  1
   5535   5534   5536   5537     1  180.0000771  9.6232000  2
   5540   5543   5546   5547     1  0.0000000  0.6508444  3
   5540   5543   5546   5548     1  0.0000000  0.6508444  3
   5541   5540   5543   5546     1  0.0000000  0.6508444  3
   5541   5540   5543   5544     1  0.0000000  0.6508444  3
   5541   5540   5543   5545     1  0.0000000  0.6508444  3
   5542   5540   5543   5546     1  0.0000000  0.6508444  3
   5542   5540   5543   5544     1  0.0000000  0.6508444  3
   5542   5540   5543   5545     1  0.0000000  0.6508444  3
   5543   5546   5549   5571     1  0.0000000  0.6508444  3
   5544   5543   5546   5549     1  0.0000000  0.6508444  3
   5544   5543   5546   5547     1  0.0000000  0.6508444  3
   5544   5543   5546   5548     1  0.0000000  0.6508444  3
   5544   5543   5540   5570     1  0.0000000  1.0460000  1
   5544   5543   5540   5570     1  0.0000000  0.0000000  3
   5545   5543   5546   5549     1  0.0000000  0.6508444  3
   5545   5543   5546   5547     1  0.0000000  0.6508444  3
   5545   5543   5546   5548     1  0.0000000  0.6508444  3
   5545   5543   5540   5570     1  0.0000000  1.0460000  1
   5545   5543   5540   5570     1  0.0000000  0.0000000  3
   5546   5549   5550   5551     1  0.0000000  0.6508444  3
   5546   5549   5550   5552     1  0.0000000  0.6508444  3
   5546   5549   5560   5561     1  0.0000000  0.6508444  3
   5546   5549   5560   5562     1  0.0000000  0.6508444  3
   5547   5546   5549   5550     1  0.0000000  0.6508444  3
   5547   5546   5549   5560     1  0.0000000  0.6508444  3
   5547   5546   5549   5571     1  0.0000000  0.6508444  3
   5548   5546   5549   5550     1  0.0000000  0.6508444  3
   5548   5546   5549   5560     1  0.0000000  0.6508444  3
   5548   5546   5549   5571     1  0.0000000  0.6508444  3
   5549   5550   5553   5554     1  0.0000000  0.6508444  3
   5549   5550   5553   5555     1  0.0000000  0.6508444  3
   5549   5560   5563   5564     1  0.0000000  0.6508444  3
   5549   5560   5563   5565     1  0.0000000  0.6508444  3
   5550   5549   5560   5561     1  0.0000000  0.6508444  3
   5550   5549   5560   5562     1  0.0000000  0.6508444  3
   5551   5550   5553   5556     1  0.0000000  0.6508444  3
   5551   5550   5553   5554     1  0.0000000  0.6508444  3
   5551   5550   5553   5555     1  0.0000000  0.6508444  3
   5551   5550   5549   5560     1  0.0000000  0.6508444  3
   5551   5550   5549   5571     1  0.0000000  0.6508444  3
   5552   5550   5553   5556     1  0.0000000  0.6508444  3
   5552   5550   5553   5554     1  0.0000000  0.6508444  3
   5552   5550   5553   5555     1  0.0000000  0.6508444  3
   5552   5550   5549   5560     1  0.0000000  0.6508444  3
   5552   5550   5549   5571     1  0.0000000  0.6508444  3
   5553   5556   5558   5559     1  180.0000771  9.6232000  2
   5553   5550   5549   5571     1  0.0000000  0.6508444  3
   5554   5553   5556   5557     1  0.0000000  3.3472000  1
   5554   5553   5556   5557     1  0.0000000  0.0000000  2
   5554   5553   5556   5557     1  180.0000771  0.3347200  3
   5554   5553   5556   5558     1  180.0000771  0.0000000  2
   5555   5553   5556   5557     1  0.0000000  3.3472000  1
   5555   5553   5556   5557     1  0.0000000  0.0000000  2
   5555   5553   5556   5557     1  180.0000771  0.3347200  3
   5555   5553   5556   5558     1  180.0000771  0.0000000  2
   5557   5556   5558   5559     1  0.0000000  7.9496000  1
   5557   5556   5558   5559     1  180.0000771  9.6232000  2
   5561   5560   5563   5566     1  0.0000000  0.6508444  3
   5561   5560   5563   5564     1  0.0000000  0.6508444  3
   5561   5560   5563   5565     1  0.0000000  0.6508444  3
   5561   5560   5549   5571     1  0.0000000  0.6508444  3
   5562   5560   5563   5566     1  0.0000000  0.6508444  3
   5562   5560   5563   5564     1  0.0000000  0.6508444  3
   5562   5560   5563   5565     1  0.0000000  0.6508444  3
   5562   5560   5549   5571     1  0.0000000  0.6508444  3
   5563   5566   5568   5569     1  180.0000771  9.6232000  2
   5563   5560   5549   5571     1  0.0000000  0.6508444  3
   5564   5563   5566   5567     1  0.0000000  3.3472000  1
   5564   5563   5566   5567     1  0.0000000  0.0000000  2
   5564   5563   5566   5567     1  180.0000771  0.3347200  3
   5564   5563   5566   5568     1  180.0000771  0.0000000  2
   5565   5563   5566   5567     1  0.0000000  3.3472000  1
   5565   5563   5566   5567     1  0.0000000  0.0000000  2
   5565   5563   5566   5567     1  180.0000771  0.3347200  3
   5565   5563   5566   5568     1  180.0000771  0.0000000  2
   5567   5566   5568   5569     1  0.0000000  7.9496000  1
   5567   5566   5568   5569     1  180.0000771  9.6232000  2
   5572   5575   5578   5579     1  0.0000000  0.6508444  3
   5572   5575   5578   5580     1  0.0000000  0.6508444  3
   5573   5572   5575   5578     1  0.0000000  0.6508444  3
   5573   5572   5575   5576     1  0.0000000  0.6508444  3
   5573   5572   5575   5577     1  0.0000000  0.6508444  3
   5574   5572   5575   5578     1  0.0000000  0.6508444  3
   5574   5572   5575   5576     1  0.0000000  0.6508444  3
   5574   5572   5575   5577     1  0.0000000  0.6508444  3
   5575   5578   5581   5603     1  0.0000000  0.6508444  3
   5576   5575   5572   5602     1  0.0000000  1.0460000  1
   5576   5575   5572   5602     1  0.0000000  0.0000000  3
   5576   5575   5578   5581     1  0.0000000  0.6508444  3
   5576   5575   5578   5579     1  0.0000000  0.6508444  3
   5576   5575   5578   5580     1  0.0000000  0.6508444  3
   5577   5575   5572   5602     1  0.0000000  1.0460000  1
   5577   5575   5572   5602     1  0.0000000  0.0000000  3
   5577   5575   5578   5581     1  0.0000000  0.6508444  3
   5577   5575   5578   5579     1  0.0000000  0.6508444  3
   5577   5575   5578   5580     1  0.0000000  0.6508444  3
   5578   5581   5582   5583     1  0.0000000  0.6508444  3
   5578   5581   5582   5584     1  0.0000000  0.6508444  3
   5578   5581   5592   5593     1  0.0000000  0.6508444  3
   5578   5581   5592   5594     1  0.0000000  0.6508444  3
   5579   5578   5581   5582     1  0.0000000  0.6508444  3
   5579   5578   5581   5592     1  0.0000000  0.6508444  3
   5579   5578   5581   5603     1  0.0000000  0.6508444  3
   5580   5578   5581   5582     1  0.0000000  0.6508444  3
   5580   5578   5581   5592     1  0.0000000  0.6508444  3
   5580   5578   5581   5603     1  0.0000000  0.6508444  3
   5581   5582   5585   5586     1  0.0000000  0.6508444  3
   5581   5582   5585   5587     1  0.0000000  0.6508444  3
   5581   5592   5595   5596     1  0.0000000  0.6508444  3
   5581   5592   5595   5597     1  0.0000000  0.6508444  3
   5582   5581   5592   5593     1  0.0000000  0.6508444  3
   5582   5581   5592   5594     1  0.0000000  0.6508444  3
   5583   5582   5581   5592     1  0.0000000  0.6508444  3
   5583   5582   5581   5603     1  0.0000000  0.6508444  3
   5583   5582   5585   5588     1  0.0000000  0.6508444  3
   5583   5582   5585   5586     1  0.0000000  0.6508444  3
   5583   5582   5585   5587     1  0.0000000  0.6508444  3
   5584   5582   5581   5592     1  0.0000000  0.6508444  3
   5584   5582   5581   5603     1  0.0000000  0.6508444  3
   5584   5582   5585   5588     1  0.0000000  0.6508444  3
   5584   5582   5585   5586     1  0.0000000  0.6508444  3
   5584   5582   5585   5587     1  0.0000000  0.6508444  3
   5585   5582   5581   5603     1  0.0000000  0.6508444  3
   5585   5588   5590   5591     1  180.0000771  9.6232000  2
   5586   5585   5588   5589     1  0.0000000  3.3472000  1
   5586   5585   5588   5589     1  0.0000000  0.0000000  2
   5586   5585   5588   5589     1  180.0000771  0.3347200  3
   5586   5585   5588   5590     1  180.0000771  0.0000000  2
   5587   5585   5588   5589     1  0.0000000  3.3472000  1
   5587   5585   5588   5589     1  0.0000000  0.0000000  2
   5587   5585   5588   5589     1  180.0000771  0.3347200  3
   5587   5585   5588   5590     1  180.0000771  0.0000000  2
   5589   5588   5590   5591     1  0.0000000  7.9496000  1
   5589   5588   5590   5591     1  180.0000771  9.6232000  2
   5593   5592   5581   5603     1  0.0000000  0.6508444  3
   5593   5592   5595   5598     1  0.0000000  0.6508444  3
   5593   5592   5595   5596     1  0.0000000  0.6508444  3
   5593   5592   5595   5597     1  0.0000000  0.6508444  3
   5594   5592   5581   5603     1  0.0000000  0.6508444  3
   5594   5592   5595   5598     1  0.0000000  0.6508444  3
   5594   5592   5595   5596     1  0.0000000  0.6508444  3
   5594   5592   5595   5597     1  0.0000000  0.6508444  3
   5595   5592   5581   5603     1  0.0000000  0.6508444  3
   5595   5598   5600   5601     1  180.0000771  9.6232000  2
   5596   5595   5598   5599     1  0.0000000  3.3472000  1
   5596   5595   5598   5599     1  0.0000000  0.0000000  2
   5596   5595   5598   5599     1  180.0000771  0.3347200  3
   5596   5595   5598   5600     1  180.0000771  0.0000000  2
   5597   5595   5598   5599     1  0.0000000  3.3472000  1
   5597   5595   5598   5599     1  0.0000000  0.0000000  2
   5597   5595   5598   5599     1  180.0000771  0.3347200  3
   5597   5595   5598   5600     1  180.0000771  0.0000000  2
   5599   5598   5600   5601     1  0.0000000  7.9496000  1
   5599   5598   5600   5601     1  180.0000771  9.6232000  2
   5604   5607   5610   5611     1  0.0000000  0.6508444  3
   5604   5607   5610   5612     1  0.0000000  0.6508444  3
   5605   5604   5607   5610     1  0.0000000  0.6508444  3
   5605   5604   5607   5608     1  0.0000000  0.6508444  3
   5605   5604   5607   5609     1  0.0000000  0.6508444  3
   5606   5604   5607   5610     1  0.0000000  0.6508444  3
   5606   5604   5607   5608     1  0.0000000  0.6508444  3
   5606   5604   5607   5609     1  0.0000000  0.6508444  3
   5607   5610   5613   5635     1  0.0000000  0.6508444  3
   5608   5607   5610   5613     1  0.0000000  0.6508444  3
   5608   5607   5610   5611     1  0.0000000  0.6508444  3
   5608   5607   5610   5612     1  0.0000000  0.6508444  3
   5608   5607   5604   5634     1  0.0000000  1.0460000  1
   5608   5607   5604   5634     1  0.0000000  0.0000000  3
   5609   5607   5610   5613     1  0.0000000  0.6508444  3
   5609   5607   5610   5611     1  0.0000000  0.6508444  3
   5609   5607   5610   5612     1  0.0000000  0.6508444  3
   5609   5607   5604   5634     1  0.0000000  1.0460000  1
   5609   5607   5604   5634     1  0.0000000  0.0000000  3
   5610   5613   5614   5615     1  0.0000000  0.6508444  3
   5610   5613   5614   5616     1  0.0000000  0.6508444  3
   5610   5613   5624   5625     1  0.0000000  0.6508444  3
   5610   5613   5624   5626     1  0.0000000  0.6508444  3
   5611   5610   5613   5614     1  0.0000000  0.6508444  3
   5611   5610   5613   5624     1  0.0000000  0.6508444  3
   5611   5610   5613   5635     1  0.0000000  0.6508444  3
   5612   5610   5613   5614     1  0.0000000  0.6508444  3
   5612   5610   5613   5624     1  0.0000000  0.6508444  3
   5612   5610   5613   5635     1  0.0000000  0.6508444  3
   5613   5614   5617   5618     1  0.0000000  0.6508444  3
   5613   5614   5617   5619     1  0.0000000  0.6508444  3
   5613   5624   5627   5628     1  0.0000000  0.6508444  3
   5613   5624   5627   5629     1  0.0000000  0.6508444  3
   5614   5613   5624   5625     1  0.0000000  0.6508444  3
   5614   5613   5624   5626     1  0.0000000  0.6508444  3
   5615   5614   5617   5620     1  0.0000000  0.6508444  3
   5615   5614   5617   5618     1  0.0000000  0.6508444  3
   5615   5614   5617   5619     1  0.0000000  0.6508444  3
   5615   5614   5613   5624     1  0.0000000  0.6508444  3
   5615   5614   5613   5635     1  0.0000000  0.6508444  3
   5616   5614   5617   5620     1  0.0000000  0.6508444  3
   5616   5614   5617   5618     1  0.0000000  0.6508444  3
   5616   5614   5617   5619     1  0.0000000  0.6508444  3
   5616   5614   5613   5624     1  0.0000000  0.6508444  3
   5616   5614   5613   5635     1  0.0000000  0.6508444  3
   5617   5620   5622   5623     1  180.0000771  9.6232000  2
   5617   5614   5613   5635     1  0.0000000  0.6508444  3
   5618   5617   5620   5621     1  0.0000000  3.3472000  1
   5618   5617   5620   5621     1  0.0000000  0.0000000  2
   5618   5617   5620   5621     1  180.0000771  0.3347200  3
   5618   5617   5620   5622     1  180.0000771  0.0000000  2
   5619   5617   5620   5621     1  0.0000000  3.3472000  1
   5619   5617   5620   5621     1  0.0000000  0.0000000  2
   5619   5617   5620   5621     1  180.0000771  0.3347200  3
   5619   5617   5620   5622     1  180.0000771  0.0000000  2
   5621   5620   5622   5623     1  0.0000000  7.9496000  1
   5621   5620   5622   5623     1  180.0000771  9.6232000  2
   5625   5624   5627   5630     1  0.0000000  0.6508444  3
   5625   5624   5627   5628     1  0.0000000  0.6508444  3
   5625   5624   5627   5629     1  0.0000000  0.6508444  3
   5625   5624   5613   5635     1  0.0000000  0.6508444  3
   5626   5624   5627   5630     1  0.0000000  0.6508444  3
   5626   5624   5627   5628     1  0.0000000  0.6508444  3
   5626   5624   5627   5629     1  0.0000000  0.6508444  3
   5626   5624   5613   5635     1  0.0000000  0.6508444  3
   5627   5630   5632   5633     1  180.0000771  9.6232000  2
   5627   5624   5613   5635     1  0.0000000  0.6508444  3
   5628   5627   5630   5631     1  0.0000000  3.3472000  1
   5628   5627   5630   5631     1  0.0000000  0.0000000  2
   5628   5627   5630   5631     1  180.0000771  0.3347200  3
   5628   5627   5630   5632     1  180.0000771  0.0000000  2
   5629   5627   5630   5631     1  0.0000000  3.3472000  1
   5629   5627   5630   5631     1  0.0000000  0.0000000  2
   5629   5627   5630   5631     1  180.0000771  0.3347200  3
   5629   5627   5630   5632     1  180.0000771  0.0000000  2
   5631   5630   5632   5633     1  0.0000000  7.9496000  1
   5631   5630   5632   5633     1  180.0000771  9.6232000  2
   5636   5639   5642   5643     1  0.0000000  0.6508444  3
   5636   5639   5642   5644     1  0.0000000  0.6508444  3
   5637   5636   5639   5642     1  0.0000000  0.6508444  3
   5637   5636   5639   5640     1  0.0000000  0.6508444  3
   5637   5636   5639   5641     1  0.0000000  0.6508444  3
   5638   5636   5639   5642     1  0.0000000  0.6508444  3
   5638   5636   5639   5640     1  0.0000000  0.6508444  3
   5638   5636   5639   5641     1  0.0000000  0.6508444  3
   5639   5642   5645   5667     1  0.0000000  0.6508444  3
   5640   5639   5636   5666     1  0.0000000  1.0460000  1
   5640   5639   5636   5666     1  0.0000000  0.0000000  3
   5640   5639   5642   5645     1  0.0000000  0.6508444  3
   5640   5639   5642   5643     1  0.0000000  0.6508444  3
   5640   5639   5642   5644     1  0.0000000  0.6508444  3
   5641   5639   5636   5666     1  0.0000000  1.0460000  1
   5641   5639   5636   5666     1  0.0000000  0.0000000  3
   5641   5639   5642   5645     1  0.0000000  0.6508444  3
   5641   5639   5642   5643     1  0.0000000  0.6508444  3
   5641   5639   5642   5644     1  0.0000000  0.6508444  3
   5642   5645   5646   5647     1  0.0000000  0.6508444  3
   5642   5645   5646   5648     1  0.0000000  0.6508444  3
   5642   5645   5656   5657     1  0.0000000  0.6508444  3
   5642   5645   5656   5658     1  0.0000000  0.6508444  3
   5643   5642   5645   5646     1  0.0000000  0.6508444  3
   5643   5642   5645   5656     1  0.0000000  0.6508444  3
   5643   5642   5645   5667     1  0.0000000  0.6508444  3
   5644   5642   5645   5646     1  0.0000000  0.6508444  3
   5644   5642   5645   5656     1  0.0000000  0.6508444  3
   5644   5642   5645   5667     1  0.0000000  0.6508444  3
   5645   5646   5649   5650     1  0.0000000  0.6508444  3
   5645   5646   5649   5651     1  0.0000000  0.6508444  3
   5645   5656   5659   5660     1  0.0000000  0.6508444  3
   5645   5656   5659   5661     1  0.0000000  0.6508444  3
   5646   5645   5656   5657     1  0.0000000  0.6508444  3
   5646   5645   5656   5658     1  0.0000000  0.6508444  3
   5647   5646   5645   5656     1  0.0000000  0.6508444  3
   5647   5646   5645   5667     1  0.0000000  0.6508444  3
   5647   5646   5649   5652     1  0.0000000  0.6508444  3
   5647   5646   5649   5650     1  0.0000000  0.6508444  3
   5647   5646   5649   5651     1  0.0000000  0.6508444  3
   5648   5646   5645   5656     1  0.0000000  0.6508444  3
   5648   5646   5645   5667     1  0.0000000  0.6508444  3
   5648   5646   5649   5652     1  0.0000000  0.6508444  3
   5648   5646   5649   5650     1  0.0000000  0.6508444  3
   5648   5646   5649   5651     1  0.0000000  0.6508444  3
   5649   5646   5645   5667     1  0.0000000  0.6508444  3
   5649   5652   5654   5655     1  180.0000771  9.6232000  2
   5650   5649   5652   5653     1  0.0000000  3.3472000  1
   5650   5649   5652   5653     1  0.0000000  0.0000000  2
   5650   5649   5652   5653     1  180.0000771  0.3347200  3
   5650   5649   5652   5654     1  180.0000771  0.0000000  2
   5651   5649   5652   5653     1  0.0000000  3.3472000  1
   5651   5649   5652   5653     1  0.0000000  0.0000000  2
   5651   5649   5652   5653     1  180.0000771  0.3347200  3
   5651   5649   5652   5654     1  180.0000771  0.0000000  2
   5653   5652   5654   5655     1  0.0000000  7.9496000  1
   5653   5652   5654   5655     1  180.0000771  9.6232000  2
   5657   5656   5645   5667     1  0.0000000  0.6508444  3
   5657   5656   5659   5662     1  0.0000000  0.6508444  3
   5657   5656   5659   5660     1  0.0000000  0.6508444  3
   5657   5656   5659   5661     1  0.0000000  0.6508444  3
   5658   5656   5645   5667     1  0.0000000  0.6508444  3
   5658   5656   5659   5662     1  0.0000000  0.6508444  3
   5658   5656   5659   5660     1  0.0000000  0.6508444  3
   5658   5656   5659   5661     1  0.0000000  0.6508444  3
   5659   5656   5645   5667     1  0.0000000  0.6508444  3
   5659   5662   5664   5665     1  180.0000771  9.6232000  2
   5660   5659   5662   5663     1  0.0000000  3.3472000  1
   5660   5659   5662   5663     1  0.0000000  0.0000000  2
   5660   5659   5662   5663     1  180.0000771  0.3347200  3
   5660   5659   5662   5664     1  180.0000771  0.0000000  2
   5661   5659   5662   5663     1  0.0000000  3.3472000  1
   5661   5659   5662   5663     1  0.0000000  0.0000000  2
   5661   5659   5662   5663     1  180.0000771  0.3347200  3
   5661   5659   5662   5664     1  180.0000771  0.0000000  2
   5663   5662   5664   5665     1  0.0000000  7.9496000  1
   5663   5662   5664   5665     1  180.0000771  9.6232000  2
   5668   5671   5674   5675     1  0.0000000  0.6508444  3
   5668   5671   5674   5676     1  0.0000000  0.6508444  3
   5669   5668   5671   5674     1  0.0000000  0.6508444  3
   5669   5668   5671   5672     1  0.0000000  0.6508444  3
   5669   5668   5671   5673     1  0.0000000  0.6508444  3
   5670   5668   5671   5674     1  0.0000000  0.6508444  3
   5670   5668   5671   5672     1  0.0000000  0.6508444  3
   5670   5668   5671   5673     1  0.0000000  0.6508444  3
   5671   5674   5677   5699     1  0.0000000  0.6508444  3
   5672   5671   5674   5677     1  0.0000000  0.6508444  3
   5672   5671   5674   5675     1  0.0000000  0.6508444  3
   5672   5671   5674   5676     1  0.0000000  0.6508444  3
   5672   5671   5668   5698     1  0.0000000  1.0460000  1
   5672   5671   5668   5698     1  0.0000000  0.0000000  3
   5673   5671   5674   5677     1  0.0000000  0.6508444  3
   5673   5671   5674   5675     1  0.0000000  0.6508444  3
   5673   5671   5674   5676     1  0.0000000  0.6508444  3
   5673   5671   5668   5698     1  0.0000000  1.0460000  1
   5673   5671   5668   5698     1  0.0000000  0.0000000  3
   5674   5677   5678   5679     1  0.0000000  0.6508444  3
   5674   5677   5678   5680     1  0.0000000  0.6508444  3
   5674   5677   5688   5689     1  0.0000000  0.6508444  3
   5674   5677   5688   5690     1  0.0000000  0.6508444  3
   5675   5674   5677   5678     1  0.0000000  0.6508444  3
   5675   5674   5677   5688     1  0.0000000  0.6508444  3
   5675   5674   5677   5699     1  0.0000000  0.6508444  3
   5676   5674   5677   5678     1  0.0000000  0.6508444  3
   5676   5674   5677   5688     1  0.0000000  0.6508444  3
   5676   5674   5677   5699     1  0.0000000  0.6508444  3
   5677   5678   5681   5682     1  0.0000000  0.6508444  3
   5677   5678   5681   5683     1  0.0000000  0.6508444  3
   5677   5688   5691   5692     1  0.0000000  0.6508444  3
   5677   5688   5691   5693     1  0.0000000  0.6508444  3
   5678   5677   5688   5689     1  0.0000000  0.6508444  3
   5678   5677   5688   5690     1  0.0000000  0.6508444  3
   5679   5678   5681   5684     1  0.0000000  0.6508444  3
   5679   5678   5681   5682     1  0.0000000  0.6508444  3
   5679   5678   5681   5683     1  0.0000000  0.6508444  3
   5679   5678   5677   5688     1  0.0000000  0.6508444  3
   5679   5678   5677   5699     1  0.0000000  0.6508444  3
   5680   5678   5681   5684     1  0.0000000  0.6508444  3
   5680   5678   5681   5682     1  0.0000000  0.6508444  3
   5680   5678   5681   5683     1  0.0000000  0.6508444  3
   5680   5678   5677   5688     1  0.0000000  0.6508444  3
   5680   5678   5677   5699     1  0.0000000  0.6508444  3
   5681   5684   5686   5687     1  180.0000771  9.6232000  2
   5681   5678   5677   5699     1  0.0000000  0.6508444  3
   5682   5681   5684   5685     1  0.0000000  3.3472000  1
   5682   5681   5684   5685     1  0.0000000  0.0000000  2
   5682   5681   5684   5685     1  180.0000771  0.3347200  3
   5682   5681   5684   5686     1  180.0000771  0.0000000  2
   5683   5681   5684   5685     1  0.0000000  3.3472000  1
   5683   5681   5684   5685     1  0.0000000  0.0000000  2
   5683   5681   5684   5685     1  180.0000771  0.3347200  3
   5683   5681   5684   5686     1  180.0000771  0.0000000  2
   5685   5684   5686   5687     1  0.0000000  7.9496000  1
   5685   5684   5686   5687     1  180.0000771  9.6232000  2
   5689   5688   5691   5694     1  0.0000000  0.6508444  3
   5689   5688   5691   5692     1  0.0000000  0.6508444  3
   5689   5688   5691   5693     1  0.0000000  0.6508444  3
   5689   5688   5677   5699     1  0.0000000  0.6508444  3
   5690   5688   5691   5694     1  0.0000000  0.6508444  3
   5690   5688   5691   5692     1  0.0000000  0.6508444  3
   5690   5688   5691   5693     1  0.0000000  0.6508444  3
   5690   5688   5677   5699     1  0.0000000  0.6508444  3
   5691   5694   5696   5697     1  180.0000771  9.6232000  2
   5691   5688   5677   5699     1  0.0000000  0.6508444  3
   5692   5691   5694   5695     1  0.0000000  3.3472000  1
   5692   5691   5694   5695     1  0.0000000  0.0000000  2
   5692   5691   5694   5695     1  180.0000771  0.3347200  3
   5692   5691   5694   5696     1  180.0000771  0.0000000  2
   5693   5691   5694   5695     1  0.0000000  3.3472000  1
   5693   5691   5694   5695     1  0.0000000  0.0000000  2
   5693   5691   5694   5695     1  180.0000771  0.3347200  3
   5693   5691   5694   5696     1  180.0000771  0.0000000  2
   5695   5694   5696   5697     1  0.0000000  7.9496000  1
   5695   5694   5696   5697     1  180.0000771  9.6232000  2
   5700   5703   5706   5707     1  0.0000000  0.6508444  3
   5700   5703   5706   5708     1  0.0000000  0.6508444  3
   5701   5700   5703   5706     1  0.0000000  0.6508444  3
   5701   5700   5703   5704     1  0.0000000  0.6508444  3
   5701   5700   5703   5705     1  0.0000000  0.6508444  3
   5702   5700   5703   5706     1  0.0000000  0.6508444  3
   5702   5700   5703   5704     1  0.0000000  0.6508444  3
   5702   5700   5703   5705     1  0.0000000  0.6508444  3
   5703   5706   5709   5731     1  0.0000000  0.6508444  3
   5704   5703   5700   5730     1  0.0000000  1.0460000  1
   5704   5703   5700   5730     1  0.0000000  0.0000000  3
   5704   5703   5706   5709     1  0.0000000  0.6508444  3
   5704   5703   5706   5707     1  0.0000000  0.6508444  3
   5704   5703   5706   5708     1  0.0000000  0.6508444  3
   5705   5703   5700   5730     1  0.0000000  1.0460000  1
   5705   5703   5700   5730     1  0.0000000  0.0000000  3
   5705   5703   5706   5709     1  0.0000000  0.6508444  3
   5705   5703   5706   5707     1  0.0000000  0.6508444  3
   5705   5703   5706   5708     1  0.0000000  0.6508444  3
   5706   5709   5710   5711     1  0.0000000  0.6508444  3
   5706   5709   5710   5712     1  0.0000000  0.6508444  3
   5706   5709   5720   5721     1  0.0000000  0.6508444  3
   5706   5709   5720   5722     1  0.0000000  0.6508444  3
   5707   5706   5709   5710     1  0.0000000  0.6508444  3
   5707   5706   5709   5720     1  0.0000000  0.6508444  3
   5707   5706   5709   5731     1  0.0000000  0.6508444  3
   5708   5706   5709   5710     1  0.0000000  0.6508444  3
   5708   5706   5709   5720     1  0.0000000  0.6508444  3
   5708   5706   5709   5731     1  0.0000000  0.6508444  3
   5709   5710   5713   5714     1  0.0000000  0.6508444  3
   5709   5710   5713   5715     1  0.0000000  0.6508444  3
   5709   5720   5723   5724     1  0.0000000  0.6508444  3
   5709   5720   5723   5725     1  0.0000000  0.6508444  3
   5710   5709   5720   5721     1  0.0000000  0.6508444  3
   5710   5709   5720   5722     1  0.0000000  0.6508444  3
   5711   5710   5709   5720     1  0.0000000  0.6508444  3
   5711   5710   5709   5731     1  0.0000000  0.6508444  3
   5711   5710   5713   5716     1  0.0000000  0.6508444  3
   5711   5710   5713   5714     1  0.0000000  0.6508444  3
   5711   5710   5713   5715     1  0.0000000  0.6508444  3
   5712   5710   5709   5720     1  0.0000000  0.6508444  3
   5712   5710   5709   5731     1  0.0000000  0.6508444  3
   5712   5710   5713   5716     1  0.0000000  0.6508444  3
   5712   5710   5713   5714     1  0.0000000  0.6508444  3
   5712   5710   5713   5715     1  0.0000000  0.6508444  3
   5713   5710   5709   5731     1  0.0000000  0.6508444  3
   5713   5716   5718   5719     1  180.0000771  9.6232000  2
   5714   5713   5716   5717     1  0.0000000  3.3472000  1
   5714   5713   5716   5717     1  0.0000000  0.0000000  2
   5714   5713   5716   5717     1  180.0000771  0.3347200  3
   5714   5713   5716   5718     1  180.0000771  0.0000000  2
   5715   5713   5716   5717     1  0.0000000  3.3472000  1
   5715   5713   5716   5717     1  0.0000000  0.0000000  2
   5715   5713   5716   5717     1  180.0000771  0.3347200  3
   5715   5713   5716   5718     1  180.0000771  0.0000000  2
   5717   5716   5718   5719     1  0.0000000  7.9496000  1
   5717   5716   5718   5719     1  180.0000771  9.6232000  2
   5721   5720   5709   5731     1  0.0000000  0.6508444  3
   5721   5720   5723   5726     1  0.0000000  0.6508444  3
   5721   5720   5723   5724     1  0.0000000  0.6508444  3
   5721   5720   5723   5725     1  0.0000000  0.6508444  3
   5722   5720   5709   5731     1  0.0000000  0.6508444  3
   5722   5720   5723   5726     1  0.0000000  0.6508444  3
   5722   5720   5723   5724     1  0.0000000  0.6508444  3
   5722   5720   5723   5725     1  0.0000000  0.6508444  3
   5723   5720   5709   5731     1  0.0000000  0.6508444  3
   5723   5726   5728   5729     1  180.0000771  9.6232000  2
   5724   5723   5726   5727     1  0.0000000  3.3472000  1
   5724   5723   5726   5727     1  0.0000000  0.0000000  2
   5724   5723   5726   5727     1  180.0000771  0.3347200  3
   5724   5723   5726   5728     1  180.0000771  0.0000000  2
   5725   5723   5726   5727     1  0.0000000  3.3472000  1
   5725   5723   5726   5727     1  0.0000000  0.0000000  2
   5725   5723   5726   5727     1  180.0000771  0.3347200  3
   5725   5723   5726   5728     1  180.0000771  0.0000000  2
   5727   5726   5728   5729     1  0.0000000  7.9496000  1
   5727   5726   5728   5729     1  180.0000771  9.6232000  2
   5732   5735   5738   5739     1  0.0000000  0.6508444  3
   5732   5735   5738   5740     1  0.0000000  0.6508444  3
   5733   5732   5735   5738     1  0.0000000  0.6508444  3
   5733   5732   5735   5736     1  0.0000000  0.6508444  3
   5733   5732   5735   5737     1  0.0000000  0.6508444  3
   5734   5732   5735   5738     1  0.0000000  0.6508444  3
   5734   5732   5735   5736     1  0.0000000  0.6508444  3
   5734   5732   5735   5737     1  0.0000000  0.6508444  3
   5735   5738   5741   5763     1  0.0000000  0.6508444  3
   5736   5735   5738   5741     1  0.0000000  0.6508444  3
   5736   5735   5738   5739     1  0.0000000  0.6508444  3
   5736   5735   5738   5740     1  0.0000000  0.6508444  3
   5736   5735   5732   5762     1  0.0000000  1.0460000  1
   5736   5735   5732   5762     1  0.0000000  0.0000000  3
   5737   5735   5738   5741     1  0.0000000  0.6508444  3
   5737   5735   5738   5739     1  0.0000000  0.6508444  3
   5737   5735   5738   5740     1  0.0000000  0.6508444  3
   5737   5735   5732   5762     1  0.0000000  1.0460000  1
   5737   5735   5732   5762     1  0.0000000  0.0000000  3
   5738   5741   5742   5743     1  0.0000000  0.6508444  3
   5738   5741   5742   5744     1  0.0000000  0.6508444  3
   5738   5741   5752   5753     1  0.0000000  0.6508444  3
   5738   5741   5752   5754     1  0.0000000  0.6508444  3
   5739   5738   5741   5742     1  0.0000000  0.6508444  3
   5739   5738   5741   5752     1  0.0000000  0.6508444  3
   5739   5738   5741   5763     1  0.0000000  0.6508444  3
   5740   5738   5741   5742     1  0.0000000  0.6508444  3
   5740   5738   5741   5752     1  0.0000000  0.6508444  3
   5740   5738   5741   5763     1  0.0000000  0.6508444  3
   5741   5742   5745   5746     1  0.0000000  0.6508444  3
   5741   5742   5745   5747     1  0.0000000  0.6508444  3
   5741   5752   5755   5756     1  0.0000000  0.6508444  3
   5741   5752   5755   5757     1  0.0000000  0.6508444  3
   5742   5741   5752   5753     1  0.0000000  0.6508444  3
   5742   5741   5752   5754     1  0.0000000  0.6508444  3
   5743   5742   5745   5748     1  0.0000000  0.6508444  3
   5743   5742   5745   5746     1  0.0000000  0.6508444  3
   5743   5742   5745   5747     1  0.0000000  0.6508444  3
   5743   5742   5741   5752     1  0.0000000  0.6508444  3
   5743   5742   5741   5763     1  0.0000000  0.6508444  3
   5744   5742   5745   5748     1  0.0000000  0.6508444  3
   5744   5742   5745   5746     1  0.0000000  0.6508444  3
   5744   5742   5745   5747     1  0.0000000  0.6508444  3
   5744   5742   5741   5752     1  0.0000000  0.6508444  3
   5744   5742   5741   5763     1  0.0000000  0.6508444  3
   5745   5748   5750   5751     1  180.0000771  9.6232000  2
   5745   5742   5741   5763     1  0.0000000  0.6508444  3
   5746   5745   5748   5749     1  0.0000000  3.3472000  1
   5746   5745   5748   5749     1  0.0000000  0.0000000  2
   5746   5745   5748   5749     1  180.0000771  0.3347200  3
   5746   5745   5748   5750     1  180.0000771  0.0000000  2
   5747   5745   5748   5749     1  0.0000000  3.3472000  1
   5747   5745   5748   5749     1  0.0000000  0.0000000  2
   5747   5745   5748   5749     1  180.0000771  0.3347200  3
   5747   5745   5748   5750     1  180.0000771  0.0000000  2
   5749   5748   5750   5751     1  0.0000000  7.9496000  1
   5749   5748   5750   5751     1  180.0000771  9.6232000  2
   5753   5752   5755   5758     1  0.0000000  0.6508444  3
   5753   5752   5755   5756     1  0.0000000  0.6508444  3
   5753   5752   5755   5757     1  0.0000000  0.6508444  3
   5753   5752   5741   5763     1  0.0000000  0.6508444  3
   5754   5752   5755   5758     1  0.0000000  0.6508444  3
   5754   5752   5755   5756     1  0.0000000  0.6508444  3
   5754   5752   5755   5757     1  0.0000000  0.6508444  3
   5754   5752   5741   5763     1  0.0000000  0.6508444  3
   5755   5758   5760   5761     1  180.0000771  9.6232000  2
   5755   5752   5741   5763     1  0.0000000  0.6508444  3
   5756   5755   5758   5759     1  0.0000000  3.3472000  1
   5756   5755   5758   5759     1  0.0000000  0.0000000  2
   5756   5755   5758   5759     1  180.0000771  0.3347200  3
   5756   5755   5758   5760     1  180.0000771  0.0000000  2
   5757   5755   5758   5759     1  0.0000000  3.3472000  1
   5757   5755   5758   5759     1  0.0000000  0.0000000  2
   5757   5755   5758   5759     1  180.0000771  0.3347200  3
   5757   5755   5758   5760     1  180.0000771  0.0000000  2
   5759   5758   5760   5761     1  0.0000000  7.9496000  1
   5759   5758   5760   5761     1  180.0000771  9.6232000  2
   5764   5767   5770   5771     1  0.0000000  0.6508444  3
   5764   5767   5770   5772     1  0.0000000  0.6508444  3
   5765   5764   5767   5770     1  0.0000000  0.6508444  3
   5765   5764   5767   5768     1  0.0000000  0.6508444  3
   5765   5764   5767   5769     1  0.0000000  0.6508444  3
   5766   5764   5767   5770     1  0.0000000  0.6508444  3
   5766   5764   5767   5768     1  0.0000000  0.6508444  3
   5766   5764   5767   5769     1  0.0000000  0.6508444  3
   5767   5770   5773   5795     1  0.0000000  0.6508444  3
   5768   5767   5764   5794     1  0.0000000  1.0460000  1
   5768   5767   5764   5794     1  0.0000000  0.0000000  3
   5768   5767   5770   5773     1  0.0000000  0.6508444  3
   5768   5767   5770   5771     1  0.0000000  0.6508444  3
   5768   5767   5770   5772     1  0.0000000  0.6508444  3
   5769   5767   5764   5794     1  0.0000000  1.0460000  1
   5769   5767   5764   5794     1  0.0000000  0.0000000  3
   5769   5767   5770   5773     1  0.0000000  0.6508444  3
   5769   5767   5770   5771     1  0.0000000  0.6508444  3
   5769   5767   5770   5772     1  0.0000000  0.6508444  3
   5770   5773   5774   5775     1  0.0000000  0.6508444  3
   5770   5773   5774   5776     1  0.0000000  0.6508444  3
   5770   5773   5784   5785     1  0.0000000  0.6508444  3
   5770   5773   5784   5786     1  0.0000000  0.6508444  3
   5771   5770   5773   5774     1  0.0000000  0.6508444  3
   5771   5770   5773   5784     1  0.0000000  0.6508444  3
   5771   5770   5773   5795     1  0.0000000  0.6508444  3
   5772   5770   5773   5774     1  0.0000000  0.6508444  3
   5772   5770   5773   5784     1  0.0000000  0.6508444  3
   5772   5770   5773   5795     1  0.0000000  0.6508444  3
   5773   5774   5777   5778     1  0.0000000  0.6508444  3
   5773   5774   5777   5779     1  0.0000000  0.6508444  3
   5773   5784   5787   5788     1  0.0000000  0.6508444  3
   5773   5784   5787   5789     1  0.0000000  0.6508444  3
   5774   5773   5784   5785     1  0.0000000  0.6508444  3
   5774   5773   5784   5786     1  0.0000000  0.6508444  3
   5775   5774   5773   5784     1  0.0000000  0.6508444  3
   5775   5774   5773   5795     1  0.0000000  0.6508444  3
   5775   5774   5777   5780     1  0.0000000  0.6508444  3
   5775   5774   5777   5778     1  0.0000000  0.6508444  3
   5775   5774   5777   5779     1  0.0000000  0.6508444  3
   5776   5774   5773   5784     1  0.0000000  0.6508444  3
   5776   5774   5773   5795     1  0.0000000  0.6508444  3
   5776   5774   5777   5780     1  0.0000000  0.6508444  3
   5776   5774   5777   5778     1  0.0000000  0.6508444  3
   5776   5774   5777   5779     1  0.0000000  0.6508444  3
   5777   5774   5773   5795     1  0.0000000  0.6508444  3
   5777   5780   5782   5783     1  180.0000771  9.6232000  2
   5778   5777   5780   5781     1  0.0000000  3.3472000  1
   5778   5777   5780   5781     1  0.0000000  0.0000000  2
   5778   5777   5780   5781     1  180.0000771  0.3347200  3
   5778   5777   5780   5782     1  180.0000771  0.0000000  2
   5779   5777   5780   5781     1  0.0000000  3.3472000  1
   5779   5777   5780   5781     1  0.0000000  0.0000000  2
   5779   5777   5780   5781     1  180.0000771  0.3347200  3
   5779   5777   5780   5782     1  180.0000771  0.0000000  2
   5781   5780   5782   5783     1  0.0000000  7.9496000  1
   5781   5780   5782   5783     1  180.0000771  9.6232000  2
   5785   5784   5773   5795     1  0.0000000  0.6508444  3
   5785   5784   5787   5790     1  0.0000000  0.6508444  3
   5785   5784   5787   5788     1  0.0000000  0.6508444  3
   5785   5784   5787   5789     1  0.0000000  0.6508444  3
   5786   5784   5773   5795     1  0.0000000  0.6508444  3
   5786   5784   5787   5790     1  0.0000000  0.6508444  3
   5786   5784   5787   5788     1  0.0000000  0.6508444  3
   5786   5784   5787   5789     1  0.0000000  0.6508444  3
   5787   5784   5773   5795     1  0.0000000  0.6508444  3
   5787   5790   5792   5793     1  180.0000771  9.6232000  2
   5788   5787   5790   5791     1  0.0000000  3.3472000  1
   5788   5787   5790   5791     1  0.0000000  0.0000000  2
   5788   5787   5790   5791     1  180.0000771  0.3347200  3
   5788   5787   5790   5792     1  180.0000771  0.0000000  2
   5789   5787   5790   5791     1  0.0000000  3.3472000  1
   5789   5787   5790   5791     1  0.0000000  0.0000000  2
   5789   5787   5790   5791     1  180.0000771  0.3347200  3
   5789   5787   5790   5792     1  180.0000771  0.0000000  2
   5791   5790   5792   5793     1  0.0000000  7.9496000  1
   5791   5790   5792   5793     1  180.0000771  9.6232000  2
   5796   5799   5802   5803     1  0.0000000  0.6508444  3
   5796   5799   5802   5804     1  0.0000000  0.6508444  3
   5797   5796   5799   5802     1  0.0000000  0.6508444  3
   5797   5796   5799   5800     1  0.0000000  0.6508444  3
   5797   5796   5799   5801     1  0.0000000  0.6508444  3
   5798   5796   5799   5802     1  0.0000000  0.6508444  3
   5798   5796   5799   5800     1  0.0000000  0.6508444  3
   5798   5796   5799   5801     1  0.0000000  0.6508444  3
   5799   5802   5805   5827     1  0.0000000  0.6508444  3
   5800   5799   5802   5805     1  0.0000000  0.6508444  3
   5800   5799   5802   5803     1  0.0000000  0.6508444  3
   5800   5799   5802   5804     1  0.0000000  0.6508444  3
   5800   5799   5796   5826     1  0.0000000  1.0460000  1
   5800   5799   5796   5826     1  0.0000000  0.0000000  3
   5801   5799   5802   5805     1  0.0000000  0.6508444  3
   5801   5799   5802   5803     1  0.0000000  0.6508444  3
   5801   5799   5802   5804     1  0.0000000  0.6508444  3
   5801   5799   5796   5826     1  0.0000000  1.0460000  1
   5801   5799   5796   5826     1  0.0000000  0.0000000  3
   5802   5805   5806   5807     1  0.0000000  0.6508444  3
   5802   5805   5806   5808     1  0.0000000  0.6508444  3
   5802   5805   5816   5817     1  0.0000000  0.6508444  3
   5802   5805   5816   5818     1  0.0000000  0.6508444  3
   5803   5802   5805   5806     1  0.0000000  0.6508444  3
   5803   5802   5805   5816     1  0.0000000  0.6508444  3
   5803   5802   5805   5827     1  0.0000000  0.6508444  3
   5804   5802   5805   5806     1  0.0000000  0.6508444  3
   5804   5802   5805   5816     1  0.0000000  0.6508444  3
   5804   5802   5805   5827     1  0.0000000  0.6508444  3
   5805   5806   5809   5810     1  0.0000000  0.6508444  3
   5805   5806   5809   5811     1  0.0000000  0.6508444  3
   5805   5816   5819   5820     1  0.0000000  0.6508444  3
   5805   5816   5819   5821     1  0.0000000  0.6508444  3
   5806   5805   5816   5817     1  0.0000000  0.6508444  3
   5806   5805   5816   5818     1  0.0000000  0.6508444  3
   5807   5806   5809   5812     1  0.0000000  0.6508444  3
   5807   5806   5809   5810     1  0.0000000  0.6508444  3
   5807   5806   5809   5811     1  0.0000000  0.6508444  3
   5807   5806   5805   5816     1  0.0000000  0.6508444  3
   5807   5806   5805   5827     1  0.0000000  0.6508444  3
   5808   5806   5809   5812     1  0.0000000  0.6508444  3
   5808   5806   5809   5810     1  0.0000000  0.6508444  3
   5808   5806   5809   5811     1  0.0000000  0.6508444  3
   5808   5806   5805   5816     1  0.0000000  0.6508444  3
   5808   5806   5805   5827     1  0.0000000  0.6508444  3
   5809   5812   5814   5815     1  180.0000771  9.6232000  2
   5809   5806   5805   5827     1  0.0000000  0.6508444  3
   5810   5809   5812   5813     1  0.0000000  3.3472000  1
   5810   5809   5812   5813     1  0.0000000  0.0000000  2
   5810   5809   5812   5813     1  180.0000771  0.3347200  3
   5810   5809   5812   5814     1  180.0000771  0.0000000  2
   5811   5809   5812   5813     1  0.0000000  3.3472000  1
   5811   5809   5812   5813     1  0.0000000  0.0000000  2
   5811   5809   5812   5813     1  180.0000771  0.3347200  3
   5811   5809   5812   5814     1  180.0000771  0.0000000  2
   5813   5812   5814   5815     1  0.0000000  7.9496000  1
   5813   5812   5814   5815     1  180.0000771  9.6232000  2
   5817   5816   5819   5822     1  0.0000000  0.6508444  3
   5817   5816   5819   5820     1  0.0000000  0.6508444  3
   5817   5816   5819   5821     1  0.0000000  0.6508444  3
   5817   5816   5805   5827     1  0.0000000  0.6508444  3
   5818   5816   5819   5822     1  0.0000000  0.6508444  3
   5818   5816   5819   5820     1  0.0000000  0.6508444  3
   5818   5816   5819   5821     1  0.0000000  0.6508444  3
   5818   5816   5805   5827     1  0.0000000  0.6508444  3
   5819   5822   5824   5825     1  180.0000771  9.6232000  2
   5819   5816   5805   5827     1  0.0000000  0.6508444  3
   5820   5819   5822   5823     1  0.0000000  3.3472000  1
   5820   5819   5822   5823     1  0.0000000  0.0000000  2
   5820   5819   5822   5823     1  180.0000771  0.3347200  3
   5820   5819   5822   5824     1  180.0000771  0.0000000  2
   5821   5819   5822   5823     1  0.0000000  3.3472000  1
   5821   5819   5822   5823     1  0.0000000  0.0000000  2
   5821   5819   5822   5823     1  180.0000771  0.3347200  3
   5821   5819   5822   5824     1  180.0000771  0.0000000  2
   5823   5822   5824   5825     1  0.0000000  7.9496000  1
   5823   5822   5824   5825     1  180.0000771  9.6232000  2
   5828   5831   5834   5835     1  0.0000000  0.6508444  3
   5828   5831   5834   5836     1  0.0000000  0.6508444  3
   5829   5828   5831   5834     1  0.0000000  0.6508444  3
   5829   5828   5831   5832     1  0.0000000  0.6508444  3
   5829   5828   5831   5833     1  0.0000000  0.6508444  3
   5830   5828   5831   5834     1  0.0000000  0.6508444  3
   5830   5828   5831   5832     1  0.0000000  0.6508444  3
   5830   5828   5831   5833     1  0.0000000  0.6508444  3
   5831   5834   5837   5859     1  0.0000000  0.6508444  3
   5832   5831   5828   5858     1  0.0000000  1.0460000  1
   5832   5831   5828   5858     1  0.0000000  0.0000000  3
   5832   5831   5834   5837     1  0.0000000  0.6508444  3
   5832   5831   5834   5835     1  0.0000000  0.6508444  3
   5832   5831   5834   5836     1  0.0000000  0.6508444  3
   5833   5831   5828   5858     1  0.0000000  1.0460000  1
   5833   5831   5828   5858     1  0.0000000  0.0000000  3
   5833   5831   5834   5837     1  0.0000000  0.6508444  3
   5833   5831   5834   5835     1  0.0000000  0.6508444  3
   5833   5831   5834   5836     1  0.0000000  0.6508444  3
   5834   5837   5838   5839     1  0.0000000  0.6508444  3
   5834   5837   5838   5840     1  0.0000000  0.6508444  3
   5834   5837   5848   5849     1  0.0000000  0.6508444  3
   5834   5837   5848   5850     1  0.0000000  0.6508444  3
   5835   5834   5837   5838     1  0.0000000  0.6508444  3
   5835   5834   5837   5848     1  0.0000000  0.6508444  3
   5835   5834   5837   5859     1  0.0000000  0.6508444  3
   5836   5834   5837   5838     1  0.0000000  0.6508444  3
   5836   5834   5837   5848     1  0.0000000  0.6508444  3
   5836   5834   5837   5859     1  0.0000000  0.6508444  3
   5837   5838   5841   5842     1  0.0000000  0.6508444  3
   5837   5838   5841   5843     1  0.0000000  0.6508444  3
   5837   5848   5851   5852     1  0.0000000  0.6508444  3
   5837   5848   5851   5853     1  0.0000000  0.6508444  3
   5838   5837   5848   5849     1  0.0000000  0.6508444  3
   5838   5837   5848   5850     1  0.0000000  0.6508444  3
   5839   5838   5837   5848     1  0.0000000  0.6508444  3
   5839   5838   5837   5859     1  0.0000000  0.6508444  3
   5839   5838   5841   5844     1  0.0000000  0.6508444  3
   5839   5838   5841   5842     1  0.0000000  0.6508444  3
   5839   5838   5841   5843     1  0.0000000  0.6508444  3
   5840   5838   5837   5848     1  0.0000000  0.6508444  3
   5840   5838   5837   5859     1  0.0000000  0.6508444  3
   5840   5838   5841   5844     1  0.0000000  0.6508444  3
   5840   5838   5841   5842     1  0.0000000  0.6508444  3
   5840   5838   5841   5843     1  0.0000000  0.6508444  3
   5841   5838   5837   5859     1  0.0000000  0.6508444  3
   5841   5844   5846   5847     1  180.0000771  9.6232000  2
   5842   5841   5844   5845     1  0.0000000  3.3472000  1
   5842   5841   5844   5845     1  0.0000000  0.0000000  2
   5842   5841   5844   5845     1  180.0000771  0.3347200  3
   5842   5841   5844   5846     1  180.0000771  0.0000000  2
   5843   5841   5844   5845     1  0.0000000  3.3472000  1
   5843   5841   5844   5845     1  0.0000000  0.0000000  2
   5843   5841   5844   5845     1  180.0000771  0.3347200  3
   5843   5841   5844   5846     1  180.0000771  0.0000000  2
   5845   5844   5846   5847     1  0.0000000  7.9496000  1
   5845   5844   5846   5847     1  180.0000771  9.6232000  2
   5849   5848   5837   5859     1  0.0000000  0.6508444  3
   5849   5848   5851   5854     1  0.0000000  0.6508444  3
   5849   5848   5851   5852     1  0.0000000  0.6508444  3
   5849   5848   5851   5853     1  0.0000000  0.6508444  3
   5850   5848   5837   5859     1  0.0000000  0.6508444  3
   5850   5848   5851   5854     1  0.0000000  0.6508444  3
   5850   5848   5851   5852     1  0.0000000  0.6508444  3
   5850   5848   5851   5853     1  0.0000000  0.6508444  3
   5851   5848   5837   5859     1  0.0000000  0.6508444  3
   5851   5854   5856   5857     1  180.0000771  9.6232000  2
   5852   5851   5854   5855     1  0.0000000  3.3472000  1
   5852   5851   5854   5855     1  0.0000000  0.0000000  2
   5852   5851   5854   5855     1  180.0000771  0.3347200  3
   5852   5851   5854   5856     1  180.0000771  0.0000000  2
   5853   5851   5854   5855     1  0.0000000  3.3472000  1
   5853   5851   5854   5855     1  0.0000000  0.0000000  2
   5853   5851   5854   5855     1  180.0000771  0.3347200  3
   5853   5851   5854   5856     1  180.0000771  0.0000000  2
   5855   5854   5856   5857     1  0.0000000  7.9496000  1
   5855   5854   5856   5857     1  180.0000771  9.6232000  2
   5860   5863   5866   5867     1  0.0000000  0.6508444  3
   5860   5863   5866   5868     1  0.0000000  0.6508444  3
   5861   5860   5863   5866     1  0.0000000  0.6508444  3
   5861   5860   5863   5864     1  0.0000000  0.6508444  3
   5861   5860   5863   5865     1  0.0000000  0.6508444  3
   5862   5860   5863   5866     1  0.0000000  0.6508444  3
   5862   5860   5863   5864     1  0.0000000  0.6508444  3
   5862   5860   5863   5865     1  0.0000000  0.6508444  3
   5863   5866   5869   5891     1  0.0000000  0.6508444  3
   5864   5863   5866   5869     1  0.0000000  0.6508444  3
   5864   5863   5866   5867     1  0.0000000  0.6508444  3
   5864   5863   5866   5868     1  0.0000000  0.6508444  3
   5864   5863   5860   5890     1  0.0000000  1.0460000  1
   5864   5863   5860   5890     1  0.0000000  0.0000000  3
   5865   5863   5866   5869     1  0.0000000  0.6508444  3
   5865   5863   5866   5867     1  0.0000000  0.6508444  3
   5865   5863   5866   5868     1  0.0000000  0.6508444  3
   5865   5863   5860   5890     1  0.0000000  1.0460000  1
   5865   5863   5860   5890     1  0.0000000  0.0000000  3
   5866   5869   5870   5871     1  0.0000000  0.6508444  3
   5866   5869   5870   5872     1  0.0000000  0.6508444  3
   5866   5869   5880   5881     1  0.0000000  0.6508444  3
   5866   5869   5880   5882     1  0.0000000  0.6508444  3
   5867   5866   5869   5870     1  0.0000000  0.6508444  3
   5867   5866   5869   5880     1  0.0000000  0.6508444  3
   5867   5866   5869   5891     1  0.0000000  0.6508444  3
   5868   5866   5869   5870     1  0.0000000  0.6508444  3
   5868   5866   5869   5880     1  0.0000000  0.6508444  3
   5868   5866   5869   5891     1  0.0000000  0.6508444  3
   5869   5870   5873   5874     1  0.0000000  0.6508444  3
   5869   5870   5873   5875     1  0.0000000  0.6508444  3
   5869   5880   5883   5884     1  0.0000000  0.6508444  3
   5869   5880   5883   5885     1  0.0000000  0.6508444  3
   5870   5869   5880   5881     1  0.0000000  0.6508444  3
   5870   5869   5880   5882     1  0.0000000  0.6508444  3
   5871   5870   5873   5876     1  0.0000000  0.6508444  3
   5871   5870   5873   5874     1  0.0000000  0.6508444  3
   5871   5870   5873   5875     1  0.0000000  0.6508444  3
   5871   5870   5869   5880     1  0.0000000  0.6508444  3
   5871   5870   5869   5891     1  0.0000000  0.6508444  3
   5872   5870   5873   5876     1  0.0000000  0.6508444  3
   5872   5870   5873   5874     1  0.0000000  0.6508444  3
   5872   5870   5873   5875     1  0.0000000  0.6508444  3
   5872   5870   5869   5880     1  0.0000000  0.6508444  3
   5872   5870   5869   5891     1  0.0000000  0.6508444  3
   5873   5876   5878   5879     1  180.0000771  9.6232000  2
   5873   5870   5869   5891     1  0.0000000  0.6508444  3
   5874   5873   5876   5877     1  0.0000000  3.3472000  1
   5874   5873   5876   5877     1  0.0000000  0.0000000  2
   5874   5873   5876   5877     1  180.0000771  0.3347200  3
   5874   5873   5876   5878     1  180.0000771  0.0000000  2
   5875   5873   5876   5877     1  0.0000000  3.3472000  1
   5875   5873   5876   5877     1  0.0000000  0.0000000  2
   5875   5873   5876   5877     1  180.0000771  0.3347200  3
   5875   5873   5876   5878     1  180.0000771  0.0000000  2
   5877   5876   5878   5879     1  0.0000000  7.9496000  1
   5877   5876   5878   5879     1  180.0000771  9.6232000  2
   5881   5880   5883   5886     1  0.0000000  0.6508444  3
   5881   5880   5883   5884     1  0.0000000  0.6508444  3
   5881   5880   5883   5885     1  0.0000000  0.6508444  3
   5881   5880   5869   5891     1  0.0000000  0.6508444  3
   5882   5880   5883   5886     1  0.0000000  0.6508444  3
   5882   5880   5883   5884     1  0.0000000  0.6508444  3
   5882   5880   5883   5885     1  0.0000000  0.6508444  3
   5882   5880   5869   5891     1  0.0000000  0.6508444  3
   5883   5886   5888   5889     1  180.0000771  9.6232000  2
   5883   5880   5869   5891     1  0.0000000  0.6508444  3
   5884   5883   5886   5887     1  0.0000000  3.3472000  1
   5884   5883   5886   5887     1  0.0000000  0.0000000  2
   5884   5883   5886   5887     1  180.0000771  0.3347200  3
   5884   5883   5886   5888     1  180.0000771  0.0000000  2
   5885   5883   5886   5887     1  0.0000000  3.3472000  1
   5885   5883   5886   5887     1  0.0000000  0.0000000  2
   5885   5883   5886   5887     1  180.0000771  0.3347200  3
   5885   5883   5886   5888     1  180.0000771  0.0000000  2
   5887   5886   5888   5889     1  0.0000000  7.9496000  1
   5887   5886   5888   5889     1  180.0000771  9.6232000  2

;[ system ]
;; Name
;Generic title
;
;[ molecules ]
;; Compound       #mols
;system1              1
