;
;   File g2npncore_petim.itp  was generated
;   By user: sairam (1000)
;   On host: sairam
;   At date: Thu. August  4 11:04:28 2023
;
;   This is a standalone topology file
;
;   Created by:
;   ParmEd:       amb2gro_top_gro.py, VERSION 3.4.1
;   Executable:   amb2gro_top_gro.py
;   Library dir:  /usr/local/gromacs/share/gromacs/top
;   Command line:
;     ./amb2gro_top_gro.py -p g2npncore_petim.prmtop -c g2npncore_petim.inpcrd -t g2npncore_petim.itp -g g2npncore_petim.gro -b g2npncore_petim.pdb
;

;[ defaults ]
;; nbfunc        comb-rule       gen-pairs       fudgeLJ fudgeQQ
;1               2               yes             0.5          0.83333333  
;
;[ atomtypes ]
;; name    at.num    mass    charge ptype  sigma      epsilon
;n3             7  14.010000  0.00000000  A     0.32499985        0.71128
;c3             6  12.010000  0.00000000  A     0.33996695      0.4577296
;h1             1   1.008000  0.00000000  A      0.2471353      0.0656888
;hc             1   1.008000  0.00000000  A     0.26495328      0.0656888
;os             8  16.000000  0.00000000  A     0.30000123        0.71128
;hn             1   1.008000  0.00000000  A     0.10690785      0.0656888


[ moleculetype ]
; Name            nrexcl
g2npncore_petim       3

[ atoms ]
;   nr       type  resnr residue  atom   cgnr    charge       mass  typeB    chargeB      massB
; residue    1 aaa rtp aaa q 0.0
    1         n3      1    aaa     N1      1 -0.65416500  14.010000   ; qtot -0.654165
    2         c3      1    aaa     C1      2 0.05178400  12.010000   ; qtot -0.602381
    3         h1      1    aaa     H1      3 0.06475500   1.008000   ; qtot -0.537626
    4         h1      1    aaa     H2      4 0.06475500   1.008000   ; qtot -0.472871
    5         c3      1    aaa     C2      5 0.05178400  12.010000   ; qtot -0.421087
    6         h1      1    aaa     H3      6 0.06475500   1.008000   ; qtot -0.356332
    7         h1      1    aaa     H4      7 0.06475500   1.008000   ; qtot -0.291577
    8         c3      1    aaa     C3      8 0.05178400  12.010000   ; qtot -0.239793
    9         h1      1    aaa     H5      9 0.06475500   1.008000   ; qtot -0.175038
   10         h1      1    aaa     H6     10 0.06475500   1.008000   ; qtot -0.110283
   11         c3      1    aaa     C4     11 0.07871100  12.010000   ; qtot -0.031572
   12         hc      1    aaa     H7     12 0.08683700   1.008000   ; qtot 0.055265
   13         hc      1    aaa     H8     13 0.08683700   1.008000   ; qtot 0.142102
   14         c3      1    aaa     C5     14 0.07871100  12.010000   ; qtot 0.220813
   15         hc      1    aaa     H9     15 0.08683700   1.008000   ; qtot 0.307650
   16         hc      1    aaa    H10     16 0.08683700   1.008000   ; qtot 0.394487
   17         c3      1    aaa     C6     17 0.07871100  12.010000   ; qtot 0.473198
   18         hc      1    aaa    H11     18 0.08683700   1.008000   ; qtot 0.560035
   19         hc      1    aaa    H12     19 0.08683700   1.008000   ; qtot 0.646872
   20         c3      1    aaa     C7     20 -0.74941200  12.010000   ; qtot -0.102540
   21         h1      1    aaa    H13     21 0.26689400   1.008000   ; qtot 0.164354
   22         h1      1    aaa    H14     22 0.26689400   1.008000   ; qtot 0.431248
   23         c3      1    aaa     C8     23 -0.74941200  12.010000   ; qtot -0.318164
   24         h1      1    aaa    H15     24 0.26689400   1.008000   ; qtot -0.051270
   25         h1      1    aaa    H16     25 0.26689400   1.008000   ; qtot 0.215624
   26         c3      1    aaa     C9     26 -0.74941200  12.010000   ; qtot -0.533788
   27         h1      1    aaa    H17     27 0.26689400   1.008000   ; qtot -0.266894
   28         h1      1    aaa    H18     28 0.26689400   1.008000   ; qtot 0.000000
; residue    2 bbb rtp bbb q -0.0
   29         n3      2    bbb     N1     29 -0.59685800  14.010000   ; qtot -0.596858
   30         c3      2    bbb     C1     30 0.10137000  12.010000   ; qtot -0.495488
   31         h1      2    bbb     H1     31 0.04411300   1.008000   ; qtot -0.451375
   32         h1      2    bbb     H2     32 0.04411300   1.008000   ; qtot -0.407262
   33         c3      2    bbb     C2     33 0.10137000  12.010000   ; qtot -0.305892
   34         h1      2    bbb     H3     34 0.04411300   1.008000   ; qtot -0.261779
   35         h1      2    bbb     H4     35 0.04411300   1.008000   ; qtot -0.217666
   36         c3      2    bbb     C3     36 -0.00195300  12.010000   ; qtot -0.219619
   37         h1      2    bbb     H5     37 0.05064400   1.008000   ; qtot -0.168975
   38         h1      2    bbb     H6     38 0.05064400   1.008000   ; qtot -0.118331
   39         c3      2    bbb     C4     39 -0.01612100  12.010000   ; qtot -0.134452
   40         hc      2    bbb     H7     40 0.04936100   1.008000   ; qtot -0.085091
   41         hc      2    bbb     H8     41 0.04936100   1.008000   ; qtot -0.035730
   42         c3      2    bbb     C5     42 0.11363000  12.010000   ; qtot 0.077900
   43         hc      2    bbb     H9     43 0.06265900   1.008000   ; qtot 0.140559
   44         hc      2    bbb    H10     44 0.06265900   1.008000   ; qtot 0.203218
   45         c3      2    bbb     C6     45 0.11363000  12.010000   ; qtot 0.316848
   46         hc      2    bbb    H11     46 0.06265900   1.008000   ; qtot 0.379507
   47         hc      2    bbb    H12     47 0.06265900   1.008000   ; qtot 0.442166
   48         c3      2    bbb     C7     48 0.05858200  12.010000   ; qtot 0.500748
   49         h1      2    bbb    H13     49 0.06123400   1.008000   ; qtot 0.561982
   50         h1      2    bbb    H14     50 0.06123400   1.008000   ; qtot 0.623216
   51         c3      2    bbb     C8     51 -0.72423400  12.010000   ; qtot -0.101018
   52         h1      2    bbb    H15     52 0.25637600   1.008000   ; qtot 0.155358
   53         h1      2    bbb    H16     53 0.25637600   1.008000   ; qtot 0.411734
   54         c3      2    bbb     C9     54 -0.72423400  12.010000   ; qtot -0.312500
   55         h1      2    bbb    H17     55 0.25637600   1.008000   ; qtot -0.056124
   56         h1      2    bbb    H18     56 0.25637600   1.008000   ; qtot 0.200252
   57         os      2    bbb     O1     57 -0.20025300  16.000000   ; qtot -0.000001
; residue    3 bbb rtp bbb q -0.0
   58         n3      3    bbb     N1     58 -0.59685800  14.010000   ; qtot -0.596859
   59         c3      3    bbb     C1     59 0.10137000  12.010000   ; qtot -0.495489
   60         h1      3    bbb     H1     60 0.04411300   1.008000   ; qtot -0.451376
   61         h1      3    bbb     H2     61 0.04411300   1.008000   ; qtot -0.407263
   62         c3      3    bbb     C2     62 0.10137000  12.010000   ; qtot -0.305893
   63         h1      3    bbb     H3     63 0.04411300   1.008000   ; qtot -0.261780
   64         h1      3    bbb     H4     64 0.04411300   1.008000   ; qtot -0.217667
   65         c3      3    bbb     C3     65 -0.00195300  12.010000   ; qtot -0.219620
   66         h1      3    bbb     H5     66 0.05064400   1.008000   ; qtot -0.168976
   67         h1      3    bbb     H6     67 0.05064400   1.008000   ; qtot -0.118332
   68         c3      3    bbb     C4     68 -0.01612100  12.010000   ; qtot -0.134453
   69         hc      3    bbb     H7     69 0.04936100   1.008000   ; qtot -0.085092
   70         hc      3    bbb     H8     70 0.04936100   1.008000   ; qtot -0.035731
   71         c3      3    bbb     C5     71 0.11363000  12.010000   ; qtot 0.077899
   72         hc      3    bbb     H9     72 0.06265900   1.008000   ; qtot 0.140558
   73         hc      3    bbb    H10     73 0.06265900   1.008000   ; qtot 0.203217
   74         c3      3    bbb     C6     74 0.11363000  12.010000   ; qtot 0.316847
   75         hc      3    bbb    H11     75 0.06265900   1.008000   ; qtot 0.379506
   76         hc      3    bbb    H12     76 0.06265900   1.008000   ; qtot 0.442165
   77         c3      3    bbb     C7     77 0.05858200  12.010000   ; qtot 0.500747
   78         h1      3    bbb    H13     78 0.06123400   1.008000   ; qtot 0.561981
   79         h1      3    bbb    H14     79 0.06123400   1.008000   ; qtot 0.623215
   80         c3      3    bbb     C8     80 -0.72423400  12.010000   ; qtot -0.101019
   81         h1      3    bbb    H15     81 0.25637600   1.008000   ; qtot 0.155357
   82         h1      3    bbb    H16     82 0.25637600   1.008000   ; qtot 0.411733
   83         c3      3    bbb     C9     83 -0.72423400  12.010000   ; qtot -0.312501
   84         h1      3    bbb    H17     84 0.25637600   1.008000   ; qtot -0.056125
   85         h1      3    bbb    H18     85 0.25637600   1.008000   ; qtot 0.200251
   86         os      3    bbb     O1     86 -0.20025300  16.000000   ; qtot -0.000002
; residue    4 bbb rtp bbb q -0.0
   87         n3      4    bbb     N1     87 -0.59685800  14.010000   ; qtot -0.596860
   88         c3      4    bbb     C1     88 0.10137000  12.010000   ; qtot -0.495490
   89         h1      4    bbb     H1     89 0.04411300   1.008000   ; qtot -0.451377
   90         h1      4    bbb     H2     90 0.04411300   1.008000   ; qtot -0.407264
   91         c3      4    bbb     C2     91 0.10137000  12.010000   ; qtot -0.305894
   92         h1      4    bbb     H3     92 0.04411300   1.008000   ; qtot -0.261781
   93         h1      4    bbb     H4     93 0.04411300   1.008000   ; qtot -0.217668
   94         c3      4    bbb     C3     94 -0.00195300  12.010000   ; qtot -0.219621
   95         h1      4    bbb     H5     95 0.05064400   1.008000   ; qtot -0.168977
   96         h1      4    bbb     H6     96 0.05064400   1.008000   ; qtot -0.118333
   97         c3      4    bbb     C4     97 -0.01612100  12.010000   ; qtot -0.134454
   98         hc      4    bbb     H7     98 0.04936100   1.008000   ; qtot -0.085093
   99         hc      4    bbb     H8     99 0.04936100   1.008000   ; qtot -0.035732
  100         c3      4    bbb     C5    100 0.11363000  12.010000   ; qtot 0.077898
  101         hc      4    bbb     H9    101 0.06265900   1.008000   ; qtot 0.140557
  102         hc      4    bbb    H10    102 0.06265900   1.008000   ; qtot 0.203216
  103         c3      4    bbb     C6    103 0.11363000  12.010000   ; qtot 0.316846
  104         hc      4    bbb    H11    104 0.06265900   1.008000   ; qtot 0.379505
  105         hc      4    bbb    H12    105 0.06265900   1.008000   ; qtot 0.442164
  106         c3      4    bbb     C7    106 0.05858200  12.010000   ; qtot 0.500746
  107         h1      4    bbb    H13    107 0.06123400   1.008000   ; qtot 0.561980
  108         h1      4    bbb    H14    108 0.06123400   1.008000   ; qtot 0.623214
  109         c3      4    bbb     C8    109 -0.72423400  12.010000   ; qtot -0.101020
  110         h1      4    bbb    H15    110 0.25637600   1.008000   ; qtot 0.155356
  111         h1      4    bbb    H16    111 0.25637600   1.008000   ; qtot 0.411732
  112         c3      4    bbb     C9    112 -0.72423400  12.010000   ; qtot -0.312502
  113         h1      4    bbb    H17    113 0.25637600   1.008000   ; qtot -0.056126
  114         h1      4    bbb    H18    114 0.25637600   1.008000   ; qtot 0.200250
  115         os      4    bbb     O1    115 -0.20025300  16.000000   ; qtot -0.000003
; residue    5 bbb rtp bbb q -0.0
  116         n3      5    bbb     N1    116 -0.59685800  14.010000   ; qtot -0.596861
  117         c3      5    bbb     C1    117 0.10137000  12.010000   ; qtot -0.495491
  118         h1      5    bbb     H1    118 0.04411300   1.008000   ; qtot -0.451378
  119         h1      5    bbb     H2    119 0.04411300   1.008000   ; qtot -0.407265
  120         c3      5    bbb     C2    120 0.10137000  12.010000   ; qtot -0.305895
  121         h1      5    bbb     H3    121 0.04411300   1.008000   ; qtot -0.261782
  122         h1      5    bbb     H4    122 0.04411300   1.008000   ; qtot -0.217669
  123         c3      5    bbb     C3    123 -0.00195300  12.010000   ; qtot -0.219622
  124         h1      5    bbb     H5    124 0.05064400   1.008000   ; qtot -0.168978
  125         h1      5    bbb     H6    125 0.05064400   1.008000   ; qtot -0.118334
  126         c3      5    bbb     C4    126 -0.01612100  12.010000   ; qtot -0.134455
  127         hc      5    bbb     H7    127 0.04936100   1.008000   ; qtot -0.085094
  128         hc      5    bbb     H8    128 0.04936100   1.008000   ; qtot -0.035733
  129         c3      5    bbb     C5    129 0.11363000  12.010000   ; qtot 0.077897
  130         hc      5    bbb     H9    130 0.06265900   1.008000   ; qtot 0.140556
  131         hc      5    bbb    H10    131 0.06265900   1.008000   ; qtot 0.203215
  132         c3      5    bbb     C6    132 0.11363000  12.010000   ; qtot 0.316845
  133         hc      5    bbb    H11    133 0.06265900   1.008000   ; qtot 0.379504
  134         hc      5    bbb    H12    134 0.06265900   1.008000   ; qtot 0.442163
  135         c3      5    bbb     C7    135 0.05858200  12.010000   ; qtot 0.500745
  136         h1      5    bbb    H13    136 0.06123400   1.008000   ; qtot 0.561979
  137         h1      5    bbb    H14    137 0.06123400   1.008000   ; qtot 0.623213
  138         c3      5    bbb     C8    138 -0.72423400  12.010000   ; qtot -0.101021
  139         h1      5    bbb    H15    139 0.25637600   1.008000   ; qtot 0.155355
  140         h1      5    bbb    H16    140 0.25637600   1.008000   ; qtot 0.411731
  141         c3      5    bbb     C9    141 -0.72423400  12.010000   ; qtot -0.312503
  142         h1      5    bbb    H17    142 0.25637600   1.008000   ; qtot -0.056127
  143         h1      5    bbb    H18    143 0.25637600   1.008000   ; qtot 0.200249
  144         os      5    bbb     O1    144 -0.20025300  16.000000   ; qtot -0.000004
; residue    6 bbb rtp bbb q -0.0
  145         n3      6    bbb     N1    145 -0.59685800  14.010000   ; qtot -0.596862
  146         c3      6    bbb     C1    146 0.10137000  12.010000   ; qtot -0.495492
  147         h1      6    bbb     H1    147 0.04411300   1.008000   ; qtot -0.451379
  148         h1      6    bbb     H2    148 0.04411300   1.008000   ; qtot -0.407266
  149         c3      6    bbb     C2    149 0.10137000  12.010000   ; qtot -0.305896
  150         h1      6    bbb     H3    150 0.04411300   1.008000   ; qtot -0.261783
  151         h1      6    bbb     H4    151 0.04411300   1.008000   ; qtot -0.217670
  152         c3      6    bbb     C3    152 -0.00195300  12.010000   ; qtot -0.219623
  153         h1      6    bbb     H5    153 0.05064400   1.008000   ; qtot -0.168979
  154         h1      6    bbb     H6    154 0.05064400   1.008000   ; qtot -0.118335
  155         c3      6    bbb     C4    155 -0.01612100  12.010000   ; qtot -0.134456
  156         hc      6    bbb     H7    156 0.04936100   1.008000   ; qtot -0.085095
  157         hc      6    bbb     H8    157 0.04936100   1.008000   ; qtot -0.035734
  158         c3      6    bbb     C5    158 0.11363000  12.010000   ; qtot 0.077896
  159         hc      6    bbb     H9    159 0.06265900   1.008000   ; qtot 0.140555
  160         hc      6    bbb    H10    160 0.06265900   1.008000   ; qtot 0.203214
  161         c3      6    bbb     C6    161 0.11363000  12.010000   ; qtot 0.316844
  162         hc      6    bbb    H11    162 0.06265900   1.008000   ; qtot 0.379503
  163         hc      6    bbb    H12    163 0.06265900   1.008000   ; qtot 0.442162
  164         c3      6    bbb     C7    164 0.05858200  12.010000   ; qtot 0.500744
  165         h1      6    bbb    H13    165 0.06123400   1.008000   ; qtot 0.561978
  166         h1      6    bbb    H14    166 0.06123400   1.008000   ; qtot 0.623212
  167         c3      6    bbb     C8    167 -0.72423400  12.010000   ; qtot -0.101022
  168         h1      6    bbb    H15    168 0.25637600   1.008000   ; qtot 0.155354
  169         h1      6    bbb    H16    169 0.25637600   1.008000   ; qtot 0.411730
  170         c3      6    bbb     C9    170 -0.72423400  12.010000   ; qtot -0.312504
  171         h1      6    bbb    H17    171 0.25637600   1.008000   ; qtot -0.056128
  172         h1      6    bbb    H18    172 0.25637600   1.008000   ; qtot 0.200248
  173         os      6    bbb     O1    173 -0.20025300  16.000000   ; qtot -0.000005
; residue    7 bbb rtp bbb q -0.0
  174         n3      7    bbb     N1    174 -0.59685800  14.010000   ; qtot -0.596863
  175         c3      7    bbb     C1    175 0.10137000  12.010000   ; qtot -0.495493
  176         h1      7    bbb     H1    176 0.04411300   1.008000   ; qtot -0.451380
  177         h1      7    bbb     H2    177 0.04411300   1.008000   ; qtot -0.407267
  178         c3      7    bbb     C2    178 0.10137000  12.010000   ; qtot -0.305897
  179         h1      7    bbb     H3    179 0.04411300   1.008000   ; qtot -0.261784
  180         h1      7    bbb     H4    180 0.04411300   1.008000   ; qtot -0.217671
  181         c3      7    bbb     C3    181 -0.00195300  12.010000   ; qtot -0.219624
  182         h1      7    bbb     H5    182 0.05064400   1.008000   ; qtot -0.168980
  183         h1      7    bbb     H6    183 0.05064400   1.008000   ; qtot -0.118336
  184         c3      7    bbb     C4    184 -0.01612100  12.010000   ; qtot -0.134457
  185         hc      7    bbb     H7    185 0.04936100   1.008000   ; qtot -0.085096
  186         hc      7    bbb     H8    186 0.04936100   1.008000   ; qtot -0.035735
  187         c3      7    bbb     C5    187 0.11363000  12.010000   ; qtot 0.077895
  188         hc      7    bbb     H9    188 0.06265900   1.008000   ; qtot 0.140554
  189         hc      7    bbb    H10    189 0.06265900   1.008000   ; qtot 0.203213
  190         c3      7    bbb     C6    190 0.11363000  12.010000   ; qtot 0.316843
  191         hc      7    bbb    H11    191 0.06265900   1.008000   ; qtot 0.379502
  192         hc      7    bbb    H12    192 0.06265900   1.008000   ; qtot 0.442161
  193         c3      7    bbb     C7    193 0.05858200  12.010000   ; qtot 0.500743
  194         h1      7    bbb    H13    194 0.06123400   1.008000   ; qtot 0.561977
  195         h1      7    bbb    H14    195 0.06123400   1.008000   ; qtot 0.623211
  196         c3      7    bbb     C8    196 -0.72423400  12.010000   ; qtot -0.101023
  197         h1      7    bbb    H15    197 0.25637600   1.008000   ; qtot 0.155353
  198         h1      7    bbb    H16    198 0.25637600   1.008000   ; qtot 0.411729
  199         c3      7    bbb     C9    199 -0.72423400  12.010000   ; qtot -0.312505
  200         h1      7    bbb    H17    200 0.25637600   1.008000   ; qtot -0.056129
  201         h1      7    bbb    H18    201 0.25637600   1.008000   ; qtot 0.200247
  202         os      7    bbb     O1    202 -0.20025300  16.000000   ; qtot -0.000006
; residue    8 bbb rtp bbb q -0.0
  203         n3      8    bbb     N1    203 -0.59685800  14.010000   ; qtot -0.596864
  204         c3      8    bbb     C1    204 0.10137000  12.010000   ; qtot -0.495494
  205         h1      8    bbb     H1    205 0.04411300   1.008000   ; qtot -0.451381
  206         h1      8    bbb     H2    206 0.04411300   1.008000   ; qtot -0.407268
  207         c3      8    bbb     C2    207 0.10137000  12.010000   ; qtot -0.305898
  208         h1      8    bbb     H3    208 0.04411300   1.008000   ; qtot -0.261785
  209         h1      8    bbb     H4    209 0.04411300   1.008000   ; qtot -0.217672
  210         c3      8    bbb     C3    210 -0.00195300  12.010000   ; qtot -0.219625
  211         h1      8    bbb     H5    211 0.05064400   1.008000   ; qtot -0.168981
  212         h1      8    bbb     H6    212 0.05064400   1.008000   ; qtot -0.118337
  213         c3      8    bbb     C4    213 -0.01612100  12.010000   ; qtot -0.134458
  214         hc      8    bbb     H7    214 0.04936100   1.008000   ; qtot -0.085097
  215         hc      8    bbb     H8    215 0.04936100   1.008000   ; qtot -0.035736
  216         c3      8    bbb     C5    216 0.11363000  12.010000   ; qtot 0.077894
  217         hc      8    bbb     H9    217 0.06265900   1.008000   ; qtot 0.140553
  218         hc      8    bbb    H10    218 0.06265900   1.008000   ; qtot 0.203212
  219         c3      8    bbb     C6    219 0.11363000  12.010000   ; qtot 0.316842
  220         hc      8    bbb    H11    220 0.06265900   1.008000   ; qtot 0.379501
  221         hc      8    bbb    H12    221 0.06265900   1.008000   ; qtot 0.442160
  222         c3      8    bbb     C7    222 0.05858200  12.010000   ; qtot 0.500742
  223         h1      8    bbb    H13    223 0.06123400   1.008000   ; qtot 0.561976
  224         h1      8    bbb    H14    224 0.06123400   1.008000   ; qtot 0.623210
  225         c3      8    bbb     C8    225 -0.72423400  12.010000   ; qtot -0.101024
  226         h1      8    bbb    H15    226 0.25637600   1.008000   ; qtot 0.155352
  227         h1      8    bbb    H16    227 0.25637600   1.008000   ; qtot 0.411728
  228         c3      8    bbb     C9    228 -0.72423400  12.010000   ; qtot -0.312506
  229         h1      8    bbb    H17    229 0.25637600   1.008000   ; qtot -0.056130
  230         h1      8    bbb    H18    230 0.25637600   1.008000   ; qtot 0.200246
  231         os      8    bbb     O1    231 -0.20025300  16.000000   ; qtot -0.000007
; residue    9 bbb rtp bbb q -0.0
  232         n3      9    bbb     N1    232 -0.59685800  14.010000   ; qtot -0.596865
  233         c3      9    bbb     C1    233 0.10137000  12.010000   ; qtot -0.495495
  234         h1      9    bbb     H1    234 0.04411300   1.008000   ; qtot -0.451382
  235         h1      9    bbb     H2    235 0.04411300   1.008000   ; qtot -0.407269
  236         c3      9    bbb     C2    236 0.10137000  12.010000   ; qtot -0.305899
  237         h1      9    bbb     H3    237 0.04411300   1.008000   ; qtot -0.261786
  238         h1      9    bbb     H4    238 0.04411300   1.008000   ; qtot -0.217673
  239         c3      9    bbb     C3    239 -0.00195300  12.010000   ; qtot -0.219626
  240         h1      9    bbb     H5    240 0.05064400   1.008000   ; qtot -0.168982
  241         h1      9    bbb     H6    241 0.05064400   1.008000   ; qtot -0.118338
  242         c3      9    bbb     C4    242 -0.01612100  12.010000   ; qtot -0.134459
  243         hc      9    bbb     H7    243 0.04936100   1.008000   ; qtot -0.085098
  244         hc      9    bbb     H8    244 0.04936100   1.008000   ; qtot -0.035737
  245         c3      9    bbb     C5    245 0.11363000  12.010000   ; qtot 0.077893
  246         hc      9    bbb     H9    246 0.06265900   1.008000   ; qtot 0.140552
  247         hc      9    bbb    H10    247 0.06265900   1.008000   ; qtot 0.203211
  248         c3      9    bbb     C6    248 0.11363000  12.010000   ; qtot 0.316841
  249         hc      9    bbb    H11    249 0.06265900   1.008000   ; qtot 0.379500
  250         hc      9    bbb    H12    250 0.06265900   1.008000   ; qtot 0.442159
  251         c3      9    bbb     C7    251 0.05858200  12.010000   ; qtot 0.500741
  252         h1      9    bbb    H13    252 0.06123400   1.008000   ; qtot 0.561975
  253         h1      9    bbb    H14    253 0.06123400   1.008000   ; qtot 0.623209
  254         c3      9    bbb     C8    254 -0.72423400  12.010000   ; qtot -0.101025
  255         h1      9    bbb    H15    255 0.25637600   1.008000   ; qtot 0.155351
  256         h1      9    bbb    H16    256 0.25637600   1.008000   ; qtot 0.411727
  257         c3      9    bbb     C9    257 -0.72423400  12.010000   ; qtot -0.312507
  258         h1      9    bbb    H17    258 0.25637600   1.008000   ; qtot -0.056131
  259         h1      9    bbb    H18    259 0.25637600   1.008000   ; qtot 0.200245
  260         os      9    bbb     O1    260 -0.20025300  16.000000   ; qtot -0.000008
; residue   10 bbb rtp bbb q -0.0
  261         n3     10    bbb     N1    261 -0.59685800  14.010000   ; qtot -0.596866
  262         c3     10    bbb     C1    262 0.10137000  12.010000   ; qtot -0.495496
  263         h1     10    bbb     H1    263 0.04411300   1.008000   ; qtot -0.451383
  264         h1     10    bbb     H2    264 0.04411300   1.008000   ; qtot -0.407270
  265         c3     10    bbb     C2    265 0.10137000  12.010000   ; qtot -0.305900
  266         h1     10    bbb     H3    266 0.04411300   1.008000   ; qtot -0.261787
  267         h1     10    bbb     H4    267 0.04411300   1.008000   ; qtot -0.217674
  268         c3     10    bbb     C3    268 -0.00195300  12.010000   ; qtot -0.219627
  269         h1     10    bbb     H5    269 0.05064400   1.008000   ; qtot -0.168983
  270         h1     10    bbb     H6    270 0.05064400   1.008000   ; qtot -0.118339
  271         c3     10    bbb     C4    271 -0.01612100  12.010000   ; qtot -0.134460
  272         hc     10    bbb     H7    272 0.04936100   1.008000   ; qtot -0.085099
  273         hc     10    bbb     H8    273 0.04936100   1.008000   ; qtot -0.035738
  274         c3     10    bbb     C5    274 0.11363000  12.010000   ; qtot 0.077892
  275         hc     10    bbb     H9    275 0.06265900   1.008000   ; qtot 0.140551
  276         hc     10    bbb    H10    276 0.06265900   1.008000   ; qtot 0.203210
  277         c3     10    bbb     C6    277 0.11363000  12.010000   ; qtot 0.316840
  278         hc     10    bbb    H11    278 0.06265900   1.008000   ; qtot 0.379499
  279         hc     10    bbb    H12    279 0.06265900   1.008000   ; qtot 0.442158
  280         c3     10    bbb     C7    280 0.05858200  12.010000   ; qtot 0.500740
  281         h1     10    bbb    H13    281 0.06123400   1.008000   ; qtot 0.561974
  282         h1     10    bbb    H14    282 0.06123400   1.008000   ; qtot 0.623208
  283         c3     10    bbb     C8    283 -0.72423400  12.010000   ; qtot -0.101026
  284         h1     10    bbb    H15    284 0.25637600   1.008000   ; qtot 0.155350
  285         h1     10    bbb    H16    285 0.25637600   1.008000   ; qtot 0.411726
  286         c3     10    bbb     C9    286 -0.72423400  12.010000   ; qtot -0.312508
  287         h1     10    bbb    H17    287 0.25637600   1.008000   ; qtot -0.056132
  288         h1     10    bbb    H18    288 0.25637600   1.008000   ; qtot 0.200244
  289         os     10    bbb     O1    289 -0.20025300  16.000000   ; qtot -0.000009
; residue   11 ccc rtp ccc q -0.0
  290         c3     11    ccc     C1    290 0.60214900  12.010000   ; qtot 0.602140
  291         h1     11    ccc     H1    291 -0.09246700   1.008000   ; qtot 0.509673
  292         h1     11    ccc     H2    292 -0.09246700   1.008000   ; qtot 0.417206
  293         c3     11    ccc     C2    293 -0.02543800  12.010000   ; qtot 0.391768
  294         hc     11    ccc     H3    294 0.00853100   1.008000   ; qtot 0.400299
  295         hc     11    ccc     H4    295 0.00853100   1.008000   ; qtot 0.408830
  296         c3     11    ccc     C3    296 -0.04070000  12.010000   ; qtot 0.368130
  297         h1     11    ccc     H5    297 0.04605500   1.008000   ; qtot 0.414185
  298         h1     11    ccc     H6    298 0.04605500   1.008000   ; qtot 0.460240
  299         n3     11    ccc     N1    299 -1.11801800  14.010000   ; qtot -0.657778
  300         hn     11    ccc     H7    300 0.38419200   1.008000   ; qtot -0.273586
  301         hn     11    ccc     H8    301 0.38419200   1.008000   ; qtot 0.110606
  302         os     11    ccc     O1    302 -0.11061500  16.000000   ; qtot -0.000009
; residue   12 ccc rtp ccc q -0.0
  303         c3     12    ccc     C1    303 0.60214900  12.010000   ; qtot 0.602140
  304         h1     12    ccc     H1    304 -0.09246700   1.008000   ; qtot 0.509673
  305         h1     12    ccc     H2    305 -0.09246700   1.008000   ; qtot 0.417206
  306         c3     12    ccc     C2    306 -0.02543800  12.010000   ; qtot 0.391768
  307         hc     12    ccc     H3    307 0.00853100   1.008000   ; qtot 0.400299
  308         hc     12    ccc     H4    308 0.00853100   1.008000   ; qtot 0.408830
  309         c3     12    ccc     C3    309 -0.04070000  12.010000   ; qtot 0.368130
  310         h1     12    ccc     H5    310 0.04605500   1.008000   ; qtot 0.414185
  311         h1     12    ccc     H6    311 0.04605500   1.008000   ; qtot 0.460240
  312         n3     12    ccc     N1    312 -1.11801800  14.010000   ; qtot -0.657778
  313         hn     12    ccc     H7    313 0.38419200   1.008000   ; qtot -0.273586
  314         hn     12    ccc     H8    314 0.38419200   1.008000   ; qtot 0.110606
  315         os     12    ccc     O1    315 -0.11061500  16.000000   ; qtot -0.000009
; residue   13 ccc rtp ccc q -0.0
  316         c3     13    ccc     C1    316 0.60214900  12.010000   ; qtot 0.602140
  317         h1     13    ccc     H1    317 -0.09246700   1.008000   ; qtot 0.509673
  318         h1     13    ccc     H2    318 -0.09246700   1.008000   ; qtot 0.417206
  319         c3     13    ccc     C2    319 -0.02543800  12.010000   ; qtot 0.391768
  320         hc     13    ccc     H3    320 0.00853100   1.008000   ; qtot 0.400299
  321         hc     13    ccc     H4    321 0.00853100   1.008000   ; qtot 0.408830
  322         c3     13    ccc     C3    322 -0.04070000  12.010000   ; qtot 0.368130
  323         h1     13    ccc     H5    323 0.04605500   1.008000   ; qtot 0.414185
  324         h1     13    ccc     H6    324 0.04605500   1.008000   ; qtot 0.460240
  325         n3     13    ccc     N1    325 -1.11801800  14.010000   ; qtot -0.657778
  326         hn     13    ccc     H7    326 0.38419200   1.008000   ; qtot -0.273586
  327         hn     13    ccc     H8    327 0.38419200   1.008000   ; qtot 0.110606
  328         os     13    ccc     O1    328 -0.11061500  16.000000   ; qtot -0.000009
; residue   14 ccc rtp ccc q -0.0
  329         c3     14    ccc     C1    329 0.60214900  12.010000   ; qtot 0.602140
  330         h1     14    ccc     H1    330 -0.09246700   1.008000   ; qtot 0.509673
  331         h1     14    ccc     H2    331 -0.09246700   1.008000   ; qtot 0.417206
  332         c3     14    ccc     C2    332 -0.02543800  12.010000   ; qtot 0.391768
  333         hc     14    ccc     H3    333 0.00853100   1.008000   ; qtot 0.400299
  334         hc     14    ccc     H4    334 0.00853100   1.008000   ; qtot 0.408830
  335         c3     14    ccc     C3    335 -0.04070000  12.010000   ; qtot 0.368130
  336         h1     14    ccc     H5    336 0.04605500   1.008000   ; qtot 0.414185
  337         h1     14    ccc     H6    337 0.04605500   1.008000   ; qtot 0.460240
  338         n3     14    ccc     N1    338 -1.11801800  14.010000   ; qtot -0.657778
  339         hn     14    ccc     H7    339 0.38419200   1.008000   ; qtot -0.273586
  340         hn     14    ccc     H8    340 0.38419200   1.008000   ; qtot 0.110606
  341         os     14    ccc     O1    341 -0.11061500  16.000000   ; qtot -0.000009
; residue   15 ccc rtp ccc q -0.0
  342         c3     15    ccc     C1    342 0.60214900  12.010000   ; qtot 0.602140
  343         h1     15    ccc     H1    343 -0.09246700   1.008000   ; qtot 0.509673
  344         h1     15    ccc     H2    344 -0.09246700   1.008000   ; qtot 0.417206
  345         c3     15    ccc     C2    345 -0.02543800  12.010000   ; qtot 0.391768
  346         hc     15    ccc     H3    346 0.00853100   1.008000   ; qtot 0.400299
  347         hc     15    ccc     H4    347 0.00853100   1.008000   ; qtot 0.408830
  348         c3     15    ccc     C3    348 -0.04070000  12.010000   ; qtot 0.368130
  349         h1     15    ccc     H5    349 0.04605500   1.008000   ; qtot 0.414185
  350         h1     15    ccc     H6    350 0.04605500   1.008000   ; qtot 0.460240
  351         n3     15    ccc     N1    351 -1.11801800  14.010000   ; qtot -0.657778
  352         hn     15    ccc     H7    352 0.38419200   1.008000   ; qtot -0.273586
  353         hn     15    ccc     H8    353 0.38419200   1.008000   ; qtot 0.110606
  354         os     15    ccc     O1    354 -0.11061500  16.000000   ; qtot -0.000009
; residue   16 ccc rtp ccc q -0.0
  355         c3     16    ccc     C1    355 0.60214900  12.010000   ; qtot 0.602140
  356         h1     16    ccc     H1    356 -0.09246700   1.008000   ; qtot 0.509673
  357         h1     16    ccc     H2    357 -0.09246700   1.008000   ; qtot 0.417206
  358         c3     16    ccc     C2    358 -0.02543800  12.010000   ; qtot 0.391768
  359         hc     16    ccc     H3    359 0.00853100   1.008000   ; qtot 0.400299
  360         hc     16    ccc     H4    360 0.00853100   1.008000   ; qtot 0.408830
  361         c3     16    ccc     C3    361 -0.04070000  12.010000   ; qtot 0.368130
  362         h1     16    ccc     H5    362 0.04605500   1.008000   ; qtot 0.414185
  363         h1     16    ccc     H6    363 0.04605500   1.008000   ; qtot 0.460240
  364         n3     16    ccc     N1    364 -1.11801800  14.010000   ; qtot -0.657778
  365         hn     16    ccc     H7    365 0.38419200   1.008000   ; qtot -0.273586
  366         hn     16    ccc     H8    366 0.38419200   1.008000   ; qtot 0.110606
  367         os     16    ccc     O1    367 -0.11061500  16.000000   ; qtot -0.000009
; residue   17 ccc rtp ccc q -0.0
  368         c3     17    ccc     C1    368 0.60214900  12.010000   ; qtot 0.602140
  369         h1     17    ccc     H1    369 -0.09246700   1.008000   ; qtot 0.509673
  370         h1     17    ccc     H2    370 -0.09246700   1.008000   ; qtot 0.417206
  371         c3     17    ccc     C2    371 -0.02543800  12.010000   ; qtot 0.391768
  372         hc     17    ccc     H3    372 0.00853100   1.008000   ; qtot 0.400299
  373         hc     17    ccc     H4    373 0.00853100   1.008000   ; qtot 0.408830
  374         c3     17    ccc     C3    374 -0.04070000  12.010000   ; qtot 0.368130
  375         h1     17    ccc     H5    375 0.04605500   1.008000   ; qtot 0.414185
  376         h1     17    ccc     H6    376 0.04605500   1.008000   ; qtot 0.460240
  377         n3     17    ccc     N1    377 -1.11801800  14.010000   ; qtot -0.657778
  378         hn     17    ccc     H7    378 0.38419200   1.008000   ; qtot -0.273586
  379         hn     17    ccc     H8    379 0.38419200   1.008000   ; qtot 0.110606
  380         os     17    ccc     O1    380 -0.11061500  16.000000   ; qtot -0.000009
; residue   18 ccc rtp ccc q -0.0
  381         c3     18    ccc     C1    381 0.60214900  12.010000   ; qtot 0.602140
  382         h1     18    ccc     H1    382 -0.09246700   1.008000   ; qtot 0.509673
  383         h1     18    ccc     H2    383 -0.09246700   1.008000   ; qtot 0.417206
  384         c3     18    ccc     C2    384 -0.02543800  12.010000   ; qtot 0.391768
  385         hc     18    ccc     H3    385 0.00853100   1.008000   ; qtot 0.400299
  386         hc     18    ccc     H4    386 0.00853100   1.008000   ; qtot 0.408830
  387         c3     18    ccc     C3    387 -0.04070000  12.010000   ; qtot 0.368130
  388         h1     18    ccc     H5    388 0.04605500   1.008000   ; qtot 0.414185
  389         h1     18    ccc     H6    389 0.04605500   1.008000   ; qtot 0.460240
  390         n3     18    ccc     N1    390 -1.11801800  14.010000   ; qtot -0.657778
  391         hn     18    ccc     H7    391 0.38419200   1.008000   ; qtot -0.273586
  392         hn     18    ccc     H8    392 0.38419200   1.008000   ; qtot 0.110606
  393         os     18    ccc     O1    393 -0.11061500  16.000000   ; qtot -0.000009
; residue   19 ccc rtp ccc q -0.0
  394         c3     19    ccc     C1    394 0.60214900  12.010000   ; qtot 0.602140
  395         h1     19    ccc     H1    395 -0.09246700   1.008000   ; qtot 0.509673
  396         h1     19    ccc     H2    396 -0.09246700   1.008000   ; qtot 0.417206
  397         c3     19    ccc     C2    397 -0.02543800  12.010000   ; qtot 0.391768
  398         hc     19    ccc     H3    398 0.00853100   1.008000   ; qtot 0.400299
  399         hc     19    ccc     H4    399 0.00853100   1.008000   ; qtot 0.408830
  400         c3     19    ccc     C3    400 -0.04070000  12.010000   ; qtot 0.368130
  401         h1     19    ccc     H5    401 0.04605500   1.008000   ; qtot 0.414185
  402         h1     19    ccc     H6    402 0.04605500   1.008000   ; qtot 0.460240
  403         n3     19    ccc     N1    403 -1.11801800  14.010000   ; qtot -0.657778
  404         hn     19    ccc     H7    404 0.38419200   1.008000   ; qtot -0.273586
  405         hn     19    ccc     H8    405 0.38419200   1.008000   ; qtot 0.110606
  406         os     19    ccc     O1    406 -0.11061500  16.000000   ; qtot -0.000009
; residue   20 ccc rtp ccc q -0.0
  407         c3     20    ccc     C1    407 0.60214900  12.010000   ; qtot 0.602140
  408         h1     20    ccc     H1    408 -0.09246700   1.008000   ; qtot 0.509673
  409         h1     20    ccc     H2    409 -0.09246700   1.008000   ; qtot 0.417206
  410         c3     20    ccc     C2    410 -0.02543800  12.010000   ; qtot 0.391768
  411         hc     20    ccc     H3    411 0.00853100   1.008000   ; qtot 0.400299
  412         hc     20    ccc     H4    412 0.00853100   1.008000   ; qtot 0.408830
  413         c3     20    ccc     C3    413 -0.04070000  12.010000   ; qtot 0.368130
  414         h1     20    ccc     H5    414 0.04605500   1.008000   ; qtot 0.414185
  415         h1     20    ccc     H6    415 0.04605500   1.008000   ; qtot 0.460240
  416         n3     20    ccc     N1    416 -1.11801800  14.010000   ; qtot -0.657778
  417         hn     20    ccc     H7    417 0.38419200   1.008000   ; qtot -0.273586
  418         hn     20    ccc     H8    418 0.38419200   1.008000   ; qtot 0.110606
  419         os     20    ccc     O1    419 -0.11061500  16.000000   ; qtot -0.000009
; residue   21 ccc rtp ccc q -0.0
  420         c3     21    ccc     C1    420 0.60214900  12.010000   ; qtot 0.602140
  421         h1     21    ccc     H1    421 -0.09246700   1.008000   ; qtot 0.509673
  422         h1     21    ccc     H2    422 -0.09246700   1.008000   ; qtot 0.417206
  423         c3     21    ccc     C2    423 -0.02543800  12.010000   ; qtot 0.391768
  424         hc     21    ccc     H3    424 0.00853100   1.008000   ; qtot 0.400299
  425         hc     21    ccc     H4    425 0.00853100   1.008000   ; qtot 0.408830
  426         c3     21    ccc     C3    426 -0.04070000  12.010000   ; qtot 0.368130
  427         h1     21    ccc     H5    427 0.04605500   1.008000   ; qtot 0.414185
  428         h1     21    ccc     H6    428 0.04605500   1.008000   ; qtot 0.460240
  429         n3     21    ccc     N1    429 -1.11801800  14.010000   ; qtot -0.657778
  430         hn     21    ccc     H7    430 0.38419200   1.008000   ; qtot -0.273586
  431         hn     21    ccc     H8    431 0.38419200   1.008000   ; qtot 0.110606
  432         os     21    ccc     O1    432 -0.11061500  16.000000   ; qtot -0.000009
; residue   22 ccc rtp ccc q -0.0
  433         c3     22    ccc     C1    433 0.60214900  12.010000   ; qtot 0.602140
  434         h1     22    ccc     H1    434 -0.09246700   1.008000   ; qtot 0.509673
  435         h1     22    ccc     H2    435 -0.09246700   1.008000   ; qtot 0.417206
  436         c3     22    ccc     C2    436 -0.02543800  12.010000   ; qtot 0.391768
  437         hc     22    ccc     H3    437 0.00853100   1.008000   ; qtot 0.400299
  438         hc     22    ccc     H4    438 0.00853100   1.008000   ; qtot 0.408830
  439         c3     22    ccc     C3    439 -0.04070000  12.010000   ; qtot 0.368130
  440         h1     22    ccc     H5    440 0.04605500   1.008000   ; qtot 0.414185
  441         h1     22    ccc     H6    441 0.04605500   1.008000   ; qtot 0.460240
  442         n3     22    ccc     N1    442 -1.11801800  14.010000   ; qtot -0.657778
  443         hn     22    ccc     H7    443 0.38419200   1.008000   ; qtot -0.273586
  444         hn     22    ccc     H8    444 0.38419200   1.008000   ; qtot 0.110606
  445         os     22    ccc     O1    445 -0.11061500  16.000000   ; qtot -0.000009

[ bonds ]
;    ai     aj funct         c0         c1         c2         c3
      1      2     1   0.14647 272713.120000
      1      5     1   0.14647 272713.120000
      1      8     1   0.14647 272713.120000
      2     14     1   0.15375 251793.120000
      5     17     1   0.15375 251793.120000
      8     11     1   0.15375 251793.120000
     11     23     1   0.15375 251793.120000
     14     26     1   0.15375 251793.120000
     17     20     1   0.15375 251793.120000
     20     57     1   0.14316 258236.480000
     23     86     1   0.14316 258236.480000
     26    115     1   0.14316 258236.480000
     29     30     1   0.14647 272713.120000
     29     33     1   0.14647 272713.120000
     29     36     1   0.14647 272713.120000
     30     42     1   0.15375 251793.120000
     33     45     1   0.15375 251793.120000
     36     39     1   0.15375 251793.120000
     39     48     1   0.15375 251793.120000
     42     54     1   0.15375 251793.120000
     45     51     1   0.15375 251793.120000
     48     57     1   0.14316 258236.480000
     51    144     1   0.14316 258236.480000
     54    173     1   0.14316 258236.480000
     58     59     1   0.14647 272713.120000
     58     62     1   0.14647 272713.120000
     58     65     1   0.14647 272713.120000
     59     71     1   0.15375 251793.120000
     62     74     1   0.15375 251793.120000
     65     68     1   0.15375 251793.120000
     68     77     1   0.15375 251793.120000
     71     83     1   0.15375 251793.120000
     74     80     1   0.15375 251793.120000
     77     86     1   0.14316 258236.480000
     80    202     1   0.14316 258236.480000
     83    231     1   0.14316 258236.480000
     87     88     1   0.14647 272713.120000
     87     91     1   0.14647 272713.120000
     87     94     1   0.14647 272713.120000
     88    100     1   0.15375 251793.120000
     91    103     1   0.15375 251793.120000
     94     97     1   0.15375 251793.120000
     97    106     1   0.15375 251793.120000
    100    112     1   0.15375 251793.120000
    103    109     1   0.15375 251793.120000
    106    115     1   0.14316 258236.480000
    109    260     1   0.14316 258236.480000
    112    289     1   0.14316 258236.480000
    116    117     1   0.14647 272713.120000
    116    120     1   0.14647 272713.120000
    116    123     1   0.14647 272713.120000
    117    129     1   0.15375 251793.120000
    120    132     1   0.15375 251793.120000
    123    126     1   0.15375 251793.120000
    126    135     1   0.15375 251793.120000
    129    141     1   0.15375 251793.120000
    132    138     1   0.15375 251793.120000
    135    144     1   0.14316 258236.480000
    138    302     1   0.14316 258236.480000
    141    315     1   0.14316 258236.480000
    145    146     1   0.14647 272713.120000
    145    149     1   0.14647 272713.120000
    145    152     1   0.14647 272713.120000
    146    158     1   0.15375 251793.120000
    149    161     1   0.15375 251793.120000
    152    155     1   0.15375 251793.120000
    155    164     1   0.15375 251793.120000
    158    170     1   0.15375 251793.120000
    161    167     1   0.15375 251793.120000
    164    173     1   0.14316 258236.480000
    167    328     1   0.14316 258236.480000
    170    341     1   0.14316 258236.480000
    174    175     1   0.14647 272713.120000
    174    178     1   0.14647 272713.120000
    174    181     1   0.14647 272713.120000
    175    187     1   0.15375 251793.120000
    178    190     1   0.15375 251793.120000
    181    184     1   0.15375 251793.120000
    184    193     1   0.15375 251793.120000
    187    199     1   0.15375 251793.120000
    190    196     1   0.15375 251793.120000
    193    202     1   0.14316 258236.480000
    196    354     1   0.14316 258236.480000
    199    367     1   0.14316 258236.480000
    203    204     1   0.14647 272713.120000
    203    207     1   0.14647 272713.120000
    203    210     1   0.14647 272713.120000
    204    216     1   0.15375 251793.120000
    207    219     1   0.15375 251793.120000
    210    213     1   0.15375 251793.120000
    213    222     1   0.15375 251793.120000
    216    228     1   0.15375 251793.120000
    219    225     1   0.15375 251793.120000
    222    231     1   0.14316 258236.480000
    225    380     1   0.14316 258236.480000
    228    393     1   0.14316 258236.480000
    232    233     1   0.14647 272713.120000
    232    236     1   0.14647 272713.120000
    232    239     1   0.14647 272713.120000
    233    245     1   0.15375 251793.120000
    236    248     1   0.15375 251793.120000
    239    242     1   0.15375 251793.120000
    242    251     1   0.15375 251793.120000
    245    257     1   0.15375 251793.120000
    248    254     1   0.15375 251793.120000
    251    260     1   0.14316 258236.480000
    254    406     1   0.14316 258236.480000
    257    419     1   0.14316 258236.480000
    261    262     1   0.14647 272713.120000
    261    265     1   0.14647 272713.120000
    261    268     1   0.14647 272713.120000
    262    274     1   0.15375 251793.120000
    265    277     1   0.15375 251793.120000
    268    271     1   0.15375 251793.120000
    271    280     1   0.15375 251793.120000
    274    286     1   0.15375 251793.120000
    277    283     1   0.15375 251793.120000
    280    289     1   0.14316 258236.480000
    283    432     1   0.14316 258236.480000
    286    445     1   0.14316 258236.480000
    290    293     1   0.15375 251793.120000
    290    299     1   0.14647 272713.120000
    293    296     1   0.15375 251793.120000
    296    302     1   0.14316 258236.480000
    303    306     1   0.15375 251793.120000
    303    312     1   0.14647 272713.120000
    306    309     1   0.15375 251793.120000
    309    315     1   0.14316 258236.480000
    316    319     1   0.15375 251793.120000
    316    325     1   0.14647 272713.120000
    319    322     1   0.15375 251793.120000
    322    328     1   0.14316 258236.480000
    329    332     1   0.15375 251793.120000
    329    338     1   0.14647 272713.120000
    332    335     1   0.15375 251793.120000
    335    341     1   0.14316 258236.480000
    342    345     1   0.15375 251793.120000
    342    351     1   0.14647 272713.120000
    345    348     1   0.15375 251793.120000
    348    354     1   0.14316 258236.480000
    355    358     1   0.15375 251793.120000
    355    364     1   0.14647 272713.120000
    358    361     1   0.15375 251793.120000
    361    367     1   0.14316 258236.480000
    368    371     1   0.15375 251793.120000
    368    377     1   0.14647 272713.120000
    371    374     1   0.15375 251793.120000
    374    380     1   0.14316 258236.480000
    381    384     1   0.15375 251793.120000
    381    390     1   0.14647 272713.120000
    384    387     1   0.15375 251793.120000
    387    393     1   0.14316 258236.480000
    394    397     1   0.15375 251793.120000
    394    403     1   0.14647 272713.120000
    397    400     1   0.15375 251793.120000
    400    406     1   0.14316 258236.480000
    407    410     1   0.15375 251793.120000
    407    416     1   0.14647 272713.120000
    410    413     1   0.15375 251793.120000
    413    419     1   0.14316 258236.480000
    420    423     1   0.15375 251793.120000
    420    429     1   0.14647 272713.120000
    423    426     1   0.15375 251793.120000
    426    432     1   0.14316 258236.480000
    433    436     1   0.15375 251793.120000
    433    442     1   0.14647 272713.120000
    436    439     1   0.15375 251793.120000
    439    445     1   0.14316 258236.480000
      2      3     1   0.10969 276646.080000
      2      4     1   0.10969 276646.080000
      5      6     1   0.10969 276646.080000
      5      7     1   0.10969 276646.080000
      8      9     1   0.10969 276646.080000
      8     10     1   0.10969 276646.080000
     11     12     1   0.10969 276646.080000
     11     13     1   0.10969 276646.080000
     14     15     1   0.10969 276646.080000
     14     16     1   0.10969 276646.080000
     17     18     1   0.10969 276646.080000
     17     19     1   0.10969 276646.080000
     20     21     1   0.10969 276646.080000
     20     22     1   0.10969 276646.080000
     23     24     1   0.10969 276646.080000
     23     25     1   0.10969 276646.080000
     26     27     1   0.10969 276646.080000
     26     28     1   0.10969 276646.080000
     30     31     1   0.10969 276646.080000
     30     32     1   0.10969 276646.080000
     33     34     1   0.10969 276646.080000
     33     35     1   0.10969 276646.080000
     36     37     1   0.10969 276646.080000
     36     38     1   0.10969 276646.080000
     39     40     1   0.10969 276646.080000
     39     41     1   0.10969 276646.080000
     42     43     1   0.10969 276646.080000
     42     44     1   0.10969 276646.080000
     45     46     1   0.10969 276646.080000
     45     47     1   0.10969 276646.080000
     48     49     1   0.10969 276646.080000
     48     50     1   0.10969 276646.080000
     51     52     1   0.10969 276646.080000
     51     53     1   0.10969 276646.080000
     54     55     1   0.10969 276646.080000
     54     56     1   0.10969 276646.080000
     59     60     1   0.10969 276646.080000
     59     61     1   0.10969 276646.080000
     62     63     1   0.10969 276646.080000
     62     64     1   0.10969 276646.080000
     65     66     1   0.10969 276646.080000
     65     67     1   0.10969 276646.080000
     68     69     1   0.10969 276646.080000
     68     70     1   0.10969 276646.080000
     71     72     1   0.10969 276646.080000
     71     73     1   0.10969 276646.080000
     74     75     1   0.10969 276646.080000
     74     76     1   0.10969 276646.080000
     77     78     1   0.10969 276646.080000
     77     79     1   0.10969 276646.080000
     80     81     1   0.10969 276646.080000
     80     82     1   0.10969 276646.080000
     83     84     1   0.10969 276646.080000
     83     85     1   0.10969 276646.080000
     88     89     1   0.10969 276646.080000
     88     90     1   0.10969 276646.080000
     91     92     1   0.10969 276646.080000
     91     93     1   0.10969 276646.080000
     94     95     1   0.10969 276646.080000
     94     96     1   0.10969 276646.080000
     97     98     1   0.10969 276646.080000
     97     99     1   0.10969 276646.080000
    100    101     1   0.10969 276646.080000
    100    102     1   0.10969 276646.080000
    103    104     1   0.10969 276646.080000
    103    105     1   0.10969 276646.080000
    106    107     1   0.10969 276646.080000
    106    108     1   0.10969 276646.080000
    109    110     1   0.10969 276646.080000
    109    111     1   0.10969 276646.080000
    112    113     1   0.10969 276646.080000
    112    114     1   0.10969 276646.080000
    117    118     1   0.10969 276646.080000
    117    119     1   0.10969 276646.080000
    120    121     1   0.10969 276646.080000
    120    122     1   0.10969 276646.080000
    123    124     1   0.10969 276646.080000
    123    125     1   0.10969 276646.080000
    126    127     1   0.10969 276646.080000
    126    128     1   0.10969 276646.080000
    129    130     1   0.10969 276646.080000
    129    131     1   0.10969 276646.080000
    132    133     1   0.10969 276646.080000
    132    134     1   0.10969 276646.080000
    135    136     1   0.10969 276646.080000
    135    137     1   0.10969 276646.080000
    138    139     1   0.10969 276646.080000
    138    140     1   0.10969 276646.080000
    141    142     1   0.10969 276646.080000
    141    143     1   0.10969 276646.080000
    146    147     1   0.10969 276646.080000
    146    148     1   0.10969 276646.080000
    149    150     1   0.10969 276646.080000
    149    151     1   0.10969 276646.080000
    152    153     1   0.10969 276646.080000
    152    154     1   0.10969 276646.080000
    155    156     1   0.10969 276646.080000
    155    157     1   0.10969 276646.080000
    158    159     1   0.10969 276646.080000
    158    160     1   0.10969 276646.080000
    161    162     1   0.10969 276646.080000
    161    163     1   0.10969 276646.080000
    164    165     1   0.10969 276646.080000
    164    166     1   0.10969 276646.080000
    167    168     1   0.10969 276646.080000
    167    169     1   0.10969 276646.080000
    170    171     1   0.10969 276646.080000
    170    172     1   0.10969 276646.080000
    175    176     1   0.10969 276646.080000
    175    177     1   0.10969 276646.080000
    178    179     1   0.10969 276646.080000
    178    180     1   0.10969 276646.080000
    181    182     1   0.10969 276646.080000
    181    183     1   0.10969 276646.080000
    184    185     1   0.10969 276646.080000
    184    186     1   0.10969 276646.080000
    187    188     1   0.10969 276646.080000
    187    189     1   0.10969 276646.080000
    190    191     1   0.10969 276646.080000
    190    192     1   0.10969 276646.080000
    193    194     1   0.10969 276646.080000
    193    195     1   0.10969 276646.080000
    196    197     1   0.10969 276646.080000
    196    198     1   0.10969 276646.080000
    199    200     1   0.10969 276646.080000
    199    201     1   0.10969 276646.080000
    204    205     1   0.10969 276646.080000
    204    206     1   0.10969 276646.080000
    207    208     1   0.10969 276646.080000
    207    209     1   0.10969 276646.080000
    210    211     1   0.10969 276646.080000
    210    212     1   0.10969 276646.080000
    213    214     1   0.10969 276646.080000
    213    215     1   0.10969 276646.080000
    216    217     1   0.10969 276646.080000
    216    218     1   0.10969 276646.080000
    219    220     1   0.10969 276646.080000
    219    221     1   0.10969 276646.080000
    222    223     1   0.10969 276646.080000
    222    224     1   0.10969 276646.080000
    225    226     1   0.10969 276646.080000
    225    227     1   0.10969 276646.080000
    228    229     1   0.10969 276646.080000
    228    230     1   0.10969 276646.080000
    233    234     1   0.10969 276646.080000
    233    235     1   0.10969 276646.080000
    236    237     1   0.10969 276646.080000
    236    238     1   0.10969 276646.080000
    239    240     1   0.10969 276646.080000
    239    241     1   0.10969 276646.080000
    242    243     1   0.10969 276646.080000
    242    244     1   0.10969 276646.080000
    245    246     1   0.10969 276646.080000
    245    247     1   0.10969 276646.080000
    248    249     1   0.10969 276646.080000
    248    250     1   0.10969 276646.080000
    251    252     1   0.10969 276646.080000
    251    253     1   0.10969 276646.080000
    254    255     1   0.10969 276646.080000
    254    256     1   0.10969 276646.080000
    257    258     1   0.10969 276646.080000
    257    259     1   0.10969 276646.080000
    262    263     1   0.10969 276646.080000
    262    264     1   0.10969 276646.080000
    265    266     1   0.10969 276646.080000
    265    267     1   0.10969 276646.080000
    268    269     1   0.10969 276646.080000
    268    270     1   0.10969 276646.080000
    271    272     1   0.10969 276646.080000
    271    273     1   0.10969 276646.080000
    274    275     1   0.10969 276646.080000
    274    276     1   0.10969 276646.080000
    277    278     1   0.10969 276646.080000
    277    279     1   0.10969 276646.080000
    280    281     1   0.10969 276646.080000
    280    282     1   0.10969 276646.080000
    283    284     1   0.10969 276646.080000
    283    285     1   0.10969 276646.080000
    286    287     1   0.10969 276646.080000
    286    288     1   0.10969 276646.080000
    290    291     1   0.10969 276646.080000
    290    292     1   0.10969 276646.080000
    293    294     1   0.10969 276646.080000
    293    295     1   0.10969 276646.080000
    296    297     1   0.10969 276646.080000
    296    298     1   0.10969 276646.080000
    299    300     1   0.10190 328360.320000
    299    301     1   0.10190 328360.320000
    303    304     1   0.10969 276646.080000
    303    305     1   0.10969 276646.080000
    306    307     1   0.10969 276646.080000
    306    308     1   0.10969 276646.080000
    309    310     1   0.10969 276646.080000
    309    311     1   0.10969 276646.080000
    312    313     1   0.10190 328360.320000
    312    314     1   0.10190 328360.320000
    316    317     1   0.10969 276646.080000
    316    318     1   0.10969 276646.080000
    319    320     1   0.10969 276646.080000
    319    321     1   0.10969 276646.080000
    322    323     1   0.10969 276646.080000
    322    324     1   0.10969 276646.080000
    325    326     1   0.10190 328360.320000
    325    327     1   0.10190 328360.320000
    329    330     1   0.10969 276646.080000
    329    331     1   0.10969 276646.080000
    332    333     1   0.10969 276646.080000
    332    334     1   0.10969 276646.080000
    335    336     1   0.10969 276646.080000
    335    337     1   0.10969 276646.080000
    338    339     1   0.10190 328360.320000
    338    340     1   0.10190 328360.320000
    342    343     1   0.10969 276646.080000
    342    344     1   0.10969 276646.080000
    345    346     1   0.10969 276646.080000
    345    347     1   0.10969 276646.080000
    348    349     1   0.10969 276646.080000
    348    350     1   0.10969 276646.080000
    351    352     1   0.10190 328360.320000
    351    353     1   0.10190 328360.320000
    355    356     1   0.10969 276646.080000
    355    357     1   0.10969 276646.080000
    358    359     1   0.10969 276646.080000
    358    360     1   0.10969 276646.080000
    361    362     1   0.10969 276646.080000
    361    363     1   0.10969 276646.080000
    364    365     1   0.10190 328360.320000
    364    366     1   0.10190 328360.320000
    368    369     1   0.10969 276646.080000
    368    370     1   0.10969 276646.080000
    371    372     1   0.10969 276646.080000
    371    373     1   0.10969 276646.080000
    374    375     1   0.10969 276646.080000
    374    376     1   0.10969 276646.080000
    377    378     1   0.10190 328360.320000
    377    379     1   0.10190 328360.320000
    381    382     1   0.10969 276646.080000
    381    383     1   0.10969 276646.080000
    384    385     1   0.10969 276646.080000
    384    386     1   0.10969 276646.080000
    387    388     1   0.10969 276646.080000
    387    389     1   0.10969 276646.080000
    390    391     1   0.10190 328360.320000
    390    392     1   0.10190 328360.320000
    394    395     1   0.10969 276646.080000
    394    396     1   0.10969 276646.080000
    397    398     1   0.10969 276646.080000
    397    399     1   0.10969 276646.080000
    400    401     1   0.10969 276646.080000
    400    402     1   0.10969 276646.080000
    403    404     1   0.10190 328360.320000
    403    405     1   0.10190 328360.320000
    407    408     1   0.10969 276646.080000
    407    409     1   0.10969 276646.080000
    410    411     1   0.10969 276646.080000
    410    412     1   0.10969 276646.080000
    413    414     1   0.10969 276646.080000
    413    415     1   0.10969 276646.080000
    416    417     1   0.10190 328360.320000
    416    418     1   0.10190 328360.320000
    420    421     1   0.10969 276646.080000
    420    422     1   0.10969 276646.080000
    423    424     1   0.10969 276646.080000
    423    425     1   0.10969 276646.080000
    426    427     1   0.10969 276646.080000
    426    428     1   0.10969 276646.080000
    429    430     1   0.10190 328360.320000
    429    431     1   0.10190 328360.320000
    433    434     1   0.10969 276646.080000
    433    435     1   0.10969 276646.080000
    436    437     1   0.10969 276646.080000
    436    438     1   0.10969 276646.080000
    439    440     1   0.10969 276646.080000
    439    441     1   0.10969 276646.080000
    442    443     1   0.10190 328360.320000
    442    444     1   0.10190 328360.320000

[ pairs ]
;    ai     aj funct         c0         c1         c2         c3
      1     26     1
      1     20     1
      1     23     1
      2     17     1
      2     11     1
      2    115     1
      5     14     1
      5     11     1
      5     57     1
      8     14     1
      8     17     1
      8     86     1
     11     77     1
     14    106     1
     17     48     1
     20     39     1
     23     68     1
     26     97     1
     29     54     1
     29     51     1
     29     48     1
     30     45     1
     30     39     1
     30    173     1
     33     42     1
     33     39     1
     33    144     1
     36     42     1
     36     45     1
     36     57     1
     42    164     1
     45    135     1
     51    126     1
     54    155     1
     58     83     1
     58     80     1
     58     77     1
     59     74     1
     59     68     1
     59    231     1
     62     71     1
     62     68     1
     62    202     1
     65     71     1
     65     74     1
     65     86     1
     71    222     1
     74    193     1
     80    184     1
     83    213     1
     87    112     1
     87    109     1
     87    106     1
     88    103     1
     88     97     1
     88    289     1
     91    100     1
     91     97     1
     91    260     1
     94    100     1
     94    103     1
     94    115     1
    100    280     1
    103    251     1
    109    242     1
    112    271     1
    116    141     1
    116    138     1
    116    135     1
    117    132     1
    117    126     1
    117    315     1
    120    129     1
    120    126     1
    120    302     1
    123    129     1
    123    132     1
    123    144     1
    129    309     1
    132    296     1
    138    293     1
    141    306     1
    145    170     1
    145    167     1
    145    164     1
    146    161     1
    146    155     1
    146    341     1
    149    158     1
    149    155     1
    149    328     1
    152    158     1
    152    161     1
    152    173     1
    158    335     1
    161    322     1
    167    319     1
    170    332     1
    174    199     1
    174    196     1
    174    193     1
    175    190     1
    175    184     1
    175    367     1
    178    187     1
    178    184     1
    178    354     1
    181    187     1
    181    190     1
    181    202     1
    187    361     1
    190    348     1
    196    345     1
    199    358     1
    203    228     1
    203    225     1
    203    222     1
    204    219     1
    204    213     1
    204    393     1
    207    216     1
    207    213     1
    207    380     1
    210    216     1
    210    219     1
    210    231     1
    216    387     1
    219    374     1
    225    371     1
    228    384     1
    232    257     1
    232    254     1
    232    251     1
    233    248     1
    233    242     1
    233    419     1
    236    245     1
    236    242     1
    236    406     1
    239    245     1
    239    248     1
    239    260     1
    245    413     1
    248    400     1
    254    397     1
    257    410     1
    261    286     1
    261    283     1
    261    280     1
    262    277     1
    262    271     1
    262    445     1
    265    274     1
    265    271     1
    265    432     1
    268    274     1
    268    277     1
    268    289     1
    274    439     1
    277    426     1
    283    423     1
    286    436     1
    290    302     1
    296    299     1
    303    315     1
    309    312     1
    316    328     1
    322    325     1
    329    341     1
    335    338     1
    342    354     1
    348    351     1
    355    367     1
    361    364     1
    368    380     1
    374    377     1
    381    393     1
    387    390     1
    394    406     1
    400    403     1
    407    419     1
    413    416     1
    420    432     1
    426    429     1
    433    445     1
    439    442     1
      1     15     1
      1     16     1
      1     18     1
      1     19     1
      1     12     1
      1     13     1
      2      6     1
      2      7     1
      2      9     1
      2     10     1
      2     27     1
      2     28     1
      5      3     1
      8      3     1
      3     26     1
      3     15     1
      3     16     1
      5      4     1
      8      4     1
      4     26     1
      4     15     1
      4     16     1
      5      9     1
      5     10     1
      5     21     1
      5     22     1
      8      6     1
      6     20     1
      6     18     1
      6     19     1
      8      7     1
      7     20     1
      7     18     1
      7     19     1
      8     24     1
      8     25     1
      9     23     1
      9     12     1
      9     13     1
     10     23     1
     10     12     1
     10     13     1
     12     86     1
     12     24     1
     12     25     1
     13     86     1
     13     24     1
     13     25     1
     15    115     1
     15     27     1
     15     28     1
     16    115     1
     16     27     1
     16     28     1
     18     57     1
     18     21     1
     18     22     1
     19     57     1
     19     21     1
     19     22     1
     20     49     1
     20     50     1
     21     48     1
     22     48     1
     23     78     1
     23     79     1
     24     77     1
     25     77     1
     26    107     1
     26    108     1
     27    106     1
     28    106     1
     29     43     1
     29     44     1
     29     46     1
     29     47     1
     29     40     1
     29     41     1
     30     34     1
     30     35     1
     30     37     1
     30     38     1
     30     55     1
     30     56     1
     31     33     1
     31     36     1
     31     54     1
     31     43     1
     31     44     1
     32     33     1
     32     36     1
     32     54     1
     32     43     1
     32     44     1
     33     37     1
     33     38     1
     33     52     1
     33     53     1
     34     36     1
     34     51     1
     34     46     1
     34     47     1
     35     36     1
     35     51     1
     35     46     1
     35     47     1
     36     49     1
     36     50     1
     37     48     1
     37     40     1
     37     41     1
     38     48     1
     38     40     1
     38     41     1
     40     57     1
     40     49     1
     40     50     1
     41     57     1
     41     49     1
     41     50     1
     43    173     1
     43     55     1
     43     56     1
     44    173     1
     44     55     1
     44     56     1
     46    144     1
     46     52     1
     46     53     1
     47    144     1
     47     52     1
     47     53     1
     51    136     1
     51    137     1
     52    135     1
     53    135     1
     54    165     1
     54    166     1
     55    164     1
     56    164     1
     58     72     1
     58     73     1
     58     75     1
     58     76     1
     58     69     1
     58     70     1
     59     63     1
     59     64     1
     59     66     1
     59     67     1
     59     84     1
     59     85     1
     60     62     1
     60     65     1
     60     83     1
     60     72     1
     60     73     1
     61     62     1
     61     65     1
     61     83     1
     61     72     1
     61     73     1
     62     66     1
     62     67     1
     62     81     1
     62     82     1
     63     65     1
     63     80     1
     63     75     1
     63     76     1
     64     65     1
     64     80     1
     64     75     1
     64     76     1
     65     78     1
     65     79     1
     66     77     1
     66     69     1
     66     70     1
     67     77     1
     67     69     1
     67     70     1
     69     86     1
     69     78     1
     69     79     1
     70     86     1
     70     78     1
     70     79     1
     72    231     1
     72     84     1
     72     85     1
     73    231     1
     73     84     1
     73     85     1
     75    202     1
     75     81     1
     75     82     1
     76    202     1
     76     81     1
     76     82     1
     80    194     1
     80    195     1
     81    193     1
     82    193     1
     83    223     1
     83    224     1
     84    222     1
     85    222     1
     87    101     1
     87    102     1
     87    104     1
     87    105     1
     87     98     1
     87     99     1
     88     92     1
     88     93     1
     88     95     1
     88     96     1
     88    113     1
     88    114     1
     89     91     1
     89     94     1
     89    112     1
     89    101     1
     89    102     1
     90     91     1
     90     94     1
     90    112     1
     90    101     1
     90    102     1
     91     95     1
     91     96     1
     91    110     1
     91    111     1
     92     94     1
     92    109     1
     92    104     1
     92    105     1
     93     94     1
     93    109     1
     93    104     1
     93    105     1
     94    107     1
     94    108     1
     95    106     1
     95     98     1
     95     99     1
     96    106     1
     96     98     1
     96     99     1
     98    115     1
     98    107     1
     98    108     1
     99    115     1
     99    107     1
     99    108     1
    101    289     1
    101    113     1
    101    114     1
    102    289     1
    102    113     1
    102    114     1
    104    260     1
    104    110     1
    104    111     1
    105    260     1
    105    110     1
    105    111     1
    109    252     1
    109    253     1
    110    251     1
    111    251     1
    112    281     1
    112    282     1
    113    280     1
    114    280     1
    116    130     1
    116    131     1
    116    133     1
    116    134     1
    116    127     1
    116    128     1
    117    121     1
    117    122     1
    117    124     1
    117    125     1
    117    142     1
    117    143     1
    118    120     1
    118    123     1
    118    141     1
    118    130     1
    118    131     1
    119    120     1
    119    123     1
    119    141     1
    119    130     1
    119    131     1
    120    124     1
    120    125     1
    120    139     1
    120    140     1
    121    123     1
    121    138     1
    121    133     1
    121    134     1
    122    123     1
    122    138     1
    122    133     1
    122    134     1
    123    136     1
    123    137     1
    124    135     1
    124    127     1
    124    128     1
    125    135     1
    125    127     1
    125    128     1
    127    144     1
    127    136     1
    127    137     1
    128    144     1
    128    136     1
    128    137     1
    130    315     1
    130    142     1
    130    143     1
    131    315     1
    131    142     1
    131    143     1
    133    302     1
    133    139     1
    133    140     1
    134    302     1
    134    139     1
    134    140     1
    138    297     1
    138    298     1
    139    296     1
    140    296     1
    141    310     1
    141    311     1
    142    309     1
    143    309     1
    145    159     1
    145    160     1
    145    162     1
    145    163     1
    145    156     1
    145    157     1
    146    150     1
    146    151     1
    146    153     1
    146    154     1
    146    171     1
    146    172     1
    147    149     1
    147    152     1
    147    170     1
    147    159     1
    147    160     1
    148    149     1
    148    152     1
    148    170     1
    148    159     1
    148    160     1
    149    153     1
    149    154     1
    149    168     1
    149    169     1
    150    152     1
    150    167     1
    150    162     1
    150    163     1
    151    152     1
    151    167     1
    151    162     1
    151    163     1
    152    165     1
    152    166     1
    153    164     1
    153    156     1
    153    157     1
    154    164     1
    154    156     1
    154    157     1
    156    173     1
    156    165     1
    156    166     1
    157    173     1
    157    165     1
    157    166     1
    159    341     1
    159    171     1
    159    172     1
    160    341     1
    160    171     1
    160    172     1
    162    328     1
    162    168     1
    162    169     1
    163    328     1
    163    168     1
    163    169     1
    167    323     1
    167    324     1
    168    322     1
    169    322     1
    170    336     1
    170    337     1
    171    335     1
    172    335     1
    174    188     1
    174    189     1
    174    191     1
    174    192     1
    174    185     1
    174    186     1
    175    179     1
    175    180     1
    175    182     1
    175    183     1
    175    200     1
    175    201     1
    176    178     1
    176    181     1
    176    199     1
    176    188     1
    176    189     1
    177    178     1
    177    181     1
    177    199     1
    177    188     1
    177    189     1
    178    182     1
    178    183     1
    178    197     1
    178    198     1
    179    181     1
    179    196     1
    179    191     1
    179    192     1
    180    181     1
    180    196     1
    180    191     1
    180    192     1
    181    194     1
    181    195     1
    182    193     1
    182    185     1
    182    186     1
    183    193     1
    183    185     1
    183    186     1
    185    202     1
    185    194     1
    185    195     1
    186    202     1
    186    194     1
    186    195     1
    188    367     1
    188    200     1
    188    201     1
    189    367     1
    189    200     1
    189    201     1
    191    354     1
    191    197     1
    191    198     1
    192    354     1
    192    197     1
    192    198     1
    196    349     1
    196    350     1
    197    348     1
    198    348     1
    199    362     1
    199    363     1
    200    361     1
    201    361     1
    203    217     1
    203    218     1
    203    220     1
    203    221     1
    203    214     1
    203    215     1
    204    208     1
    204    209     1
    204    211     1
    204    212     1
    204    229     1
    204    230     1
    205    207     1
    205    210     1
    205    228     1
    205    217     1
    205    218     1
    206    207     1
    206    210     1
    206    228     1
    206    217     1
    206    218     1
    207    211     1
    207    212     1
    207    226     1
    207    227     1
    208    210     1
    208    225     1
    208    220     1
    208    221     1
    209    210     1
    209    225     1
    209    220     1
    209    221     1
    210    223     1
    210    224     1
    211    222     1
    211    214     1
    211    215     1
    212    222     1
    212    214     1
    212    215     1
    214    231     1
    214    223     1
    214    224     1
    215    231     1
    215    223     1
    215    224     1
    217    393     1
    217    229     1
    217    230     1
    218    393     1
    218    229     1
    218    230     1
    220    380     1
    220    226     1
    220    227     1
    221    380     1
    221    226     1
    221    227     1
    225    375     1
    225    376     1
    226    374     1
    227    374     1
    228    388     1
    228    389     1
    229    387     1
    230    387     1
    232    246     1
    232    247     1
    232    249     1
    232    250     1
    232    243     1
    232    244     1
    233    237     1
    233    238     1
    233    240     1
    233    241     1
    233    258     1
    233    259     1
    234    236     1
    234    239     1
    234    257     1
    234    246     1
    234    247     1
    235    236     1
    235    239     1
    235    257     1
    235    246     1
    235    247     1
    236    240     1
    236    241     1
    236    255     1
    236    256     1
    237    239     1
    237    254     1
    237    249     1
    237    250     1
    238    239     1
    238    254     1
    238    249     1
    238    250     1
    239    252     1
    239    253     1
    240    251     1
    240    243     1
    240    244     1
    241    251     1
    241    243     1
    241    244     1
    243    260     1
    243    252     1
    243    253     1
    244    260     1
    244    252     1
    244    253     1
    246    419     1
    246    258     1
    246    259     1
    247    419     1
    247    258     1
    247    259     1
    249    406     1
    249    255     1
    249    256     1
    250    406     1
    250    255     1
    250    256     1
    254    401     1
    254    402     1
    255    400     1
    256    400     1
    257    414     1
    257    415     1
    258    413     1
    259    413     1
    261    275     1
    261    276     1
    261    278     1
    261    279     1
    261    272     1
    261    273     1
    262    266     1
    262    267     1
    262    269     1
    262    270     1
    262    287     1
    262    288     1
    263    265     1
    263    268     1
    263    286     1
    263    275     1
    263    276     1
    264    265     1
    264    268     1
    264    286     1
    264    275     1
    264    276     1
    265    269     1
    265    270     1
    265    284     1
    265    285     1
    266    268     1
    266    283     1
    266    278     1
    266    279     1
    267    268     1
    267    283     1
    267    278     1
    267    279     1
    268    281     1
    268    282     1
    269    280     1
    269    272     1
    269    273     1
    270    280     1
    270    272     1
    270    273     1
    272    289     1
    272    281     1
    272    282     1
    273    289     1
    273    281     1
    273    282     1
    275    445     1
    275    287     1
    275    288     1
    276    445     1
    276    287     1
    276    288     1
    278    432     1
    278    284     1
    278    285     1
    279    432     1
    279    284     1
    279    285     1
    283    427     1
    283    428     1
    284    426     1
    285    426     1
    286    440     1
    286    441     1
    287    439     1
    288    439     1
    290    297     1
    290    298     1
    291    296     1
    291    294     1
    291    295     1
    291    300     1
    291    301     1
    292    296     1
    292    294     1
    292    295     1
    292    300     1
    292    301     1
    293    300     1
    293    301     1
    294    299     1
    294    302     1
    294    297     1
    294    298     1
    295    299     1
    295    302     1
    295    297     1
    295    298     1
    303    310     1
    303    311     1
    304    309     1
    304    307     1
    304    308     1
    304    313     1
    304    314     1
    305    309     1
    305    307     1
    305    308     1
    305    313     1
    305    314     1
    306    313     1
    306    314     1
    307    315     1
    307    310     1
    307    311     1
    307    312     1
    308    315     1
    308    310     1
    308    311     1
    308    312     1
    316    323     1
    316    324     1
    317    322     1
    317    320     1
    317    321     1
    317    326     1
    317    327     1
    318    322     1
    318    320     1
    318    321     1
    318    326     1
    318    327     1
    319    326     1
    319    327     1
    320    325     1
    320    328     1
    320    323     1
    320    324     1
    321    325     1
    321    328     1
    321    323     1
    321    324     1
    329    336     1
    329    337     1
    330    335     1
    330    333     1
    330    334     1
    330    339     1
    330    340     1
    331    335     1
    331    333     1
    331    334     1
    331    339     1
    331    340     1
    332    339     1
    332    340     1
    333    341     1
    333    336     1
    333    337     1
    333    338     1
    334    341     1
    334    336     1
    334    337     1
    334    338     1
    342    349     1
    342    350     1
    343    348     1
    343    346     1
    343    347     1
    343    352     1
    343    353     1
    344    348     1
    344    346     1
    344    347     1
    344    352     1
    344    353     1
    345    352     1
    345    353     1
    346    351     1
    346    354     1
    346    349     1
    346    350     1
    347    351     1
    347    354     1
    347    349     1
    347    350     1
    355    362     1
    355    363     1
    356    361     1
    356    359     1
    356    360     1
    356    365     1
    356    366     1
    357    361     1
    357    359     1
    357    360     1
    357    365     1
    357    366     1
    358    365     1
    358    366     1
    359    367     1
    359    362     1
    359    363     1
    359    364     1
    360    367     1
    360    362     1
    360    363     1
    360    364     1
    368    375     1
    368    376     1
    369    374     1
    369    372     1
    369    373     1
    369    378     1
    369    379     1
    370    374     1
    370    372     1
    370    373     1
    370    378     1
    370    379     1
    371    378     1
    371    379     1
    372    377     1
    372    380     1
    372    375     1
    372    376     1
    373    377     1
    373    380     1
    373    375     1
    373    376     1
    381    388     1
    381    389     1
    382    387     1
    382    385     1
    382    386     1
    382    391     1
    382    392     1
    383    387     1
    383    385     1
    383    386     1
    383    391     1
    383    392     1
    384    391     1
    384    392     1
    385    393     1
    385    388     1
    385    389     1
    385    390     1
    386    393     1
    386    388     1
    386    389     1
    386    390     1
    394    401     1
    394    402     1
    395    400     1
    395    398     1
    395    399     1
    395    404     1
    395    405     1
    396    400     1
    396    398     1
    396    399     1
    396    404     1
    396    405     1
    397    404     1
    397    405     1
    398    403     1
    398    406     1
    398    401     1
    398    402     1
    399    403     1
    399    406     1
    399    401     1
    399    402     1
    407    414     1
    407    415     1
    408    413     1
    408    411     1
    408    412     1
    408    417     1
    408    418     1
    409    413     1
    409    411     1
    409    412     1
    409    417     1
    409    418     1
    410    417     1
    410    418     1
    411    419     1
    411    414     1
    411    415     1
    411    416     1
    412    419     1
    412    414     1
    412    415     1
    412    416     1
    420    427     1
    420    428     1
    421    426     1
    421    424     1
    421    425     1
    421    430     1
    421    431     1
    422    426     1
    422    424     1
    422    425     1
    422    430     1
    422    431     1
    423    430     1
    423    431     1
    424    429     1
    424    432     1
    424    427     1
    424    428     1
    425    429     1
    425    432     1
    425    427     1
    425    428     1
    433    440     1
    433    441     1
    434    439     1
    434    437     1
    434    438     1
    434    443     1
    434    444     1
    435    439     1
    435    437     1
    435    438     1
    435    443     1
    435    444     1
    436    443     1
    436    444     1
    437    445     1
    437    440     1
    437    441     1
    437    442     1
    438    445     1
    438    440     1
    438    441     1
    438    442     1

[ angles ]
;    ai     aj     ak funct         c0         c1         c2         c3
      1      2     14     1   111.0400475 552.288000
      1      5     17     1   111.0400475 552.288000
      1      8     11     1   111.0400475 552.288000
      2      1      5     1   112.3500484 533.878400
      2      1      8     1   112.3500484 533.878400
      2     14     26     1   111.5100476 526.347200
      5      1      8     1   112.3500484 533.878400
      5     17     20     1   111.5100476 526.347200
      8     11     23     1   111.5100476 526.347200
     11     23     86     1   107.9700462 569.024000
     14     26    115     1   107.9700462 569.024000
     17     20     57     1   107.9700462 569.024000
     20     57     48     1   112.4800480 524.673600
     23     86     77     1   112.4800480 524.673600
     26    115    106     1   112.4800480 524.673600
     29     30     42     1   111.0400475 552.288000
     29     33     45     1   111.0400475 552.288000
     29     36     39     1   111.0400475 552.288000
     30     29     33     1   112.3500484 533.878400
     30     29     36     1   112.3500484 533.878400
     30     42     54     1   111.5100476 526.347200
     33     29     36     1   112.3500484 533.878400
     33     45     51     1   111.5100476 526.347200
     36     39     48     1   111.5100476 526.347200
     39     48     57     1   107.9700462 569.024000
     42     54    173     1   107.9700462 569.024000
     45     51    144     1   107.9700462 569.024000
     51    144    135     1   112.4800480 524.673600
     54    173    164     1   112.4800480 524.673600
     58     59     71     1   111.0400475 552.288000
     58     62     74     1   111.0400475 552.288000
     58     65     68     1   111.0400475 552.288000
     59     58     62     1   112.3500484 533.878400
     59     58     65     1   112.3500484 533.878400
     59     71     83     1   111.5100476 526.347200
     62     58     65     1   112.3500484 533.878400
     62     74     80     1   111.5100476 526.347200
     65     68     77     1   111.5100476 526.347200
     68     77     86     1   107.9700462 569.024000
     71     83    231     1   107.9700462 569.024000
     74     80    202     1   107.9700462 569.024000
     80    202    193     1   112.4800480 524.673600
     83    231    222     1   112.4800480 524.673600
     87     88    100     1   111.0400475 552.288000
     87     91    103     1   111.0400475 552.288000
     87     94     97     1   111.0400475 552.288000
     88     87     91     1   112.3500484 533.878400
     88     87     94     1   112.3500484 533.878400
     88    100    112     1   111.5100476 526.347200
     91     87     94     1   112.3500484 533.878400
     91    103    109     1   111.5100476 526.347200
     94     97    106     1   111.5100476 526.347200
     97    106    115     1   107.9700462 569.024000
    100    112    289     1   107.9700462 569.024000
    103    109    260     1   107.9700462 569.024000
    109    260    251     1   112.4800480 524.673600
    112    289    280     1   112.4800480 524.673600
    116    117    129     1   111.0400475 552.288000
    116    120    132     1   111.0400475 552.288000
    116    123    126     1   111.0400475 552.288000
    117    116    120     1   112.3500484 533.878400
    117    116    123     1   112.3500484 533.878400
    117    129    141     1   111.5100476 526.347200
    120    116    123     1   112.3500484 533.878400
    120    132    138     1   111.5100476 526.347200
    123    126    135     1   111.5100476 526.347200
    126    135    144     1   107.9700462 569.024000
    129    141    315     1   107.9700462 569.024000
    132    138    302     1   107.9700462 569.024000
    138    302    296     1   112.4800480 524.673600
    141    315    309     1   112.4800480 524.673600
    145    146    158     1   111.0400475 552.288000
    145    149    161     1   111.0400475 552.288000
    145    152    155     1   111.0400475 552.288000
    146    145    149     1   112.3500484 533.878400
    146    145    152     1   112.3500484 533.878400
    146    158    170     1   111.5100476 526.347200
    149    145    152     1   112.3500484 533.878400
    149    161    167     1   111.5100476 526.347200
    152    155    164     1   111.5100476 526.347200
    155    164    173     1   107.9700462 569.024000
    158    170    341     1   107.9700462 569.024000
    161    167    328     1   107.9700462 569.024000
    167    328    322     1   112.4800480 524.673600
    170    341    335     1   112.4800480 524.673600
    174    175    187     1   111.0400475 552.288000
    174    178    190     1   111.0400475 552.288000
    174    181    184     1   111.0400475 552.288000
    175    174    178     1   112.3500484 533.878400
    175    174    181     1   112.3500484 533.878400
    175    187    199     1   111.5100476 526.347200
    178    174    181     1   112.3500484 533.878400
    178    190    196     1   111.5100476 526.347200
    181    184    193     1   111.5100476 526.347200
    184    193    202     1   107.9700462 569.024000
    187    199    367     1   107.9700462 569.024000
    190    196    354     1   107.9700462 569.024000
    196    354    348     1   112.4800480 524.673600
    199    367    361     1   112.4800480 524.673600
    203    204    216     1   111.0400475 552.288000
    203    207    219     1   111.0400475 552.288000
    203    210    213     1   111.0400475 552.288000
    204    203    207     1   112.3500484 533.878400
    204    203    210     1   112.3500484 533.878400
    204    216    228     1   111.5100476 526.347200
    207    203    210     1   112.3500484 533.878400
    207    219    225     1   111.5100476 526.347200
    210    213    222     1   111.5100476 526.347200
    213    222    231     1   107.9700462 569.024000
    216    228    393     1   107.9700462 569.024000
    219    225    380     1   107.9700462 569.024000
    225    380    374     1   112.4800480 524.673600
    228    393    387     1   112.4800480 524.673600
    232    233    245     1   111.0400475 552.288000
    232    236    248     1   111.0400475 552.288000
    232    239    242     1   111.0400475 552.288000
    233    232    236     1   112.3500484 533.878400
    233    232    239     1   112.3500484 533.878400
    233    245    257     1   111.5100476 526.347200
    236    232    239     1   112.3500484 533.878400
    236    248    254     1   111.5100476 526.347200
    239    242    251     1   111.5100476 526.347200
    242    251    260     1   107.9700462 569.024000
    245    257    419     1   107.9700462 569.024000
    248    254    406     1   107.9700462 569.024000
    254    406    400     1   112.4800480 524.673600
    257    419    413     1   112.4800480 524.673600
    261    262    274     1   111.0400475 552.288000
    261    265    277     1   111.0400475 552.288000
    261    268    271     1   111.0400475 552.288000
    262    261    265     1   112.3500484 533.878400
    262    261    268     1   112.3500484 533.878400
    262    274    286     1   111.5100476 526.347200
    265    261    268     1   112.3500484 533.878400
    265    277    283     1   111.5100476 526.347200
    268    271    280     1   111.5100476 526.347200
    271    280    289     1   107.9700462 569.024000
    274    286    445     1   107.9700462 569.024000
    277    283    432     1   107.9700462 569.024000
    283    432    426     1   112.4800480 524.673600
    286    445    439     1   112.4800480 524.673600
    290    293    296     1   111.5100476 526.347200
    293    290    299     1   111.0400475 552.288000
    293    296    302     1   107.9700462 569.024000
    303    306    309     1   111.5100476 526.347200
    306    309    315     1   107.9700462 569.024000
    306    303    312     1   111.0400475 552.288000
    316    319    322     1   111.5100476 526.347200
    319    316    325     1   111.0400475 552.288000
    319    322    328     1   107.9700462 569.024000
    329    332    335     1   111.5100476 526.347200
    332    335    341     1   107.9700462 569.024000
    332    329    338     1   111.0400475 552.288000
    342    345    348     1   111.5100476 526.347200
    345    342    351     1   111.0400475 552.288000
    345    348    354     1   107.9700462 569.024000
    355    358    361     1   111.5100476 526.347200
    358    361    367     1   107.9700462 569.024000
    358    355    364     1   111.0400475 552.288000
    368    371    374     1   111.5100476 526.347200
    371    368    377     1   111.0400475 552.288000
    371    374    380     1   107.9700462 569.024000
    381    384    387     1   111.5100476 526.347200
    384    387    393     1   107.9700462 569.024000
    384    381    390     1   111.0400475 552.288000
    394    397    400     1   111.5100476 526.347200
    397    394    403     1   111.0400475 552.288000
    397    400    406     1   107.9700462 569.024000
    407    410    413     1   111.5100476 526.347200
    410    413    419     1   107.9700462 569.024000
    410    407    416     1   111.0400475 552.288000
    420    423    426     1   111.5100476 526.347200
    423    420    429     1   111.0400475 552.288000
    423    426    432     1   107.9700462 569.024000
    433    436    439     1   111.5100476 526.347200
    436    439    445     1   107.9700462 569.024000
    436    433    442     1   111.0400475 552.288000
      1      2      3     1   109.8800469 414.216000
      1      2      4     1   109.8800469 414.216000
      1      5      6     1   109.8800469 414.216000
      1      5      7     1   109.8800469 414.216000
      1      8      9     1   109.8800469 414.216000
      1      8     10     1   109.8800469 414.216000
      2     14     15     1   109.8000471 387.438400
      2     14     16     1   109.8000471 387.438400
      3      2     14     1   109.5600471 388.275200
      3      2      4     1   108.4600466 328.025600
      4      2     14     1   109.5600471 388.275200
      5     17     18     1   109.8000471 387.438400
      5     17     19     1   109.8000471 387.438400
      6      5     17     1   109.5600471 388.275200
      6      5      7     1   108.4600466 328.025600
      7      5     17     1   109.5600471 388.275200
      8     11     12     1   109.8000471 387.438400
      8     11     13     1   109.8000471 387.438400
      9      8     11     1   109.5600471 388.275200
      9      8     10     1   108.4600466 328.025600
     10      8     11     1   109.5600471 388.275200
     11     23     24     1   109.5600471 388.275200
     11     23     25     1   109.5600471 388.275200
     12     11     23     1   109.8000471 387.438400
     12     11     13     1   107.5800459 329.699200
     13     11     23     1   109.8000471 387.438400
     14     26     27     1   109.5600471 388.275200
     14     26     28     1   109.5600471 388.275200
     15     14     26     1   109.8000471 387.438400
     15     14     16     1   107.5800459 329.699200
     16     14     26     1   109.8000471 387.438400
     17     20     21     1   109.5600471 388.275200
     17     20     22     1   109.5600471 388.275200
     18     17     20     1   109.8000471 387.438400
     18     17     19     1   107.5800459 329.699200
     19     17     20     1   109.8000471 387.438400
     21     20     57     1   109.7800468 425.094400
     21     20     22     1   108.4600466 328.025600
     22     20     57     1   109.7800468 425.094400
     24     23     86     1   109.7800468 425.094400
     24     23     25     1   108.4600466 328.025600
     25     23     86     1   109.7800468 425.094400
     27     26    115     1   109.7800468 425.094400
     27     26     28     1   108.4600466 328.025600
     28     26    115     1   109.7800468 425.094400
     29     30     31     1   109.8800469 414.216000
     29     30     32     1   109.8800469 414.216000
     29     33     34     1   109.8800469 414.216000
     29     33     35     1   109.8800469 414.216000
     29     36     37     1   109.8800469 414.216000
     29     36     38     1   109.8800469 414.216000
     30     42     43     1   109.8000471 387.438400
     30     42     44     1   109.8000471 387.438400
     31     30     42     1   109.5600471 388.275200
     31     30     32     1   108.4600466 328.025600
     32     30     42     1   109.5600471 388.275200
     33     45     46     1   109.8000471 387.438400
     33     45     47     1   109.8000471 387.438400
     34     33     45     1   109.5600471 388.275200
     34     33     35     1   108.4600466 328.025600
     35     33     45     1   109.5600471 388.275200
     36     39     40     1   109.8000471 387.438400
     36     39     41     1   109.8000471 387.438400
     37     36     39     1   109.5600471 388.275200
     37     36     38     1   108.4600466 328.025600
     38     36     39     1   109.5600471 388.275200
     39     48     49     1   109.5600471 388.275200
     39     48     50     1   109.5600471 388.275200
     40     39     48     1   109.8000471 387.438400
     40     39     41     1   107.5800459 329.699200
     41     39     48     1   109.8000471 387.438400
     42     54     55     1   109.5600471 388.275200
     42     54     56     1   109.5600471 388.275200
     43     42     54     1   109.8000471 387.438400
     43     42     44     1   107.5800459 329.699200
     44     42     54     1   109.8000471 387.438400
     45     51     52     1   109.5600471 388.275200
     45     51     53     1   109.5600471 388.275200
     46     45     51     1   109.8000471 387.438400
     46     45     47     1   107.5800459 329.699200
     47     45     51     1   109.8000471 387.438400
     49     48     57     1   109.7800468 425.094400
     49     48     50     1   108.4600466 328.025600
     50     48     57     1   109.7800468 425.094400
     52     51    144     1   109.7800468 425.094400
     52     51     53     1   108.4600466 328.025600
     53     51    144     1   109.7800468 425.094400
     55     54    173     1   109.7800468 425.094400
     55     54     56     1   108.4600466 328.025600
     56     54    173     1   109.7800468 425.094400
     58     59     60     1   109.8800469 414.216000
     58     59     61     1   109.8800469 414.216000
     58     62     63     1   109.8800469 414.216000
     58     62     64     1   109.8800469 414.216000
     58     65     66     1   109.8800469 414.216000
     58     65     67     1   109.8800469 414.216000
     59     71     72     1   109.8000471 387.438400
     59     71     73     1   109.8000471 387.438400
     60     59     71     1   109.5600471 388.275200
     60     59     61     1   108.4600466 328.025600
     61     59     71     1   109.5600471 388.275200
     62     74     75     1   109.8000471 387.438400
     62     74     76     1   109.8000471 387.438400
     63     62     74     1   109.5600471 388.275200
     63     62     64     1   108.4600466 328.025600
     64     62     74     1   109.5600471 388.275200
     65     68     69     1   109.8000471 387.438400
     65     68     70     1   109.8000471 387.438400
     66     65     68     1   109.5600471 388.275200
     66     65     67     1   108.4600466 328.025600
     67     65     68     1   109.5600471 388.275200
     68     77     78     1   109.5600471 388.275200
     68     77     79     1   109.5600471 388.275200
     69     68     77     1   109.8000471 387.438400
     69     68     70     1   107.5800459 329.699200
     70     68     77     1   109.8000471 387.438400
     71     83     84     1   109.5600471 388.275200
     71     83     85     1   109.5600471 388.275200
     72     71     83     1   109.8000471 387.438400
     72     71     73     1   107.5800459 329.699200
     73     71     83     1   109.8000471 387.438400
     74     80     81     1   109.5600471 388.275200
     74     80     82     1   109.5600471 388.275200
     75     74     80     1   109.8000471 387.438400
     75     74     76     1   107.5800459 329.699200
     76     74     80     1   109.8000471 387.438400
     78     77     86     1   109.7800468 425.094400
     78     77     79     1   108.4600466 328.025600
     79     77     86     1   109.7800468 425.094400
     81     80    202     1   109.7800468 425.094400
     81     80     82     1   108.4600466 328.025600
     82     80    202     1   109.7800468 425.094400
     84     83    231     1   109.7800468 425.094400
     84     83     85     1   108.4600466 328.025600
     85     83    231     1   109.7800468 425.094400
     87     88     89     1   109.8800469 414.216000
     87     88     90     1   109.8800469 414.216000
     87     91     92     1   109.8800469 414.216000
     87     91     93     1   109.8800469 414.216000
     87     94     95     1   109.8800469 414.216000
     87     94     96     1   109.8800469 414.216000
     88    100    101     1   109.8000471 387.438400
     88    100    102     1   109.8000471 387.438400
     89     88    100     1   109.5600471 388.275200
     89     88     90     1   108.4600466 328.025600
     90     88    100     1   109.5600471 388.275200
     91    103    104     1   109.8000471 387.438400
     91    103    105     1   109.8000471 387.438400
     92     91    103     1   109.5600471 388.275200
     92     91     93     1   108.4600466 328.025600
     93     91    103     1   109.5600471 388.275200
     94     97     98     1   109.8000471 387.438400
     94     97     99     1   109.8000471 387.438400
     95     94     97     1   109.5600471 388.275200
     95     94     96     1   108.4600466 328.025600
     96     94     97     1   109.5600471 388.275200
     97    106    107     1   109.5600471 388.275200
     97    106    108     1   109.5600471 388.275200
     98     97    106     1   109.8000471 387.438400
     98     97     99     1   107.5800459 329.699200
     99     97    106     1   109.8000471 387.438400
    100    112    113     1   109.5600471 388.275200
    100    112    114     1   109.5600471 388.275200
    101    100    112     1   109.8000471 387.438400
    101    100    102     1   107.5800459 329.699200
    102    100    112     1   109.8000471 387.438400
    103    109    110     1   109.5600471 388.275200
    103    109    111     1   109.5600471 388.275200
    104    103    109     1   109.8000471 387.438400
    104    103    105     1   107.5800459 329.699200
    105    103    109     1   109.8000471 387.438400
    107    106    115     1   109.7800468 425.094400
    107    106    108     1   108.4600466 328.025600
    108    106    115     1   109.7800468 425.094400
    110    109    260     1   109.7800468 425.094400
    110    109    111     1   108.4600466 328.025600
    111    109    260     1   109.7800468 425.094400
    113    112    289     1   109.7800468 425.094400
    113    112    114     1   108.4600466 328.025600
    114    112    289     1   109.7800468 425.094400
    116    117    118     1   109.8800469 414.216000
    116    117    119     1   109.8800469 414.216000
    116    120    121     1   109.8800469 414.216000
    116    120    122     1   109.8800469 414.216000
    116    123    124     1   109.8800469 414.216000
    116    123    125     1   109.8800469 414.216000
    117    129    130     1   109.8000471 387.438400
    117    129    131     1   109.8000471 387.438400
    118    117    129     1   109.5600471 388.275200
    118    117    119     1   108.4600466 328.025600
    119    117    129     1   109.5600471 388.275200
    120    132    133     1   109.8000471 387.438400
    120    132    134     1   109.8000471 387.438400
    121    120    132     1   109.5600471 388.275200
    121    120    122     1   108.4600466 328.025600
    122    120    132     1   109.5600471 388.275200
    123    126    127     1   109.8000471 387.438400
    123    126    128     1   109.8000471 387.438400
    124    123    126     1   109.5600471 388.275200
    124    123    125     1   108.4600466 328.025600
    125    123    126     1   109.5600471 388.275200
    126    135    136     1   109.5600471 388.275200
    126    135    137     1   109.5600471 388.275200
    127    126    135     1   109.8000471 387.438400
    127    126    128     1   107.5800459 329.699200
    128    126    135     1   109.8000471 387.438400
    129    141    142     1   109.5600471 388.275200
    129    141    143     1   109.5600471 388.275200
    130    129    141     1   109.8000471 387.438400
    130    129    131     1   107.5800459 329.699200
    131    129    141     1   109.8000471 387.438400
    132    138    139     1   109.5600471 388.275200
    132    138    140     1   109.5600471 388.275200
    133    132    138     1   109.8000471 387.438400
    133    132    134     1   107.5800459 329.699200
    134    132    138     1   109.8000471 387.438400
    136    135    144     1   109.7800468 425.094400
    136    135    137     1   108.4600466 328.025600
    137    135    144     1   109.7800468 425.094400
    139    138    302     1   109.7800468 425.094400
    139    138    140     1   108.4600466 328.025600
    140    138    302     1   109.7800468 425.094400
    142    141    315     1   109.7800468 425.094400
    142    141    143     1   108.4600466 328.025600
    143    141    315     1   109.7800468 425.094400
    145    146    147     1   109.8800469 414.216000
    145    146    148     1   109.8800469 414.216000
    145    149    150     1   109.8800469 414.216000
    145    149    151     1   109.8800469 414.216000
    145    152    153     1   109.8800469 414.216000
    145    152    154     1   109.8800469 414.216000
    146    158    159     1   109.8000471 387.438400
    146    158    160     1   109.8000471 387.438400
    147    146    158     1   109.5600471 388.275200
    147    146    148     1   108.4600466 328.025600
    148    146    158     1   109.5600471 388.275200
    149    161    162     1   109.8000471 387.438400
    149    161    163     1   109.8000471 387.438400
    150    149    161     1   109.5600471 388.275200
    150    149    151     1   108.4600466 328.025600
    151    149    161     1   109.5600471 388.275200
    152    155    156     1   109.8000471 387.438400
    152    155    157     1   109.8000471 387.438400
    153    152    155     1   109.5600471 388.275200
    153    152    154     1   108.4600466 328.025600
    154    152    155     1   109.5600471 388.275200
    155    164    165     1   109.5600471 388.275200
    155    164    166     1   109.5600471 388.275200
    156    155    164     1   109.8000471 387.438400
    156    155    157     1   107.5800459 329.699200
    157    155    164     1   109.8000471 387.438400
    158    170    171     1   109.5600471 388.275200
    158    170    172     1   109.5600471 388.275200
    159    158    170     1   109.8000471 387.438400
    159    158    160     1   107.5800459 329.699200
    160    158    170     1   109.8000471 387.438400
    161    167    168     1   109.5600471 388.275200
    161    167    169     1   109.5600471 388.275200
    162    161    167     1   109.8000471 387.438400
    162    161    163     1   107.5800459 329.699200
    163    161    167     1   109.8000471 387.438400
    165    164    173     1   109.7800468 425.094400
    165    164    166     1   108.4600466 328.025600
    166    164    173     1   109.7800468 425.094400
    168    167    328     1   109.7800468 425.094400
    168    167    169     1   108.4600466 328.025600
    169    167    328     1   109.7800468 425.094400
    171    170    341     1   109.7800468 425.094400
    171    170    172     1   108.4600466 328.025600
    172    170    341     1   109.7800468 425.094400
    174    175    176     1   109.8800469 414.216000
    174    175    177     1   109.8800469 414.216000
    174    178    179     1   109.8800469 414.216000
    174    178    180     1   109.8800469 414.216000
    174    181    182     1   109.8800469 414.216000
    174    181    183     1   109.8800469 414.216000
    175    187    188     1   109.8000471 387.438400
    175    187    189     1   109.8000471 387.438400
    176    175    187     1   109.5600471 388.275200
    176    175    177     1   108.4600466 328.025600
    177    175    187     1   109.5600471 388.275200
    178    190    191     1   109.8000471 387.438400
    178    190    192     1   109.8000471 387.438400
    179    178    190     1   109.5600471 388.275200
    179    178    180     1   108.4600466 328.025600
    180    178    190     1   109.5600471 388.275200
    181    184    185     1   109.8000471 387.438400
    181    184    186     1   109.8000471 387.438400
    182    181    184     1   109.5600471 388.275200
    182    181    183     1   108.4600466 328.025600
    183    181    184     1   109.5600471 388.275200
    184    193    194     1   109.5600471 388.275200
    184    193    195     1   109.5600471 388.275200
    185    184    193     1   109.8000471 387.438400
    185    184    186     1   107.5800459 329.699200
    186    184    193     1   109.8000471 387.438400
    187    199    200     1   109.5600471 388.275200
    187    199    201     1   109.5600471 388.275200
    188    187    199     1   109.8000471 387.438400
    188    187    189     1   107.5800459 329.699200
    189    187    199     1   109.8000471 387.438400
    190    196    197     1   109.5600471 388.275200
    190    196    198     1   109.5600471 388.275200
    191    190    196     1   109.8000471 387.438400
    191    190    192     1   107.5800459 329.699200
    192    190    196     1   109.8000471 387.438400
    194    193    202     1   109.7800468 425.094400
    194    193    195     1   108.4600466 328.025600
    195    193    202     1   109.7800468 425.094400
    197    196    354     1   109.7800468 425.094400
    197    196    198     1   108.4600466 328.025600
    198    196    354     1   109.7800468 425.094400
    200    199    367     1   109.7800468 425.094400
    200    199    201     1   108.4600466 328.025600
    201    199    367     1   109.7800468 425.094400
    203    204    205     1   109.8800469 414.216000
    203    204    206     1   109.8800469 414.216000
    203    207    208     1   109.8800469 414.216000
    203    207    209     1   109.8800469 414.216000
    203    210    211     1   109.8800469 414.216000
    203    210    212     1   109.8800469 414.216000
    204    216    217     1   109.8000471 387.438400
    204    216    218     1   109.8000471 387.438400
    205    204    216     1   109.5600471 388.275200
    205    204    206     1   108.4600466 328.025600
    206    204    216     1   109.5600471 388.275200
    207    219    220     1   109.8000471 387.438400
    207    219    221     1   109.8000471 387.438400
    208    207    219     1   109.5600471 388.275200
    208    207    209     1   108.4600466 328.025600
    209    207    219     1   109.5600471 388.275200
    210    213    214     1   109.8000471 387.438400
    210    213    215     1   109.8000471 387.438400
    211    210    213     1   109.5600471 388.275200
    211    210    212     1   108.4600466 328.025600
    212    210    213     1   109.5600471 388.275200
    213    222    223     1   109.5600471 388.275200
    213    222    224     1   109.5600471 388.275200
    214    213    222     1   109.8000471 387.438400
    214    213    215     1   107.5800459 329.699200
    215    213    222     1   109.8000471 387.438400
    216    228    229     1   109.5600471 388.275200
    216    228    230     1   109.5600471 388.275200
    217    216    228     1   109.8000471 387.438400
    217    216    218     1   107.5800459 329.699200
    218    216    228     1   109.8000471 387.438400
    219    225    226     1   109.5600471 388.275200
    219    225    227     1   109.5600471 388.275200
    220    219    225     1   109.8000471 387.438400
    220    219    221     1   107.5800459 329.699200
    221    219    225     1   109.8000471 387.438400
    223    222    231     1   109.7800468 425.094400
    223    222    224     1   108.4600466 328.025600
    224    222    231     1   109.7800468 425.094400
    226    225    380     1   109.7800468 425.094400
    226    225    227     1   108.4600466 328.025600
    227    225    380     1   109.7800468 425.094400
    229    228    393     1   109.7800468 425.094400
    229    228    230     1   108.4600466 328.025600
    230    228    393     1   109.7800468 425.094400
    232    233    234     1   109.8800469 414.216000
    232    233    235     1   109.8800469 414.216000
    232    236    237     1   109.8800469 414.216000
    232    236    238     1   109.8800469 414.216000
    232    239    240     1   109.8800469 414.216000
    232    239    241     1   109.8800469 414.216000
    233    245    246     1   109.8000471 387.438400
    233    245    247     1   109.8000471 387.438400
    234    233    245     1   109.5600471 388.275200
    234    233    235     1   108.4600466 328.025600
    235    233    245     1   109.5600471 388.275200
    236    248    249     1   109.8000471 387.438400
    236    248    250     1   109.8000471 387.438400
    237    236    248     1   109.5600471 388.275200
    237    236    238     1   108.4600466 328.025600
    238    236    248     1   109.5600471 388.275200
    239    242    243     1   109.8000471 387.438400
    239    242    244     1   109.8000471 387.438400
    240    239    242     1   109.5600471 388.275200
    240    239    241     1   108.4600466 328.025600
    241    239    242     1   109.5600471 388.275200
    242    251    252     1   109.5600471 388.275200
    242    251    253     1   109.5600471 388.275200
    243    242    251     1   109.8000471 387.438400
    243    242    244     1   107.5800459 329.699200
    244    242    251     1   109.8000471 387.438400
    245    257    258     1   109.5600471 388.275200
    245    257    259     1   109.5600471 388.275200
    246    245    257     1   109.8000471 387.438400
    246    245    247     1   107.5800459 329.699200
    247    245    257     1   109.8000471 387.438400
    248    254    255     1   109.5600471 388.275200
    248    254    256     1   109.5600471 388.275200
    249    248    254     1   109.8000471 387.438400
    249    248    250     1   107.5800459 329.699200
    250    248    254     1   109.8000471 387.438400
    252    251    260     1   109.7800468 425.094400
    252    251    253     1   108.4600466 328.025600
    253    251    260     1   109.7800468 425.094400
    255    254    406     1   109.7800468 425.094400
    255    254    256     1   108.4600466 328.025600
    256    254    406     1   109.7800468 425.094400
    258    257    419     1   109.7800468 425.094400
    258    257    259     1   108.4600466 328.025600
    259    257    419     1   109.7800468 425.094400
    261    262    263     1   109.8800469 414.216000
    261    262    264     1   109.8800469 414.216000
    261    265    266     1   109.8800469 414.216000
    261    265    267     1   109.8800469 414.216000
    261    268    269     1   109.8800469 414.216000
    261    268    270     1   109.8800469 414.216000
    262    274    275     1   109.8000471 387.438400
    262    274    276     1   109.8000471 387.438400
    263    262    274     1   109.5600471 388.275200
    263    262    264     1   108.4600466 328.025600
    264    262    274     1   109.5600471 388.275200
    265    277    278     1   109.8000471 387.438400
    265    277    279     1   109.8000471 387.438400
    266    265    277     1   109.5600471 388.275200
    266    265    267     1   108.4600466 328.025600
    267    265    277     1   109.5600471 388.275200
    268    271    272     1   109.8000471 387.438400
    268    271    273     1   109.8000471 387.438400
    269    268    271     1   109.5600471 388.275200
    269    268    270     1   108.4600466 328.025600
    270    268    271     1   109.5600471 388.275200
    271    280    281     1   109.5600471 388.275200
    271    280    282     1   109.5600471 388.275200
    272    271    280     1   109.8000471 387.438400
    272    271    273     1   107.5800459 329.699200
    273    271    280     1   109.8000471 387.438400
    274    286    287     1   109.5600471 388.275200
    274    286    288     1   109.5600471 388.275200
    275    274    286     1   109.8000471 387.438400
    275    274    276     1   107.5800459 329.699200
    276    274    286     1   109.8000471 387.438400
    277    283    284     1   109.5600471 388.275200
    277    283    285     1   109.5600471 388.275200
    278    277    283     1   109.8000471 387.438400
    278    277    279     1   107.5800459 329.699200
    279    277    283     1   109.8000471 387.438400
    281    280    289     1   109.7800468 425.094400
    281    280    282     1   108.4600466 328.025600
    282    280    289     1   109.7800468 425.094400
    284    283    432     1   109.7800468 425.094400
    284    283    285     1   108.4600466 328.025600
    285    283    432     1   109.7800468 425.094400
    287    286    445     1   109.7800468 425.094400
    287    286    288     1   108.4600466 328.025600
    288    286    445     1   109.7800468 425.094400
    290    293    294     1   109.8000471 387.438400
    290    293    295     1   109.8000471 387.438400
    290    299    300     1   109.2900470 396.643200
    290    299    301     1   109.2900470 396.643200
    291    290    293     1   109.5600471 388.275200
    291    290    299     1   109.8800469 414.216000
    291    290    292     1   108.4600466 328.025600
    292    290    293     1   109.5600471 388.275200
    292    290    299     1   109.8800469 414.216000
    293    296    297     1   109.5600471 388.275200
    293    296    298     1   109.5600471 388.275200
    294    293    296     1   109.8000471 387.438400
    294    293    295     1   107.5800459 329.699200
    295    293    296     1   109.8000471 387.438400
    297    296    302     1   109.7800468 425.094400
    297    296    298     1   108.4600466 328.025600
    298    296    302     1   109.7800468 425.094400
    300    299    301     1   106.4000456 346.435200
    303    306    307     1   109.8000471 387.438400
    303    306    308     1   109.8000471 387.438400
    303    312    313     1   109.2900470 396.643200
    303    312    314     1   109.2900470 396.643200
    304    303    306     1   109.5600471 388.275200
    304    303    312     1   109.8800469 414.216000
    304    303    305     1   108.4600466 328.025600
    305    303    306     1   109.5600471 388.275200
    305    303    312     1   109.8800469 414.216000
    306    309    310     1   109.5600471 388.275200
    306    309    311     1   109.5600471 388.275200
    307    306    309     1   109.8000471 387.438400
    307    306    308     1   107.5800459 329.699200
    308    306    309     1   109.8000471 387.438400
    310    309    315     1   109.7800468 425.094400
    310    309    311     1   108.4600466 328.025600
    311    309    315     1   109.7800468 425.094400
    313    312    314     1   106.4000456 346.435200
    316    319    320     1   109.8000471 387.438400
    316    319    321     1   109.8000471 387.438400
    316    325    326     1   109.2900470 396.643200
    316    325    327     1   109.2900470 396.643200
    317    316    319     1   109.5600471 388.275200
    317    316    325     1   109.8800469 414.216000
    317    316    318     1   108.4600466 328.025600
    318    316    319     1   109.5600471 388.275200
    318    316    325     1   109.8800469 414.216000
    319    322    323     1   109.5600471 388.275200
    319    322    324     1   109.5600471 388.275200
    320    319    322     1   109.8000471 387.438400
    320    319    321     1   107.5800459 329.699200
    321    319    322     1   109.8000471 387.438400
    323    322    328     1   109.7800468 425.094400
    323    322    324     1   108.4600466 328.025600
    324    322    328     1   109.7800468 425.094400
    326    325    327     1   106.4000456 346.435200
    329    332    333     1   109.8000471 387.438400
    329    332    334     1   109.8000471 387.438400
    329    338    339     1   109.2900470 396.643200
    329    338    340     1   109.2900470 396.643200
    330    329    332     1   109.5600471 388.275200
    330    329    338     1   109.8800469 414.216000
    330    329    331     1   108.4600466 328.025600
    331    329    332     1   109.5600471 388.275200
    331    329    338     1   109.8800469 414.216000
    332    335    336     1   109.5600471 388.275200
    332    335    337     1   109.5600471 388.275200
    333    332    335     1   109.8000471 387.438400
    333    332    334     1   107.5800459 329.699200
    334    332    335     1   109.8000471 387.438400
    336    335    341     1   109.7800468 425.094400
    336    335    337     1   108.4600466 328.025600
    337    335    341     1   109.7800468 425.094400
    339    338    340     1   106.4000456 346.435200
    342    345    346     1   109.8000471 387.438400
    342    345    347     1   109.8000471 387.438400
    342    351    352     1   109.2900470 396.643200
    342    351    353     1   109.2900470 396.643200
    343    342    345     1   109.5600471 388.275200
    343    342    351     1   109.8800469 414.216000
    343    342    344     1   108.4600466 328.025600
    344    342    345     1   109.5600471 388.275200
    344    342    351     1   109.8800469 414.216000
    345    348    349     1   109.5600471 388.275200
    345    348    350     1   109.5600471 388.275200
    346    345    348     1   109.8000471 387.438400
    346    345    347     1   107.5800459 329.699200
    347    345    348     1   109.8000471 387.438400
    349    348    354     1   109.7800468 425.094400
    349    348    350     1   108.4600466 328.025600
    350    348    354     1   109.7800468 425.094400
    352    351    353     1   106.4000456 346.435200
    355    358    359     1   109.8000471 387.438400
    355    358    360     1   109.8000471 387.438400
    355    364    365     1   109.2900470 396.643200
    355    364    366     1   109.2900470 396.643200
    356    355    358     1   109.5600471 388.275200
    356    355    364     1   109.8800469 414.216000
    356    355    357     1   108.4600466 328.025600
    357    355    358     1   109.5600471 388.275200
    357    355    364     1   109.8800469 414.216000
    358    361    362     1   109.5600471 388.275200
    358    361    363     1   109.5600471 388.275200
    359    358    361     1   109.8000471 387.438400
    359    358    360     1   107.5800459 329.699200
    360    358    361     1   109.8000471 387.438400
    362    361    367     1   109.7800468 425.094400
    362    361    363     1   108.4600466 328.025600
    363    361    367     1   109.7800468 425.094400
    365    364    366     1   106.4000456 346.435200
    368    371    372     1   109.8000471 387.438400
    368    371    373     1   109.8000471 387.438400
    368    377    378     1   109.2900470 396.643200
    368    377    379     1   109.2900470 396.643200
    369    368    371     1   109.5600471 388.275200
    369    368    377     1   109.8800469 414.216000
    369    368    370     1   108.4600466 328.025600
    370    368    371     1   109.5600471 388.275200
    370    368    377     1   109.8800469 414.216000
    371    374    375     1   109.5600471 388.275200
    371    374    376     1   109.5600471 388.275200
    372    371    374     1   109.8000471 387.438400
    372    371    373     1   107.5800459 329.699200
    373    371    374     1   109.8000471 387.438400
    375    374    380     1   109.7800468 425.094400
    375    374    376     1   108.4600466 328.025600
    376    374    380     1   109.7800468 425.094400
    378    377    379     1   106.4000456 346.435200
    381    384    385     1   109.8000471 387.438400
    381    384    386     1   109.8000471 387.438400
    381    390    391     1   109.2900470 396.643200
    381    390    392     1   109.2900470 396.643200
    382    381    384     1   109.5600471 388.275200
    382    381    390     1   109.8800469 414.216000
    382    381    383     1   108.4600466 328.025600
    383    381    384     1   109.5600471 388.275200
    383    381    390     1   109.8800469 414.216000
    384    387    388     1   109.5600471 388.275200
    384    387    389     1   109.5600471 388.275200
    385    384    387     1   109.8000471 387.438400
    385    384    386     1   107.5800459 329.699200
    386    384    387     1   109.8000471 387.438400
    388    387    393     1   109.7800468 425.094400
    388    387    389     1   108.4600466 328.025600
    389    387    393     1   109.7800468 425.094400
    391    390    392     1   106.4000456 346.435200
    394    397    398     1   109.8000471 387.438400
    394    397    399     1   109.8000471 387.438400
    394    403    404     1   109.2900470 396.643200
    394    403    405     1   109.2900470 396.643200
    395    394    397     1   109.5600471 388.275200
    395    394    403     1   109.8800469 414.216000
    395    394    396     1   108.4600466 328.025600
    396    394    397     1   109.5600471 388.275200
    396    394    403     1   109.8800469 414.216000
    397    400    401     1   109.5600471 388.275200
    397    400    402     1   109.5600471 388.275200
    398    397    400     1   109.8000471 387.438400
    398    397    399     1   107.5800459 329.699200
    399    397    400     1   109.8000471 387.438400
    401    400    406     1   109.7800468 425.094400
    401    400    402     1   108.4600466 328.025600
    402    400    406     1   109.7800468 425.094400
    404    403    405     1   106.4000456 346.435200
    407    410    411     1   109.8000471 387.438400
    407    410    412     1   109.8000471 387.438400
    407    416    417     1   109.2900470 396.643200
    407    416    418     1   109.2900470 396.643200
    408    407    410     1   109.5600471 388.275200
    408    407    416     1   109.8800469 414.216000
    408    407    409     1   108.4600466 328.025600
    409    407    410     1   109.5600471 388.275200
    409    407    416     1   109.8800469 414.216000
    410    413    414     1   109.5600471 388.275200
    410    413    415     1   109.5600471 388.275200
    411    410    413     1   109.8000471 387.438400
    411    410    412     1   107.5800459 329.699200
    412    410    413     1   109.8000471 387.438400
    414    413    419     1   109.7800468 425.094400
    414    413    415     1   108.4600466 328.025600
    415    413    419     1   109.7800468 425.094400
    417    416    418     1   106.4000456 346.435200
    420    423    424     1   109.8000471 387.438400
    420    423    425     1   109.8000471 387.438400
    420    429    430     1   109.2900470 396.643200
    420    429    431     1   109.2900470 396.643200
    421    420    423     1   109.5600471 388.275200
    421    420    429     1   109.8800469 414.216000
    421    420    422     1   108.4600466 328.025600
    422    420    423     1   109.5600471 388.275200
    422    420    429     1   109.8800469 414.216000
    423    426    427     1   109.5600471 388.275200
    423    426    428     1   109.5600471 388.275200
    424    423    426     1   109.8000471 387.438400
    424    423    425     1   107.5800459 329.699200
    425    423    426     1   109.8000471 387.438400
    427    426    432     1   109.7800468 425.094400
    427    426    428     1   108.4600466 328.025600
    428    426    432     1   109.7800468 425.094400
    430    429    431     1   106.4000456 346.435200
    433    436    437     1   109.8000471 387.438400
    433    436    438     1   109.8000471 387.438400
    433    442    443     1   109.2900470 396.643200
    433    442    444     1   109.2900470 396.643200
    434    433    436     1   109.5600471 388.275200
    434    433    442     1   109.8800469 414.216000
    434    433    435     1   108.4600466 328.025600
    435    433    436     1   109.5600471 388.275200
    435    433    442     1   109.8800469 414.216000
    436    439    440     1   109.5600471 388.275200
    436    439    441     1   109.5600471 388.275200
    437    436    439     1   109.8000471 387.438400
    437    436    438     1   107.5800459 329.699200
    438    436    439     1   109.8000471 387.438400
    440    439    445     1   109.7800468 425.094400
    440    439    441     1   108.4600466 328.025600
    441    439    445     1   109.7800468 425.094400
    443    442    444     1   106.4000456 346.435200

[ dihedrals ]
;    ai     aj     ak     al funct         c0         c1         c2         c3         c4         c5
      1      2     14     26     1  0.0000000  0.6508444  3
      1      5     17     20     1  0.0000000  0.6508444  3
      1      8     11     23     1  0.0000000  0.6508444  3
      2      1      5     17     1  180.0000771  2.0083200  2
      2      1      5     17     1  0.0000000  1.2552000  3
      2      1      8     11     1  180.0000771  2.0083200  2
      2      1      8     11     1  0.0000000  1.2552000  3
      2     14     26    115     1  0.0000000  0.6508444  3
      5      1      2     14     1  180.0000771  2.0083200  2
      5      1      2     14     1  0.0000000  1.2552000  3
      5      1      8     11     1  180.0000771  2.0083200  2
      5      1      8     11     1  0.0000000  1.2552000  3
      5     17     20     57     1  0.0000000  0.6508444  3
      8      1      2     14     1  180.0000771  2.0083200  2
      8      1      2     14     1  0.0000000  1.2552000  3
      8      1      5     17     1  180.0000771  2.0083200  2
      8      1      5     17     1  0.0000000  1.2552000  3
      8     11     23     86     1  0.0000000  0.6508444  3
     11     23     86     77     1  180.0000771  0.4184000  2
     11     23     86     77     1  0.0000000  1.6024720  3
     14     26    115    106     1  180.0000771  0.4184000  2
     14     26    115    106     1  0.0000000  1.6024720  3
     17     20     57     48     1  180.0000771  0.4184000  2
     17     20     57     48     1  0.0000000  1.6024720  3
     20     57     48     39     1  180.0000771  0.4184000  2
     20     57     48     39     1  0.0000000  1.6024720  3
     23     86     77     68     1  180.0000771  0.4184000  2
     23     86     77     68     1  0.0000000  1.6024720  3
     26    115    106     97     1  180.0000771  0.4184000  2
     26    115    106     97     1  0.0000000  1.6024720  3
     29     30     42     54     1  0.0000000  0.6508444  3
     29     33     45     51     1  0.0000000  0.6508444  3
     29     36     39     48     1  0.0000000  0.6508444  3
     30     29     33     45     1  180.0000771  2.0083200  2
     30     29     33     45     1  0.0000000  1.2552000  3
     30     29     36     39     1  180.0000771  2.0083200  2
     30     29     36     39     1  0.0000000  1.2552000  3
     30     42     54    173     1  0.0000000  0.6508444  3
     33     29     30     42     1  180.0000771  2.0083200  2
     33     29     30     42     1  0.0000000  1.2552000  3
     33     29     36     39     1  180.0000771  2.0083200  2
     33     29     36     39     1  0.0000000  1.2552000  3
     33     45     51    144     1  0.0000000  0.6508444  3
     36     29     30     42     1  180.0000771  2.0083200  2
     36     29     30     42     1  0.0000000  1.2552000  3
     36     29     33     45     1  180.0000771  2.0083200  2
     36     29     33     45     1  0.0000000  1.2552000  3
     36     39     48     57     1  0.0000000  0.6508444  3
     42     54    173    164     1  180.0000771  0.4184000  2
     42     54    173    164     1  0.0000000  1.6024720  3
     45     51    144    135     1  180.0000771  0.4184000  2
     45     51    144    135     1  0.0000000  1.6024720  3
     51    144    135    126     1  180.0000771  0.4184000  2
     51    144    135    126     1  0.0000000  1.6024720  3
     54    173    164    155     1  180.0000771  0.4184000  2
     54    173    164    155     1  0.0000000  1.6024720  3
     58     59     71     83     1  0.0000000  0.6508444  3
     58     62     74     80     1  0.0000000  0.6508444  3
     58     65     68     77     1  0.0000000  0.6508444  3
     59     58     62     74     1  180.0000771  2.0083200  2
     59     58     62     74     1  0.0000000  1.2552000  3
     59     58     65     68     1  180.0000771  2.0083200  2
     59     58     65     68     1  0.0000000  1.2552000  3
     59     71     83    231     1  0.0000000  0.6508444  3
     62     58     59     71     1  180.0000771  2.0083200  2
     62     58     59     71     1  0.0000000  1.2552000  3
     62     58     65     68     1  180.0000771  2.0083200  2
     62     58     65     68     1  0.0000000  1.2552000  3
     62     74     80    202     1  0.0000000  0.6508444  3
     65     58     59     71     1  180.0000771  2.0083200  2
     65     58     59     71     1  0.0000000  1.2552000  3
     65     58     62     74     1  180.0000771  2.0083200  2
     65     58     62     74     1  0.0000000  1.2552000  3
     65     68     77     86     1  0.0000000  0.6508444  3
     71     83    231    222     1  180.0000771  0.4184000  2
     71     83    231    222     1  0.0000000  1.6024720  3
     74     80    202    193     1  180.0000771  0.4184000  2
     74     80    202    193     1  0.0000000  1.6024720  3
     80    202    193    184     1  180.0000771  0.4184000  2
     80    202    193    184     1  0.0000000  1.6024720  3
     83    231    222    213     1  180.0000771  0.4184000  2
     83    231    222    213     1  0.0000000  1.6024720  3
     87     88    100    112     1  0.0000000  0.6508444  3
     87     91    103    109     1  0.0000000  0.6508444  3
     87     94     97    106     1  0.0000000  0.6508444  3
     88     87     91    103     1  180.0000771  2.0083200  2
     88     87     91    103     1  0.0000000  1.2552000  3
     88     87     94     97     1  180.0000771  2.0083200  2
     88     87     94     97     1  0.0000000  1.2552000  3
     88    100    112    289     1  0.0000000  0.6508444  3
     91     87     88    100     1  180.0000771  2.0083200  2
     91     87     88    100     1  0.0000000  1.2552000  3
     91     87     94     97     1  180.0000771  2.0083200  2
     91     87     94     97     1  0.0000000  1.2552000  3
     91    103    109    260     1  0.0000000  0.6508444  3
     94     87     88    100     1  180.0000771  2.0083200  2
     94     87     88    100     1  0.0000000  1.2552000  3
     94     87     91    103     1  180.0000771  2.0083200  2
     94     87     91    103     1  0.0000000  1.2552000  3
     94     97    106    115     1  0.0000000  0.6508444  3
    100    112    289    280     1  180.0000771  0.4184000  2
    100    112    289    280     1  0.0000000  1.6024720  3
    103    109    260    251     1  180.0000771  0.4184000  2
    103    109    260    251     1  0.0000000  1.6024720  3
    109    260    251    242     1  180.0000771  0.4184000  2
    109    260    251    242     1  0.0000000  1.6024720  3
    112    289    280    271     1  180.0000771  0.4184000  2
    112    289    280    271     1  0.0000000  1.6024720  3
    116    117    129    141     1  0.0000000  0.6508444  3
    116    120    132    138     1  0.0000000  0.6508444  3
    116    123    126    135     1  0.0000000  0.6508444  3
    117    116    120    132     1  180.0000771  2.0083200  2
    117    116    120    132     1  0.0000000  1.2552000  3
    117    116    123    126     1  180.0000771  2.0083200  2
    117    116    123    126     1  0.0000000  1.2552000  3
    117    129    141    315     1  0.0000000  0.6508444  3
    120    116    117    129     1  180.0000771  2.0083200  2
    120    116    117    129     1  0.0000000  1.2552000  3
    120    116    123    126     1  180.0000771  2.0083200  2
    120    116    123    126     1  0.0000000  1.2552000  3
    120    132    138    302     1  0.0000000  0.6508444  3
    123    116    117    129     1  180.0000771  2.0083200  2
    123    116    117    129     1  0.0000000  1.2552000  3
    123    116    120    132     1  180.0000771  2.0083200  2
    123    116    120    132     1  0.0000000  1.2552000  3
    123    126    135    144     1  0.0000000  0.6508444  3
    129    141    315    309     1  180.0000771  0.4184000  2
    129    141    315    309     1  0.0000000  1.6024720  3
    132    138    302    296     1  180.0000771  0.4184000  2
    132    138    302    296     1  0.0000000  1.6024720  3
    138    302    296    293     1  180.0000771  0.4184000  2
    138    302    296    293     1  0.0000000  1.6024720  3
    141    315    309    306     1  180.0000771  0.4184000  2
    141    315    309    306     1  0.0000000  1.6024720  3
    145    146    158    170     1  0.0000000  0.6508444  3
    145    149    161    167     1  0.0000000  0.6508444  3
    145    152    155    164     1  0.0000000  0.6508444  3
    146    145    149    161     1  180.0000771  2.0083200  2
    146    145    149    161     1  0.0000000  1.2552000  3
    146    145    152    155     1  180.0000771  2.0083200  2
    146    145    152    155     1  0.0000000  1.2552000  3
    146    158    170    341     1  0.0000000  0.6508444  3
    149    145    146    158     1  180.0000771  2.0083200  2
    149    145    146    158     1  0.0000000  1.2552000  3
    149    145    152    155     1  180.0000771  2.0083200  2
    149    145    152    155     1  0.0000000  1.2552000  3
    149    161    167    328     1  0.0000000  0.6508444  3
    152    145    146    158     1  180.0000771  2.0083200  2
    152    145    146    158     1  0.0000000  1.2552000  3
    152    145    149    161     1  180.0000771  2.0083200  2
    152    145    149    161     1  0.0000000  1.2552000  3
    152    155    164    173     1  0.0000000  0.6508444  3
    158    170    341    335     1  180.0000771  0.4184000  2
    158    170    341    335     1  0.0000000  1.6024720  3
    161    167    328    322     1  180.0000771  0.4184000  2
    161    167    328    322     1  0.0000000  1.6024720  3
    167    328    322    319     1  180.0000771  0.4184000  2
    167    328    322    319     1  0.0000000  1.6024720  3
    170    341    335    332     1  180.0000771  0.4184000  2
    170    341    335    332     1  0.0000000  1.6024720  3
    174    175    187    199     1  0.0000000  0.6508444  3
    174    178    190    196     1  0.0000000  0.6508444  3
    174    181    184    193     1  0.0000000  0.6508444  3
    175    174    178    190     1  180.0000771  2.0083200  2
    175    174    178    190     1  0.0000000  1.2552000  3
    175    174    181    184     1  180.0000771  2.0083200  2
    175    174    181    184     1  0.0000000  1.2552000  3
    175    187    199    367     1  0.0000000  0.6508444  3
    178    174    175    187     1  180.0000771  2.0083200  2
    178    174    175    187     1  0.0000000  1.2552000  3
    178    174    181    184     1  180.0000771  2.0083200  2
    178    174    181    184     1  0.0000000  1.2552000  3
    178    190    196    354     1  0.0000000  0.6508444  3
    181    174    175    187     1  180.0000771  2.0083200  2
    181    174    175    187     1  0.0000000  1.2552000  3
    181    174    178    190     1  180.0000771  2.0083200  2
    181    174    178    190     1  0.0000000  1.2552000  3
    181    184    193    202     1  0.0000000  0.6508444  3
    187    199    367    361     1  180.0000771  0.4184000  2
    187    199    367    361     1  0.0000000  1.6024720  3
    190    196    354    348     1  180.0000771  0.4184000  2
    190    196    354    348     1  0.0000000  1.6024720  3
    196    354    348    345     1  180.0000771  0.4184000  2
    196    354    348    345     1  0.0000000  1.6024720  3
    199    367    361    358     1  180.0000771  0.4184000  2
    199    367    361    358     1  0.0000000  1.6024720  3
    203    204    216    228     1  0.0000000  0.6508444  3
    203    207    219    225     1  0.0000000  0.6508444  3
    203    210    213    222     1  0.0000000  0.6508444  3
    204    203    207    219     1  180.0000771  2.0083200  2
    204    203    207    219     1  0.0000000  1.2552000  3
    204    203    210    213     1  180.0000771  2.0083200  2
    204    203    210    213     1  0.0000000  1.2552000  3
    204    216    228    393     1  0.0000000  0.6508444  3
    207    203    204    216     1  180.0000771  2.0083200  2
    207    203    204    216     1  0.0000000  1.2552000  3
    207    203    210    213     1  180.0000771  2.0083200  2
    207    203    210    213     1  0.0000000  1.2552000  3
    207    219    225    380     1  0.0000000  0.6508444  3
    210    203    204    216     1  180.0000771  2.0083200  2
    210    203    204    216     1  0.0000000  1.2552000  3
    210    203    207    219     1  180.0000771  2.0083200  2
    210    203    207    219     1  0.0000000  1.2552000  3
    210    213    222    231     1  0.0000000  0.6508444  3
    216    228    393    387     1  180.0000771  0.4184000  2
    216    228    393    387     1  0.0000000  1.6024720  3
    219    225    380    374     1  180.0000771  0.4184000  2
    219    225    380    374     1  0.0000000  1.6024720  3
    225    380    374    371     1  180.0000771  0.4184000  2
    225    380    374    371     1  0.0000000  1.6024720  3
    228    393    387    384     1  180.0000771  0.4184000  2
    228    393    387    384     1  0.0000000  1.6024720  3
    232    233    245    257     1  0.0000000  0.6508444  3
    232    236    248    254     1  0.0000000  0.6508444  3
    232    239    242    251     1  0.0000000  0.6508444  3
    233    232    236    248     1  180.0000771  2.0083200  2
    233    232    236    248     1  0.0000000  1.2552000  3
    233    232    239    242     1  180.0000771  2.0083200  2
    233    232    239    242     1  0.0000000  1.2552000  3
    233    245    257    419     1  0.0000000  0.6508444  3
    236    232    233    245     1  180.0000771  2.0083200  2
    236    232    233    245     1  0.0000000  1.2552000  3
    236    232    239    242     1  180.0000771  2.0083200  2
    236    232    239    242     1  0.0000000  1.2552000  3
    236    248    254    406     1  0.0000000  0.6508444  3
    239    232    233    245     1  180.0000771  2.0083200  2
    239    232    233    245     1  0.0000000  1.2552000  3
    239    232    236    248     1  180.0000771  2.0083200  2
    239    232    236    248     1  0.0000000  1.2552000  3
    239    242    251    260     1  0.0000000  0.6508444  3
    245    257    419    413     1  180.0000771  0.4184000  2
    245    257    419    413     1  0.0000000  1.6024720  3
    248    254    406    400     1  180.0000771  0.4184000  2
    248    254    406    400     1  0.0000000  1.6024720  3
    254    406    400    397     1  180.0000771  0.4184000  2
    254    406    400    397     1  0.0000000  1.6024720  3
    257    419    413    410     1  180.0000771  0.4184000  2
    257    419    413    410     1  0.0000000  1.6024720  3
    261    262    274    286     1  0.0000000  0.6508444  3
    261    265    277    283     1  0.0000000  0.6508444  3
    261    268    271    280     1  0.0000000  0.6508444  3
    262    261    265    277     1  180.0000771  2.0083200  2
    262    261    265    277     1  0.0000000  1.2552000  3
    262    261    268    271     1  180.0000771  2.0083200  2
    262    261    268    271     1  0.0000000  1.2552000  3
    262    274    286    445     1  0.0000000  0.6508444  3
    265    261    262    274     1  180.0000771  2.0083200  2
    265    261    262    274     1  0.0000000  1.2552000  3
    265    261    268    271     1  180.0000771  2.0083200  2
    265    261    268    271     1  0.0000000  1.2552000  3
    265    277    283    432     1  0.0000000  0.6508444  3
    268    261    262    274     1  180.0000771  2.0083200  2
    268    261    262    274     1  0.0000000  1.2552000  3
    268    261    265    277     1  180.0000771  2.0083200  2
    268    261    265    277     1  0.0000000  1.2552000  3
    268    271    280    289     1  0.0000000  0.6508444  3
    274    286    445    439     1  180.0000771  0.4184000  2
    274    286    445    439     1  0.0000000  1.6024720  3
    277    283    432    426     1  180.0000771  0.4184000  2
    277    283    432    426     1  0.0000000  1.6024720  3
    283    432    426    423     1  180.0000771  0.4184000  2
    283    432    426    423     1  0.0000000  1.6024720  3
    286    445    439    436     1  180.0000771  0.4184000  2
    286    445    439    436     1  0.0000000  1.6024720  3
    290    293    296    302     1  0.0000000  0.6508444  3
    296    293    290    299     1  0.0000000  0.6508444  3
    303    306    309    315     1  0.0000000  0.6508444  3
    309    306    303    312     1  0.0000000  0.6508444  3
    316    319    322    328     1  0.0000000  0.6508444  3
    322    319    316    325     1  0.0000000  0.6508444  3
    329    332    335    341     1  0.0000000  0.6508444  3
    335    332    329    338     1  0.0000000  0.6508444  3
    342    345    348    354     1  0.0000000  0.6508444  3
    348    345    342    351     1  0.0000000  0.6508444  3
    355    358    361    367     1  0.0000000  0.6508444  3
    361    358    355    364     1  0.0000000  0.6508444  3
    368    371    374    380     1  0.0000000  0.6508444  3
    374    371    368    377     1  0.0000000  0.6508444  3
    381    384    387    393     1  0.0000000  0.6508444  3
    387    384    381    390     1  0.0000000  0.6508444  3
    394    397    400    406     1  0.0000000  0.6508444  3
    400    397    394    403     1  0.0000000  0.6508444  3
    407    410    413    419     1  0.0000000  0.6508444  3
    413    410    407    416     1  0.0000000  0.6508444  3
    420    423    426    432     1  0.0000000  0.6508444  3
    426    423    420    429     1  0.0000000  0.6508444  3
    433    436    439    445     1  0.0000000  0.6508444  3
    439    436    433    442     1  0.0000000  0.6508444  3
      1      2     14     15     1  0.0000000  0.6508444  3
      1      2     14     16     1  0.0000000  0.6508444  3
      1      5     17     18     1  0.0000000  0.6508444  3
      1      5     17     19     1  0.0000000  0.6508444  3
      1      8     11     12     1  0.0000000  0.6508444  3
      1      8     11     13     1  0.0000000  0.6508444  3
      2      1      5      6     1  0.0000000  1.2552000  3
      2      1      5      7     1  0.0000000  1.2552000  3
      2      1      8      9     1  0.0000000  1.2552000  3
      2      1      8     10     1  0.0000000  1.2552000  3
      2     14     26     27     1  0.0000000  0.6508444  3
      2     14     26     28     1  0.0000000  0.6508444  3
      5      1      2      3     1  0.0000000  1.2552000  3
      8      1      2      3     1  0.0000000  1.2552000  3
      3      2     14     26     1  0.0000000  0.6508444  3
      3      2     14     15     1  0.0000000  0.6508444  3
      3      2     14     16     1  0.0000000  0.6508444  3
      5      1      2      4     1  0.0000000  1.2552000  3
      8      1      2      4     1  0.0000000  1.2552000  3
      4      2     14     26     1  0.0000000  0.6508444  3
      4      2     14     15     1  0.0000000  0.6508444  3
      4      2     14     16     1  0.0000000  0.6508444  3
      5      1      8      9     1  0.0000000  1.2552000  3
      5      1      8     10     1  0.0000000  1.2552000  3
      5     17     20     21     1  0.0000000  0.6508444  3
      5     17     20     22     1  0.0000000  0.6508444  3
      8      1      5      6     1  0.0000000  1.2552000  3
      6      5     17     20     1  0.0000000  0.6508444  3
      6      5     17     18     1  0.0000000  0.6508444  3
      6      5     17     19     1  0.0000000  0.6508444  3
      8      1      5      7     1  0.0000000  1.2552000  3
      7      5     17     20     1  0.0000000  0.6508444  3
      7      5     17     18     1  0.0000000  0.6508444  3
      7      5     17     19     1  0.0000000  0.6508444  3
      8     11     23     24     1  0.0000000  0.6508444  3
      8     11     23     25     1  0.0000000  0.6508444  3
      9      8     11     23     1  0.0000000  0.6508444  3
      9      8     11     12     1  0.0000000  0.6508444  3
      9      8     11     13     1  0.0000000  0.6508444  3
     10      8     11     23     1  0.0000000  0.6508444  3
     10      8     11     12     1  0.0000000  0.6508444  3
     10      8     11     13     1  0.0000000  0.6508444  3
     12     11     23     86     1  0.0000000  1.0460000  1
     12     11     23     86     1  0.0000000  0.0000000  3
     12     11     23     24     1  0.0000000  0.6508444  3
     12     11     23     25     1  0.0000000  0.6508444  3
     13     11     23     86     1  0.0000000  1.0460000  1
     13     11     23     86     1  0.0000000  0.0000000  3
     13     11     23     24     1  0.0000000  0.6508444  3
     13     11     23     25     1  0.0000000  0.6508444  3
     15     14     26    115     1  0.0000000  1.0460000  1
     15     14     26    115     1  0.0000000  0.0000000  3
     15     14     26     27     1  0.0000000  0.6508444  3
     15     14     26     28     1  0.0000000  0.6508444  3
     16     14     26    115     1  0.0000000  1.0460000  1
     16     14     26    115     1  0.0000000  0.0000000  3
     16     14     26     27     1  0.0000000  0.6508444  3
     16     14     26     28     1  0.0000000  0.6508444  3
     18     17     20     57     1  0.0000000  1.0460000  1
     18     17     20     57     1  0.0000000  0.0000000  3
     18     17     20     21     1  0.0000000  0.6508444  3
     18     17     20     22     1  0.0000000  0.6508444  3
     19     17     20     57     1  0.0000000  1.0460000  1
     19     17     20     57     1  0.0000000  0.0000000  3
     19     17     20     21     1  0.0000000  0.6508444  3
     19     17     20     22     1  0.0000000  0.6508444  3
     20     57     48     49     1  0.0000000  1.6038667  3
     20     57     48     50     1  0.0000000  1.6038667  3
     21     20     57     48     1  0.0000000  1.6038667  3
     22     20     57     48     1  0.0000000  1.6038667  3
     23     86     77     78     1  0.0000000  1.6038667  3
     23     86     77     79     1  0.0000000  1.6038667  3
     24     23     86     77     1  0.0000000  1.6038667  3
     25     23     86     77     1  0.0000000  1.6038667  3
     26    115    106    107     1  0.0000000  1.6038667  3
     26    115    106    108     1  0.0000000  1.6038667  3
     27     26    115    106     1  0.0000000  1.6038667  3
     28     26    115    106     1  0.0000000  1.6038667  3
     29     30     42     43     1  0.0000000  0.6508444  3
     29     30     42     44     1  0.0000000  0.6508444  3
     29     33     45     46     1  0.0000000  0.6508444  3
     29     33     45     47     1  0.0000000  0.6508444  3
     29     36     39     40     1  0.0000000  0.6508444  3
     29     36     39     41     1  0.0000000  0.6508444  3
     30     29     33     34     1  0.0000000  1.2552000  3
     30     29     33     35     1  0.0000000  1.2552000  3
     30     29     36     37     1  0.0000000  1.2552000  3
     30     29     36     38     1  0.0000000  1.2552000  3
     30     42     54     55     1  0.0000000  0.6508444  3
     30     42     54     56     1  0.0000000  0.6508444  3
     31     30     29     33     1  0.0000000  1.2552000  3
     31     30     29     36     1  0.0000000  1.2552000  3
     31     30     42     54     1  0.0000000  0.6508444  3
     31     30     42     43     1  0.0000000  0.6508444  3
     31     30     42     44     1  0.0000000  0.6508444  3
     32     30     29     33     1  0.0000000  1.2552000  3
     32     30     29     36     1  0.0000000  1.2552000  3
     32     30     42     54     1  0.0000000  0.6508444  3
     32     30     42     43     1  0.0000000  0.6508444  3
     32     30     42     44     1  0.0000000  0.6508444  3
     33     29     36     37     1  0.0000000  1.2552000  3
     33     29     36     38     1  0.0000000  1.2552000  3
     33     45     51     52     1  0.0000000  0.6508444  3
     33     45     51     53     1  0.0000000  0.6508444  3
     34     33     29     36     1  0.0000000  1.2552000  3
     34     33     45     51     1  0.0000000  0.6508444  3
     34     33     45     46     1  0.0000000  0.6508444  3
     34     33     45     47     1  0.0000000  0.6508444  3
     35     33     29     36     1  0.0000000  1.2552000  3
     35     33     45     51     1  0.0000000  0.6508444  3
     35     33     45     46     1  0.0000000  0.6508444  3
     35     33     45     47     1  0.0000000  0.6508444  3
     36     39     48     49     1  0.0000000  0.6508444  3
     36     39     48     50     1  0.0000000  0.6508444  3
     37     36     39     48     1  0.0000000  0.6508444  3
     37     36     39     40     1  0.0000000  0.6508444  3
     37     36     39     41     1  0.0000000  0.6508444  3
     38     36     39     48     1  0.0000000  0.6508444  3
     38     36     39     40     1  0.0000000  0.6508444  3
     38     36     39     41     1  0.0000000  0.6508444  3
     40     39     48     57     1  0.0000000  1.0460000  1
     40     39     48     57     1  0.0000000  0.0000000  3
     40     39     48     49     1  0.0000000  0.6508444  3
     40     39     48     50     1  0.0000000  0.6508444  3
     41     39     48     57     1  0.0000000  1.0460000  1
     41     39     48     57     1  0.0000000  0.0000000  3
     41     39     48     49     1  0.0000000  0.6508444  3
     41     39     48     50     1  0.0000000  0.6508444  3
     43     42     54    173     1  0.0000000  1.0460000  1
     43     42     54    173     1  0.0000000  0.0000000  3
     43     42     54     55     1  0.0000000  0.6508444  3
     43     42     54     56     1  0.0000000  0.6508444  3
     44     42     54    173     1  0.0000000  1.0460000  1
     44     42     54    173     1  0.0000000  0.0000000  3
     44     42     54     55     1  0.0000000  0.6508444  3
     44     42     54     56     1  0.0000000  0.6508444  3
     46     45     51    144     1  0.0000000  1.0460000  1
     46     45     51    144     1  0.0000000  0.0000000  3
     46     45     51     52     1  0.0000000  0.6508444  3
     46     45     51     53     1  0.0000000  0.6508444  3
     47     45     51    144     1  0.0000000  1.0460000  1
     47     45     51    144     1  0.0000000  0.0000000  3
     47     45     51     52     1  0.0000000  0.6508444  3
     47     45     51     53     1  0.0000000  0.6508444  3
     51    144    135    136     1  0.0000000  1.6038667  3
     51    144    135    137     1  0.0000000  1.6038667  3
     52     51    144    135     1  0.0000000  1.6038667  3
     53     51    144    135     1  0.0000000  1.6038667  3
     54    173    164    165     1  0.0000000  1.6038667  3
     54    173    164    166     1  0.0000000  1.6038667  3
     55     54    173    164     1  0.0000000  1.6038667  3
     56     54    173    164     1  0.0000000  1.6038667  3
     58     59     71     72     1  0.0000000  0.6508444  3
     58     59     71     73     1  0.0000000  0.6508444  3
     58     62     74     75     1  0.0000000  0.6508444  3
     58     62     74     76     1  0.0000000  0.6508444  3
     58     65     68     69     1  0.0000000  0.6508444  3
     58     65     68     70     1  0.0000000  0.6508444  3
     59     58     62     63     1  0.0000000  1.2552000  3
     59     58     62     64     1  0.0000000  1.2552000  3
     59     58     65     66     1  0.0000000  1.2552000  3
     59     58     65     67     1  0.0000000  1.2552000  3
     59     71     83     84     1  0.0000000  0.6508444  3
     59     71     83     85     1  0.0000000  0.6508444  3
     60     59     58     62     1  0.0000000  1.2552000  3
     60     59     58     65     1  0.0000000  1.2552000  3
     60     59     71     83     1  0.0000000  0.6508444  3
     60     59     71     72     1  0.0000000  0.6508444  3
     60     59     71     73     1  0.0000000  0.6508444  3
     61     59     58     62     1  0.0000000  1.2552000  3
     61     59     58     65     1  0.0000000  1.2552000  3
     61     59     71     83     1  0.0000000  0.6508444  3
     61     59     71     72     1  0.0000000  0.6508444  3
     61     59     71     73     1  0.0000000  0.6508444  3
     62     58     65     66     1  0.0000000  1.2552000  3
     62     58     65     67     1  0.0000000  1.2552000  3
     62     74     80     81     1  0.0000000  0.6508444  3
     62     74     80     82     1  0.0000000  0.6508444  3
     63     62     58     65     1  0.0000000  1.2552000  3
     63     62     74     80     1  0.0000000  0.6508444  3
     63     62     74     75     1  0.0000000  0.6508444  3
     63     62     74     76     1  0.0000000  0.6508444  3
     64     62     58     65     1  0.0000000  1.2552000  3
     64     62     74     80     1  0.0000000  0.6508444  3
     64     62     74     75     1  0.0000000  0.6508444  3
     64     62     74     76     1  0.0000000  0.6508444  3
     65     68     77     78     1  0.0000000  0.6508444  3
     65     68     77     79     1  0.0000000  0.6508444  3
     66     65     68     77     1  0.0000000  0.6508444  3
     66     65     68     69     1  0.0000000  0.6508444  3
     66     65     68     70     1  0.0000000  0.6508444  3
     67     65     68     77     1  0.0000000  0.6508444  3
     67     65     68     69     1  0.0000000  0.6508444  3
     67     65     68     70     1  0.0000000  0.6508444  3
     69     68     77     86     1  0.0000000  1.0460000  1
     69     68     77     86     1  0.0000000  0.0000000  3
     69     68     77     78     1  0.0000000  0.6508444  3
     69     68     77     79     1  0.0000000  0.6508444  3
     70     68     77     86     1  0.0000000  1.0460000  1
     70     68     77     86     1  0.0000000  0.0000000  3
     70     68     77     78     1  0.0000000  0.6508444  3
     70     68     77     79     1  0.0000000  0.6508444  3
     72     71     83    231     1  0.0000000  1.0460000  1
     72     71     83    231     1  0.0000000  0.0000000  3
     72     71     83     84     1  0.0000000  0.6508444  3
     72     71     83     85     1  0.0000000  0.6508444  3
     73     71     83    231     1  0.0000000  1.0460000  1
     73     71     83    231     1  0.0000000  0.0000000  3
     73     71     83     84     1  0.0000000  0.6508444  3
     73     71     83     85     1  0.0000000  0.6508444  3
     75     74     80    202     1  0.0000000  1.0460000  1
     75     74     80    202     1  0.0000000  0.0000000  3
     75     74     80     81     1  0.0000000  0.6508444  3
     75     74     80     82     1  0.0000000  0.6508444  3
     76     74     80    202     1  0.0000000  1.0460000  1
     76     74     80    202     1  0.0000000  0.0000000  3
     76     74     80     81     1  0.0000000  0.6508444  3
     76     74     80     82     1  0.0000000  0.6508444  3
     80    202    193    194     1  0.0000000  1.6038667  3
     80    202    193    195     1  0.0000000  1.6038667  3
     81     80    202    193     1  0.0000000  1.6038667  3
     82     80    202    193     1  0.0000000  1.6038667  3
     83    231    222    223     1  0.0000000  1.6038667  3
     83    231    222    224     1  0.0000000  1.6038667  3
     84     83    231    222     1  0.0000000  1.6038667  3
     85     83    231    222     1  0.0000000  1.6038667  3
     87     88    100    101     1  0.0000000  0.6508444  3
     87     88    100    102     1  0.0000000  0.6508444  3
     87     91    103    104     1  0.0000000  0.6508444  3
     87     91    103    105     1  0.0000000  0.6508444  3
     87     94     97     98     1  0.0000000  0.6508444  3
     87     94     97     99     1  0.0000000  0.6508444  3
     88     87     91     92     1  0.0000000  1.2552000  3
     88     87     91     93     1  0.0000000  1.2552000  3
     88     87     94     95     1  0.0000000  1.2552000  3
     88     87     94     96     1  0.0000000  1.2552000  3
     88    100    112    113     1  0.0000000  0.6508444  3
     88    100    112    114     1  0.0000000  0.6508444  3
     89     88     87     91     1  0.0000000  1.2552000  3
     89     88     87     94     1  0.0000000  1.2552000  3
     89     88    100    112     1  0.0000000  0.6508444  3
     89     88    100    101     1  0.0000000  0.6508444  3
     89     88    100    102     1  0.0000000  0.6508444  3
     90     88     87     91     1  0.0000000  1.2552000  3
     90     88     87     94     1  0.0000000  1.2552000  3
     90     88    100    112     1  0.0000000  0.6508444  3
     90     88    100    101     1  0.0000000  0.6508444  3
     90     88    100    102     1  0.0000000  0.6508444  3
     91     87     94     95     1  0.0000000  1.2552000  3
     91     87     94     96     1  0.0000000  1.2552000  3
     91    103    109    110     1  0.0000000  0.6508444  3
     91    103    109    111     1  0.0000000  0.6508444  3
     92     91     87     94     1  0.0000000  1.2552000  3
     92     91    103    109     1  0.0000000  0.6508444  3
     92     91    103    104     1  0.0000000  0.6508444  3
     92     91    103    105     1  0.0000000  0.6508444  3
     93     91     87     94     1  0.0000000  1.2552000  3
     93     91    103    109     1  0.0000000  0.6508444  3
     93     91    103    104     1  0.0000000  0.6508444  3
     93     91    103    105     1  0.0000000  0.6508444  3
     94     97    106    107     1  0.0000000  0.6508444  3
     94     97    106    108     1  0.0000000  0.6508444  3
     95     94     97    106     1  0.0000000  0.6508444  3
     95     94     97     98     1  0.0000000  0.6508444  3
     95     94     97     99     1  0.0000000  0.6508444  3
     96     94     97    106     1  0.0000000  0.6508444  3
     96     94     97     98     1  0.0000000  0.6508444  3
     96     94     97     99     1  0.0000000  0.6508444  3
     98     97    106    115     1  0.0000000  1.0460000  1
     98     97    106    115     1  0.0000000  0.0000000  3
     98     97    106    107     1  0.0000000  0.6508444  3
     98     97    106    108     1  0.0000000  0.6508444  3
     99     97    106    115     1  0.0000000  1.0460000  1
     99     97    106    115     1  0.0000000  0.0000000  3
     99     97    106    107     1  0.0000000  0.6508444  3
     99     97    106    108     1  0.0000000  0.6508444  3
    101    100    112    289     1  0.0000000  1.0460000  1
    101    100    112    289     1  0.0000000  0.0000000  3
    101    100    112    113     1  0.0000000  0.6508444  3
    101    100    112    114     1  0.0000000  0.6508444  3
    102    100    112    289     1  0.0000000  1.0460000  1
    102    100    112    289     1  0.0000000  0.0000000  3
    102    100    112    113     1  0.0000000  0.6508444  3
    102    100    112    114     1  0.0000000  0.6508444  3
    104    103    109    260     1  0.0000000  1.0460000  1
    104    103    109    260     1  0.0000000  0.0000000  3
    104    103    109    110     1  0.0000000  0.6508444  3
    104    103    109    111     1  0.0000000  0.6508444  3
    105    103    109    260     1  0.0000000  1.0460000  1
    105    103    109    260     1  0.0000000  0.0000000  3
    105    103    109    110     1  0.0000000  0.6508444  3
    105    103    109    111     1  0.0000000  0.6508444  3
    109    260    251    252     1  0.0000000  1.6038667  3
    109    260    251    253     1  0.0000000  1.6038667  3
    110    109    260    251     1  0.0000000  1.6038667  3
    111    109    260    251     1  0.0000000  1.6038667  3
    112    289    280    281     1  0.0000000  1.6038667  3
    112    289    280    282     1  0.0000000  1.6038667  3
    113    112    289    280     1  0.0000000  1.6038667  3
    114    112    289    280     1  0.0000000  1.6038667  3
    116    117    129    130     1  0.0000000  0.6508444  3
    116    117    129    131     1  0.0000000  0.6508444  3
    116    120    132    133     1  0.0000000  0.6508444  3
    116    120    132    134     1  0.0000000  0.6508444  3
    116    123    126    127     1  0.0000000  0.6508444  3
    116    123    126    128     1  0.0000000  0.6508444  3
    117    116    120    121     1  0.0000000  1.2552000  3
    117    116    120    122     1  0.0000000  1.2552000  3
    117    116    123    124     1  0.0000000  1.2552000  3
    117    116    123    125     1  0.0000000  1.2552000  3
    117    129    141    142     1  0.0000000  0.6508444  3
    117    129    141    143     1  0.0000000  0.6508444  3
    118    117    116    120     1  0.0000000  1.2552000  3
    118    117    116    123     1  0.0000000  1.2552000  3
    118    117    129    141     1  0.0000000  0.6508444  3
    118    117    129    130     1  0.0000000  0.6508444  3
    118    117    129    131     1  0.0000000  0.6508444  3
    119    117    116    120     1  0.0000000  1.2552000  3
    119    117    116    123     1  0.0000000  1.2552000  3
    119    117    129    141     1  0.0000000  0.6508444  3
    119    117    129    130     1  0.0000000  0.6508444  3
    119    117    129    131     1  0.0000000  0.6508444  3
    120    116    123    124     1  0.0000000  1.2552000  3
    120    116    123    125     1  0.0000000  1.2552000  3
    120    132    138    139     1  0.0000000  0.6508444  3
    120    132    138    140     1  0.0000000  0.6508444  3
    121    120    116    123     1  0.0000000  1.2552000  3
    121    120    132    138     1  0.0000000  0.6508444  3
    121    120    132    133     1  0.0000000  0.6508444  3
    121    120    132    134     1  0.0000000  0.6508444  3
    122    120    116    123     1  0.0000000  1.2552000  3
    122    120    132    138     1  0.0000000  0.6508444  3
    122    120    132    133     1  0.0000000  0.6508444  3
    122    120    132    134     1  0.0000000  0.6508444  3
    123    126    135    136     1  0.0000000  0.6508444  3
    123    126    135    137     1  0.0000000  0.6508444  3
    124    123    126    135     1  0.0000000  0.6508444  3
    124    123    126    127     1  0.0000000  0.6508444  3
    124    123    126    128     1  0.0000000  0.6508444  3
    125    123    126    135     1  0.0000000  0.6508444  3
    125    123    126    127     1  0.0000000  0.6508444  3
    125    123    126    128     1  0.0000000  0.6508444  3
    127    126    135    144     1  0.0000000  1.0460000  1
    127    126    135    144     1  0.0000000  0.0000000  3
    127    126    135    136     1  0.0000000  0.6508444  3
    127    126    135    137     1  0.0000000  0.6508444  3
    128    126    135    144     1  0.0000000  1.0460000  1
    128    126    135    144     1  0.0000000  0.0000000  3
    128    126    135    136     1  0.0000000  0.6508444  3
    128    126    135    137     1  0.0000000  0.6508444  3
    130    129    141    315     1  0.0000000  1.0460000  1
    130    129    141    315     1  0.0000000  0.0000000  3
    130    129    141    142     1  0.0000000  0.6508444  3
    130    129    141    143     1  0.0000000  0.6508444  3
    131    129    141    315     1  0.0000000  1.0460000  1
    131    129    141    315     1  0.0000000  0.0000000  3
    131    129    141    142     1  0.0000000  0.6508444  3
    131    129    141    143     1  0.0000000  0.6508444  3
    133    132    138    302     1  0.0000000  1.0460000  1
    133    132    138    302     1  0.0000000  0.0000000  3
    133    132    138    139     1  0.0000000  0.6508444  3
    133    132    138    140     1  0.0000000  0.6508444  3
    134    132    138    302     1  0.0000000  1.0460000  1
    134    132    138    302     1  0.0000000  0.0000000  3
    134    132    138    139     1  0.0000000  0.6508444  3
    134    132    138    140     1  0.0000000  0.6508444  3
    138    302    296    297     1  0.0000000  1.6038667  3
    138    302    296    298     1  0.0000000  1.6038667  3
    139    138    302    296     1  0.0000000  1.6038667  3
    140    138    302    296     1  0.0000000  1.6038667  3
    141    315    309    310     1  0.0000000  1.6038667  3
    141    315    309    311     1  0.0000000  1.6038667  3
    142    141    315    309     1  0.0000000  1.6038667  3
    143    141    315    309     1  0.0000000  1.6038667  3
    145    146    158    159     1  0.0000000  0.6508444  3
    145    146    158    160     1  0.0000000  0.6508444  3
    145    149    161    162     1  0.0000000  0.6508444  3
    145    149    161    163     1  0.0000000  0.6508444  3
    145    152    155    156     1  0.0000000  0.6508444  3
    145    152    155    157     1  0.0000000  0.6508444  3
    146    145    149    150     1  0.0000000  1.2552000  3
    146    145    149    151     1  0.0000000  1.2552000  3
    146    145    152    153     1  0.0000000  1.2552000  3
    146    145    152    154     1  0.0000000  1.2552000  3
    146    158    170    171     1  0.0000000  0.6508444  3
    146    158    170    172     1  0.0000000  0.6508444  3
    147    146    145    149     1  0.0000000  1.2552000  3
    147    146    145    152     1  0.0000000  1.2552000  3
    147    146    158    170     1  0.0000000  0.6508444  3
    147    146    158    159     1  0.0000000  0.6508444  3
    147    146    158    160     1  0.0000000  0.6508444  3
    148    146    145    149     1  0.0000000  1.2552000  3
    148    146    145    152     1  0.0000000  1.2552000  3
    148    146    158    170     1  0.0000000  0.6508444  3
    148    146    158    159     1  0.0000000  0.6508444  3
    148    146    158    160     1  0.0000000  0.6508444  3
    149    145    152    153     1  0.0000000  1.2552000  3
    149    145    152    154     1  0.0000000  1.2552000  3
    149    161    167    168     1  0.0000000  0.6508444  3
    149    161    167    169     1  0.0000000  0.6508444  3
    150    149    145    152     1  0.0000000  1.2552000  3
    150    149    161    167     1  0.0000000  0.6508444  3
    150    149    161    162     1  0.0000000  0.6508444  3
    150    149    161    163     1  0.0000000  0.6508444  3
    151    149    145    152     1  0.0000000  1.2552000  3
    151    149    161    167     1  0.0000000  0.6508444  3
    151    149    161    162     1  0.0000000  0.6508444  3
    151    149    161    163     1  0.0000000  0.6508444  3
    152    155    164    165     1  0.0000000  0.6508444  3
    152    155    164    166     1  0.0000000  0.6508444  3
    153    152    155    164     1  0.0000000  0.6508444  3
    153    152    155    156     1  0.0000000  0.6508444  3
    153    152    155    157     1  0.0000000  0.6508444  3
    154    152    155    164     1  0.0000000  0.6508444  3
    154    152    155    156     1  0.0000000  0.6508444  3
    154    152    155    157     1  0.0000000  0.6508444  3
    156    155    164    173     1  0.0000000  1.0460000  1
    156    155    164    173     1  0.0000000  0.0000000  3
    156    155    164    165     1  0.0000000  0.6508444  3
    156    155    164    166     1  0.0000000  0.6508444  3
    157    155    164    173     1  0.0000000  1.0460000  1
    157    155    164    173     1  0.0000000  0.0000000  3
    157    155    164    165     1  0.0000000  0.6508444  3
    157    155    164    166     1  0.0000000  0.6508444  3
    159    158    170    341     1  0.0000000  1.0460000  1
    159    158    170    341     1  0.0000000  0.0000000  3
    159    158    170    171     1  0.0000000  0.6508444  3
    159    158    170    172     1  0.0000000  0.6508444  3
    160    158    170    341     1  0.0000000  1.0460000  1
    160    158    170    341     1  0.0000000  0.0000000  3
    160    158    170    171     1  0.0000000  0.6508444  3
    160    158    170    172     1  0.0000000  0.6508444  3
    162    161    167    328     1  0.0000000  1.0460000  1
    162    161    167    328     1  0.0000000  0.0000000  3
    162    161    167    168     1  0.0000000  0.6508444  3
    162    161    167    169     1  0.0000000  0.6508444  3
    163    161    167    328     1  0.0000000  1.0460000  1
    163    161    167    328     1  0.0000000  0.0000000  3
    163    161    167    168     1  0.0000000  0.6508444  3
    163    161    167    169     1  0.0000000  0.6508444  3
    167    328    322    323     1  0.0000000  1.6038667  3
    167    328    322    324     1  0.0000000  1.6038667  3
    168    167    328    322     1  0.0000000  1.6038667  3
    169    167    328    322     1  0.0000000  1.6038667  3
    170    341    335    336     1  0.0000000  1.6038667  3
    170    341    335    337     1  0.0000000  1.6038667  3
    171    170    341    335     1  0.0000000  1.6038667  3
    172    170    341    335     1  0.0000000  1.6038667  3
    174    175    187    188     1  0.0000000  0.6508444  3
    174    175    187    189     1  0.0000000  0.6508444  3
    174    178    190    191     1  0.0000000  0.6508444  3
    174    178    190    192     1  0.0000000  0.6508444  3
    174    181    184    185     1  0.0000000  0.6508444  3
    174    181    184    186     1  0.0000000  0.6508444  3
    175    174    178    179     1  0.0000000  1.2552000  3
    175    174    178    180     1  0.0000000  1.2552000  3
    175    174    181    182     1  0.0000000  1.2552000  3
    175    174    181    183     1  0.0000000  1.2552000  3
    175    187    199    200     1  0.0000000  0.6508444  3
    175    187    199    201     1  0.0000000  0.6508444  3
    176    175    174    178     1  0.0000000  1.2552000  3
    176    175    174    181     1  0.0000000  1.2552000  3
    176    175    187    199     1  0.0000000  0.6508444  3
    176    175    187    188     1  0.0000000  0.6508444  3
    176    175    187    189     1  0.0000000  0.6508444  3
    177    175    174    178     1  0.0000000  1.2552000  3
    177    175    174    181     1  0.0000000  1.2552000  3
    177    175    187    199     1  0.0000000  0.6508444  3
    177    175    187    188     1  0.0000000  0.6508444  3
    177    175    187    189     1  0.0000000  0.6508444  3
    178    174    181    182     1  0.0000000  1.2552000  3
    178    174    181    183     1  0.0000000  1.2552000  3
    178    190    196    197     1  0.0000000  0.6508444  3
    178    190    196    198     1  0.0000000  0.6508444  3
    179    178    174    181     1  0.0000000  1.2552000  3
    179    178    190    196     1  0.0000000  0.6508444  3
    179    178    190    191     1  0.0000000  0.6508444  3
    179    178    190    192     1  0.0000000  0.6508444  3
    180    178    174    181     1  0.0000000  1.2552000  3
    180    178    190    196     1  0.0000000  0.6508444  3
    180    178    190    191     1  0.0000000  0.6508444  3
    180    178    190    192     1  0.0000000  0.6508444  3
    181    184    193    194     1  0.0000000  0.6508444  3
    181    184    193    195     1  0.0000000  0.6508444  3
    182    181    184    193     1  0.0000000  0.6508444  3
    182    181    184    185     1  0.0000000  0.6508444  3
    182    181    184    186     1  0.0000000  0.6508444  3
    183    181    184    193     1  0.0000000  0.6508444  3
    183    181    184    185     1  0.0000000  0.6508444  3
    183    181    184    186     1  0.0000000  0.6508444  3
    185    184    193    202     1  0.0000000  1.0460000  1
    185    184    193    202     1  0.0000000  0.0000000  3
    185    184    193    194     1  0.0000000  0.6508444  3
    185    184    193    195     1  0.0000000  0.6508444  3
    186    184    193    202     1  0.0000000  1.0460000  1
    186    184    193    202     1  0.0000000  0.0000000  3
    186    184    193    194     1  0.0000000  0.6508444  3
    186    184    193    195     1  0.0000000  0.6508444  3
    188    187    199    367     1  0.0000000  1.0460000  1
    188    187    199    367     1  0.0000000  0.0000000  3
    188    187    199    200     1  0.0000000  0.6508444  3
    188    187    199    201     1  0.0000000  0.6508444  3
    189    187    199    367     1  0.0000000  1.0460000  1
    189    187    199    367     1  0.0000000  0.0000000  3
    189    187    199    200     1  0.0000000  0.6508444  3
    189    187    199    201     1  0.0000000  0.6508444  3
    191    190    196    354     1  0.0000000  1.0460000  1
    191    190    196    354     1  0.0000000  0.0000000  3
    191    190    196    197     1  0.0000000  0.6508444  3
    191    190    196    198     1  0.0000000  0.6508444  3
    192    190    196    354     1  0.0000000  1.0460000  1
    192    190    196    354     1  0.0000000  0.0000000  3
    192    190    196    197     1  0.0000000  0.6508444  3
    192    190    196    198     1  0.0000000  0.6508444  3
    196    354    348    349     1  0.0000000  1.6038667  3
    196    354    348    350     1  0.0000000  1.6038667  3
    197    196    354    348     1  0.0000000  1.6038667  3
    198    196    354    348     1  0.0000000  1.6038667  3
    199    367    361    362     1  0.0000000  1.6038667  3
    199    367    361    363     1  0.0000000  1.6038667  3
    200    199    367    361     1  0.0000000  1.6038667  3
    201    199    367    361     1  0.0000000  1.6038667  3
    203    204    216    217     1  0.0000000  0.6508444  3
    203    204    216    218     1  0.0000000  0.6508444  3
    203    207    219    220     1  0.0000000  0.6508444  3
    203    207    219    221     1  0.0000000  0.6508444  3
    203    210    213    214     1  0.0000000  0.6508444  3
    203    210    213    215     1  0.0000000  0.6508444  3
    204    203    207    208     1  0.0000000  1.2552000  3
    204    203    207    209     1  0.0000000  1.2552000  3
    204    203    210    211     1  0.0000000  1.2552000  3
    204    203    210    212     1  0.0000000  1.2552000  3
    204    216    228    229     1  0.0000000  0.6508444  3
    204    216    228    230     1  0.0000000  0.6508444  3
    205    204    203    207     1  0.0000000  1.2552000  3
    205    204    203    210     1  0.0000000  1.2552000  3
    205    204    216    228     1  0.0000000  0.6508444  3
    205    204    216    217     1  0.0000000  0.6508444  3
    205    204    216    218     1  0.0000000  0.6508444  3
    206    204    203    207     1  0.0000000  1.2552000  3
    206    204    203    210     1  0.0000000  1.2552000  3
    206    204    216    228     1  0.0000000  0.6508444  3
    206    204    216    217     1  0.0000000  0.6508444  3
    206    204    216    218     1  0.0000000  0.6508444  3
    207    203    210    211     1  0.0000000  1.2552000  3
    207    203    210    212     1  0.0000000  1.2552000  3
    207    219    225    226     1  0.0000000  0.6508444  3
    207    219    225    227     1  0.0000000  0.6508444  3
    208    207    203    210     1  0.0000000  1.2552000  3
    208    207    219    225     1  0.0000000  0.6508444  3
    208    207    219    220     1  0.0000000  0.6508444  3
    208    207    219    221     1  0.0000000  0.6508444  3
    209    207    203    210     1  0.0000000  1.2552000  3
    209    207    219    225     1  0.0000000  0.6508444  3
    209    207    219    220     1  0.0000000  0.6508444  3
    209    207    219    221     1  0.0000000  0.6508444  3
    210    213    222    223     1  0.0000000  0.6508444  3
    210    213    222    224     1  0.0000000  0.6508444  3
    211    210    213    222     1  0.0000000  0.6508444  3
    211    210    213    214     1  0.0000000  0.6508444  3
    211    210    213    215     1  0.0000000  0.6508444  3
    212    210    213    222     1  0.0000000  0.6508444  3
    212    210    213    214     1  0.0000000  0.6508444  3
    212    210    213    215     1  0.0000000  0.6508444  3
    214    213    222    231     1  0.0000000  1.0460000  1
    214    213    222    231     1  0.0000000  0.0000000  3
    214    213    222    223     1  0.0000000  0.6508444  3
    214    213    222    224     1  0.0000000  0.6508444  3
    215    213    222    231     1  0.0000000  1.0460000  1
    215    213    222    231     1  0.0000000  0.0000000  3
    215    213    222    223     1  0.0000000  0.6508444  3
    215    213    222    224     1  0.0000000  0.6508444  3
    217    216    228    393     1  0.0000000  1.0460000  1
    217    216    228    393     1  0.0000000  0.0000000  3
    217    216    228    229     1  0.0000000  0.6508444  3
    217    216    228    230     1  0.0000000  0.6508444  3
    218    216    228    393     1  0.0000000  1.0460000  1
    218    216    228    393     1  0.0000000  0.0000000  3
    218    216    228    229     1  0.0000000  0.6508444  3
    218    216    228    230     1  0.0000000  0.6508444  3
    220    219    225    380     1  0.0000000  1.0460000  1
    220    219    225    380     1  0.0000000  0.0000000  3
    220    219    225    226     1  0.0000000  0.6508444  3
    220    219    225    227     1  0.0000000  0.6508444  3
    221    219    225    380     1  0.0000000  1.0460000  1
    221    219    225    380     1  0.0000000  0.0000000  3
    221    219    225    226     1  0.0000000  0.6508444  3
    221    219    225    227     1  0.0000000  0.6508444  3
    225    380    374    375     1  0.0000000  1.6038667  3
    225    380    374    376     1  0.0000000  1.6038667  3
    226    225    380    374     1  0.0000000  1.6038667  3
    227    225    380    374     1  0.0000000  1.6038667  3
    228    393    387    388     1  0.0000000  1.6038667  3
    228    393    387    389     1  0.0000000  1.6038667  3
    229    228    393    387     1  0.0000000  1.6038667  3
    230    228    393    387     1  0.0000000  1.6038667  3
    232    233    245    246     1  0.0000000  0.6508444  3
    232    233    245    247     1  0.0000000  0.6508444  3
    232    236    248    249     1  0.0000000  0.6508444  3
    232    236    248    250     1  0.0000000  0.6508444  3
    232    239    242    243     1  0.0000000  0.6508444  3
    232    239    242    244     1  0.0000000  0.6508444  3
    233    232    236    237     1  0.0000000  1.2552000  3
    233    232    236    238     1  0.0000000  1.2552000  3
    233    232    239    240     1  0.0000000  1.2552000  3
    233    232    239    241     1  0.0000000  1.2552000  3
    233    245    257    258     1  0.0000000  0.6508444  3
    233    245    257    259     1  0.0000000  0.6508444  3
    234    233    232    236     1  0.0000000  1.2552000  3
    234    233    232    239     1  0.0000000  1.2552000  3
    234    233    245    257     1  0.0000000  0.6508444  3
    234    233    245    246     1  0.0000000  0.6508444  3
    234    233    245    247     1  0.0000000  0.6508444  3
    235    233    232    236     1  0.0000000  1.2552000  3
    235    233    232    239     1  0.0000000  1.2552000  3
    235    233    245    257     1  0.0000000  0.6508444  3
    235    233    245    246     1  0.0000000  0.6508444  3
    235    233    245    247     1  0.0000000  0.6508444  3
    236    232    239    240     1  0.0000000  1.2552000  3
    236    232    239    241     1  0.0000000  1.2552000  3
    236    248    254    255     1  0.0000000  0.6508444  3
    236    248    254    256     1  0.0000000  0.6508444  3
    237    236    232    239     1  0.0000000  1.2552000  3
    237    236    248    254     1  0.0000000  0.6508444  3
    237    236    248    249     1  0.0000000  0.6508444  3
    237    236    248    250     1  0.0000000  0.6508444  3
    238    236    232    239     1  0.0000000  1.2552000  3
    238    236    248    254     1  0.0000000  0.6508444  3
    238    236    248    249     1  0.0000000  0.6508444  3
    238    236    248    250     1  0.0000000  0.6508444  3
    239    242    251    252     1  0.0000000  0.6508444  3
    239    242    251    253     1  0.0000000  0.6508444  3
    240    239    242    251     1  0.0000000  0.6508444  3
    240    239    242    243     1  0.0000000  0.6508444  3
    240    239    242    244     1  0.0000000  0.6508444  3
    241    239    242    251     1  0.0000000  0.6508444  3
    241    239    242    243     1  0.0000000  0.6508444  3
    241    239    242    244     1  0.0000000  0.6508444  3
    243    242    251    260     1  0.0000000  1.0460000  1
    243    242    251    260     1  0.0000000  0.0000000  3
    243    242    251    252     1  0.0000000  0.6508444  3
    243    242    251    253     1  0.0000000  0.6508444  3
    244    242    251    260     1  0.0000000  1.0460000  1
    244    242    251    260     1  0.0000000  0.0000000  3
    244    242    251    252     1  0.0000000  0.6508444  3
    244    242    251    253     1  0.0000000  0.6508444  3
    246    245    257    419     1  0.0000000  1.0460000  1
    246    245    257    419     1  0.0000000  0.0000000  3
    246    245    257    258     1  0.0000000  0.6508444  3
    246    245    257    259     1  0.0000000  0.6508444  3
    247    245    257    419     1  0.0000000  1.0460000  1
    247    245    257    419     1  0.0000000  0.0000000  3
    247    245    257    258     1  0.0000000  0.6508444  3
    247    245    257    259     1  0.0000000  0.6508444  3
    249    248    254    406     1  0.0000000  1.0460000  1
    249    248    254    406     1  0.0000000  0.0000000  3
    249    248    254    255     1  0.0000000  0.6508444  3
    249    248    254    256     1  0.0000000  0.6508444  3
    250    248    254    406     1  0.0000000  1.0460000  1
    250    248    254    406     1  0.0000000  0.0000000  3
    250    248    254    255     1  0.0000000  0.6508444  3
    250    248    254    256     1  0.0000000  0.6508444  3
    254    406    400    401     1  0.0000000  1.6038667  3
    254    406    400    402     1  0.0000000  1.6038667  3
    255    254    406    400     1  0.0000000  1.6038667  3
    256    254    406    400     1  0.0000000  1.6038667  3
    257    419    413    414     1  0.0000000  1.6038667  3
    257    419    413    415     1  0.0000000  1.6038667  3
    258    257    419    413     1  0.0000000  1.6038667  3
    259    257    419    413     1  0.0000000  1.6038667  3
    261    262    274    275     1  0.0000000  0.6508444  3
    261    262    274    276     1  0.0000000  0.6508444  3
    261    265    277    278     1  0.0000000  0.6508444  3
    261    265    277    279     1  0.0000000  0.6508444  3
    261    268    271    272     1  0.0000000  0.6508444  3
    261    268    271    273     1  0.0000000  0.6508444  3
    262    261    265    266     1  0.0000000  1.2552000  3
    262    261    265    267     1  0.0000000  1.2552000  3
    262    261    268    269     1  0.0000000  1.2552000  3
    262    261    268    270     1  0.0000000  1.2552000  3
    262    274    286    287     1  0.0000000  0.6508444  3
    262    274    286    288     1  0.0000000  0.6508444  3
    263    262    261    265     1  0.0000000  1.2552000  3
    263    262    261    268     1  0.0000000  1.2552000  3
    263    262    274    286     1  0.0000000  0.6508444  3
    263    262    274    275     1  0.0000000  0.6508444  3
    263    262    274    276     1  0.0000000  0.6508444  3
    264    262    261    265     1  0.0000000  1.2552000  3
    264    262    261    268     1  0.0000000  1.2552000  3
    264    262    274    286     1  0.0000000  0.6508444  3
    264    262    274    275     1  0.0000000  0.6508444  3
    264    262    274    276     1  0.0000000  0.6508444  3
    265    261    268    269     1  0.0000000  1.2552000  3
    265    261    268    270     1  0.0000000  1.2552000  3
    265    277    283    284     1  0.0000000  0.6508444  3
    265    277    283    285     1  0.0000000  0.6508444  3
    266    265    261    268     1  0.0000000  1.2552000  3
    266    265    277    283     1  0.0000000  0.6508444  3
    266    265    277    278     1  0.0000000  0.6508444  3
    266    265    277    279     1  0.0000000  0.6508444  3
    267    265    261    268     1  0.0000000  1.2552000  3
    267    265    277    283     1  0.0000000  0.6508444  3
    267    265    277    278     1  0.0000000  0.6508444  3
    267    265    277    279     1  0.0000000  0.6508444  3
    268    271    280    281     1  0.0000000  0.6508444  3
    268    271    280    282     1  0.0000000  0.6508444  3
    269    268    271    280     1  0.0000000  0.6508444  3
    269    268    271    272     1  0.0000000  0.6508444  3
    269    268    271    273     1  0.0000000  0.6508444  3
    270    268    271    280     1  0.0000000  0.6508444  3
    270    268    271    272     1  0.0000000  0.6508444  3
    270    268    271    273     1  0.0000000  0.6508444  3
    272    271    280    289     1  0.0000000  1.0460000  1
    272    271    280    289     1  0.0000000  0.0000000  3
    272    271    280    281     1  0.0000000  0.6508444  3
    272    271    280    282     1  0.0000000  0.6508444  3
    273    271    280    289     1  0.0000000  1.0460000  1
    273    271    280    289     1  0.0000000  0.0000000  3
    273    271    280    281     1  0.0000000  0.6508444  3
    273    271    280    282     1  0.0000000  0.6508444  3
    275    274    286    445     1  0.0000000  1.0460000  1
    275    274    286    445     1  0.0000000  0.0000000  3
    275    274    286    287     1  0.0000000  0.6508444  3
    275    274    286    288     1  0.0000000  0.6508444  3
    276    274    286    445     1  0.0000000  1.0460000  1
    276    274    286    445     1  0.0000000  0.0000000  3
    276    274    286    287     1  0.0000000  0.6508444  3
    276    274    286    288     1  0.0000000  0.6508444  3
    278    277    283    432     1  0.0000000  1.0460000  1
    278    277    283    432     1  0.0000000  0.0000000  3
    278    277    283    284     1  0.0000000  0.6508444  3
    278    277    283    285     1  0.0000000  0.6508444  3
    279    277    283    432     1  0.0000000  1.0460000  1
    279    277    283    432     1  0.0000000  0.0000000  3
    279    277    283    284     1  0.0000000  0.6508444  3
    279    277    283    285     1  0.0000000  0.6508444  3
    283    432    426    427     1  0.0000000  1.6038667  3
    283    432    426    428     1  0.0000000  1.6038667  3
    284    283    432    426     1  0.0000000  1.6038667  3
    285    283    432    426     1  0.0000000  1.6038667  3
    286    445    439    440     1  0.0000000  1.6038667  3
    286    445    439    441     1  0.0000000  1.6038667  3
    287    286    445    439     1  0.0000000  1.6038667  3
    288    286    445    439     1  0.0000000  1.6038667  3
    290    293    296    297     1  0.0000000  0.6508444  3
    290    293    296    298     1  0.0000000  0.6508444  3
    291    290    293    296     1  0.0000000  0.6508444  3
    291    290    293    294     1  0.0000000  0.6508444  3
    291    290    293    295     1  0.0000000  0.6508444  3
    291    290    299    300     1  0.0000000  1.2552000  3
    291    290    299    301     1  0.0000000  1.2552000  3
    292    290    293    296     1  0.0000000  0.6508444  3
    292    290    293    294     1  0.0000000  0.6508444  3
    292    290    293    295     1  0.0000000  0.6508444  3
    292    290    299    300     1  0.0000000  1.2552000  3
    292    290    299    301     1  0.0000000  1.2552000  3
    293    290    299    300     1  0.0000000  1.2552000  3
    293    290    299    301     1  0.0000000  1.2552000  3
    294    293    290    299     1  0.0000000  0.6508444  3
    294    293    296    302     1  0.0000000  1.0460000  1
    294    293    296    302     1  0.0000000  0.0000000  3
    294    293    296    297     1  0.0000000  0.6508444  3
    294    293    296    298     1  0.0000000  0.6508444  3
    295    293    290    299     1  0.0000000  0.6508444  3
    295    293    296    302     1  0.0000000  1.0460000  1
    295    293    296    302     1  0.0000000  0.0000000  3
    295    293    296    297     1  0.0000000  0.6508444  3
    295    293    296    298     1  0.0000000  0.6508444  3
    303    306    309    310     1  0.0000000  0.6508444  3
    303    306    309    311     1  0.0000000  0.6508444  3
    304    303    306    309     1  0.0000000  0.6508444  3
    304    303    306    307     1  0.0000000  0.6508444  3
    304    303    306    308     1  0.0000000  0.6508444  3
    304    303    312    313     1  0.0000000  1.2552000  3
    304    303    312    314     1  0.0000000  1.2552000  3
    305    303    306    309     1  0.0000000  0.6508444  3
    305    303    306    307     1  0.0000000  0.6508444  3
    305    303    306    308     1  0.0000000  0.6508444  3
    305    303    312    313     1  0.0000000  1.2552000  3
    305    303    312    314     1  0.0000000  1.2552000  3
    306    303    312    313     1  0.0000000  1.2552000  3
    306    303    312    314     1  0.0000000  1.2552000  3
    307    306    309    315     1  0.0000000  1.0460000  1
    307    306    309    315     1  0.0000000  0.0000000  3
    307    306    309    310     1  0.0000000  0.6508444  3
    307    306    309    311     1  0.0000000  0.6508444  3
    307    306    303    312     1  0.0000000  0.6508444  3
    308    306    309    315     1  0.0000000  1.0460000  1
    308    306    309    315     1  0.0000000  0.0000000  3
    308    306    309    310     1  0.0000000  0.6508444  3
    308    306    309    311     1  0.0000000  0.6508444  3
    308    306    303    312     1  0.0000000  0.6508444  3
    316    319    322    323     1  0.0000000  0.6508444  3
    316    319    322    324     1  0.0000000  0.6508444  3
    317    316    319    322     1  0.0000000  0.6508444  3
    317    316    319    320     1  0.0000000  0.6508444  3
    317    316    319    321     1  0.0000000  0.6508444  3
    317    316    325    326     1  0.0000000  1.2552000  3
    317    316    325    327     1  0.0000000  1.2552000  3
    318    316    319    322     1  0.0000000  0.6508444  3
    318    316    319    320     1  0.0000000  0.6508444  3
    318    316    319    321     1  0.0000000  0.6508444  3
    318    316    325    326     1  0.0000000  1.2552000  3
    318    316    325    327     1  0.0000000  1.2552000  3
    319    316    325    326     1  0.0000000  1.2552000  3
    319    316    325    327     1  0.0000000  1.2552000  3
    320    319    316    325     1  0.0000000  0.6508444  3
    320    319    322    328     1  0.0000000  1.0460000  1
    320    319    322    328     1  0.0000000  0.0000000  3
    320    319    322    323     1  0.0000000  0.6508444  3
    320    319    322    324     1  0.0000000  0.6508444  3
    321    319    316    325     1  0.0000000  0.6508444  3
    321    319    322    328     1  0.0000000  1.0460000  1
    321    319    322    328     1  0.0000000  0.0000000  3
    321    319    322    323     1  0.0000000  0.6508444  3
    321    319    322    324     1  0.0000000  0.6508444  3
    329    332    335    336     1  0.0000000  0.6508444  3
    329    332    335    337     1  0.0000000  0.6508444  3
    330    329    332    335     1  0.0000000  0.6508444  3
    330    329    332    333     1  0.0000000  0.6508444  3
    330    329    332    334     1  0.0000000  0.6508444  3
    330    329    338    339     1  0.0000000  1.2552000  3
    330    329    338    340     1  0.0000000  1.2552000  3
    331    329    332    335     1  0.0000000  0.6508444  3
    331    329    332    333     1  0.0000000  0.6508444  3
    331    329    332    334     1  0.0000000  0.6508444  3
    331    329    338    339     1  0.0000000  1.2552000  3
    331    329    338    340     1  0.0000000  1.2552000  3
    332    329    338    339     1  0.0000000  1.2552000  3
    332    329    338    340     1  0.0000000  1.2552000  3
    333    332    335    341     1  0.0000000  1.0460000  1
    333    332    335    341     1  0.0000000  0.0000000  3
    333    332    335    336     1  0.0000000  0.6508444  3
    333    332    335    337     1  0.0000000  0.6508444  3
    333    332    329    338     1  0.0000000  0.6508444  3
    334    332    335    341     1  0.0000000  1.0460000  1
    334    332    335    341     1  0.0000000  0.0000000  3
    334    332    335    336     1  0.0000000  0.6508444  3
    334    332    335    337     1  0.0000000  0.6508444  3
    334    332    329    338     1  0.0000000  0.6508444  3
    342    345    348    349     1  0.0000000  0.6508444  3
    342    345    348    350     1  0.0000000  0.6508444  3
    343    342    345    348     1  0.0000000  0.6508444  3
    343    342    345    346     1  0.0000000  0.6508444  3
    343    342    345    347     1  0.0000000  0.6508444  3
    343    342    351    352     1  0.0000000  1.2552000  3
    343    342    351    353     1  0.0000000  1.2552000  3
    344    342    345    348     1  0.0000000  0.6508444  3
    344    342    345    346     1  0.0000000  0.6508444  3
    344    342    345    347     1  0.0000000  0.6508444  3
    344    342    351    352     1  0.0000000  1.2552000  3
    344    342    351    353     1  0.0000000  1.2552000  3
    345    342    351    352     1  0.0000000  1.2552000  3
    345    342    351    353     1  0.0000000  1.2552000  3
    346    345    342    351     1  0.0000000  0.6508444  3
    346    345    348    354     1  0.0000000  1.0460000  1
    346    345    348    354     1  0.0000000  0.0000000  3
    346    345    348    349     1  0.0000000  0.6508444  3
    346    345    348    350     1  0.0000000  0.6508444  3
    347    345    342    351     1  0.0000000  0.6508444  3
    347    345    348    354     1  0.0000000  1.0460000  1
    347    345    348    354     1  0.0000000  0.0000000  3
    347    345    348    349     1  0.0000000  0.6508444  3
    347    345    348    350     1  0.0000000  0.6508444  3
    355    358    361    362     1  0.0000000  0.6508444  3
    355    358    361    363     1  0.0000000  0.6508444  3
    356    355    358    361     1  0.0000000  0.6508444  3
    356    355    358    359     1  0.0000000  0.6508444  3
    356    355    358    360     1  0.0000000  0.6508444  3
    356    355    364    365     1  0.0000000  1.2552000  3
    356    355    364    366     1  0.0000000  1.2552000  3
    357    355    358    361     1  0.0000000  0.6508444  3
    357    355    358    359     1  0.0000000  0.6508444  3
    357    355    358    360     1  0.0000000  0.6508444  3
    357    355    364    365     1  0.0000000  1.2552000  3
    357    355    364    366     1  0.0000000  1.2552000  3
    358    355    364    365     1  0.0000000  1.2552000  3
    358    355    364    366     1  0.0000000  1.2552000  3
    359    358    361    367     1  0.0000000  1.0460000  1
    359    358    361    367     1  0.0000000  0.0000000  3
    359    358    361    362     1  0.0000000  0.6508444  3
    359    358    361    363     1  0.0000000  0.6508444  3
    359    358    355    364     1  0.0000000  0.6508444  3
    360    358    361    367     1  0.0000000  1.0460000  1
    360    358    361    367     1  0.0000000  0.0000000  3
    360    358    361    362     1  0.0000000  0.6508444  3
    360    358    361    363     1  0.0000000  0.6508444  3
    360    358    355    364     1  0.0000000  0.6508444  3
    368    371    374    375     1  0.0000000  0.6508444  3
    368    371    374    376     1  0.0000000  0.6508444  3
    369    368    371    374     1  0.0000000  0.6508444  3
    369    368    371    372     1  0.0000000  0.6508444  3
    369    368    371    373     1  0.0000000  0.6508444  3
    369    368    377    378     1  0.0000000  1.2552000  3
    369    368    377    379     1  0.0000000  1.2552000  3
    370    368    371    374     1  0.0000000  0.6508444  3
    370    368    371    372     1  0.0000000  0.6508444  3
    370    368    371    373     1  0.0000000  0.6508444  3
    370    368    377    378     1  0.0000000  1.2552000  3
    370    368    377    379     1  0.0000000  1.2552000  3
    371    368    377    378     1  0.0000000  1.2552000  3
    371    368    377    379     1  0.0000000  1.2552000  3
    372    371    368    377     1  0.0000000  0.6508444  3
    372    371    374    380     1  0.0000000  1.0460000  1
    372    371    374    380     1  0.0000000  0.0000000  3
    372    371    374    375     1  0.0000000  0.6508444  3
    372    371    374    376     1  0.0000000  0.6508444  3
    373    371    368    377     1  0.0000000  0.6508444  3
    373    371    374    380     1  0.0000000  1.0460000  1
    373    371    374    380     1  0.0000000  0.0000000  3
    373    371    374    375     1  0.0000000  0.6508444  3
    373    371    374    376     1  0.0000000  0.6508444  3
    381    384    387    388     1  0.0000000  0.6508444  3
    381    384    387    389     1  0.0000000  0.6508444  3
    382    381    384    387     1  0.0000000  0.6508444  3
    382    381    384    385     1  0.0000000  0.6508444  3
    382    381    384    386     1  0.0000000  0.6508444  3
    382    381    390    391     1  0.0000000  1.2552000  3
    382    381    390    392     1  0.0000000  1.2552000  3
    383    381    384    387     1  0.0000000  0.6508444  3
    383    381    384    385     1  0.0000000  0.6508444  3
    383    381    384    386     1  0.0000000  0.6508444  3
    383    381    390    391     1  0.0000000  1.2552000  3
    383    381    390    392     1  0.0000000  1.2552000  3
    384    381    390    391     1  0.0000000  1.2552000  3
    384    381    390    392     1  0.0000000  1.2552000  3
    385    384    387    393     1  0.0000000  1.0460000  1
    385    384    387    393     1  0.0000000  0.0000000  3
    385    384    387    388     1  0.0000000  0.6508444  3
    385    384    387    389     1  0.0000000  0.6508444  3
    385    384    381    390     1  0.0000000  0.6508444  3
    386    384    387    393     1  0.0000000  1.0460000  1
    386    384    387    393     1  0.0000000  0.0000000  3
    386    384    387    388     1  0.0000000  0.6508444  3
    386    384    387    389     1  0.0000000  0.6508444  3
    386    384    381    390     1  0.0000000  0.6508444  3
    394    397    400    401     1  0.0000000  0.6508444  3
    394    397    400    402     1  0.0000000  0.6508444  3
    395    394    397    400     1  0.0000000  0.6508444  3
    395    394    397    398     1  0.0000000  0.6508444  3
    395    394    397    399     1  0.0000000  0.6508444  3
    395    394    403    404     1  0.0000000  1.2552000  3
    395    394    403    405     1  0.0000000  1.2552000  3
    396    394    397    400     1  0.0000000  0.6508444  3
    396    394    397    398     1  0.0000000  0.6508444  3
    396    394    397    399     1  0.0000000  0.6508444  3
    396    394    403    404     1  0.0000000  1.2552000  3
    396    394    403    405     1  0.0000000  1.2552000  3
    397    394    403    404     1  0.0000000  1.2552000  3
    397    394    403    405     1  0.0000000  1.2552000  3
    398    397    394    403     1  0.0000000  0.6508444  3
    398    397    400    406     1  0.0000000  1.0460000  1
    398    397    400    406     1  0.0000000  0.0000000  3
    398    397    400    401     1  0.0000000  0.6508444  3
    398    397    400    402     1  0.0000000  0.6508444  3
    399    397    394    403     1  0.0000000  0.6508444  3
    399    397    400    406     1  0.0000000  1.0460000  1
    399    397    400    406     1  0.0000000  0.0000000  3
    399    397    400    401     1  0.0000000  0.6508444  3
    399    397    400    402     1  0.0000000  0.6508444  3
    407    410    413    414     1  0.0000000  0.6508444  3
    407    410    413    415     1  0.0000000  0.6508444  3
    408    407    410    413     1  0.0000000  0.6508444  3
    408    407    410    411     1  0.0000000  0.6508444  3
    408    407    410    412     1  0.0000000  0.6508444  3
    408    407    416    417     1  0.0000000  1.2552000  3
    408    407    416    418     1  0.0000000  1.2552000  3
    409    407    410    413     1  0.0000000  0.6508444  3
    409    407    410    411     1  0.0000000  0.6508444  3
    409    407    410    412     1  0.0000000  0.6508444  3
    409    407    416    417     1  0.0000000  1.2552000  3
    409    407    416    418     1  0.0000000  1.2552000  3
    410    407    416    417     1  0.0000000  1.2552000  3
    410    407    416    418     1  0.0000000  1.2552000  3
    411    410    413    419     1  0.0000000  1.0460000  1
    411    410    413    419     1  0.0000000  0.0000000  3
    411    410    413    414     1  0.0000000  0.6508444  3
    411    410    413    415     1  0.0000000  0.6508444  3
    411    410    407    416     1  0.0000000  0.6508444  3
    412    410    413    419     1  0.0000000  1.0460000  1
    412    410    413    419     1  0.0000000  0.0000000  3
    412    410    413    414     1  0.0000000  0.6508444  3
    412    410    413    415     1  0.0000000  0.6508444  3
    412    410    407    416     1  0.0000000  0.6508444  3
    420    423    426    427     1  0.0000000  0.6508444  3
    420    423    426    428     1  0.0000000  0.6508444  3
    421    420    423    426     1  0.0000000  0.6508444  3
    421    420    423    424     1  0.0000000  0.6508444  3
    421    420    423    425     1  0.0000000  0.6508444  3
    421    420    429    430     1  0.0000000  1.2552000  3
    421    420    429    431     1  0.0000000  1.2552000  3
    422    420    423    426     1  0.0000000  0.6508444  3
    422    420    423    424     1  0.0000000  0.6508444  3
    422    420    423    425     1  0.0000000  0.6508444  3
    422    420    429    430     1  0.0000000  1.2552000  3
    422    420    429    431     1  0.0000000  1.2552000  3
    423    420    429    430     1  0.0000000  1.2552000  3
    423    420    429    431     1  0.0000000  1.2552000  3
    424    423    420    429     1  0.0000000  0.6508444  3
    424    423    426    432     1  0.0000000  1.0460000  1
    424    423    426    432     1  0.0000000  0.0000000  3
    424    423    426    427     1  0.0000000  0.6508444  3
    424    423    426    428     1  0.0000000  0.6508444  3
    425    423    420    429     1  0.0000000  0.6508444  3
    425    423    426    432     1  0.0000000  1.0460000  1
    425    423    426    432     1  0.0000000  0.0000000  3
    425    423    426    427     1  0.0000000  0.6508444  3
    425    423    426    428     1  0.0000000  0.6508444  3
    433    436    439    440     1  0.0000000  0.6508444  3
    433    436    439    441     1  0.0000000  0.6508444  3
    434    433    436    439     1  0.0000000  0.6508444  3
    434    433    436    437     1  0.0000000  0.6508444  3
    434    433    436    438     1  0.0000000  0.6508444  3
    434    433    442    443     1  0.0000000  1.2552000  3
    434    433    442    444     1  0.0000000  1.2552000  3
    435    433    436    439     1  0.0000000  0.6508444  3
    435    433    436    437     1  0.0000000  0.6508444  3
    435    433    436    438     1  0.0000000  0.6508444  3
    435    433    442    443     1  0.0000000  1.2552000  3
    435    433    442    444     1  0.0000000  1.2552000  3
    436    433    442    443     1  0.0000000  1.2552000  3
    436    433    442    444     1  0.0000000  1.2552000  3
    437    436    439    445     1  0.0000000  1.0460000  1
    437    436    439    445     1  0.0000000  0.0000000  3
    437    436    439    440     1  0.0000000  0.6508444  3
    437    436    439    441     1  0.0000000  0.6508444  3
    437    436    433    442     1  0.0000000  0.6508444  3
    438    436    439    445     1  0.0000000  1.0460000  1
    438    436    439    445     1  0.0000000  0.0000000  3
    438    436    439    440     1  0.0000000  0.6508444  3
    438    436    439    441     1  0.0000000  0.6508444  3
    438    436    433    442     1  0.0000000  0.6508444  3

;[ system ]
;; Name
;Generic title
;
;[ molecules ]
;; Compound       #mols
;g2npncore_petim     1
