G2NPncore-PETIM in water
31601
    1aaa     N1    1   2.253   2.951   1.225  0.0235 -0.1274  0.2831
    1aaa     C1    2   2.193   3.006   1.351 -0.3231  0.1036 -0.4183
    1aaa     H1    3   2.140   3.101   1.335 -0.6693  0.0906  0.5854
    1aaa     H2    4   2.112   2.936   1.377 -2.4972  1.8260 -2.1314
    1aaa     C2    5   2.337   3.051   1.152  0.1134 -0.3112  0.6799
    1aaa     H3    6   2.416   3.078   1.223  1.4213  1.0442 -1.1817
    1aaa     H4    7   2.398   3.005   1.073 -0.4221 -0.3301  0.2708
    1aaa     C3    8   2.340   2.827   1.231  0.3462 -0.7692 -0.1636
    1aaa     H5    9   2.352   2.776   1.135  0.3225  1.6951 -1.5396
    1aaa     H6   10   2.441   2.842   1.271  0.3119 -0.9436 -0.0083
    1aaa     C4   11   2.274   2.711   1.314 -0.1106  0.2602  0.0066
    1aaa     H7   12   2.344   2.629   1.336  1.9749  1.8880 -0.2557
    1aaa     H8   13   2.250   2.748   1.414 -0.0193  2.4719 -0.7446
    1aaa     C5   14   2.291   3.018   1.468 -0.2402  0.1250 -0.4041
    1aaa     H9   15   2.356   2.930   1.473 -1.7614 -1.0597 -0.6431
    1aaa    H10   16   2.347   3.111   1.448 -2.1033  1.0581 -1.5340
    1aaa     C6   17   2.261   3.184   1.107 -0.0849 -0.2877 -0.2840
    1aaa    H11   18   2.200   3.163   1.019 -0.0289 -0.1679 -0.3515
    1aaa    H12   19   2.196   3.217   1.189  2.2469  1.0792  1.1363
    1aaa     C7   20   2.356   3.288   1.056 -0.0318  0.3230 -0.0597
    1aaa    H13   21   2.309   3.369   0.998 -0.5061 -0.4018 -0.7004
    1aaa    H14   22   2.417   3.311   1.144 -0.3017  0.8209  0.0051
    1aaa     C8   23   2.146   2.648   1.253  0.2623 -0.4968  0.6260
    1aaa    H15   24   2.113   2.573   1.326 -0.0676  1.0766  2.1741
    1aaa    H16   25   2.065   2.722   1.248  0.3191 -0.5262 -1.3201
    1aaa     C9   26   2.214   3.031   1.604 -0.2160  0.5880  0.0273
    1aaa    H17   27   2.166   3.130   1.602 -1.7129 -0.0683  1.1093
    1aaa    H18   28   2.135   2.955   1.601 -0.8454  1.2592 -1.1025
    2bbb     N1   29   2.762   3.245   0.580  0.1672 -0.7259  0.0943
    2bbb     C1   30   2.754   3.272   0.433 -0.2750 -0.1546 -0.4215
    2bbb     H1   31   2.655   3.243   0.397  0.1277 -1.5110 -0.5005
    2bbb     H2   32   2.830   3.212   0.382 -0.8108 -0.6699 -0.6259
    2bbb     C2   33   2.891   3.221   0.646  0.3236  0.0424 -0.4404
    2bbb     H3   34   2.867   3.163   0.736 -1.8443 -0.0968 -1.0591
    2bbb     H4   35   2.929   3.321   0.670 -0.5933  0.4516 -0.6361
    2bbb     C3   36   2.645   3.301   0.661 -0.2060 -0.1238 -0.2022
    2bbb     H5   37   2.565   3.344   0.598 -1.0676  1.6406  1.9519
    2bbb     H6   38   2.674   3.400   0.698  0.5519 -0.5473  0.3551
    2bbb     C4   39   2.596   3.215   0.778  0.7117  0.2708  0.2946
    2bbb     H7   40   2.681   3.185   0.839 -0.6111 -1.7106  1.2645
    2bbb     H8   41   2.533   3.132   0.744 -0.0025  0.1936  1.7514
    2bbb     C5   42   2.757   3.423   0.395  0.1421 -0.6580 -0.1029
    2bbb     H9   43   2.857   3.466   0.411 -0.0974  0.0499 -0.4663
    2bbb    H10   44   2.673   3.471   0.448 -0.9790 -3.3805  0.7599
    2bbb     C6   45   2.993   3.154   0.556 -0.7701  0.4162 -0.3738
    2bbb    H11   46   3.017   3.222   0.474  1.3259  0.5982  0.3355
    2bbb    H12   47   2.972   3.056   0.510  0.1195  0.2049 -0.3582
    2bbb     C7   48   2.506   3.304   0.869 -0.4110  0.4243 -0.1915
    2bbb    H13   49   2.433   3.337   0.794  0.9438 -0.8943 -2.1634
    2bbb    H14   50   2.565   3.382   0.919 -0.3709  0.9281 -1.0228
    2bbb     C8   51   3.129   3.137   0.632  0.3577  0.1721  0.5070
    2bbb    H15   52   3.155   3.243   0.638 -1.0294  0.7123 -1.9355
    2bbb    H16   53   3.195   3.076   0.569 -0.1633 -0.8261  0.9018
    2bbb     C9   54   2.721   3.450   0.247 -0.4461 -0.3093  0.9874
    2bbb    H17   55   2.811   3.409   0.200  1.1711  2.9120  1.0128
    2bbb    H18   56   2.717   3.559   0.229  1.2852 -0.1887  1.1419
    2bbb     O1   57   2.441   3.217   0.962  0.7751  0.4764 -0.2562
    3bbb     N1   58   2.133   2.668   0.690 -0.0363  0.4475  0.5805
    3bbb     C1   59   2.247   2.651   0.592  0.1795 -0.0032  0.2601
    3bbb     H1   60   2.281   2.547   0.584 -0.4954 -0.5206  3.0432
    3bbb     H2   61   2.335   2.697   0.638  0.0582  1.0085 -0.4759
    3bbb     C2   62   2.066   2.799   0.693  0.1797 -0.1444 -0.0365
    3bbb     H3   63   1.962   2.784   0.725 -0.2291 -0.6046 -1.4781
    3bbb     H4   64   2.048   2.844   0.594  2.0159  1.4777  0.3153
    3bbb     C3   65   2.156   2.602   0.818  0.0121 -0.1067  0.8187
    3bbb     H5   66   2.240   2.649   0.871 -0.3099  0.2038  1.0568
    3bbb     H6   67   2.181   2.499   0.788  0.5136  0.4276 -0.6953
    3bbb     C4   68   2.043   2.607   0.916  0.4886 -0.6614  0.0909
    3bbb     H7   69   1.966   2.545   0.867 -0.3006  1.1168 -1.0118
    3bbb     H8   70   1.996   2.705   0.929  1.3881  0.0839 -1.9723
    3bbb     C5   71   2.215   2.712   0.450  0.1782  0.5179 -0.2697
    3bbb     H9   72   2.211   2.822   0.450  0.8363  0.5650  1.1527
    3bbb    H10   73   2.118   2.666   0.431 -0.7504  1.5433  1.6663
    3bbb     C6   74   2.124   2.918   0.779  0.7696 -0.0568 -0.0307
    3bbb    H11   75   2.158   2.893   0.880 -1.3291  0.2318  0.7899
    3bbb    H12   76   2.053   3.001   0.789 -0.0890 -0.6342 -1.0737
    3bbb     C7   77   2.075   2.541   1.042  0.5454 -0.0683 -0.3094
    3bbb    H13   78   2.104   2.435   1.035 -2.6232 -0.9335 -2.6046
    3bbb    H14   79   1.985   2.546   1.104 -0.0254  2.4017 -1.2396
    3bbb     C8   80   2.240   2.992   0.716 -1.2156 -0.1933  0.0816
    3bbb    H15   81   2.333   2.933   0.713 -0.9274  0.1885  0.9697
    3bbb    H16   82   2.266   3.074   0.784  1.1079 -0.9748  0.2485
    3bbb     C9   83   2.303   2.668   0.324  0.2130 -0.3344  0.2236
    3bbb    H17   84   2.256   2.704   0.232 -1.5518  2.1531  1.9339
    3bbb    H18   85   2.313   2.559   0.324  3.4175 -0.1720 -1.7237
    3bbb     O1   86   2.183   2.607   1.120  0.4955 -0.3305  0.3302
    4bbb     N1   87   2.673   2.957   1.694 -0.0321 -0.9812 -0.2508
    4bbb     C1   88   2.786   3.054   1.717  0.0753 -0.2763  0.0915
    4bbb     H1   89   2.748   3.157   1.710  1.5320  0.4458  1.9659
    4bbb     H2   90   2.865   3.054   1.640  0.2907  1.7213  0.2396
    4bbb     C2   91   2.718   2.825   1.650 -0.7027  0.1000 -0.4461
    4bbb     H3   92   2.624   2.770   1.637 -0.0765 -1.6066  1.6176
    4bbb     H4   93   2.758   2.763   1.731 -0.6675  0.1446 -0.4294
    4bbb     C3   94   2.575   2.944   1.805  0.3194  0.1209 -0.7312
    4bbb     H5   95   2.625   2.906   1.895  0.8132 -2.0829 -1.8817
    4bbb     H6   96   2.500   2.872   1.770 -0.3451  0.5887 -0.3031
    4bbb     C4   97   2.500   3.081   1.837 -0.1050  0.0169  0.0573
    4bbb     H7   98   2.572   3.161   1.858  0.9994 -0.9157 -0.1500
    4bbb     H8   99   2.441   3.062   1.928 -1.6689  1.3209 -0.6305
    4bbb     C5  100   2.861   3.048   1.857 -1.0178 -0.9323  0.7306
    4bbb     H9  101   2.889   2.942   1.861 -0.2127 -0.8628 -1.6416
    4bbb    H10  102   2.785   3.068   1.935 -2.2518 -1.4433 -0.3028
    4bbb     C6  103   2.802   2.818   1.522 -0.4694 -0.0090 -0.1349
    4bbb    H11  104   2.837   2.715   1.506 -2.5628 -0.9388  0.9152
    4bbb    H12  105   2.893   2.877   1.531 -0.0251 -0.4310 -1.5625
    4bbb     C7  106   2.397   3.121   1.728  0.1556 -0.3456  0.0240
    4bbb    H13  107   2.454   3.135   1.636 -1.0682  2.0228 -0.4605
    4bbb    H14  108   2.341   3.210   1.761  1.3713 -0.1070  1.5805
    4bbb     C8  109   2.716   2.870   1.403 -0.9494  0.3720  0.1904
    4bbb    H15  110   2.686   2.973   1.426 -0.7066  0.3226  0.7253
    4bbb    H16  111   2.632   2.800   1.399  1.1406 -2.4975  2.1873
    4bbb     C9  112   2.995   3.131   1.859 -0.6025 -0.5154 -0.0913
    4bbb    H17  113   3.033   3.150   1.960  0.8350  3.8766 -1.2356
    4bbb    H18  114   2.980   3.229   1.812  0.5069  1.1251  2.6951
    4bbb     O1  115   2.304   3.011   1.713  0.0735  0.2496  0.1031
    5bbb     N1  116   3.104   2.618   0.977  0.4509 -0.5318 -0.1467
    5bbb     C1  117   3.237   2.630   1.054  0.1203 -1.3535 -0.0240
    5bbb     H1  118   3.238   2.584   1.154 -0.3724  4.1142  2.8955
    5bbb     H2  119   3.261   2.735   1.074  0.3082 -1.5639  0.9077
    5bbb     C2  120   2.981   2.648   1.067  0.7055  0.7237  1.0172
    5bbb     H3  121   2.887   2.642   1.009  2.8954 -0.1434 -2.7862
    5bbb     H4  122   2.996   2.750   1.103  0.2155  1.0099  0.4265
    5bbb     C3  123   3.093   2.692   0.848  0.1928 -0.0475 -0.1091
    5bbb     H5  124   3.001   2.660   0.797  0.3610  2.2812 -2.1125
    5bbb     H6  125   3.184   2.666   0.793  1.4216  0.4838  1.6065
    5bbb     C4  126   3.102   2.845   0.856  0.0543 -0.4675  0.4292
    5bbb     H7  127   3.196   2.875   0.904  1.0045  0.8103 -2.0590
    5bbb     H8  128   3.015   2.879   0.913  0.1114 -0.8308  0.7430
    5bbb     C5  129   3.356   2.580   0.975 -0.2542 -0.9472 -0.2264
    5bbb     H9  130   3.389   2.655   0.901 -0.3718 -0.7402 -0.0674
    5bbb    H10  131   3.323   2.496   0.913 -1.1303  2.2995 -4.6082
    5bbb     C6  132   2.970   2.550   1.182 -0.0787 -0.3835  0.0465
    5bbb    H11  133   3.030   2.596   1.262 -0.2448 -0.6329  0.3169
    5bbb    H12  134   3.024   2.459   1.155 -1.0220 -0.6747 -0.9431
    5bbb     C7  135   3.089   2.921   0.726  0.7648  0.0355  0.1442
    5bbb    H13  136   2.994   2.901   0.675  1.6443 -0.6435 -1.2872
    5bbb    H14  137   3.168   2.883   0.660  1.4323  2.4142 -0.5101
    5bbb     C8  138   2.824   2.527   1.224  0.6804  0.0560 -0.0840
    5bbb    H15  139   2.766   2.485   1.140 -2.1156  2.0760  0.6849
    5bbb    H16  140   2.787   2.626   1.250  1.4444  1.0563 -2.4836
    5bbb     C9  141   3.477   2.553   1.067 -0.0075 -0.5350  0.6129
    5bbb    H17  142   3.564   2.510   1.016  1.3841 -0.9772  3.1645
    5bbb    H18  143   3.449   2.475   1.139 -0.8589 -2.5501 -1.7746
    5bbb     O1  144   3.113   3.056   0.752 -0.2528  0.1073  0.1436
    6bbb     N1  145   2.352   3.073  -0.014 -0.0158  0.5596 -0.7356
    6bbb     C1  146   2.383   2.929  -0.012 -0.0876  0.9503  0.0546
    6bbb     H1  147   2.299   2.871  -0.053  0.8549 -0.8912  0.6389
    6bbb     H2  148   2.392   2.896   0.092 -0.0843  1.1069  0.1043
    6bbb     C2  149   2.214   3.097   0.038 -0.4945  0.5872  0.0196
    6bbb     H3  150   2.153   3.038  -0.033 -1.1253 -1.1505  1.9154
    6bbb     H4  151   2.174   3.199   0.024 -1.2624  0.4041  0.7932
    6bbb     C3  152   2.454   3.163   0.052 -0.1471 -0.3722 -0.2934
    6bbb     H5  153   2.549   3.149  -0.002  0.1812 -0.9313  0.4047
    6bbb     H6  154   2.473   3.129   0.155  1.6112  0.6999 -0.2178
    6bbb     C4  155   2.428   3.312   0.052 -0.6057 -0.6505  0.8317
    6bbb     H7  156   2.335   3.344   0.102 -1.5401 -0.9424 -0.6528
    6bbb     H8  157   2.402   3.341  -0.050 -0.1648 -1.9792  0.3278
    6bbb     C5  158   2.514   2.887  -0.086  0.1173  0.1351 -0.1656
    6bbb     H9  159   2.596   2.958  -0.069 -0.2580  0.3878  0.6358
    6bbb    H10  160   2.503   2.890  -0.195  0.9483 -4.6260 -0.5971
    6bbb     C6  161   2.162   3.026   0.170  0.0191  0.4911 -0.6582
    6bbb    H11  162   2.236   3.031   0.251 -2.1274 -1.8415  1.6750
    6bbb    H12  163   2.150   2.918   0.151 -0.3989 -0.3251  3.2749
    6bbb     C7  164   2.551   3.406   0.081  0.1541 -0.3465  0.4579
    6bbb    H13  165   2.529   3.513   0.081  0.5327 -0.2406  2.4088
    6bbb    H14  166   2.626   3.389   0.002  0.2505  1.4382  0.1139
    6bbb     C8  167   2.037   3.092   0.227 -0.0939 -0.6029 -0.5868
    6bbb    H15  168   1.970   3.116   0.143  0.0553  0.6556 -0.3610
    6bbb    H16  169   2.059   3.189   0.272  0.3790 -1.1050  0.2804
    6bbb     C9  170   2.560   2.744  -0.053 -0.3541 -0.0574  0.5464
    6bbb    H17  171   2.598   2.740   0.050 -0.6520 -1.8439  0.6230
    6bbb    H18  172   2.642   2.725  -0.123 -0.8541  2.8487 -0.9560
    6bbb     O1  173   2.609   3.375   0.205  0.3146 -0.0317  0.0052
    7bbb     N1  174   2.242   3.511   0.479  1.1450 -0.2236 -0.3328
    7bbb     C1  175   2.093   3.532   0.501 -0.0454  0.3224 -0.8084
    7bbb     H1  176   2.079   3.635   0.536  0.7993  0.3670 -0.5665
    7bbb     H2  177   2.055   3.466   0.580 -0.8730 -0.1859 -1.6243
    7bbb     C2  178   2.295   3.615   0.388 -0.3850  0.4687  0.7966
    7bbb     H3  179   2.258   3.715   0.415 -0.6293  0.3657  0.8433
    7bbb     H4  180   2.270   3.588   0.285 -0.1592  1.4308  0.4796
    7bbb     C3  181   2.301   3.378   0.458 -0.0752  0.2632  0.4170
    7bbb     H5  182   2.409   3.381   0.476 -0.2320  1.5083  1.2900
    7bbb     H6  183   2.278   3.339   0.358 -0.1618 -0.0764  0.5682
    7bbb     C4  184   2.245   3.271   0.555  0.4802 -1.3882  0.1290
    7bbb     H7  185   2.137   3.272   0.537  0.1649  0.8029  1.7653
    7bbb     H8  186   2.245   3.301   0.660 -1.5295  0.0848 -0.2406
    7bbb     C5  187   1.997   3.512   0.377 -0.0130 -1.1078 -0.7422
    7bbb     H9  188   2.018   3.415   0.331 -2.0993 -1.5030 -0.9771
    7bbb    H10  189   2.019   3.589   0.302  0.7110 -2.2805 -1.7817
    7bbb     C6  190   2.448   3.632   0.398 -0.5764  0.5047 -0.4730
    7bbb    H11  191   2.488   3.557   0.329 -2.8347 -0.9910 -0.2449
    7bbb    H12  192   2.483   3.603   0.498  1.3963 -0.3394 -1.3411
    7bbb     C7  193   2.304   3.131   0.536 -0.1769 -0.6466 -0.4879
    7bbb    H13  194   2.405   3.116   0.576  0.8523 -0.4830 -2.8526
    7bbb    H14  195   2.311   3.101   0.430  1.6560 -1.6120 -0.1394
    7bbb     C8  196   2.508   3.763   0.347 -0.4718  0.3670 -0.1305
    7bbb    H15  197   2.479   3.849   0.409 -0.5472  0.0123  0.3363
    7bbb    H16  198   2.464   3.783   0.249 -1.0874 -2.5060 -0.5292
    7bbb     C9  199   1.848   3.534   0.411  0.4476 -0.6878  0.2161
    7bbb    H17  200   1.824   3.638   0.438 -0.6394 -0.7998 -0.2425
    7bbb    H18  201   1.828   3.469   0.497 -1.0022  0.3156  0.6819
    7bbb     O1  202   2.209   3.042   0.589 -0.6710 -0.3230 -0.1748
    8bbb     N1  203   2.699   2.762   0.537 -0.6433 -0.0781 -0.2295
    8bbb     C1  204   2.783   2.648   0.586 -0.3414  0.4687  0.5252
    8bbb     H1  205   2.768   2.622   0.692 -1.4411 -0.6252  0.1346
    8bbb     H2  206   2.887   2.673   0.568  0.0824 -1.7142 -0.4334
    8bbb     C2  207   2.703   2.886   0.627 -0.2606  0.4146 -0.7762
    8bbb     H3  208   2.606   2.935   0.611  0.3567  2.6150  1.5988
    8bbb     H4  209   2.785   2.951   0.595 -0.0879  0.3456 -0.4673
    8bbb     C3  210   2.720   2.790   0.391  0.5316  0.2286  0.4397
    8bbb     H5  211   2.694   2.700   0.335  0.6718 -0.2484  1.1285
    8bbb     H6  212   2.824   2.816   0.368 -0.5216  2.1030 -2.8278
    8bbb     C4  213   2.616   2.900   0.334  0.6752 -0.0092 -0.8346
    8bbb     H7  214   2.636   2.907   0.227  0.8486 -0.3076 -0.8225
    8bbb     H8  215   2.622   3.003   0.371 -0.8606  0.3099 -1.3732
    8bbb     C5  216   2.756   2.511   0.515 -0.8442  0.3785 -0.0147
    8bbb     H9  217   2.818   2.430   0.556  0.4614  1.6426  0.6149
    8bbb    H10  218   2.784   2.518   0.409 -0.3272  1.0377  0.1563
    8bbb     C6  219   2.706   2.869   0.777 -0.1099 -0.3832  0.3202
    8bbb    H11  220   2.704   2.971   0.817 -0.0063 -0.1802 -0.1757
    8bbb    H12  221   2.801   2.818   0.799  0.2962  0.0578 -0.3459
    8bbb     C7  222   2.471   2.853   0.368 -0.0099 -0.1665 -0.4741
    8bbb    H13  223   2.400   2.919   0.315 -0.0808  1.5167  1.5974
    8bbb    H14  224   2.455   2.861   0.476  0.7464 -2.3898 -0.1643
    8bbb     C8  225   2.593   2.780   0.834  0.7681  0.2010 -0.2579
    8bbb    H15  226   2.581   2.696   0.765  1.1095 -1.4246  1.5783
    8bbb    H16  227   2.500   2.839   0.839 -0.9702 -2.3597 -0.4102
    8bbb     C9  228   2.607   2.473   0.536  0.0450 -0.6892  0.6699
    8bbb    H17  229   2.538   2.556   0.519 -1.3539 -2.3129 -2.2353
    8bbb    H18  230   2.601   2.455   0.644  0.8623  0.7904  0.9943
    8bbb     O1  231   2.439   2.717   0.328  0.4666  0.5388 -0.1001
    9bbb     N1  232   2.827   3.298   1.213 -0.3086 -0.5905 -0.2409
    9bbb     C1  233   2.702   3.340   1.283 -1.0967  0.3312 -0.8611
    9bbb     H1  234   2.610   3.310   1.232 -1.1921 -1.9009  0.5058
    9bbb     H2  235   2.706   3.449   1.296 -1.1136  0.1663  0.8133
    9bbb     C2  236   2.824   3.380   1.085 -0.0849 -0.3529 -0.0618
    9bbb     H3  237   2.820   3.487   1.108  0.3721 -0.2094 -0.6116
    9bbb     H4  238   2.737   3.351   1.025  0.0614 -1.0276  0.0478
    9bbb     C3  239   2.855   3.154   1.192 -0.5494  0.3033  0.1073
    9bbb     H5  240   2.885   3.116   1.290 -0.9747  1.8312  0.8693
    9bbb     H6  241   2.937   3.137   1.121  0.2677 -0.6228  1.2345
    9bbb     C4  242   2.735   3.067   1.153 -0.0291 -0.3487  0.4378
    9bbb     H7  243   2.709   3.095   1.050 -0.1504 -0.9283  0.3090
    9bbb     H8  244   2.646   3.100   1.208  0.9206  3.9018 -0.1517
    9bbb     C5  245   2.702   3.302   1.431 -0.2081 -0.4183  0.2123
    9bbb     H9  246   2.803   3.302   1.473 -0.0454  0.2424 -0.1599
    9bbb    H10  247   2.657   3.202   1.436  1.3147 -1.1156  0.3804
    9bbb     C6  248   2.953   3.372   0.994 -0.2816 -0.2666 -0.2499
    9bbb    H11  249   2.951   3.292   0.919  0.9404 -0.7818  0.2324
    9bbb    H12  250   3.041   3.357   1.058  0.1861  0.1588 -0.7727
    9bbb     C7  251   2.756   2.922   1.161  0.4256 -0.1673  0.2797
    9bbb    H13  252   2.825   2.892   1.081  0.6166  0.6267  0.1368
    9bbb    H14  253   2.655   2.887   1.136  1.2004 -0.1793 -3.3499
    9bbb     C8  254   2.970   3.508   0.920 -0.3727 -0.3380  0.1521
    9bbb    H15  255   3.058   3.502   0.854 -1.4814  1.0767 -1.5627
    9bbb    H16  256   2.997   3.588   0.990 -5.5199  1.8508  0.0171
    9bbb     C9  257   2.602   3.385   1.514  0.2498  1.3154  0.2364
    9bbb    H17  258   2.630   3.491   1.505  0.5920  1.0656 -2.6352
    9bbb    H18  259   2.611   3.357   1.620 -0.3080  1.3379  0.2884
    9bbb     O1  260   2.800   2.871   1.287 -0.1331  0.2675 -0.1635
   10bbb     N1  261   3.259   3.065   1.382  0.2952  0.1102  0.1195
   10bbb     C1  262   3.158   3.081   1.269 -0.1140  0.0742 -0.0387
   10bbb     H1  263   3.117   3.183   1.271 -0.4304  0.0082 -1.8046
   10bbb     H2  264   3.085   3.000   1.280 -0.8943  0.9026  1.2033
   10bbb     C2  265   3.342   2.940   1.381 -0.2301 -0.4688  0.5082
   10bbb     H3  266   3.427   2.941   1.452 -0.7564 -0.4027  1.1464
   10bbb     H4  267   3.399   2.953   1.288  1.6020 -0.1919  1.6045
   10bbb     C3  268   3.195   3.081   1.515  0.3500 -0.1792  0.0162
   10bbb     H5  269   3.115   3.007   1.528 -0.3153  0.6389  0.7251
   10bbb     H6  270   3.150   3.181   1.527  0.4225 -0.1916  0.4194
   10bbb     C4  271   3.282   3.070   1.649  0.3375  0.2820 -0.1338
   10bbb     H7  272   3.377   3.120   1.628 -0.4291  1.6238 -0.5890
   10bbb     H8  273   3.291   2.964   1.672  0.2474  0.2924 -0.0502
   10bbb     C5  274   3.228   3.100   1.132 -0.8410  0.3022  0.5114
   10bbb     H9  275   3.148   3.119   1.060 -3.8484 -0.8432  3.3058
   10bbb    H10  276   3.272   3.001   1.114  1.1527  0.7228  2.4726
   10bbb     C6  277   3.274   2.808   1.369 -0.0666  0.4868 -0.9923
   10bbb    H11  278   3.345   2.738   1.324 -0.8222 -1.9190  1.2551
   10bbb    H12  279   3.192   2.805   1.296 -1.9274 -1.5465  1.0209
   10bbb     C7  280   3.211   3.133   1.770  0.1126 -0.4097 -0.1262
   10bbb    H13  281   3.195   3.238   1.744 -1.0600 -0.3017  0.9366
   10bbb    H14  282   3.267   3.126   1.864  2.3471 -0.9580 -1.4246
   10bbb     C8  283   3.221   2.752   1.503  0.6465 -0.2507  0.0647
   10bbb    H15  284   3.142   2.805   1.558  0.2832 -1.0380  0.3256
   10bbb    H16  285   3.306   2.741   1.572 -0.8030  0.6591  2.1303
   10bbb     C9  286   3.331   3.216   1.132  0.2897 -1.2790 -0.2284
   10bbb    H17  287   3.421   3.175   1.180 -0.3123 -1.4802  0.7564
   10bbb    H18  288   3.291   3.293   1.200 -1.5670 -1.2825 -1.2654
   10bbb     O1  289   3.089   3.064   1.779  0.5583  0.4365  0.4233
   11ccc     C1  290   2.716   2.320   1.598 -0.6718  0.5104 -0.3401
   11ccc     H1  291   2.668   2.413   1.630 -2.5564 -0.2941 -0.6816
   11ccc     H2  292   2.694   2.240   1.669  2.5818  0.7503  1.1222
   11ccc     C2  293   2.661   2.284   1.458  0.5652 -0.3248 -0.3589
   11ccc     H3  294   2.716   2.194   1.427 -0.2454 -1.0882  0.3482
   11ccc     H4  295   2.557   2.252   1.475  0.0940  1.5066  0.4402
   11ccc     C3  296   2.666   2.394   1.354  0.3669  0.0662  0.0451
   11ccc     H5  297   2.598   2.479   1.368  0.6438  0.4106 -0.6468
   11ccc     H6  298   2.623   2.345   1.266 -0.7934 -1.1084  1.2328
   11ccc     N1  299   2.857   2.326   1.600 -0.0923 -0.2249 -0.1460
   11ccc     H7  300   2.894   2.233   1.581 -0.0437 -0.1945 -0.2028
   11ccc     H8  301   2.886   2.382   1.520  0.5905 -0.0355  0.2271
   11ccc     O1  302   2.798   2.437   1.332 -0.2887  0.1669  0.3250
   12ccc     C1  303   3.825   2.696   1.387  0.2790  0.4495 -0.4626
   12ccc     H1  304   3.766   2.708   1.479 -0.2772 -0.5335 -0.6823
   12ccc     H2  305   3.867   2.595   1.386  0.0430  0.3475 -2.0924
   12ccc     C2  306   3.737   2.732   1.265 -0.3508 -1.1447 -0.5251
   12ccc     H3  307   3.697   2.833   1.276 -0.9746 -1.3722 -0.6383
   12ccc     H4  308   3.798   2.720   1.175  1.9195 -2.2140  1.0699
   12ccc     C3  309   3.618   2.637   1.247 -1.0481 -0.6469 -0.3481
   12ccc     H5  310   3.559   2.641   1.340  1.2074  0.4782  1.1234
   12ccc     H6  311   3.667   2.539   1.242 -0.4204 -0.2894 -1.5608
   12ccc     N1  312   3.939   2.785   1.411 -0.5207  0.2586  0.0503
   12ccc     H7  313   3.900   2.875   1.439  1.2463  0.8756  0.6550
   12ccc     H8  314   3.980   2.754   1.499 -0.7425  0.7972  0.3504
   12ccc     O1  315   3.528   2.671   1.132  0.2316 -0.1132 -0.2750
   13ccc     C1  316   1.716   3.075   0.613  0.1281  0.2789 -0.0297
   13ccc     H1  317   1.736   3.181   0.632 -1.2451  0.5163  0.1800
   13ccc     H2  318   1.620   3.063   0.561 -1.2689  1.2018  2.1900
   13ccc     C2  319   1.841   3.012   0.536 -0.3238  0.1854  0.0292
   13ccc     H3  320   1.935   3.024   0.590  0.0810  0.1402 -0.6460
   13ccc     H4  321   1.819   2.905   0.527 -0.8147  0.4062 -2.2134
   13ccc     C3  322   1.863   3.066   0.392  0.0951 -0.2742  0.8526
   13ccc     H5  323   1.877   3.174   0.389  1.1910 -0.4080  0.5607
   13ccc     H6  324   1.776   3.051   0.328  0.8600 -0.7520 -0.1144
   13ccc     N1  325   1.708   3.021   0.749  0.4211  0.1260 -0.2168
   13ccc     H7  326   1.723   2.920   0.742  0.4858  0.2062 -1.3329
   13ccc     H8  327   1.786   3.057   0.802  0.1607  1.1750 -0.5331
   13ccc     O1  328   1.970   3.000   0.320 -0.9692 -0.2041 -0.8458
   14ccc     C1  329   2.250   2.468   0.001  0.0811 -0.3336 -0.8661
   14ccc     H1  330   2.286   2.469   0.104 -0.1090  0.6726 -0.7974
   14ccc     H2  331   2.198   2.563  -0.017 -1.9378 -1.7283 -3.0784
   14ccc     C2  332   2.361   2.429  -0.098 -0.6583  0.4870 -0.3507
   14ccc     H3  333   2.385   2.322  -0.094 -1.0679  0.3720 -0.8128
   14ccc     H4  334   2.319   2.437  -0.199  3.6455  0.0369 -2.3971
   14ccc     C3  335   2.486   2.512  -0.073  1.0225 -0.3140  0.2053
   14ccc     H5  336   2.560   2.497  -0.152  1.2547 -1.3968  0.6130
   14ccc     H6  337   2.527   2.490   0.026  0.1839 -1.2607  0.3656
   14ccc     N1  338   2.147   2.368  -0.001  0.7623  0.2105  0.0982
   14ccc     H7  339   2.086   2.399   0.075  0.7929  0.2246  0.1168
   14ccc     H8  340   2.088   2.374  -0.084 -0.4819 -2.7841  0.6449
   14ccc     O1  341   2.445   2.652  -0.075  0.0732  0.3784 -0.1930
   15ccc     C1  342   2.971   3.908   0.203  0.0230  0.2410  0.1820
   15ccc     H1  343   2.954   4.012   0.233  1.3648  0.8271 -0.9644
   15ccc     H2  344   3.077   3.882   0.214 -0.3276 -1.6726 -0.5903
   15ccc     C2  345   2.875   3.815   0.288 -0.2172 -0.4009 -0.0379
   15ccc     H3  346   2.879   3.719   0.234  1.0726  0.7532 -2.1357
   15ccc     H4  347   2.918   3.813   0.389 -1.0914  0.4905  0.3643
   15ccc     C3  348   2.726   3.860   0.293  0.4334  0.4181 -0.2072
   15ccc     H5  349   2.696   3.891   0.192  0.3344  1.1912  0.0571
   15ccc     H6  350   2.710   3.949   0.355  0.3161  0.3011 -0.0670
   15ccc     N1  351   2.942   3.904   0.058 -0.8802  0.2798 -0.0556
   15ccc     H7  352   2.849   3.947   0.055 -1.3591 -0.6483  0.8842
   15ccc     H8  353   3.004   3.974   0.018  1.2234 -1.9659 -0.9765
   15ccc     O1  354   2.654   3.752   0.349  0.0556 -0.0841 -0.1554
   16ccc     C1  355   1.599   3.683   0.143  0.1560  0.0675  0.0684
   16ccc     H1  356   1.707   3.690   0.124  0.0199 -1.8044 -1.6796
   16ccc     H2  357   1.554   3.604   0.083  2.5500 -0.8395 -0.6428
   16ccc     C2  358   1.577   3.637   0.291 -0.6403  0.0912  0.0542
   16ccc     H3  359   1.627   3.718   0.347 -0.4567  0.8679 -1.2075
   16ccc     H4  360   1.471   3.634   0.318 -0.7843  2.0431 -0.1759
   16ccc     C3  361   1.632   3.499   0.314  0.4815 -0.8934  0.5705
   16ccc     H5  362   1.580   3.441   0.237 -1.8843  3.0422 -1.0852
   16ccc     H6  363   1.608   3.468   0.416 -1.4959  2.0798  1.1494
   16ccc     N1  364   1.541   3.812   0.128  0.5897 -0.1562  0.2566
   16ccc     H7  365   1.473   3.830   0.202 -0.0631  2.5294 -0.9023
   16ccc     H8  366   1.608   3.883   0.156  0.7184 -0.9980  2.2615
   16ccc     O1  367   1.775   3.490   0.296  0.2131  0.8023  0.2259
   17ccc     C1  368   2.457   2.402   0.901  0.1879 -0.6545 -0.1764
   17ccc     H1  369   2.374   2.396   0.972  2.0711 -2.2222  2.0791
   17ccc     H2  370   2.432   2.464   0.815 -0.9324 -1.0024 -0.1130
   17ccc     C2  371   2.567   2.480   0.983 -0.5675  0.4527  0.5209
   17ccc     H3  372   2.586   2.425   1.075 -0.6466 -2.7843 -1.2342
   17ccc     H4  373   2.663   2.472   0.929 -0.9361  0.7492 -0.2005
   17ccc     C3  374   2.541   2.625   1.013 -0.2136 -0.2293  0.0971
   17ccc     H5  375   2.545   2.639   1.122 -0.1181  0.6495 -0.0163
   17ccc     H6  376   2.438   2.646   0.984  0.2310  1.3093 -0.4728
   17ccc     N1  377   2.493   2.270   0.865  0.0552 -0.0041 -0.7189
   17ccc     H7  378   2.592   2.284   0.848  0.2159  0.6394  0.6070
   17ccc     H8  379   2.503   2.221   0.954  0.8893  1.4981  0.0670
   17ccc     O1  380   2.635   2.716   0.955 -0.1094 -0.1545 -0.1772
   18ccc     C1  381   2.433   2.220   0.230  0.5025  0.2395  0.0774
   18ccc     H1  382   2.393   2.318   0.202  0.7134  0.2251 -0.2719
   18ccc     H2  383   2.542   2.223   0.228  0.5555  0.5222  1.9589
   18ccc     C2  384   2.402   2.189   0.379 -0.0769 -0.4219  0.1590
   18ccc     H3  385   2.294   2.168   0.379 -0.3147  0.7107  0.5322
   18ccc     H4  386   2.456   2.098   0.406 -2.6196 -1.8421  0.8239
   18ccc     C3  387   2.433   2.306   0.476  0.0712 -0.1046 -0.6142
   18ccc     H5  388   2.428   2.270   0.579 -1.2854  2.0919  0.1430
   18ccc     H6  389   2.365   2.392   0.469  0.3413  0.2091  0.5088
   18ccc     N1  390   2.383   2.115   0.135 -0.3612 -0.0487  0.0890
   18ccc     H7  391   2.427   2.137   0.046  1.2418 -1.5834  0.4362
   18ccc     H8  392   2.434   2.031   0.162  2.7399  0.9167 -2.1404
   18ccc     O1  393   2.571   2.357   0.456 -0.4323 -0.7459 -0.0522
   19ccc     C1  394   2.736   3.850   0.685  0.5959  0.5396 -0.3439
   19ccc     H1  395   2.751   3.905   0.779 -2.1413 -0.2536  0.6512
   19ccc     H2  396   2.821   3.873   0.619  1.1812 -1.3893 -0.3355
   19ccc     C2  397   2.732   3.704   0.719 -0.4538  0.0714  0.5271
   19ccc     H3  398   2.660   3.695   0.801 -0.1634  2.8462  1.1824
   19ccc     H4  399   2.705   3.636   0.638  0.1901  0.5369 -0.0890
   19ccc     C3  400   2.863   3.664   0.781 -0.5005  0.4558  0.1284
   19ccc     H5  401   2.903   3.740   0.849  0.4474 -0.7251  0.9350
   19ccc     H6  402   2.927   3.666   0.692 -0.8780 -0.1540 -0.1590
   19ccc     N1  403   2.610   3.896   0.623  0.0770 -0.2639 -0.0536
   19ccc     H7  404   2.597   3.826   0.551 -2.2752 -1.7286  1.6285
   19ccc     H8  405   2.542   3.872   0.695  1.7943  1.7566  2.4655
   19ccc     O1  406   2.854   3.532   0.841 -0.1515 -0.0239 -0.0917
   20ccc     C1  407   2.306   3.548   1.324  0.5746 -0.2944  0.5759
   20ccc     H1  408   2.358   3.642   1.343 -0.1533 -0.2091  2.3501
   20ccc     H2  409   2.369   3.471   1.279  1.9226  0.3808  1.2470
   20ccc     C2  410   2.257   3.487   1.458 -0.3636  0.1981 -0.3719
   20ccc     H3  411   2.198   3.564   1.509 -1.7377 -0.0963 -1.4427
   20ccc     H4  412   2.197   3.399   1.432  1.9452 -1.8359  0.7183
   20ccc     C3  413   2.374   3.437   1.547  0.1701 -0.0137  0.2985
   20ccc     H5  414   2.346   3.380   1.637  1.7528  0.7540  1.3231
   20ccc     H6  415   2.422   3.528   1.584  1.7415 -0.7726  0.1900
   20ccc     N1  416   2.184   3.580   1.245  0.0781  0.6806  0.5686
   20ccc     H7  417   2.148   3.663   1.291 -1.4747  0.9380 -1.0011
   20ccc     H8  418   2.231   3.608   1.160  0.4050  0.7115  0.7605
   20ccc     O1  419   2.470   3.368   1.467  0.0752 -0.1168  0.3937
   21ccc     C1  420   3.221   2.322   1.420 -0.0656 -0.0657 -0.4731
   21ccc     H1  421   3.120   2.281   1.409  0.3338 -1.6962  1.3293
   21ccc     H2  422   3.253   2.382   1.334 -0.2158 -0.2546 -0.6604
   21ccc     C2  423   3.223   2.396   1.555 -0.6307 -0.7228  0.0120
   21ccc     H3  424   3.172   2.337   1.632  2.1022  0.7199  3.2032
   21ccc     H4  425   3.325   2.416   1.592 -0.6838  0.4776 -0.4775
   21ccc     C3  426   3.150   2.529   1.569  0.5643  0.7507 -0.1395
   21ccc     H5  427   3.159   2.573   1.669  0.1928 -0.4559  0.4423
   21ccc     H6  428   3.044   2.504   1.561  0.1366  2.1511  0.8545
   21ccc     N1  429   3.312   2.208   1.431 -0.4601 -0.2721  0.0475
   21ccc     H7  430   3.394   2.260   1.461  0.5437 -2.2939  1.0417
   21ccc     H8  431   3.292   2.157   1.517 -0.9006 -0.9812 -0.4657
   21ccc     O1  432   3.189   2.615   1.462 -0.1670  0.0496  0.7032
   22ccc     C1  433   3.427   3.035   0.845 -0.4419  0.6607 -0.6264
   22ccc     H1  434   3.332   3.058   0.895  0.8035  2.7344  0.9505
   22ccc     H2  435   3.450   3.085   0.750  1.1555  0.5133 -0.3444
   22ccc     C2  436   3.531   3.104   0.944  0.2756  0.5978  1.1333
   22ccc     H3  437   3.537   3.052   1.040 -0.1127 -2.6292 -0.4568
   22ccc     H4  438   3.630   3.095   0.898 -0.9737  1.9422 -2.1339
   22ccc     C3  439   3.496   3.256   0.956  0.2196  0.3478 -0.2352
   22ccc     H5  440   3.508   3.300   0.856  2.0937 -0.4273 -0.3908
   22ccc     H6  441   3.575   3.301   1.016  1.6182 -0.4965 -1.3660
   22ccc     N1  442   3.460   2.889   0.823 -0.2288 -0.5079 -0.4053
   22ccc     H7  443   3.557   2.884   0.792  0.7948 -0.4858  2.5553
   22ccc     H8  444   3.469   2.850   0.917  2.8149  2.3626  0.6790
   22ccc     O1  445   3.363   3.274   1.004 -0.0012 -0.4870  0.4497
   23SOL     OW  446   0.056   5.996   5.541  0.1496 -0.0955  0.8197
   23SOL    HW1  447  -0.011   6.001   5.473 -1.0860 -1.6365  1.8355
   23SOL    HW2  448   0.137   6.022   5.497 -0.3994 -1.9747 -1.5502
   24SOL     OW  449   0.516   0.596   0.436  0.5854  0.3253  0.1571
   24SOL    HW1  450   0.450   0.650   0.480  0.4103 -0.0340  0.3361
   24SOL    HW2  451   0.523   0.518   0.491 -0.3419 -0.5793 -0.9819
   25SOL     OW  452   1.280   1.722   3.935 -0.3802  0.0526  0.1476
   25SOL    HW1  453   1.314   1.796   3.985 -1.7942  0.5258  0.4546
   25SOL    HW2  454   1.185   1.727   3.946 -0.6415 -0.6306 -1.4712
   26SOL     OW  455   3.879   4.007   4.923 -0.3748 -0.3388 -0.1164
   26SOL    HW1  456   3.900   3.963   5.006  1.8705 -0.5969 -0.7710
   26SOL    HW2  457   3.845   4.092   4.950  0.7095 -0.2538  1.1008
   27SOL     OW  458   2.422   5.832   2.762  0.3999  0.3495 -0.2053
   27SOL    HW1  459   2.503   5.783   2.775 -0.3542 -0.9518 -0.2578
   27SOL    HW2  460   2.360   5.768   2.728 -0.6368  1.3369 -0.2381
   28SOL     OW  461   4.402   1.893   6.336  0.3197 -0.3397 -0.5591
   28SOL    HW1  462   4.374   1.806   6.364 -0.1507  0.3520  1.2709
   28SOL    HW2  463   4.495   1.883   6.319  0.4066 -1.0846  0.2385
   29SOL     OW  464   0.509   5.303   1.145  0.2478  0.6852  0.4765
   29SOL    HW1  465   0.435   5.292   1.204  0.2329 -0.9763  0.2159
   29SOL    HW2  466   0.583   5.263   1.192  0.2746 -0.4968 -0.5254
   30SOL     OW  467   5.252   6.164   3.588  0.0312  0.4521 -0.1403
   30SOL    HW1  468   5.331   6.197   3.630  0.7810 -0.1297 -1.0476
   30SOL    HW2  469   5.229   6.086   3.638 -0.4250  1.0310  0.5863
   31SOL     OW  470   3.205   6.489   5.477 -0.2275 -1.1726 -0.1567
   31SOL    HW1  471   3.171   6.505   5.389 -3.3687  1.0927  1.2875
   31SOL    HW2  472   3.127   6.486   5.533  1.6388 -2.3701  2.6325
   32SOL     OW  473   1.998   6.195   0.282  0.0493  0.4268 -0.6112
   32SOL    HW1  474   1.986   6.114   0.330  0.0064  1.3513  0.9886
   32SOL    HW2  475   1.910   6.229   0.270  0.1709  0.9761  0.0396
   33SOL     OW  476   0.574   3.241   0.895 -0.1023  0.3512 -0.6199
   33SOL    HW1  477   0.621   3.324   0.901  0.8241 -0.2255  0.8492
   33SOL    HW2  478   0.628   3.187   0.838  1.1924 -0.3500  1.1564
   34SOL     OW  479   5.033   6.182   6.492 -0.3934  0.2547 -0.5256
   34SOL    HW1  480   5.043   6.218   6.580 -0.9499 -0.4195 -0.1729
   34SOL    HW2  481   5.000   6.093   6.506 -0.9044  0.2847 -1.4254
   35SOL     OW  482   0.051   2.124   5.490 -0.5220  0.1843  0.1012
   35SOL    HW1  483   0.064   2.129   5.585  0.3686 -2.4606  0.2033
   35SOL    HW2  484   0.139   2.137   5.454 -0.5713 -0.3820 -0.2367
   36SOL     OW  485   1.213   0.150   3.885 -0.5062 -0.9766  0.4826
   36SOL    HW1  486   1.152   0.151   3.959 -0.0366  1.3119  0.8935
   36SOL    HW2  487   1.220   0.241   3.858  2.1538 -1.2533 -0.0273
   37SOL     OW  488   1.621   2.170   1.281  0.0750  0.0657 -0.0802
   37SOL    HW1  489   1.579   2.251   1.310  1.6661  0.6030  0.8426
   37SOL    HW2  490   1.622   2.114   1.359  1.0244  0.0682 -0.0759
   38SOL     OW  491   4.297   1.722   4.148 -0.4154  0.0289  0.4618
   38SOL    HW1  492   4.310   1.676   4.065  1.3580  0.2570  0.5737
   38SOL    HW2  493   4.318   1.657   4.215 -1.4058 -0.0217  0.7486
   39SOL     OW  494   3.372   3.959   4.753  0.3843  0.7680  0.8701
   39SOL    HW1  495   3.300   3.958   4.817 -0.6257  0.9853 -0.2248
   39SOL    HW2  496   3.403   3.868   4.751 -1.4893  0.0919 -0.3692
   40SOL     OW  497   2.404   5.227   5.968 -0.2931 -0.4250 -0.3320
   40SOL    HW1  498   2.427   5.286   5.896 -1.8660  1.3498  0.5023
   40SOL    HW2  499   2.421   5.279   6.047 -3.0936 -0.4820  0.4077
   41SOL     OW  500   0.498   3.545   1.451  0.2334  0.0561 -0.1927
   41SOL    HW1  501   0.470   3.575   1.538 -1.0254 -1.2898 -0.1049
   41SOL    HW2  502   0.583   3.586   1.438  0.8072 -0.3260  2.0146
   42SOL     OW  503   0.431   1.174   0.815  0.0725 -0.1227 -0.1483
   42SOL    HW1  504   0.453   1.115   0.743  1.9292 -0.2046  0.4327
   42SOL    HW2  505   0.506   1.233   0.821 -0.3556  0.3065  1.2871
   43SOL     OW  506   0.079   0.166   2.567  0.0064  0.5603 -0.3159
   43SOL    HW1  507   0.009   0.166   2.502  0.5509  0.7522 -0.9199
   43SOL    HW2  508   0.109   0.257   2.569 -1.3611  1.0429  1.7236
   44SOL     OW  509   5.781   4.431   5.723  0.1440  0.5991 -0.3907
   44SOL    HW1  510   5.814   4.355   5.771  0.6618  0.8739 -0.3102
   44SOL    HW2  511   5.747   4.490   5.791 -0.1280  0.5063 -0.4432
   45SOL     OW  512   1.389   6.204   1.446 -0.7709 -0.1695  0.3936
   45SOL    HW1  513   1.347   6.166   1.368 -0.8211  0.5370  0.0646
   45SOL    HW2  514   1.454   6.140   1.472 -0.7795 -0.4352 -0.2129
   46SOL     OW  515   3.719   5.114   4.039 -0.3955 -0.0459 -0.3147
   46SOL    HW1  516   3.629   5.114   4.071 -0.4113  0.0473 -0.3569
   46SOL    HW2  517   3.768   5.064   4.104 -0.3543  0.4704  0.0637
   47SOL     OW  518   2.198   2.459   2.007  0.2835  0.5408  0.0671
   47SOL    HW1  519   2.148   2.388   2.047 -0.4720  0.3948 -1.1045
   47SOL    HW2  520   2.265   2.480   2.073  2.1884 -2.9284 -0.5054
   48SOL     OW  521   5.561   2.267   4.034  0.0405 -0.3940  0.3391
   48SOL    HW1  522   5.566   2.173   4.049 -0.1997 -0.5834 -0.7017
   48SOL    HW2  523   5.470   2.283   4.008  0.1521  0.0807  0.2205
   49SOL     OW  524   5.147   6.806   4.171 -0.0258 -0.3647  0.4909
   49SOL    HW1  525   5.156   6.897   4.144  1.6583 -0.9264 -1.0549
   49SOL    HW2  526   5.054   6.786   4.158 -0.2391  0.8747  0.0198
   50SOL     OW  527   1.891   6.003   6.016  0.4301 -0.0909  0.6336
   50SOL    HW1  528   1.871   6.066   5.947  1.3437  0.2803  0.7000
   50SOL    HW2  529   1.836   5.927   5.996  0.0085  0.3698  0.0278
   51SOL     OW  530   4.829   4.209   0.713 -0.1899  0.0779  0.1322
   51SOL    HW1  531   4.791   4.295   0.693  0.7438  0.7760  1.2982
   51SOL    HW2  532   4.923   4.225   0.721  0.0162 -1.0906  0.2168
   52SOL     OW  533   3.057   0.329   4.949 -0.2673  0.1217 -0.5822
   52SOL    HW1  534   3.101   0.248   4.926  1.3021  0.0361  2.2881
   52SOL    HW2  535   3.100   0.396   4.896  0.8351 -0.4752 -0.4645
   53SOL     OW  536   0.738   2.342   3.993 -0.4352  0.5128 -0.2179
   53SOL    HW1  537   0.797   2.335   3.918  0.9731 -0.1848  0.9003
   53SOL    HW2  538   0.692   2.424   3.980 -1.4523 -0.3339 -2.6787
   54SOL     OW  539   5.919   1.471   1.110  0.0094  0.1452 -0.6678
   54SOL    HW1  540   5.907   1.563   1.132  2.1384  0.1738  0.6223
   54SOL    HW2  541   5.999   1.468   1.057  2.0376 -1.2080  2.1898
   55SOL     OW  542   3.625   4.564   3.508  0.2039 -0.3343 -0.4747
   55SOL    HW1  543   3.669   4.498   3.456  0.7663 -1.0629  0.8701
   55SOL    HW2  544   3.546   4.521   3.541 -0.0826  0.0790 -0.5984
   56SOL     OW  545   3.101   4.474   5.165  0.0651  0.0566  0.1567
   56SOL    HW1  546   3.192   4.479   5.194 -0.7928  1.1737  2.9959
   56SOL    HW2  547   3.081   4.562   5.131  0.2949 -0.4980 -1.5189
   57SOL     OW  548   4.883   5.135   6.795 -0.0497 -0.1853 -0.1140
   57SOL    HW1  549   4.870   5.041   6.780 -0.5398  0.0560 -1.2701
   57SOL    HW2  550   4.945   5.162   6.728 -0.5660  0.4872 -0.3260
   58SOL     OW  551   1.896   2.525   3.422 -0.4121  0.3576 -0.0063
   58SOL    HW1  552   1.990   2.506   3.426 -0.5667 -0.2403  2.0752
   58SOL    HW2  553   1.890   2.619   3.439 -0.2485  0.1569  1.2235
   59SOL     OW  554   4.349   6.693   2.133  0.3977  0.0815 -0.3940
   59SOL    HW1  555   4.343   6.739   2.216 -1.0568 -1.7652  0.6047
   59SOL    HW2  556   4.393   6.611   2.154  0.1429 -0.3476 -1.4690
   60SOL     OW  557   6.641   2.515   5.159  0.6370  0.8164  0.4596
   60SOL    HW1  558   6.601   2.540   5.243  0.8998  1.6322  0.3533
   60SOL    HW2  559   6.683   2.431   5.176 -0.5512  0.2536  0.7524
   61SOL     OW  560   0.203   0.788   6.488  0.3759  0.2661 -0.2778
   61SOL    HW1  561   0.194   0.741   6.571  0.9748  1.5931  0.5726
   61SOL    HW2  562   0.263   0.734   6.436  0.3133 -0.3708  0.2902
   62SOL     OW  563   1.431   3.188   4.233  0.2383 -0.1002  0.4121
   62SOL    HW1  564   1.492   3.119   4.258 -1.1499 -0.8957  1.7209
   62SOL    HW2  565   1.452   3.205   4.141  0.9270 -1.9190  0.1917
   63SOL     OW  566   2.258   1.674   1.656  0.2419 -0.3860 -0.4680
   63SOL    HW1  567   2.347   1.652   1.683  0.5906  0.6673 -0.7193
   63SOL    HW2  568   2.210   1.686   1.738 -0.3400 -3.3147 -0.2609
   64SOL     OW  569   5.647   2.992   0.989 -0.1677 -0.0628 -0.1855
   64SOL    HW1  570   5.721   3.012   1.046 -0.0361  0.1866 -0.4435
   64SOL    HW2  571   5.647   2.896   0.984 -0.4904 -0.1157  0.6328
   65SOL     OW  572   3.488   6.496   1.218  0.2778 -0.1611 -0.3023
   65SOL    HW1  573   3.401   6.506   1.255 -0.2246 -0.9681 -1.2150
   65SOL    HW2  574   3.536   6.445   1.283 -0.5831 -1.5390 -0.7000
   66SOL     OW  575   0.486   2.437   3.736 -0.0860 -0.3958 -0.4209
   66SOL    HW1  576   0.470   2.527   3.708 -3.3718 -0.3763  1.1423
   66SOL    HW2  577   0.492   2.441   3.831 -0.8882 -1.8656 -0.2742
   67SOL     OW  578   4.884   4.242   6.295 -0.0558 -0.4445 -0.1417
   67SOL    HW1  579   4.944   4.171   6.273 -0.7418 -0.9043 -0.5950
   67SOL    HW2  580   4.834   4.257   6.214 -0.9387 -0.4638  0.3828
   68SOL     OW  581   6.756   5.260   1.881  0.0200 -0.1526  0.1775
   68SOL    HW1  582   6.782   5.169   1.870 -0.5661 -0.1562 -1.4462
   68SOL    HW2  583   6.836   5.304   1.912  0.5626 -1.0358  0.0754
   69SOL     OW  584   0.567   6.382   0.058  0.2834 -0.1465 -0.3459
   69SOL    HW1  585   0.569   6.475   0.084 -0.6317  0.1643 -1.3401
   69SOL    HW2  586   0.490   6.347   0.102 -0.0798 -0.1272 -0.9636
   70SOL     OW  587   0.351   0.563   0.179  0.4853 -0.2220  0.0610
   70SOL    HW1  588   0.275   0.505   0.176 -0.4654  1.0177 -1.0526
   70SOL    HW2  589   0.409   0.523   0.244 -0.6485 -1.7550  0.1912
   71SOL     OW  590   4.400   4.476   4.570 -0.1191 -0.2791  0.3803
   71SOL    HW1  591   4.305   4.473   4.570 -0.0991 -1.0881  0.7943
   71SOL    HW2  592   4.426   4.443   4.656  0.5086  1.5769  0.9556
   72SOL     OW  593   6.726   0.470   6.457 -0.1241  0.7943 -0.6612
   72SOL    HW1  594   6.815   0.448   6.484 -0.7668 -0.4200  0.5656
   72SOL    HW2  595   6.735   0.496   6.365  1.6042  1.5319 -0.3218
   73SOL     OW  596   1.487   5.489   4.665  0.3710 -0.1035  0.1449
   73SOL    HW1  597   1.547   5.459   4.733  2.6865 -1.2140 -2.1935
   73SOL    HW2  598   1.512   5.439   4.587 -1.8735  1.3437 -1.6419
   74SOL     OW  599   3.845   1.966   0.026  0.1454 -0.1927 -0.6447
   74SOL    HW1  600   3.896   2.023  -0.031  0.2874 -1.2714 -1.6487
   74SOL    HW2  601   3.762   2.012   0.040  1.0207  1.1687  0.2725
   75SOL     OW  602   0.962   3.348   3.334 -0.3893  0.0233 -0.1996
   75SOL    HW1  603   1.031   3.345   3.399 -0.9859  0.6339  0.4760
   75SOL    HW2  604   1.004   3.319   3.252  0.1881 -1.4747  0.5874
   76SOL     OW  605   5.274   3.915   3.698  0.0337  0.6298  0.7629
   76SOL    HW1  606   5.220   3.983   3.738 -1.7133  0.8281 -1.7018
   76SOL    HW2  607   5.346   3.962   3.657  0.6998  0.6197  1.8869
   77SOL     OW  608   5.348   5.989   5.040  0.8615 -0.1017 -0.0054
   77SOL    HW1  609   5.337   6.076   5.002  0.9942 -0.2189 -0.3132
   77SOL    HW2  610   5.267   5.942   5.019  0.7942 -0.0565  0.1509
   78SOL     OW  611   5.566   6.408   1.607  0.3549 -0.0690  0.6032
   78SOL    HW1  612   5.496   6.348   1.581  1.1828 -0.5090 -0.7174
   78SOL    HW2  613   5.613   6.361   1.677 -1.9826  1.1849  3.2136
   79SOL     OW  614   6.736   1.059   3.691 -0.1395 -0.0866  0.1981
   79SOL    HW1  615   6.809   1.002   3.715  0.7224  0.4465 -1.0510
   79SOL    HW2  616   6.746   1.136   3.748 -0.2264 -0.3875  0.6193
   80SOL     OW  617   6.201   4.914   0.663  0.2589  0.0417  0.0890
   80SOL    HW1  618   6.245   4.976   0.721  1.8475 -1.9122  1.1477
   80SOL    HW2  619   6.242   4.926   0.578  0.0890  0.8681  0.1231
   81SOL     OW  620   1.698   3.301   5.654  0.2314  0.0344  0.0571
   81SOL    HW1  621   1.670   3.376   5.601 -1.8118 -1.4676 -1.1307
   81SOL    HW2  622   1.637   3.300   5.728 -0.4495 -1.0391 -0.4979
   82SOL     OW  623   0.120   3.866   1.257  0.1812 -0.0218  0.1301
   82SOL    HW1  624   0.208   3.846   1.226  0.2969  1.7292 -0.7951
   82SOL    HW2  625   0.063   3.809   1.206  0.7470 -1.1569  0.7202
   83SOL     OW  626   2.667   6.377   5.183 -0.2479  0.3384 -0.2064
   83SOL    HW1  627   2.613   6.301   5.207  0.6599 -0.2106  0.1327
   83SOL    HW2  628   2.632   6.405   5.099 -1.2456  0.1580  0.1344
   84SOL     OW  629   1.695   2.514   1.048  0.2827  0.3964  0.3980
   84SOL    HW1  630   1.687   2.509   1.143 -0.2704  0.0885  0.3405
   84SOL    HW2  631   1.712   2.607   1.030 -1.5075  0.8182  0.6772
   85SOL     OW  632   5.000   2.977   0.289  0.0505 -0.2725  0.3286
   85SOL    HW1  633   5.051   3.046   0.332 -1.2853  0.2271  1.1751
   85SOL    HW2  634   4.954   3.022   0.218 -0.6035 -0.3182  0.7078
   86SOL     OW  635   1.960   0.645   1.246 -0.0209 -0.4992 -0.5715
   86SOL    HW1  636   1.881   0.685   1.209  0.1730 -0.0286 -0.4767
   86SOL    HW2  637   1.927   0.580   1.308 -0.3354 -0.4911 -0.7283
   87SOL     OW  638   2.047   4.273   6.587  0.1605 -0.5739 -0.4021
   87SOL    HW1  639   1.984   4.341   6.612 -0.0082 -0.7675 -0.2999
   87SOL    HW2  640   1.994   4.194   6.578  0.5244 -0.9356  0.5816
   88SOL     OW  641   0.315   5.578   6.280  0.5812  0.3849 -0.2352
   88SOL    HW1  642   0.394   5.533   6.247  1.5790  0.7530  1.5386
   88SOL    HW2  643   0.283   5.521   6.350  0.5329  1.2875  0.4888
   89SOL     OW  644   3.867   6.542   0.250  0.1976 -0.0877 -0.3274
   89SOL    HW1  645   3.823   6.571   0.170  1.0504  0.6679 -0.5266
   89SOL    HW2  646   3.914   6.462   0.224 -0.8550 -0.7847 -0.1628
   90SOL     OW  647   2.565   0.646   4.815  0.2935 -0.6445  0.0365
   90SOL    HW1  648   2.525   0.714   4.870  1.2216 -0.6708  0.7775
   90SOL    HW2  649   2.659   0.656   4.830  0.7112  0.2417 -2.6089
   91SOL     OW  650   0.886   1.317   3.040 -1.0616 -0.1830  0.2338
   91SOL    HW1  651   0.866   1.234   3.082 -0.4118 -0.1171  0.6950
   91SOL    HW2  652   0.825   1.323   2.967  0.3364 -2.1168 -1.1995
   92SOL     OW  653   1.312   4.097   0.765  0.2311  0.4075  0.6080
   92SOL    HW1  654   1.283   4.044   0.839 -0.7491  0.3040  0.1623
   92SOL    HW2  655   1.342   4.033   0.700 -0.0768  0.4391  0.4338
   93SOL     OW  656   6.090   0.807   2.410  0.1688  0.2480 -0.1005
   93SOL    HW1  657   6.040   0.819   2.491  0.4886 -0.4571  0.2102
   93SOL    HW2  658   6.123   0.895   2.389 -0.5597  0.5784  0.1069
   94SOL     OW  659   1.724   4.263   5.756 -0.2459  0.4564  0.1761
   94SOL    HW1  660   1.654   4.207   5.722  0.5639  0.9549 -2.5061
   94SOL    HW2  661   1.772   4.207   5.817 -0.7204 -1.0870 -0.8063
   95SOL     OW  662   5.776   5.008   5.397  0.1773  0.2513 -0.2216
   95SOL    HW1  663   5.782   5.094   5.355  2.0881 -0.0424 -0.6261
   95SOL    HW2  664   5.828   5.016   5.477  1.4756 -0.8599 -0.9089
   96SOL     OW  665   0.908   3.367   1.972  0.3308  0.0351  0.2141
   96SOL    HW1  666   0.957   3.444   2.001 -1.3345  0.5783  1.7757
   96SOL    HW2  667   0.917   3.304   2.043  0.2737 -0.5548 -0.2980
   97SOL     OW  668   0.133   5.333   4.199  0.2383  0.0701 -0.0945
   97SOL    HW1  669   0.218   5.353   4.159  0.6261  1.7779  1.4455
   97SOL    HW2  670   0.146   5.350   4.292 -0.3510 -4.5920  1.1073
   98SOL     OW  671   0.134   3.824   6.230 -0.2243 -0.2497 -0.5359
   98SOL    HW1  672   0.085   3.901   6.199 -2.2147 -1.6182 -0.9576
   98SOL    HW2  673   0.107   3.753   6.172  0.9641 -1.4761  0.3390
   99SOL     OW  674   4.096   2.495   2.221 -0.3240  0.0475 -0.4034
   99SOL    HW1  675   4.136   2.494   2.308  0.9346  0.8538 -0.9405
   99SOL    HW2  676   4.007   2.527   2.235 -0.0814  0.3264  0.5573
  100SOL     OW  677   0.858   4.564   5.504 -0.1402  0.3870  0.3337
  100SOL    HW1  678   0.878   4.506   5.431  0.4731 -0.0324  0.8186
  100SOL    HW2  679   0.764   4.580   5.497 -0.2469 -0.3560 -0.0398
  101SOL     OW  680   0.167   2.751   6.710  0.4582  0.5775 -0.2979
  101SOL    HW1  681   0.261   2.745   6.726  0.0781 -2.2264  1.4950
  101SOL    HW2  682   0.139   2.661   6.693 -1.7380  1.5154 -2.2074
  102SOL     OW  683   0.966   6.810   5.229 -0.0440 -0.1971  0.2711
  102SOL    HW1  684   1.048   6.853   5.256  0.0544 -1.3512  1.9950
  102SOL    HW2  685   0.908   6.821   5.304 -1.1556 -0.2106 -0.5734
  103SOL     OW  686   3.340   2.471   3.573 -0.1250 -0.2531  0.0845
  103SOL    HW1  687   3.332   2.562   3.544  1.7200  0.1245  0.6181
  103SOL    HW2  688   3.280   2.465   3.647  0.6937  0.9461  0.8961
  104SOL     OW  689   1.567   2.772   4.223  0.0097 -0.2595  0.0124
  104SOL    HW1  690   1.615   2.828   4.162 -0.3198  0.1845  0.1638
  104SOL    HW2  691   1.477   2.774   4.192 -0.0068 -0.7082  0.0194
  105SOL     OW  692   4.114   3.822   5.818  0.2520  0.0014 -0.0206
  105SOL    HW1  693   4.063   3.892   5.858 -1.0724  0.1604 -1.8740
  105SOL    HW2  694   4.156   3.863   5.742  0.0268 -1.0234 -0.7246
  106SOL     OW  695   2.937   2.350   5.878 -0.3475 -0.0068 -0.4122
  106SOL    HW1  696   2.920   2.256   5.868  1.1833 -0.4179  0.5759
  106SOL    HW2  697   3.021   2.365   5.836 -0.4550  0.8882 -0.3360
  107SOL     OW  698   2.271   3.415   2.378  0.7255 -0.0489  0.0767
  107SOL    HW1  699   2.214   3.482   2.417 -0.0371  0.6284 -2.0908
  107SOL    HW2  700   2.216   3.337   2.374  0.7734 -0.0918  0.2249
  108SOL     OW  701   4.969   3.425   5.772 -0.2228 -0.2751 -0.3957
  108SOL    HW1  702   4.936   3.336   5.763 -0.0743 -0.3427 -0.2813
  108SOL    HW2  703   5.063   3.417   5.759 -0.1764 -0.1743 -0.1284
  109SOL     OW  704   1.463   2.051   3.837  0.1900 -0.1725  0.7340
  109SOL    HW1  705   1.524   2.121   3.817 -0.5344  0.4146  0.5470
  109SOL    HW2  706   1.481   2.029   3.929  1.8030 -1.1546  0.2295
  110SOL     OW  707   5.844   1.042   1.841 -0.2242 -0.2800  0.0792
  110SOL    HW1  708   5.863   1.101   1.768  2.0556 -2.2019 -1.0253
  110SOL    HW2  709   5.763   0.998   1.816 -0.9823  1.0833  0.0801
  111SOL     OW  710   2.176   2.388   5.492 -0.4289 -0.2839  0.8411
  111SOL    HW1  711   2.086   2.419   5.482 -0.1358  0.8562  1.4942
  111SOL    HW2  712   2.176   2.338   5.573 -0.4860 -0.3654  0.7915
  112SOL     OW  713   3.847   4.570   4.283 -0.8679  0.5118 -0.7263
  112SOL    HW1  714   3.936   4.580   4.249 -0.1429 -0.5219  0.7796
  112SOL    HW2  715   3.844   4.623   4.362 -1.5073  0.3509 -0.6327
  113SOL     OW  716   0.795   6.528   3.718 -0.1037 -0.0834  0.4398
  113SOL    HW1  717   0.792   6.486   3.804  1.7336  1.8888  1.5558
  113SOL    HW2  718   0.872   6.490   3.676 -0.1214  0.0560  0.2821
  114SOL     OW  719   1.102   3.424   5.638 -0.0954  0.6572  0.3520
  114SOL    HW1  720   1.021   3.374   5.638 -0.2328  0.8385  1.7541
  114SOL    HW2  721   1.146   3.401   5.720  0.5429  1.6974  0.3353
  115SOL     OW  722   2.905   5.699   5.061  0.0165 -0.2351  0.0712
  115SOL    HW1  723   2.838   5.756   5.099 -1.8495 -1.6953 -0.8747
  115SOL    HW2  724   2.958   5.758   5.007  0.1154  1.1220  1.5805
  116SOL     OW  725   1.773   6.044   1.896  0.3911  0.3187  0.2258
  116SOL    HW1  726   1.820   6.004   1.970  1.0092  2.0379  0.8092
  116SOL    HW2  727   1.812   6.003   1.818 -0.3958 -1.6536  0.7992
  117SOL     OW  728   4.697   1.383   2.632 -0.0996  0.0447 -0.4688
  117SOL    HW1  729   4.642   1.412   2.560  2.0820  0.9870 -1.8747
  117SOL    HW2  730   4.781   1.362   2.591  0.7499 -0.9080  1.6064
  118SOL     OW  731   6.254   1.968   3.372  0.3262 -0.1483  0.4471
  118SOL    HW1  732   6.293   2.007   3.293 -0.0228 -1.7401 -0.5764
  118SOL    HW2  733   6.277   1.875   3.365  0.7233 -0.2383  2.5254
  119SOL     OW  734   4.972   1.480   0.340 -1.0399  0.2248  0.7818
  119SOL    HW1  735   5.013   1.565   0.358 -0.0853  0.2506 -1.2664
  119SOL    HW2  736   4.903   1.500   0.276  0.4269 -0.7375 -1.1769
  120SOL     OW  737   5.391   6.663   0.792 -0.4614  0.0552 -0.2771
  120SOL    HW1  738   5.321   6.721   0.762 -0.2400 -0.0093 -0.9312
  120SOL    HW2  739   5.349   6.606   0.857 -0.7946  0.6145  0.0024
  121SOL     OW  740   5.223   5.599   1.010 -0.5354  0.7422 -0.1837
  121SOL    HW1  741   5.147   5.595   0.952 -0.4655  1.1059 -0.3044
  121SOL    HW2  742   5.296   5.567   0.956 -0.4988  0.9382 -0.2533
  122SOL     OW  743   4.639   5.619   1.174  0.0518 -0.2136  0.0423
  122SOL    HW1  744   4.654   5.548   1.112  2.1158  0.3067 -0.1217
  122SOL    HW2  745   4.551   5.651   1.154 -0.6978 -2.3242 -0.2438
  123SOL     OW  746   0.259   2.634   3.502  0.0820 -0.2013  0.3121
  123SOL    HW1  747   0.333   2.653   3.559 -0.1855 -0.0342  0.6067
  123SOL    HW2  748   0.274   2.687   3.424 -0.0728  0.3445  0.6534
  124SOL     OW  749   4.354   4.824   3.869 -0.7437 -0.2602  0.1703
  124SOL    HW1  750   4.397   4.814   3.784 -0.1077 -0.5956  0.5247
  124SOL    HW2  751   4.369   4.741   3.914  1.0275  0.7037  1.5461
  125SOL     OW  752   3.988   3.953   2.371 -0.0512 -0.4845  0.3748
  125SOL    HW1  753   3.934   3.900   2.313 -0.6074  0.1891  0.2642
  125SOL    HW2  754   3.977   3.913   2.457 -0.6672 -0.4024  0.3359
  126SOL     OW  755   3.875   6.038   0.299 -0.3242 -0.1325  0.8308
  126SOL    HW1  756   3.955   5.990   0.323 -1.7416 -2.2071  1.6863
  126SOL    HW2  757   3.864   6.022   0.205 -0.5040 -1.0804  1.0083
  127SOL     OW  758   3.521   2.142   6.094 -0.6063 -0.3390  0.0351
  127SOL    HW1  759   3.548   2.060   6.134 -0.1427 -1.1377 -1.7836
  127SOL    HW2  760   3.547   2.133   6.002 -2.5455  0.9437 -0.6950
  128SOL     OW  761   6.626   2.404   4.691  0.0817  0.1759 -0.0401
  128SOL    HW1  762   6.686   2.438   4.757  0.0118 -2.0761  1.2995
  128SOL    HW2  763   6.542   2.397   4.737 -0.4773  0.5170 -0.9942
  129SOL     OW  764   1.284   5.674   0.714 -0.1262  0.2838  0.1369
  129SOL    HW1  765   1.261   5.767   0.707 -1.1895 -0.0004 -0.4506
  129SOL    HW2  766   1.372   5.673   0.752 -0.4785  1.4916  1.0285
  130SOL     OW  767   3.180   1.819   5.815 -0.0597 -0.5549 -0.0955
  130SOL    HW1  768   3.245   1.886   5.836  0.2565 -0.7729 -0.3645
  130SOL    HW2  769   3.231   1.747   5.777 -0.1003 -1.8396  2.0945
  131SOL     OW  770   1.083   3.031   6.690 -0.1961 -0.1004 -0.0472
  131SOL    HW1  771   1.115   3.114   6.655 -0.4759 -0.0545 -0.1961
  131SOL    HW2  772   1.063   2.978   6.613  1.2586 -0.8132  0.0374
  132SOL     OW  773   1.993   1.151   6.114 -0.0949 -0.9422  0.5687
  132SOL    HW1  774   2.048   1.179   6.187 -0.3605 -1.1941  0.8689
  132SOL    HW2  775   2.053   1.106   6.055  0.2450 -0.1680  0.3105
  133SOL     OW  776   2.498   1.537   4.829 -0.3352  0.4845  0.4145
  133SOL    HW1  777   2.508   1.495   4.744  3.6270  1.7076  0.0572
  133SOL    HW2  778   2.501   1.466   4.893  1.7716 -0.1590 -0.3436
  134SOL     OW  779   5.808   2.776   3.863 -0.1435  0.0438 -0.0581
  134SOL    HW1  780   5.762   2.852   3.898  0.9517  1.4840 -1.5427
  134SOL    HW2  781   5.753   2.745   3.791 -0.8145 -0.9047  0.8309
  135SOL     OW  782   1.789   6.725   3.020 -0.2017  0.7688  0.3207
  135SOL    HW1  783   1.700   6.748   3.046 -0.5291  2.7063 -2.1479
  135SOL    HW2  784   1.831   6.809   3.002  1.4392 -0.2124 -0.6449
  136SOL     OW  785   2.638   0.453   3.519 -0.6043  0.2044  0.6196
  136SOL    HW1  786   2.668   0.377   3.469 -1.3392  0.7717 -0.7338
  136SOL    HW2  787   2.713   0.477   3.574  0.0689 -0.7144  0.1186
  137SOL     OW  788   3.329   4.900   6.828 -0.0017 -0.2562 -0.4919
  137SOL    HW1  789   3.337   4.963   6.756 -2.0689 -1.6774 -2.1094
  137SOL    HW2  790   3.383   4.826   6.801 -0.7345 -0.7697 -0.5741
  138SOL     OW  791   2.169   1.019   0.981 -0.4224  0.3089  0.3016
  138SOL    HW1  792   2.137   1.108   0.999 -0.1266  0.4601  0.0976
  138SOL    HW2  793   2.118   0.991   0.905 -0.6812  0.2133  0.5097
  139SOL     OW  794   4.772   2.059   2.476  0.8318 -0.0463 -0.1762
  139SOL    HW1  795   4.796   2.111   2.553  0.0664  0.9626 -0.5896
  139SOL    HW2  796   4.759   2.124   2.407  1.2071 -0.9115 -1.0787
  140SOL     OW  797   5.417   0.352   5.009  0.0299  0.1318  0.1086
  140SOL    HW1  798   5.469   0.325   4.933 -1.3953 -0.8588 -0.5556
  140SOL    HW2  799   5.461   0.311   5.084  0.4310 -0.3746 -0.3958
  141SOL     OW  800   2.237   3.462   5.171  0.0567  0.2135  0.2566
  141SOL    HW1  801   2.144   3.478   5.188 -0.1654 -0.3107 -0.4257
  141SOL    HW2  802   2.239   3.417   5.087  0.9270  0.1227  0.3138
  142SOL     OW  803   0.432   5.487   2.513  0.4442 -0.3437 -0.4726
  142SOL    HW1  804   0.461   5.439   2.436  1.9413 -1.8348  0.9394
  142SOL    HW2  805   0.354   5.440   2.543  1.1305 -1.1362  0.1332
  143SOL     OW  806   4.962   3.429   4.816  0.1145  0.2360 -0.6550
  143SOL    HW1  807   4.958   3.516   4.778  0.6796  0.8239  0.5795
  143SOL    HW2  808   4.904   3.376   4.761 -1.1358  1.6314 -0.7464
  144SOL     OW  809   1.965   5.403   3.007 -0.0947  0.0978 -0.1337
  144SOL    HW1  810   1.950   5.493   2.977  0.2580  0.5708  1.0416
  144SOL    HW2  811   1.899   5.351   2.961 -1.8565  1.3197  0.8995
  145SOL     OW  812   6.052   1.594   1.969 -0.4584  0.1127  0.2951
  145SOL    HW1  813   6.029   1.502   1.956 -0.6197  0.2307 -0.2829
  145SOL    HW2  814   6.038   1.609   2.063 -1.2608 -0.2261  0.2419
  146SOL     OW  815   6.422   6.273   0.020 -0.0764  0.5621 -0.2059
  146SOL    HW1  816   6.357   6.280  -0.049  0.8816  2.0520 -1.0012
  146SOL    HW2  817   6.384   6.320   0.094 -1.0402 -0.9134  0.2924
  147SOL     OW  818   4.897   0.842   3.143 -0.2641  0.5967  0.3645
  147SOL    HW1  819   4.821   0.817   3.091 -0.3902  1.7432 -0.0276
  147SOL    HW2  820   4.863   0.847   3.233 -0.7135  1.3364  0.1593
  148SOL     OW  821   1.691   5.174   6.631  0.0549  0.0372 -0.3307
  148SOL    HW1  822   1.717   5.145   6.544  0.0463 -1.2149  0.0756
  148SOL    HW2  823   1.773   5.181   6.680 -0.0525 -0.5027 -0.0707
  149SOL     OW  824   2.680   5.645   0.603  0.0975  0.1611 -0.0118
  149SOL    HW1  825   2.642   5.629   0.517  0.8927 -0.8401 -0.1991
  149SOL    HW2  826   2.763   5.689   0.584  1.3167 -1.9693  0.0644
  150SOL     OW  827   6.177   1.176   1.800  0.1992  0.2621  0.0435
  150SOL    HW1  828   6.211   1.229   1.872 -2.7510  1.0806  0.9492
  150SOL    HW2  829   6.176   1.086   1.834  1.4480  0.1792 -0.0653
  151SOL     OW  830   4.782   1.673   2.597 -0.0929 -0.4179 -0.2600
  151SOL    HW1  831   4.835   1.693   2.520 -1.1063 -0.3618 -0.9672
  151SOL    HW2  832   4.783   1.577   2.603 -0.0345 -0.4231 -0.3581
  152SOL     OW  833   4.011   2.243   4.441  0.0117  0.2110 -0.0749
  152SOL    HW1  834   3.984   2.335   4.442 -1.5000 -0.1927  2.1346
  152SOL    HW2  835   3.935   2.196   4.408 -0.0131 -0.4470  0.8939
  153SOL     OW  836   2.786   4.411   0.880 -0.3020 -0.4423  0.9928
  153SOL    HW1  837   2.853   4.380   0.819 -1.3479 -0.1346 -0.3583
  153SOL    HW2  838   2.789   4.349   0.953 -0.3970 -2.0346 -0.3135
  154SOL     OW  839   3.425   2.015   5.241 -0.1469  0.2492 -0.0538
  154SOL    HW1  840   3.457   2.075   5.173 -0.1731  0.5748  0.2162
  154SOL    HW2  841   3.330   2.025   5.239 -0.0636  1.5350  1.1669
  155SOL     OW  842   5.484   5.552   0.272  0.2887  0.3664  0.4715
  155SOL    HW1  843   5.412   5.601   0.233 -0.5514 -1.4663 -0.4115
  155SOL    HW2  844   5.552   5.552   0.205  1.4164  2.5710  1.5148
  156SOL     OW  845   4.915   5.470   3.597 -0.0481  0.4980  0.1675
  156SOL    HW1  846   4.895   5.513   3.680 -1.1271  0.7673 -0.2146
  156SOL    HW2  847   4.831   5.438   3.565  0.4778 -0.3235 -0.4333
  157SOL     OW  848   0.621   3.845   1.217 -0.0009 -0.2511  0.3640
  157SOL    HW1  849   0.686   3.846   1.147  0.1140  0.4027  0.4733
  157SOL    HW2  850   0.663   3.798   1.289 -0.3224 -1.4104 -0.1820
  158SOL     OW  851   4.224   4.095   1.490  0.1641  0.1597 -0.2605
  158SOL    HW1  852   4.159   4.062   1.428  1.0359  0.9880 -1.6590
  158SOL    HW2  853   4.219   4.190   1.482  1.8969  0.2246 -0.7674
  159SOL     OW  854   5.719   5.513   3.262  0.2653 -0.0634  0.2664
  159SOL    HW1  855   5.787   5.467   3.312  1.6350 -1.2497 -2.4604
  159SOL    HW2  856   5.693   5.586   3.317 -0.6756 -2.9625  4.0742
  160SOL     OW  857   1.842   4.952   5.679 -0.2732  0.1844 -0.4330
  160SOL    HW1  858   1.793   4.974   5.600  0.0781 -0.9455 -0.9931
  160SOL    HW2  859   1.840   4.856   5.682 -2.2033  0.2034  2.1573
  161SOL     OW  860   5.964   5.938   0.977  0.0691 -0.0887  0.3756
  161SOL    HW1  861   5.953   6.028   1.009  2.3785 -0.7727  3.6045
  161SOL    HW2  862   6.051   5.937   0.938  0.1410 -0.9667  0.5460
  162SOL     OW  863   1.500   0.559   3.547  0.8690  0.7426  0.3253
  162SOL    HW1  864   1.446   0.632   3.577  2.0816  1.9164 -0.2771
  162SOL    HW2  865   1.532   0.586   3.461 -0.0943 -1.2776 -0.7400
  163SOL     OW  866   5.507   3.490   4.527 -0.1125 -0.7141  0.3006
  163SOL    HW1  867   5.445   3.546   4.575  0.5169 -0.3921  0.7548
  163SOL    HW2  868   5.487   3.506   4.435 -0.1395  0.0519  0.4276
  164SOL     OW  869   6.558   1.845   3.327  0.0245 -0.0972 -0.3529
  164SOL    HW1  870   6.539   1.856   3.234  0.7312 -0.2781 -0.5234
  164SOL    HW2  871   6.563   1.750   3.339 -1.9002 -0.1584  0.2558
  165SOL     OW  872   0.019   1.208   3.178  0.3973 -0.2546 -0.1769
  165SOL    HW1  873   0.043   1.178   3.266  1.4242  0.6333 -0.1320
  165SOL    HW2  874   0.041   1.134   3.121  1.5315 -0.1484  0.0973
  166SOL     OW  875   3.741   3.408   0.139  0.3312 -0.0235 -0.0257
  166SOL    HW1  876   3.646   3.418   0.132  0.3351 -0.7748 -1.3578
  166SOL    HW2  877   3.753   3.325   0.186  0.2916 -1.4866 -2.4670
  167SOL     OW  878   2.822   5.616   2.162  0.3402  0.2121 -0.3170
  167SOL    HW1  879   2.780   5.535   2.189  0.5759 -0.1569 -1.0285
  167SOL    HW2  880   2.752   5.682   2.166  0.5356  0.3607  1.9009
  168SOL     OW  881   5.315   0.510   2.870  0.0737  0.7368  0.4415
  168SOL    HW1  882   5.348   0.462   2.946 -0.9663  0.6577  0.8608
  168SOL    HW2  883   5.269   0.586   2.907  0.0015  0.9835 -0.1333
  169SOL     OW  884   1.995   5.698   5.225  0.0313  0.6489 -0.1825
  169SOL    HW1  885   1.969   5.639   5.296 -0.7449 -0.2163 -1.1556
  169SOL    HW2  886   2.087   5.717   5.243  0.2469 -0.7021  0.2979
  170SOL     OW  887   3.435   3.910   3.367  0.0353 -0.2957 -0.4627
  170SOL    HW1  888   3.343   3.887   3.354 -0.2118  0.6159 -0.4082
  170SOL    HW2  889   3.437   3.962   3.447  0.4817  0.2744 -0.8227
  171SOL     OW  890   4.897   6.470   2.270  0.0181  0.0271  0.0025
  171SOL    HW1  891   4.928   6.416   2.343  1.1304 -0.1999 -0.6153
  171SOL    HW2  892   4.871   6.407   2.203  0.0588  0.2448 -0.2184
  172SOL     OW  893   5.853   1.656   0.514 -0.0143  0.4697  0.2439
  172SOL    HW1  894   5.912   1.581   0.524 -0.1276  0.0499 -1.8827
  172SOL    HW2  895   5.887   1.703   0.438 -0.0820  2.4979  1.3969
  173SOL     OW  896   0.730   2.889   5.193 -0.2627 -0.0309 -0.2629
  173SOL    HW1  897   0.705   2.960   5.133  2.6050 -1.2080 -3.1504
  173SOL    HW2  898   0.690   2.811   5.155  2.5411 -0.9798 -1.5415
  174SOL     OW  899   0.862   3.207   0.311 -0.2051  0.0964 -0.1101
  174SOL    HW1  900   0.801   3.215   0.238 -0.1932  2.8935  0.0500
  174SOL    HW2  901   0.876   3.298   0.340  3.4955 -0.4554  0.3055
  175SOL     OW  902   6.187   5.149   6.273  0.0712  0.0415  0.7190
  175SOL    HW1  903   6.232   5.233   6.262 -0.2194 -0.0819 -2.0400
  175SOL    HW2  904   6.110   5.170   6.326  1.3086  0.9677  2.2657
  176SOL     OW  905   3.607   4.528   4.927 -0.2358  0.0619 -0.4236
  176SOL    HW1  906   3.547   4.458   4.901  0.0974 -0.7182  0.8169
  176SOL    HW2  907   3.658   4.491   5.000 -1.5600  2.2933  1.7977
  177SOL     OW  908   4.801   1.268   4.156 -0.0442 -0.2621  0.2571
  177SOL    HW1  909   4.731   1.205   4.174  1.2315 -1.3406  1.6425
  177SOL    HW2  910   4.882   1.223   4.181  1.1973  0.9009 -1.3988
  178SOL     OW  911   1.451   4.027   3.639  0.3702  0.5927 -0.0686
  178SOL    HW1  912   1.469   4.034   3.546 -0.7157  0.4995 -0.2972
  178SOL    HW2  913   1.360   3.999   3.644  0.7795 -0.6563  0.9981
  179SOL     OW  914   4.103   0.228   3.355 -0.3030 -0.4968 -0.4448
  179SOL    HW1  915   4.196   0.208   3.369  0.4034  2.5373  0.0103
  179SOL    HW2  916   4.072   0.158   3.298  1.7476 -2.6379  0.8662
  180SOL     OW  917   5.751   6.833   0.859 -0.5792  0.3129  0.0845
  180SOL    HW1  918   5.829   6.834   0.914 -0.9969  1.2197  0.6879
  180SOL    HW2  919   5.698   6.906   0.891 -0.6962  1.0812 -1.7387
  181SOL     OW  920   1.495   1.782   0.793  0.0704 -0.2696 -0.6256
  181SOL    HW1  921   1.481   1.852   0.858 -1.5240  1.0954 -2.3468
  181SOL    HW2  922   1.559   1.820   0.732  1.5728 -1.5531  0.0804
  182SOL     OW  923   4.160   2.622   1.994  0.0717  0.5866  0.1239
  182SOL    HW1  924   4.166   2.604   2.088  1.3136 -0.4380 -0.1340
  182SOL    HW2  925   4.094   2.560   1.962  0.9565 -0.3234  0.0293
  183SOL     OW  926   6.222   1.541   0.806 -0.5164  0.5481 -0.3771
  183SOL    HW1  927   6.218   1.623   0.756 -0.7822  0.8782  0.1832
  183SOL    HW2  928   6.146   1.545   0.864  0.0707  0.3996  0.4109
  184SOL     OW  929   4.454   6.099   4.292  0.3988 -0.4675 -0.4358
  184SOL    HW1  930   4.461   6.018   4.343  0.1355  0.4628  1.1343
  184SOL    HW2  931   4.378   6.144   4.329  0.9175  0.7927 -0.8644
  185SOL     OW  932   3.469   0.615   6.623  0.0469  0.0130  0.2374
  185SOL    HW1  933   3.456   0.646   6.712  0.9654 -0.5887  0.6041
  185SOL    HW2  934   3.411   0.668   6.570  0.3757  1.2142  1.0376
  186SOL     OW  935   2.400   1.312   1.864  0.3622  0.2969 -0.6913
  186SOL    HW1  936   2.455   1.377   1.909 -0.0280 -0.9072  1.7023
  186SOL    HW2  937   2.422   1.229   1.907 -2.5573 -0.3927 -0.3441
  187SOL     OW  938   5.620   1.430   3.660 -0.6633  0.1722  0.6191
  187SOL    HW1  939   5.548   1.493   3.666 -1.0261 -0.2375  0.6680
  187SOL    HW2  940   5.576   1.346   3.649 -0.1826 -0.0678  0.5337
  188SOL     OW  941   2.527   5.415   6.465  0.1415  0.0561  0.6017
  188SOL    HW1  942   2.513   5.391   6.557  1.4061 -0.3541  0.7158
  188SOL    HW2  943   2.595   5.354   6.435  0.0789  0.4930 -0.4728
  189SOL     OW  944   1.676   6.261   3.831 -0.0360 -0.1721 -0.5104
  189SOL    HW1  945   1.653   6.232   3.743  0.1423 -1.0251 -0.2965
  189SOL    HW2  946   1.724   6.186   3.868 -0.2842  0.0952  0.3768
  190SOL     OW  947   6.201   1.134   3.493  0.8610  0.4160  0.6701
  190SOL    HW1  948   6.140   1.202   3.522 -0.2387 -1.5452  3.3370
  190SOL    HW2  949   6.282   1.153   3.540  0.2476 -0.5588  2.2316
  191SOL     OW  950   0.992   3.760   2.464  0.0153  0.5943 -0.0403
  191SOL    HW1  951   0.956   3.841   2.500  1.1148  0.9759  0.2539
  191SOL    HW2  952   1.085   3.762   2.489  0.2952 -0.2367 -0.9534
  192SOL     OW  953   0.479   3.816   6.730 -0.6552  0.6805  0.3483
  192SOL    HW1  954   0.521   3.739   6.769  0.2201  0.2436 -1.3723
  192SOL    HW2  955   0.404   3.834   6.787 -1.3372 -1.9062  0.3773
  193SOL     OW  956   0.798   5.312   6.531 -0.4052  0.7103  0.1596
  193SOL    HW1  957   0.729   5.246   6.536 -0.8349  1.1184 -0.2435
  193SOL    HW2  958   0.879   5.262   6.525 -0.8249  0.1913 -1.6007
  194SOL     OW  959   1.448   3.108   1.294 -0.5419  0.0311  0.2437
  194SOL    HW1  960   1.391   3.076   1.364  1.0378 -3.3740  0.1618
  194SOL    HW2  961   1.484   3.190   1.328 -1.8419 -0.1562  2.2533
  195SOL     OW  962   3.787   3.744   0.731  0.1837  0.2311  0.1828
  195SOL    HW1  963   3.802   3.837   0.712  0.3103  0.1063 -0.3512
  195SOL    HW2  964   3.695   3.738   0.753  0.0392  0.3990 -0.3527
  196SOL     OW  965   2.727   5.620   6.179 -0.1963  0.4217  0.6471
  196SOL    HW1  966   2.788   5.597   6.248 -0.3362 -0.9850  0.3209
  196SOL    HW2  967   2.783   5.642   6.104  0.0945 -3.9366 -0.6987
  197SOL     OW  968   6.660   5.920   3.768 -0.2483 -0.1741  0.0646
  197SOL    HW1  969   6.636   5.910   3.676  0.4841  2.5089 -0.4856
  197SOL    HW2  970   6.582   5.891   3.816 -2.0132  1.6692 -1.5180
  198SOL     OW  971   2.057   5.573   5.508  0.3633 -0.9791 -0.3889
  198SOL    HW1  972   1.973   5.618   5.500  0.8993 -0.1427 -1.3903
  198SOL    HW2  973   2.041   5.487   5.469  0.1311 -0.6175 -1.0933
  199SOL     OW  974   3.163   5.488   6.216 -0.2028  0.2276 -0.7422
  199SOL    HW1  975   3.072   5.512   6.235  0.2029  0.5962  0.8160
  199SOL    HW2  976   3.190   5.434   6.290  0.7020 -0.3226 -1.4461
  200SOL     OW  977   5.193   0.396   6.144  0.6299  0.2555 -0.1935
  200SOL    HW1  978   5.204   0.341   6.222  0.9816 -0.3625 -0.6596
  200SOL    HW2  979   5.209   0.336   6.071  1.0166  0.9824 -0.7209
  201SOL     OW  980   5.172   2.397   6.621  0.2779 -0.3056  0.2197
  201SOL    HW1  981   5.089   2.350   6.616  0.3384 -0.3682 -0.2902
  201SOL    HW2  982   5.174   2.448   6.540  1.1111 -0.9298 -0.1599
  202SOL     OW  983   5.424   2.753   0.581  0.0197 -0.2277  0.3445
  202SOL    HW1  984   5.378   2.770   0.663 -0.4444 -0.8822  0.2259
  202SOL    HW2  985   5.440   2.840   0.544 -1.1679  0.0139  0.3619
  203SOL     OW  986   6.608   0.002   2.963 -0.3024  0.4157  0.5154
  203SOL    HW1  987   6.590   0.096   2.965  0.8885  0.6702  2.8990
  203SOL    HW2  988   6.535  -0.038   3.010  0.7489  0.5356  2.3369
  204SOL     OW  989   6.791   3.982   6.495 -0.0012 -0.1437  0.3691
  204SOL    HW1  990   6.847   3.925   6.549  0.1227  0.4276  0.8544
  204SOL    HW2  991   6.845   4.003   6.419  0.2124 -0.1083  0.5281
  205SOL     OW  992   4.581   2.344   2.127  0.3332 -0.5414  0.9940
  205SOL    HW1  993   4.628   2.425   2.105 -2.6898  1.0446 -0.3216
  205SOL    HW2  994   4.624   2.276   2.076  2.0045  0.5239  0.9185
  206SOL     OW  995   1.714   0.500   3.718  0.3872  0.1215  0.2329
  206SOL    HW1  996   1.632   0.523   3.675  0.4152 -0.5275 -0.1780
  206SOL    HW2  997   1.749   0.584   3.748 -0.8073  0.3261  1.1164
  207SOL     OW  998   1.846   2.317   3.614  0.0098  0.0266 -0.0015
  207SOL    HW1  999   1.834   2.366   3.532  0.3179 -1.9194 -1.2885
  207SOL    HW2 1000   1.766   2.334   3.664  0.2784  2.1033 -0.1989
  208SOL     OW 1001   5.456   2.135   0.921  0.0698 -0.2628  0.2621
  208SOL    HW1 1002   5.513   2.208   0.945  0.3020 -0.2342 -0.3623
  208SOL    HW2 1003   5.371   2.174   0.903  0.1166 -0.1848  0.2139
  209SOL     OW 1004   5.291   6.331   3.356 -0.5163  0.2079 -1.2149
  209SOL    HW1 1005   5.311   6.276   3.432 -1.0381  1.6631  0.0117
  209SOL    HW2 1006   5.206   6.299   3.325 -1.2235  0.8198  0.0102
  210SOL     OW 1007   1.455   0.681   6.374 -0.2735 -0.1960 -0.1961
  210SOL    HW1 1008   1.478   0.722   6.458 -1.8707  1.2734 -0.4383
  210SOL    HW2 1009   1.474   0.748   6.308 -0.4857 -0.7903 -0.8774
  211SOL     OW 1010   3.122   0.531   3.464  0.0615  0.2764  0.0490
  211SOL    HW1 1011   3.117   0.496   3.554  0.0965  1.5146  0.5492
  211SOL    HW2 1012   3.081   0.617   3.470  0.6062  0.6192 -1.0009
  212SOL     OW 1013   1.664   1.464   3.577 -0.4834 -0.6181  0.3493
  212SOL    HW1 1014   1.582   1.477   3.529 -1.5190 -1.5683  1.7876
  212SOL    HW2 1015   1.674   1.544   3.628  1.0206  0.7405 -1.8601
  213SOL     OW 1016   5.819   4.498   3.257 -0.1145 -0.1297  0.3719
  213SOL    HW1 1017   5.836   4.404   3.255  2.0994  0.2278 -0.5587
  213SOL    HW2 1018   5.865   4.530   3.334 -0.5630  0.2517  0.4893
  214SOL     OW 1019   4.349   1.617   1.529 -0.4147  0.1272  0.1925
  214SOL    HW1 1020   4.343   1.527   1.497  0.5530  0.1958 -0.2169
  214SOL    HW2 1021   4.273   1.628   1.586 -1.2051 -0.5682 -0.6973
  215SOL     OW 1022   0.576   5.880   4.522 -0.0685  0.3228 -0.6710
  215SOL    HW1 1023   0.561   5.790   4.495 -1.2152  0.3413 -0.1664
  215SOL    HW2 1024   0.658   5.878   4.571 -1.0971 -0.8550  1.1071
  216SOL     OW 1025   5.757   2.816   1.942  0.3812 -0.0486  0.3914
  216SOL    HW1 1026   5.733   2.805   1.850 -0.8171  0.9188  0.5589
  216SOL    HW2 1027   5.828   2.753   1.956 -1.4719 -2.4593 -0.3781
  217SOL     OW 1028   5.964   6.488   6.737  0.1234  0.6672  0.2699
  217SOL    HW1 1029   5.883   6.479   6.687 -0.4920  1.4031  1.0843
  217SOL    HW2 1030   5.972   6.582   6.753  1.3541  0.6476 -0.1220
  218SOL     OW 1031   1.947   3.311   2.247 -0.8844 -0.2780  0.4219
  218SOL    HW1 1032   1.962   3.397   2.288  2.7181 -1.0037  0.9953
  218SOL    HW2 1033   1.930   3.331   2.155  1.4722  1.0739  0.2062
  219SOL     OW 1034   3.712   6.683   0.579 -0.0333  0.2179  0.1536
  219SOL    HW1 1035   3.658   6.604   0.587 -0.3573  0.5780  1.7792
  219SOL    HW2 1036   3.663   6.739   0.518 -0.4041 -0.3371 -0.0729
  220SOL     OW 1037   1.939   2.736   4.179  0.1792 -0.8697 -0.3377
  220SOL    HW1 1038   2.034   2.726   4.170  0.4318 -0.1787  1.1571
  220SOL    HW2 1039   1.913   2.667   4.240  0.1138  0.3274  1.0407
  221SOL     OW 1040   4.720   4.644   2.088 -0.0414  0.0749 -0.3898
  221SOL    HW1 1041   4.651   4.612   2.146 -0.3223 -2.0028 -1.7914
  221SOL    HW2 1042   4.762   4.565   2.054  4.3388  1.1369  1.7898
  222SOL     OW 1043   2.531   5.681   3.877 -0.5234 -0.2052 -0.1773
  222SOL    HW1 1044   2.556   5.762   3.832 -1.0282  0.3321  0.4876
  222SOL    HW2 1045   2.578   5.612   3.830  1.5963  0.6602  0.5328
  223SOL     OW 1046   4.754   2.613   6.647 -0.3612  0.0619  0.3274
  223SOL    HW1 1047   4.748   2.530   6.694 -1.2222 -0.2885 -0.3521
  223SOL    HW2 1048   4.669   2.655   6.661 -0.1552  0.5452  0.1601
  224SOL     OW 1049   1.667   5.532   1.086  0.7112  0.1254 -0.6694
  224SOL    HW1 1050   1.758   5.510   1.106  0.4254 -0.3312  0.1755
  224SOL    HW2 1051   1.658   5.515   0.992  0.7401 -2.6388 -0.2554
  225SOL     OW 1052   3.164   5.239   5.706  0.1084 -0.0932  0.0554
  225SOL    HW1 1053   3.227   5.174   5.735  1.4941  0.6915 -1.0346
  225SOL    HW2 1054   3.080   5.194   5.706  1.0009 -1.8326 -0.5337
  226SOL     OW 1055   5.507   0.647   6.305 -0.3128 -0.1293  0.5395
  226SOL    HW1 1056   5.435   0.693   6.348 -0.5442 -1.3609  1.5160
  226SOL    HW2 1057   5.470   0.615   6.223 -0.2147  1.1854 -0.0395
  227SOL     OW 1058   3.087   0.372   0.307  0.4631  0.5211  0.5421
  227SOL    HW1 1059   3.110   0.302   0.369  0.4145  0.2469  0.2511
  227SOL    HW2 1060   2.997   0.396   0.331  1.0567  1.6764  1.7568
  228SOL     OW 1061   6.531   0.406   0.461 -0.6534 -0.1423 -0.6392
  228SOL    HW1 1062   6.578   0.483   0.430  1.5121 -1.3020 -0.4830
  228SOL    HW2 1063   6.461   0.440   0.517  1.3708  1.6667  0.9324
  229SOL     OW 1064   3.839   0.272   0.746 -0.0087 -0.2061 -0.3575
  229SOL    HW1 1065   3.872   0.311   0.665 -1.5725  0.5924 -0.6493
  229SOL    HW2 1066   3.906   0.291   0.811  0.4313  0.7581 -1.0678
  230SOL     OW 1067   2.380   3.846   2.087 -0.3345 -0.0493 -0.0719
  230SOL    HW1 1068   2.452   3.900   2.054 -0.9445  1.2896  0.7289
  230SOL    HW2 1069   2.374   3.774   2.024  1.4326  0.0141 -0.3748
  231SOL     OW 1070   0.715   1.427   5.817 -0.4990  0.2225  0.2213
  231SOL    HW1 1071   0.804   1.457   5.833 -0.6125  2.3051 -2.2817
  231SOL    HW2 1072   0.724   1.334   5.795  0.8973  0.1652  0.9228
  232SOL     OW 1073   4.120   1.074   4.225 -0.2639  0.0694  0.4961
  232SOL    HW1 1074   4.059   1.039   4.290  1.5341  0.6108  2.5907
  232SOL    HW2 1075   4.135   1.165   4.253  1.3089  0.0233 -0.0879
  233SOL     OW 1076   5.580   0.638   0.309 -0.1308  0.3869  0.0966
  233SOL    HW1 1077   5.631   0.705   0.265  0.1904  0.0147 -0.0989
  233SOL    HW2 1078   5.622   0.556   0.286 -0.7907  0.0777 -0.0315
  234SOL     OW 1079   5.447   5.721   1.165 -0.4762  0.3498  0.3250
  234SOL    HW1 1080   5.381   5.675   1.114  0.9208 -0.7349 -0.5950
  234SOL    HW2 1081   5.522   5.729   1.105  0.6557  0.4654  1.6895
  235SOL     OW 1082   5.017   5.279   3.201 -0.1965 -0.1863 -0.0457
  235SOL    HW1 1083   5.053   5.217   3.138  0.7104  0.5262 -0.2514
  235SOL    HW2 1084   4.944   5.321   3.156 -2.0748 -2.3953  0.7322
  236SOL     OW 1085   3.719   2.385   5.910  0.3029  0.3296  0.2738
  236SOL    HW1 1086   3.813   2.398   5.897  0.5983  0.0557  1.9636
  236SOL    HW2 1087   3.692   2.459   5.964 -0.4948  0.4618 -0.2793
  237SOL     OW 1088   3.961   4.222   3.314 -0.0026 -0.3295  0.0864
  237SOL    HW1 1089   4.037   4.249   3.262  1.2651 -1.1067  1.4455
  237SOL    HW2 1090   3.887   4.270   3.276  1.0644  0.0551 -1.6126
  238SOL     OW 1091   3.149   2.526   3.176 -0.1121 -0.1673 -0.5175
  238SOL    HW1 1092   3.123   2.443   3.216 -0.2124 -0.5510 -1.3481
  238SOL    HW2 1093   3.085   2.590   3.208  0.1777 -0.3367  0.4049
  239SOL     OW 1094   2.945   4.233   3.054 -0.0345  0.3127  0.3274
  239SOL    HW1 1095   3.028   4.217   3.007  0.8070  0.9584  1.5386
  239SOL    HW2 1096   2.904   4.304   3.004 -0.6982 -1.1107 -1.2573
  240SOL     OW 1097   1.770   3.556   2.981  0.3132  0.6464 -0.4660
  240SOL    HW1 1098   1.679   3.587   2.989 -0.3792 -1.5239  0.8923
  240SOL    HW2 1099   1.764   3.480   2.923  0.7880 -1.0398  1.5816
  241SOL     OW 1100   0.907   1.578   2.828 -0.1290  0.3526 -0.2633
  241SOL    HW1 1101   0.842   1.508   2.835  0.8689 -0.8036 -1.7345
  241SOL    HW2 1102   0.890   1.635   2.902 -2.6397 -0.0483 -0.4629
  242SOL     OW 1103   5.600   5.559   4.556 -0.5686  0.6736 -0.5031
  242SOL    HW1 1104   5.586   5.544   4.649  1.7538  1.1472 -0.0167
  242SOL    HW2 1105   5.567   5.647   4.541  1.6699  1.7843  0.5967
  243SOL     OW 1106   5.099   3.758   1.808  0.6829  0.7137  0.2843
  243SOL    HW1 1107   5.106   3.825   1.741  1.0247 -0.3947 -0.8122
  243SOL    HW2 1108   5.073   3.806   1.887 -0.6227  1.9285 -0.8278
  244SOL     OW 1109   0.378   1.442   4.530 -0.3602  0.6009  0.2034
  244SOL    HW1 1110   0.430   1.518   4.556 -0.6661  0.3905  1.5148
  244SOL    HW2 1111   0.304   1.477   4.482  0.4423  0.9798 -0.7955
  245SOL     OW 1112   0.680   5.527   2.674 -0.0360 -0.0686  0.2488
  245SOL    HW1 1113   0.671   5.454   2.613  0.3400  0.2336 -0.1735
  245SOL    HW2 1114   0.595   5.572   2.670  0.2904  0.4879 -0.7568
  246SOL     OW 1115   4.265   1.892   5.606  0.0273 -0.2198  0.0659
  246SOL    HW1 1116   4.177   1.889   5.645 -0.1737 -2.1667 -0.4297
  246SOL    HW2 1117   4.324   1.887   5.681 -0.2795  0.7332  0.3836
  247SOL     OW 1118   2.037   0.904   0.261 -0.5459 -0.2717 -0.2199
  247SOL    HW1 1119   2.011   0.876   0.173  2.2493 -0.1693 -1.1663
  247SOL    HW2 1120   2.091   0.982   0.247  1.5564 -1.3430  1.3702
  248SOL     OW 1121   2.687   6.621   1.370 -0.6295 -0.2312 -0.2801
  248SOL    HW1 1122   2.709   6.550   1.310 -1.1575 -0.9796  0.3894
  248SOL    HW2 1123   2.730   6.597   1.453 -1.3305 -0.0952  0.1312
  249SOL     OW 1124   5.168   3.132   2.546  0.5384 -0.5188 -0.1733
  249SOL    HW1 1125   5.230   3.101   2.612  0.9178 -1.0868 -0.7805
  249SOL    HW2 1126   5.096   3.169   2.597  0.7594 -1.0621  0.5641
  250SOL     OW 1127   3.406   0.282   2.885  0.4303 -0.4255  0.1228
  250SOL    HW1 1128   3.401   0.257   2.793 -1.5905 -0.2929  0.1533
  250SOL    HW2 1129   3.315   0.288   2.914  1.0064 -1.3522  2.3853
  251SOL     OW 1130   4.347   5.289   3.831 -0.4577  0.4645 -0.9229
  251SOL    HW1 1131   4.315   5.268   3.743 -1.5061 -0.7742 -0.2846
  251SOL    HW2 1132   4.406   5.217   3.853  0.2177  1.0388 -0.7943
  252SOL     OW 1133   2.777   1.254   0.728  0.1876 -0.4107  0.0395
  252SOL    HW1 1134   2.686   1.243   0.702  0.0961  1.4694 -0.5554
  252SOL    HW2 1135   2.827   1.223   0.653  0.0859 -1.8160  0.5159
  253SOL     OW 1136   4.187   0.795   5.569 -0.1158 -0.2171  0.3315
  253SOL    HW1 1137   4.206   0.726   5.633  1.7726 -1.1932 -1.1695
  253SOL    HW2 1138   4.273   0.836   5.552 -0.9187  1.3930 -0.0760
  254SOL     OW 1139   2.005   5.689   5.890 -0.3889  0.0115  0.3849
  254SOL    HW1 1140   2.027   5.597   5.906  0.4514  0.1393  0.0322
  254SOL    HW2 1141   1.934   5.686   5.826  0.0200 -0.3936 -0.0672
  255SOL     OW 1142   0.731   0.256   1.852  0.0386 -0.0898  0.2093
  255SOL    HW1 1143   0.663   0.323   1.851  0.5273  0.4455  1.4168
  255SOL    HW2 1144   0.798   0.290   1.911  0.5274 -1.4140  0.4560
  256SOL     OW 1145   3.186   2.709   5.315  0.2707  0.2432 -0.1437
  256SOL    HW1 1146   3.134   2.629   5.326  0.6473  0.1811  1.3701
  256SOL    HW2 1147   3.145   2.754   5.241 -0.5085 -0.8980 -0.4445
  257SOL     OW 1148   4.334   5.979   2.300 -0.2747  0.5545  0.0588
  257SOL    HW1 1149   4.353   6.070   2.278 -1.1473  0.9304  0.8409
  257SOL    HW2 1150   4.330   5.934   2.215 -1.7043  1.6070 -0.4580
  258SOL     OW 1151   2.513   4.615   4.913  0.3995  0.1048 -0.1075
  258SOL    HW1 1152   2.418   4.617   4.913  0.3987  0.4754 -0.9536
  258SOL    HW2 1153   2.536   4.553   4.844  0.7807 -1.1378  1.0792
  259SOL     OW 1154   0.521   3.239   3.177  0.1382  0.2663  0.1940
  259SOL    HW1 1155   0.579   3.264   3.249  0.5620  2.9548 -0.9690
  259SOL    HW2 1156   0.579   3.197   3.114  0.2408  0.1445  0.3686
  260SOL     OW 1157   2.040   0.047   5.252  0.4020 -0.5758 -0.3082
  260SOL    HW1 1158   2.117   0.100   5.273  2.5662 -2.9858 -1.6524
  260SOL    HW2 1159   2.013   0.076   5.165 -1.1124  1.1485  0.6668
  261SOL     OW 1160   4.638   6.515   0.244  0.3865 -0.1015 -0.0712
  261SOL    HW1 1161   4.580   6.495   0.170  1.5717 -1.0759 -0.7703
  261SOL    HW2 1162   4.623   6.608   0.262 -2.3450 -0.5865  0.6411
  262SOL     OW 1163   5.822   5.307   0.176 -0.0954  0.3415  0.0928
  262SOL    HW1 1164   5.794   5.398   0.177 -0.1221  0.3416 -0.2659
  262SOL    HW2 1165   5.809   5.279   0.085  0.1639  0.0592  0.1392
  263SOL     OW 1166   0.020   1.239   5.514 -0.2784 -0.0300  0.1861
  263SOL    HW1 1167   0.018   1.335   5.519  2.1245  0.0831  0.3250
  263SOL    HW2 1168   0.083   1.220   5.445 -0.4166 -1.5222  0.4342
  264SOL     OW 1169   4.272   6.017   1.250  0.4421  0.1587  0.2770
  264SOL    HW1 1170   4.188   5.998   1.209  0.4862  1.2265 -0.3407
  264SOL    HW2 1171   4.283   5.948   1.316 -1.6287  0.8787  1.4551
  265SOL     OW 1172   0.932   3.952   4.347 -0.1438 -0.3338  0.1993
  265SOL    HW1 1173   0.924   3.986   4.258 -0.4685 -1.3551 -0.1686
  265SOL    HW2 1174   0.921   3.857   4.338  2.0061 -0.7289  1.0286
  266SOL     OW 1175   2.516   4.105   0.295  0.7861 -0.2584  0.0257
  266SOL    HW1 1176   2.433   4.149   0.310  0.9859 -0.4038  1.7331
  266SOL    HW2 1177   2.506   4.063   0.210 -0.7351  0.0372  0.0367
  267SOL     OW 1178   4.227   1.071   3.203 -0.4379 -0.3471 -0.3403
  267SOL    HW1 1179   4.188   1.146   3.246 -0.3679  0.0042 -0.8815
  267SOL    HW2 1180   4.276   1.026   3.273  0.0305  0.4499 -0.1421
  268SOL     OW 1181   1.040   6.247   1.931  0.0211  0.1574 -0.2236
  268SOL    HW1 1182   1.026   6.164   1.977  2.1769 -0.1056  0.0577
  268SOL    HW2 1183   1.072   6.221   1.844  0.4611  0.6795 -0.2251
  269SOL     OW 1184   1.049   0.564   5.986  0.0518 -0.1866 -0.2253
  269SOL    HW1 1185   1.103   0.534   6.059 -0.6208  0.0946  0.4053
  269SOL    HW2 1186   1.057   0.496   5.920  0.4022 -0.6105  0.2474
  270SOL     OW 1187   0.421   5.678   5.185 -0.1471  0.2362  0.3242
  270SOL    HW1 1188   0.419   5.774   5.184  1.5791  0.3010 -0.3626
  270SOL    HW2 1189   0.514   5.656   5.181 -0.5535 -1.4688 -1.0354
  271SOL     OW 1190   0.839   4.274   5.955  0.5388  0.3486 -0.7623
  271SOL    HW1 1191   0.830   4.197   6.012 -0.1203  0.9636 -0.0128
  271SOL    HW2 1192   0.921   4.315   5.984 -0.5416  1.4878  0.8080
  272SOL     OW 1193   1.295   5.647   5.955 -0.3394 -0.0668 -0.6927
  272SOL    HW1 1194   1.265   5.586   6.021  0.7992 -1.2758 -1.2442
  272SOL    HW2 1195   1.313   5.728   6.003 -1.7842 -0.1742  0.0617
  273SOL     OW 1196   5.479   2.236   5.803  0.4792 -0.0322  0.5551
  273SOL    HW1 1197   5.477   2.281   5.719  0.4560 -1.4826 -0.2592
  273SOL    HW2 1198   5.402   2.179   5.802 -0.5584  1.2261  2.3579
  274SOL     OW 1199   0.106   0.045   0.776  0.3237  0.0935 -0.0689
  274SOL    HW1 1200   0.024   0.046   0.826 -0.1549  0.6904 -0.8447
  274SOL    HW2 1201   0.089   0.101   0.700  0.5351 -1.8806 -1.6829
  275SOL     OW 1202   4.836   1.005   5.476 -1.2848  0.4728  0.4600
  275SOL    HW1 1203   4.900   1.061   5.432 -1.5212 -0.0846 -0.6295
  275SOL    HW2 1204   4.849   0.918   5.437 -1.7120  0.0207  1.2871
  276SOL     OW 1205   3.425   0.889   2.693 -0.0403 -0.0139  0.5943
  276SOL    HW1 1206   3.485   0.939   2.637  0.0203 -1.7544 -0.9999
  276SOL    HW2 1207   3.482   0.825   2.737 -0.2314  0.7300  1.9763
  277SOL     OW 1208   2.811   0.760   6.255  0.0649  0.0969 -0.2288
  277SOL    HW1 1209   2.895   0.713   6.252 -0.5408 -1.0156 -0.5390
  277SOL    HW2 1210   2.779   0.745   6.344 -0.3272 -0.4556 -0.4577
  278SOL     OW 1211   4.459   1.079   1.350 -0.6669 -0.0323  0.0134
  278SOL    HW1 1212   4.427   1.034   1.428 -0.1506 -0.6173 -0.1018
  278SOL    HW2 1213   4.384   1.130   1.318 -1.1953 -0.6399  0.2727
  279SOL     OW 1214   6.742   0.593   4.539  0.4031 -0.1055 -0.0435
  279SOL    HW1 1215   6.694   0.669   4.506  0.6037  0.6123  1.2505
  279SOL    HW2 1216   6.825   0.629   4.569  0.4191 -0.7951  0.7697
  280SOL     OW 1217   2.278   6.548   2.592  0.2875  0.3086 -0.0046
  280SOL    HW1 1218   2.237   6.576   2.673  1.0718 -1.0997  0.9250
  280SOL    HW2 1219   2.308   6.629   2.550  0.0189  1.0496  1.1921
  281SOL     OW 1220   0.834   6.054   4.419 -0.4288 -0.9129 -0.0934
  281SOL    HW1 1221   0.852   6.148   4.425  0.6725 -1.2023  1.5406
  281SOL    HW2 1222   0.825   6.025   4.509  0.3316 -2.5966 -0.5230
  282SOL     OW 1223   1.473   5.198   5.176 -0.0619 -0.1847 -0.4315
  282SOL    HW1 1224   1.462   5.293   5.170 -0.2313 -0.2389 -1.0514
  282SOL    HW2 1225   1.411   5.162   5.113 -1.3799 -0.8100  1.1560
  283SOL     OW 1226   6.029   2.458   1.564 -0.3813 -0.0581  0.3201
  283SOL    HW1 1227   6.107   2.494   1.521 -0.5382 -1.5942 -1.3785
  283SOL    HW2 1228   6.005   2.524   1.629  2.1993  0.5441  0.7667
  284SOL     OW 1229   1.427   2.191   2.512 -0.1159  0.3050  0.0446
  284SOL    HW1 1230   1.433   2.284   2.537  1.6881 -0.1088  1.3400
  284SOL    HW2 1231   1.351   2.187   2.453 -1.0866  2.3517  1.0501
  285SOL     OW 1232   3.728   4.798   2.747 -0.3039 -0.7028  0.0342
  285SOL    HW1 1233   3.736   4.707   2.720 -2.0754 -1.6564  2.4104
  285SOL    HW2 1234   3.770   4.848   2.677  0.5496 -3.3101 -1.4133
  286SOL     OW 1235   3.629   6.324   1.702  0.5521  0.0880  0.3101
  286SOL    HW1 1236   3.541   6.287   1.701 -0.2278  1.8307  0.7659
  286SOL    HW2 1237   3.626   6.395   1.638  1.5039  0.4605  0.6589
  287SOL     OW 1238   4.781   3.688   4.942  0.0051  0.3622  0.0302
  287SOL    HW1 1239   4.822   3.768   4.975  1.0382  0.1336 -0.6628
  287SOL    HW2 1240   4.813   3.619   5.001  0.3966  0.2246 -0.3411
  288SOL     OW 1241   0.589   6.442   6.455  0.4807  0.1420  0.3737
  288SOL    HW1 1242   0.673   6.429   6.499  0.9986 -1.0966 -0.9189
  288SOL    HW2 1243   0.598   6.396   6.372 -0.7333  1.7677 -0.7217
  289SOL     OW 1244   3.896   6.652   4.974 -0.0129  0.0748 -0.6853
  289SOL    HW1 1245   3.967   6.683   5.030 -0.4438 -0.4125  0.1504
  289SOL    HW2 1246   3.924   6.675   4.886  0.2444  1.7546 -0.2173
  290SOL     OW 1247   1.759   3.402   6.021  0.2687 -0.5601  0.2745
  290SOL    HW1 1248   1.701   3.468   5.982  1.1167  0.8425  1.3096
  290SOL    HW2 1249   1.844   3.447   6.030  1.0154 -1.9726  0.5036
  291SOL     OW 1250   4.050   3.571   2.579 -0.1164  0.1721 -0.4778
  291SOL    HW1 1251   4.031   3.482   2.608 -1.4837  1.0062  1.3941
  291SOL    HW2 1252   4.145   3.576   2.574  0.0728 -0.8073  1.4297
  292SOL     OW 1253   5.629   3.055   4.784  0.4069  0.2933 -0.2977
  292SOL    HW1 1254   5.647   3.149   4.790  0.9443  0.2091 -0.5441
  292SOL    HW2 1255   5.534   3.049   4.781  0.3446  0.7868  0.4467
  293SOL     OW 1256   3.006   6.626   1.591  0.0955 -0.8334  0.2290
  293SOL    HW1 1257   3.026   6.541   1.551  3.2206 -0.4569  0.7423
  293SOL    HW2 1258   2.915   6.618   1.619 -0.5051 -3.0690 -1.9691
  294SOL     OW 1259   6.006   5.249   2.872  0.2668 -0.2023 -0.7283
  294SOL    HW1 1260   6.073   5.282   2.932 -1.2654 -1.8289  2.0954
  294SOL    HW2 1261   5.950   5.325   2.855  0.6575  0.2583 -0.0221
  295SOL     OW 1262   3.882   5.129   5.770  0.2733  0.4423  0.4993
  295SOL    HW1 1263   3.867   5.160   5.859  1.2117 -1.1824  1.2622
  295SOL    HW2 1264   3.940   5.054   5.780  0.0707 -0.0296 -1.4648
  296SOL     OW 1265   4.897   3.656   3.715  0.5899  0.3619 -0.1662
  296SOL    HW1 1266   4.983   3.627   3.684  0.3607  0.8320 -1.3015
  296SOL    HW2 1267   4.834   3.603   3.667  0.1582  2.6775 -2.4233
  297SOL     OW 1268   6.454   2.749   1.924 -0.2684  0.4720  0.2611
  297SOL    HW1 1269   6.402   2.801   1.985 -0.2575  0.0978  0.5914
  297SOL    HW2 1270   6.395   2.679   1.896 -0.5797  1.1470 -0.8590
  298SOL     OW 1271   0.654   1.315   0.822  0.0432 -0.2947 -0.3381
  298SOL    HW1 1272   0.710   1.333   0.746  0.1566 -0.6702 -0.3440
  298SOL    HW2 1273   0.657   1.395   0.873  1.0463 -0.5111 -0.0403
  299SOL     OW 1274   3.579   2.801   5.747  0.1643  0.0746 -0.2392
  299SOL    HW1 1275   3.570   2.894   5.765  1.8691  0.0091  1.3766
  299SOL    HW2 1276   3.507   2.760   5.796 -0.1764  0.4863 -0.3891
  300SOL     OW 1277   0.637   3.690   3.454  0.6853  0.1444 -0.1231
  300SOL    HW1 1278   0.730   3.675   3.434  0.3845 -2.2148 -0.0717
  300SOL    HW2 1279   0.590   3.647   3.383 -0.3655 -0.8601  1.1243
  301SOL     OW 1280   1.242   2.155   2.316 -0.0790 -0.1915 -0.0110
  301SOL    HW1 1281   1.243   2.243   2.280 -0.0325 -0.2841 -0.2378
  301SOL    HW2 1282   1.150   2.134   2.329 -0.0545  0.6704  1.9764
  302SOL     OW 1283   2.502   0.400   4.921  0.3708 -0.1555 -0.4611
  302SOL    HW1 1284   2.528   0.474   4.866  0.4062 -1.0678 -1.7297
  302SOL    HW2 1285   2.574   0.337   4.914  0.0274 -0.6176  0.0011
  303SOL     OW 1286   5.661   3.853   5.212 -0.3142  0.2709 -0.1912
  303SOL    HW1 1287   5.674   3.913   5.285 -1.7319 -0.8472  1.0536
  303SOL    HW2 1288   5.649   3.767   5.254  1.2650 -0.8552 -1.8698
  304SOL     OW 1289   5.400   1.576   3.700  0.1653 -0.0643 -0.2666
  304SOL    HW1 1290   5.433   1.661   3.729 -0.4441  0.1725 -0.2511
  304SOL    HW2 1291   5.307   1.578   3.722  0.2188 -0.8826  0.0646
  305SOL     OW 1292   3.332   4.513   4.373 -0.6058 -0.3263  0.4524
  305SOL    HW1 1293   3.423   4.486   4.381 -0.7269 -1.3738 -1.2242
  305SOL    HW2 1294   3.320   4.578   4.443  0.8989 -1.4807  1.8769
  306SOL     OW 1295   5.563   2.488   5.413 -0.6074 -0.0693  0.3233
  306SOL    HW1 1296   5.496   2.525   5.356 -1.5532 -0.4335  1.1622
  306SOL    HW2 1297   5.556   2.538   5.494  1.0856  0.8019 -0.0211
  307SOL     OW 1298   0.517   5.443   6.176 -0.0133 -0.2650  0.2831
  307SOL    HW1 1299   0.507   5.362   6.227  0.4323 -0.9603 -0.7049
  307SOL    HW2 1300   0.526   5.413   6.086  3.9236  0.6013  0.2270
  308SOL     OW 1301   3.865   1.521   3.569 -1.0386  0.0541  0.2863
  308SOL    HW1 1302   3.879   1.478   3.653  0.1417  0.7254  0.4701
  308SOL    HW2 1303   3.838   1.610   3.593 -1.7362 -0.0651 -0.0592
  309SOL     OW 1304   1.310   5.901   4.229 -0.7131 -0.2822  0.0313
  309SOL    HW1 1305   1.240   5.838   4.250  0.8019 -1.4516  1.8393
  309SOL    HW2 1306   1.356   5.914   4.311  1.6347 -0.0802 -1.2268
  310SOL     OW 1307   6.493   3.359   1.307 -0.6771 -0.0140 -0.1134
  310SOL    HW1 1308   6.447   3.298   1.364  0.4892 -1.2089 -0.4038
  310SOL    HW2 1309   6.510   3.310   1.227  0.7741  0.4772 -0.1438
  311SOL     OW 1310   0.569   5.983   0.557 -0.1350  0.0455  0.5274
  311SOL    HW1 1311   0.639   6.045   0.534 -1.4017  1.2879 -0.1761
  311SOL    HW2 1312   0.508   6.035   0.609 -1.1284 -0.6641  0.1116
  312SOL     OW 1313   4.357   4.895   6.333  0.4977 -0.4784 -0.2542
  312SOL    HW1 1314   4.278   4.863   6.289  0.2802 -0.8367  0.3925
  312SOL    HW2 1315   4.329   4.913   6.423  0.5705  1.6805 -0.6130
  313SOL     OW 1316   0.189   0.545   0.578  0.5792 -0.2790 -0.3763
  313SOL    HW1 1317   0.230   0.630   0.561 -1.1247  0.3172 -1.8742
  313SOL    HW2 1318   0.111   0.566   0.630 -0.2143 -0.8157 -1.3137
  314SOL     OW 1319   1.559   0.961   2.359 -0.2495  0.4628 -0.0615
  314SOL    HW1 1320   1.613   0.926   2.430 -1.7378 -1.5019  0.1794
  314SOL    HW2 1321   1.513   1.035   2.399 -0.3932 -0.0620  0.7776
  315SOL     OW 1322   5.965   6.526   3.551  0.0570  0.3363  0.2184
  315SOL    HW1 1323   5.922   6.498   3.631  1.2739 -0.1440  0.7187
  315SOL    HW2 1324   6.002   6.446   3.514 -0.4272  0.5633 -0.7919
  316SOL     OW 1325   3.183   3.935   3.855  0.2981 -0.0041 -0.1080
  316SOL    HW1 1326   3.148   3.917   3.767 -1.7899 -1.7182  0.9836
  316SOL    HW2 1327   3.106   3.944   3.911  1.5785 -0.1227  1.7688
  317SOL     OW 1328   2.885   1.098   3.258 -0.6834  0.7092  0.5528
  317SOL    HW1 1329   2.942   1.171   3.285 -1.6076  0.7104  2.6633
  317SOL    HW2 1330   2.938   1.020   3.272  0.2494  0.8944 -1.5510
  318SOL     OW 1331   3.320   2.962   2.063  0.3216  0.1323  0.2316
  318SOL    HW1 1332   3.250   2.899   2.048  1.7994 -1.4639 -0.3048
  318SOL    HW2 1333   3.396   2.909   2.086  1.5627  1.7417  0.0560
  319SOL     OW 1334   0.830   3.809   6.087  0.3630  0.2938 -0.1850
  319SOL    HW1 1335   0.828   3.718   6.119 -0.4123  0.8673  1.4860
  319SOL    HW2 1336   0.857   3.801   5.995 -0.1367 -1.6631 -0.2119
  320SOL     OW 1337   1.509   5.820   5.666  0.4060  0.2584 -0.3009
  320SOL    HW1 1338   1.562   5.811   5.587 -0.8862  1.7279 -1.4079
  320SOL    HW2 1339   1.430   5.770   5.649 -0.4248  1.5740 -0.5013
  321SOL     OW 1340   6.247   2.227   5.914 -0.1503 -0.6748  0.4161
  321SOL    HW1 1341   6.258   2.135   5.939 -1.7786 -1.4170 -1.3803
  321SOL    HW2 1342   6.152   2.239   5.908  0.0778  0.4401 -1.7077
  322SOL     OW 1343   6.187   3.239   2.626  0.3951  0.3717 -0.2817
  322SOL    HW1 1344   6.210   3.313   2.682 -0.4334  0.5208 -0.1285
  322SOL    HW2 1345   6.137   3.277   2.554 -0.3251 -0.0678 -0.0285
  323SOL     OW 1346   2.123   3.801   4.802 -0.3236  0.6579  0.6783
  323SOL    HW1 1347   2.207   3.756   4.805  0.1327  1.2938 -1.2509
  323SOL    HW2 1348   2.145   3.894   4.808 -0.7278  0.9159 -1.1971
  324SOL     OW 1349   4.960   1.461   5.747 -0.4017 -0.2738 -0.1463
  324SOL    HW1 1350   5.023   1.400   5.708  0.1230 -1.6644  2.6082
  324SOL    HW2 1351   5.013   1.520   5.799 -1.2185  0.0790  0.2986
  325SOL     OW 1352   4.176   4.060   6.279 -0.1585 -0.0415  0.5379
  325SOL    HW1 1353   4.205   4.113   6.353 -1.1524 -0.7726  1.4789
  325SOL    HW2 1354   4.089   4.092   6.258 -0.1241 -0.2409  0.0749
  326SOL     OW 1355   5.373   3.261   5.497  0.3578 -0.7239 -0.2338
  326SOL    HW1 1356   5.435   3.228   5.562 -0.3003  0.2534  0.9267
  326SOL    HW2 1357   5.326   3.183   5.468  0.9338 -1.2300  0.1639
  327SOL     OW 1358   1.954   4.023   1.483  0.2033 -0.2715 -0.1870
  327SOL    HW1 1359   1.889   4.093   1.475 -0.6444 -1.2199 -3.3684
  327SOL    HW2 1360   1.936   3.982   1.567 -1.4923  1.2338  0.2383
  328SOL     OW 1361   1.927   0.969   4.080 -0.5615  0.6327 -0.1340
  328SOL    HW1 1362   1.867   1.032   4.120 -1.3890  0.0658 -0.4558
  328SOL    HW2 1363   1.899   0.963   3.989 -0.3297  0.0008 -0.1707
  329SOL     OW 1364   3.020   4.693   1.449 -0.6567  0.0214 -0.7747
  329SOL    HW1 1365   2.942   4.665   1.497 -0.4432 -0.4395 -0.7004
  329SOL    HW2 1366   3.086   4.707   1.517 -0.7877  0.8103 -0.7974
  330SOL     OW 1367   3.635   1.800   1.303 -0.1328 -0.4081 -0.1447
  330SOL    HW1 1368   3.570   1.752   1.354 -0.6660 -0.8425 -1.2079
  330SOL    HW2 1369   3.716   1.794   1.354 -1.0368  0.6622  1.5183
  331SOL     OW 1370   5.592   4.768   6.215 -0.6834 -0.1876 -0.4661
  331SOL    HW1 1371   5.520   4.721   6.173 -0.8516 -2.9124  2.5407
  331SOL    HW2 1372   5.671   4.725   6.184 -0.5373  0.4000 -0.9400
  332SOL     OW 1373   5.803   1.819   3.830  0.4299 -0.3079  0.2111
  332SOL    HW1 1374   5.886   1.791   3.790  0.6886 -0.6453  0.9727
  332SOL    HW2 1375   5.805   1.782   3.918 -0.2101  0.2912  0.4844
  333SOL     OW 1376   0.273   0.163   6.800  0.0943 -0.0065  0.0358
  333SOL    HW1 1377   0.277   0.073   6.767  0.7296  0.2579 -0.6414
  333SOL    HW2 1378   0.329   0.213   6.740  0.4267  0.6897  0.9102
  334SOL     OW 1379   5.782   3.181   5.227  0.2051  0.4367  0.0910
  334SOL    HW1 1380   5.698   3.183   5.180  0.2447  1.1874  0.0391
  334SOL    HW2 1381   5.766   3.122   5.301 -0.7945  1.6184  0.8542
  335SOL     OW 1382   6.680   5.937   0.079  0.1030 -0.5283 -0.0362
  335SOL    HW1 1383   6.716   5.907   0.162  0.8319  0.2278 -0.0670
  335SOL    HW2 1384   6.744   5.911   0.013  0.0108 -0.2551 -0.2371
  336SOL     OW 1385   5.046   6.398   3.238 -0.1240 -0.7049  0.1825
  336SOL    HW1 1386   5.085   6.422   3.153 -2.8372  0.0157 -0.9869
  336SOL    HW2 1387   5.003   6.314   3.222  0.1367 -1.0344  1.1467
  337SOL     OW 1388   1.027   1.040   3.180  0.2182 -0.0170 -0.3937
  337SOL    HW1 1389   1.119   1.056   3.158  0.2374  0.9363  0.3412
  337SOL    HW2 1390   0.998   1.119   3.225 -1.2277  0.0709 -1.3789
  338SOL     OW 1391   6.655   4.037   2.750  0.0156  0.1338 -0.3040
  338SOL    HW1 1392   6.641   4.004   2.661  0.5432 -1.0766  0.0496
  338SOL    HW2 1393   6.570   4.026   2.793  1.2645 -6.0956  1.4819
  339SOL     OW 1394   3.676   1.027   0.561 -0.0852  0.8334  0.8636
  339SOL    HW1 1395   3.755   0.981   0.588 -0.0927  0.8714  0.9496
  339SOL    HW2 1396   3.697   1.062   0.475 -0.0972  0.6244  0.7736
  340SOL     OW 1397   2.865   5.812   3.044  0.6390 -0.5538  0.1966
  340SOL    HW1 1398   2.939   5.753   3.054  1.2575  0.3879  1.4126
  340SOL    HW2 1399   2.879   5.880   3.109 -1.2290 -0.2680  0.3621
  341SOL     OW 1400   3.415   6.715   0.851  0.2831 -0.1956  0.0812
  341SOL    HW1 1401   3.412   6.619   0.850 -1.0256 -0.1840  0.1471
  341SOL    HW2 1402   3.457   6.737   0.934  1.9533 -0.7053 -0.6017
  342SOL     OW 1403   2.097   6.530   5.055 -0.2906  0.2889 -0.3255
  342SOL    HW1 1404   2.026   6.546   4.992 -2.4672  0.1622  1.9069
  342SOL    HW2 1405   2.056   6.545   5.141  2.6641  1.0615  1.0806
  343SOL     OW 1406   0.790   4.725   1.377  0.4559 -0.4199  0.4302
  343SOL    HW1 1407   0.864   4.666   1.386  1.2464  0.4696 -0.0281
  343SOL    HW2 1408   0.814   4.784   1.305 -1.1701 -0.7963 -0.4822
  344SOL     OW 1409   1.266   4.312   1.943  0.3123 -0.3043 -0.0271
  344SOL    HW1 1410   1.348   4.265   1.923  1.2139  0.4317  1.7247
  344SOL    HW2 1411   1.227   4.328   1.858  2.0795 -0.5420 -0.9376
  345SOL     OW 1412   3.712   6.784   1.707  0.2768 -0.0083 -0.2935
  345SOL    HW1 1413   3.775   6.713   1.700  0.9031  0.1645  2.4238
  345SOL    HW2 1414   3.765   6.864   1.698 -0.1001  0.1542 -1.2295
  346SOL     OW 1415   4.527   0.114   4.195  0.4513  0.4987  0.1480
  346SOL    HW1 1416   4.494   0.067   4.119  1.2298 -0.1124  0.1760
  346SOL    HW2 1417   4.457   0.108   4.260 -0.2556  1.1007 -0.5346
  347SOL     OW 1418   4.569   3.663   2.507  0.5229 -0.2394  0.0219
  347SOL    HW1 1419   4.630   3.648   2.435 -0.2504  1.1113 -0.9604
  347SOL    HW2 1420   4.526   3.746   2.485  0.5580  0.4282  2.2548
  348SOL     OW 1421   0.259   5.348   2.664  0.1916  0.0828 -0.2226
  348SOL    HW1 1422   0.294   5.285   2.727 -0.4869  0.3269  0.4119
  348SOL    HW2 1423   0.174   5.312   2.639  0.4242  0.0289 -0.9468
  349SOL     OW 1424   5.934   0.824   2.641 -0.2886  0.2056 -0.1052
  349SOL    HW1 1425   5.926   0.764   2.715  1.2632 -1.4685 -1.2139
  349SOL    HW2 1426   5.884   0.902   2.667 -1.6017 -1.1837  1.7641
  350SOL     OW 1427   1.090   2.074   4.025 -0.3709 -0.4538  0.2659
  350SOL    HW1 1428   0.998   2.076   4.051 -0.8216 -1.4741 -1.1322
  350SOL    HW2 1429   1.136   2.118   4.097 -1.5458 -2.7013  2.5694
  351SOL     OW 1430   2.180   1.055   5.263  0.1346 -0.0584 -0.4270
  351SOL    HW1 1431   2.133   1.137   5.266  0.7905  0.2995  0.7297
  351SOL    HW2 1432   2.112   0.988   5.254 -0.4306  0.5570 -0.8393
  352SOL     OW 1433   5.362   4.540   2.330  0.1096  0.0223 -0.3153
  352SOL    HW1 1434   5.330   4.472   2.391 -0.7840  1.1002  0.4603
  352SOL    HW2 1435   5.404   4.491   2.260  0.5712 -1.2952  0.8324
  353SOL     OW 1436   1.907   6.238   5.006  0.6806 -0.0437 -0.1511
  353SOL    HW1 1437   1.888   6.311   5.066 -1.0048 -0.3845 -0.2154
  353SOL    HW2 1438   1.844   6.170   5.031  1.4599 -1.0390 -0.8563
  354SOL     OW 1439   0.487   5.955   5.035 -0.1012 -0.5002 -0.5719
  354SOL    HW1 1440   0.525   6.009   4.966  0.2218 -0.0670 -0.0664
  354SOL    HW2 1441   0.469   6.017   5.106  1.5251 -1.2378  0.5382
  355SOL     OW 1442   0.081   4.222   2.023  0.5948 -0.0003 -0.2126
  355SOL    HW1 1443   0.170   4.207   2.055  0.2141 -0.9412  0.4505
  355SOL    HW2 1444   0.024   4.190   2.093 -0.2615 -1.0045 -1.3239
  356SOL     OW 1445   2.802   1.675   0.339 -0.3698  0.1345  0.4515
  356SOL    HW1 1446   2.831   1.604   0.396 -1.0121 -0.7262 -0.2574
  356SOL    HW2 1447   2.706   1.666   0.336 -0.4128  0.6807 -0.0896
  357SOL     OW 1448   0.699   2.593   2.206  0.0928  0.2741 -0.2128
  357SOL    HW1 1449   0.646   2.513   2.204 -0.1922  0.4635 -0.9600
  357SOL    HW2 1450   0.769   2.576   2.143 -0.0481  0.6567 -0.4776
  358SOL     OW 1451   4.681   2.543   2.528 -0.3537 -0.0712 -0.6037
  358SOL    HW1 1452   4.613   2.565   2.464 -0.2306  0.0133 -0.7061
  358SOL    HW2 1453   4.634   2.504   2.601 -0.8045  2.1462  0.3689
  359SOL     OW 1454   1.339   2.579   1.654 -0.2689  0.5354 -0.1988
  359SOL    HW1 1455   1.302   2.628   1.581 -1.4797  0.7923  0.5594
  359SOL    HW2 1456   1.347   2.644   1.724 -1.9710 -0.3206  0.8481
  360SOL     OW 1457   2.840   5.669   1.526 -0.4646  0.7809  0.2877
  360SOL    HW1 1458   2.795   5.599   1.478 -2.3870  2.9249 -1.2371
  360SOL    HW2 1459   2.904   5.703   1.464 -1.2737  1.9811  0.0908
  361SOL     OW 1460   2.594   1.200   3.902 -0.2283  0.0363  0.0403
  361SOL    HW1 1461   2.674   1.169   3.859 -0.2295 -3.2481  2.0383
  361SOL    HW2 1462   2.534   1.125   3.897 -1.6581  0.9471  2.2151
  362SOL     OW 1463   1.187   5.397   4.051  0.0261 -0.6420 -0.1053
  362SOL    HW1 1464   1.213   5.471   3.995 -1.8882 -0.1238 -0.3875
  362SOL    HW2 1465   1.174   5.324   3.990  0.0555 -0.6754 -0.0716
  363SOL     OW 1466   4.895   6.087   4.712 -0.0656 -0.4482  0.2680
  363SOL    HW1 1467   4.920   6.045   4.630 -1.0049  0.7940 -0.6848
  363SOL    HW2 1468   4.881   6.014   4.772  0.2904 -1.3995 -0.7643
  364SOL     OW 1469   3.749   1.347   3.736 -0.4305  0.0697  0.5382
  364SOL    HW1 1470   3.689   1.305   3.675  1.8089 -2.0237 -0.3787
  364SOL    HW2 1471   3.792   1.275   3.781  1.1396  1.4811  1.4193
  365SOL     OW 1472   5.964   2.158   3.233 -0.2425  0.3885 -0.0137
  365SOL    HW1 1473   5.983   2.090   3.169  2.2821  0.5027  0.4989
  365SOL    HW2 1474   5.922   2.111   3.305  2.3394 -0.9382  0.7676
  366SOL     OW 1475   4.270   6.509   6.584 -0.1078 -0.7593  0.3594
  366SOL    HW1 1476   4.363   6.517   6.602 -0.1331 -1.7190  0.9767
  366SOL    HW2 1477   4.262   6.528   6.490  0.7003 -0.6933  0.2988
  367SOL     OW 1478   0.049   0.146   1.335  0.4645  0.8092  0.4684
  367SOL    HW1 1479   0.064   0.206   1.408 -1.3085  1.3981  0.3822
  367SOL    HW2 1480  -0.043   0.157   1.313  0.9690  0.7212 -1.9428
  368SOL     OW 1481   4.622   6.004   1.552  0.3778 -0.1565 -0.2130
  368SOL    HW1 1482   4.531   6.001   1.523  1.2397  0.9173 -3.3961
  368SOL    HW2 1483   4.653   5.913   1.546 -0.0571 -0.2779 -0.5919
  369SOL     OW 1484   3.698   5.829   0.862 -0.2565 -0.2344  0.0494
  369SOL    HW1 1485   3.784   5.860   0.834 -0.1767 -0.3594  0.1578
  369SOL    HW2 1486   3.690   5.742   0.823  0.2132 -0.7690  1.1303
  370SOL     OW 1487   2.511   0.302   2.294 -0.2801 -0.2759 -0.6306
  370SOL    HW1 1488   2.453   0.338   2.227 -0.8449  0.1626  0.0793
  370SOL    HW2 1489   2.559   0.378   2.327  2.2675 -0.8976 -2.6530
  371SOL     OW 1490   1.039   5.215   4.967 -0.3389  0.1133 -0.0465
  371SOL    HW1 1491   0.948   5.238   4.948 -0.2925 -0.5557 -1.1750
  371SOL    HW2 1492   1.042   5.120   4.956  0.1751 -0.0674  1.4490
  372SOL     OW 1493   3.133   4.588   1.235 -0.2196  0.1745 -0.0232
  372SOL    HW1 1494   3.081   4.636   1.300  0.7125  1.7380 -0.3756
  372SOL    HW2 1495   3.069   4.562   1.168 -0.7533  1.0325  0.1260
  373SOL     OW 1496   6.532   1.206   2.323 -0.0328  0.2340 -0.2596
  373SOL    HW1 1497   6.605   1.196   2.384 -0.7556  0.2020  0.6349
  373SOL    HW2 1498   6.560   1.275   2.263 -0.0385  1.6807  1.3029
  374SOL     OW 1499   2.354   1.050   1.990  0.0495  0.1376  0.1279
  374SOL    HW1 1500   2.358   0.996   1.911 -0.2449 -2.4089  1.7243
  374SOL    HW2 1501   2.261   1.053   2.012  0.1340  0.7946  0.4243
  375SOL     OW 1502   4.268   3.969   2.999 -0.0111  0.1955  0.0866
  375SOL    HW1 1503   4.292   4.027   3.071 -2.1600  2.7588 -1.0613
  375SOL    HW2 1504   4.349   3.957   2.950  0.8404  0.8781  1.2748
  376SOL     OW 1505   3.614   2.143   5.828 -0.4085 -0.1260  0.4705
  376SOL    HW1 1506   3.638   2.233   5.850  1.2796 -0.6022  0.7925
  376SOL    HW2 1507   3.642   2.133   5.737  0.1656 -0.5420  0.6848
  377SOL     OW 1508   6.480   5.423   5.486  0.2268  0.2366  0.6220
  377SOL    HW1 1509   6.518   5.511   5.493 -0.3926  0.5032  0.7213
  377SOL    HW2 1510   6.422   5.417   5.562  1.7406 -1.0106  1.7404
  378SOL     OW 1511   0.836   4.468   3.567 -0.0329  0.3735  0.9240
  378SOL    HW1 1512   0.813   4.419   3.488  0.8724  1.9769 -0.4023
  378SOL    HW2 1513   0.752   4.486   3.610 -0.5856 -0.1562  0.0892
  379SOL     OW 1514   0.707   4.157   2.804  0.2812 -0.1520 -0.3824
  379SOL    HW1 1515   0.715   4.251   2.784 -0.4188  0.2397  0.9905
  379SOL    HW2 1516   0.650   4.123   2.736 -1.6453  1.0167  0.5333
  380SOL     OW 1517   3.958   0.705   4.954 -0.3452  0.1808 -0.2305
  380SOL    HW1 1518   3.983   0.628   5.005 -0.6096 -0.4484 -1.0281
  380SOL    HW2 1519   4.021   0.773   4.980  0.7249 -0.6812 -0.4773
  381SOL     OW 1520   4.428   5.541   1.469  0.1414 -0.2233 -0.4811
  381SOL    HW1 1521   4.387   5.471   1.419  0.5088 -0.3757 -0.5709
  381SOL    HW2 1522   4.516   5.509   1.488  0.1507  0.0128 -0.1077
  382SOL     OW 1523   1.292   2.805   0.195 -0.3365 -0.3910  0.1277
  382SOL    HW1 1524   1.374   2.848   0.170 -0.8981  1.6411  1.5285
  382SOL    HW2 1525   1.277   2.833   0.286 -2.4009 -0.9819  0.0175
  383SOL     OW 1526   5.349   0.639   3.150  0.0642 -0.1607  0.5186
  383SOL    HW1 1527   5.405   0.652   3.226  1.1396 -0.5452 -0.1764
  383SOL    HW2 1528   5.323   0.727   3.124 -0.5146 -0.0420  1.4652
  384SOL     OW 1529   5.355   2.839   6.549 -0.1461 -0.2994  0.2674
  384SOL    HW1 1530   5.260   2.855   6.553  0.0024  1.4371 -1.4904
  384SOL    HW2 1531   5.390   2.882   6.627 -0.5162  2.0582 -0.7945
  385SOL     OW 1532   6.767   5.027   1.019 -0.1129 -0.1945  0.2004
  385SOL    HW1 1533   6.705   5.017   0.947 -1.2408  0.0602  1.1243
  385SOL    HW2 1534   6.743   4.960   1.082  0.1101  0.3454  0.8773
  386SOL     OW 1535   0.884   2.135   0.011  0.8668 -0.1803 -0.5878
  386SOL    HW1 1536   0.884   2.205  -0.055 -0.1990 -0.6868 -1.1388
  386SOL    HW2 1537   0.912   2.179   0.091  1.9457  0.5055 -1.2958
  387SOL     OW 1538   5.411   5.992   1.844 -0.0788  0.0590  0.3080
  387SOL    HW1 1539   5.445   5.968   1.758 -2.6538 -3.5453  0.0510
  387SOL    HW2 1540   5.328   6.036   1.826  0.1753  0.8402  0.9770
  388SOL     OW 1541   2.977   0.285   4.632  0.0815  0.2813  0.1011
  388SOL    HW1 1542   3.052   0.342   4.652  0.0570  0.5138 -0.4294
  388SOL    HW2 1543   2.975   0.283   4.536 -0.3124 -0.0989  0.1184
  389SOL     OW 1544   4.964   0.252   2.537  0.1476  0.2132  0.2534
  389SOL    HW1 1545   5.031   0.191   2.503  0.6679 -0.0182  1.6474
  389SOL    HW2 1546   4.983   0.259   2.630 -0.7366  1.4965  0.3570
  390SOL     OW 1547   0.510   6.501   1.994 -0.0428 -0.3724  0.1592
  390SOL    HW1 1548   0.569   6.575   2.005  1.5145 -1.6024  0.5222
  390SOL    HW2 1549   0.560   6.425   2.024 -2.1049 -1.4046  1.2378
  391SOL     OW 1550   1.330   0.740   4.747 -0.3140  0.3252  0.2242
  391SOL    HW1 1551   1.329   0.722   4.653 -1.3849 -0.9454  0.4508
  391SOL    HW2 1552   1.302   0.831   4.754 -3.0828 -0.3694 -0.5832
  392SOL     OW 1553   0.131   2.789   0.487  0.2145  0.8164  0.3374
  392SOL    HW1 1554   0.048   2.779   0.533 -1.3338 -0.4187 -2.4385
  392SOL    HW2 1555   0.125   2.875   0.445 -0.0032  0.4661 -0.3787
  393SOL     OW 1556   3.964   3.508   4.107 -0.0999 -0.0703 -0.1227
  393SOL    HW1 1557   3.898   3.543   4.047  0.9432  0.9421 -0.6986
  393SOL    HW2 1558   4.004   3.585   4.146  0.3292 -0.6939  0.6904
  394SOL     OW 1559   5.909   5.243   4.333  0.3248 -0.8430  0.5128
  394SOL    HW1 1560   5.821   5.274   4.354  0.0711 -0.2633 -1.2153
  394SOL    HW2 1561   5.967   5.311   4.367 -0.1065  0.4538 -1.2245
  395SOL     OW 1562   1.715   4.154   1.443  0.4494 -0.1757  0.8394
  395SOL    HW1 1563   1.639   4.106   1.476 -0.0314  0.4868  0.7207
  395SOL    HW2 1564   1.694   4.246   1.459  1.0527  0.0414  0.4325
  396SOL     OW 1565   3.859   3.792   2.171 -0.2972 -0.2052  0.1166
  396SOL    HW1 1566   3.786   3.789   2.233 -1.2581  0.3129 -0.9541
  396SOL    HW2 1567   3.904   3.708   2.183 -0.5586 -0.1901  1.3699
  397SOL     OW 1568   0.577   3.170   0.196  0.1736 -0.0260  0.1021
  397SOL    HW1 1569   0.513   3.160   0.267 -0.6420 -0.5059 -0.6812
  397SOL    HW2 1570   0.552   3.103   0.132  1.6443 -0.4169 -0.1025
  398SOL     OW 1571   4.330   1.469   0.051  0.4159  0.3744 -0.0014
  398SOL    HW1 1572   4.417   1.465   0.010  0.0692  0.5532 -0.7674
  398SOL    HW2 1573   4.301   1.559   0.038  0.1428  0.3355  0.3219
  399SOL     OW 1574   4.643   0.433   5.582 -0.2544 -0.2487 -0.1449
  399SOL    HW1 1575   4.633   0.339   5.571 -0.2242 -0.1773 -0.8044
  399SOL    HW2 1576   4.588   0.472   5.513  0.3571  0.2044 -0.3875
  400SOL     OW 1577   5.729   6.360   5.783  0.1834 -0.0336  0.1648
  400SOL    HW1 1578   5.800   6.335   5.842 -2.5401 -1.1200  3.3543
  400SOL    HW2 1579   5.715   6.282   5.729  1.3169  0.1957 -0.5055
  401SOL     OW 1580   0.994   0.603   5.211  0.0914 -0.0566  0.4299
  401SOL    HW1 1581   0.955   0.523   5.177 -0.7049  0.8318 -0.8592
  401SOL    HW2 1582   0.965   0.671   5.150 -0.6058  1.4934  2.4154
  402SOL     OW 1583   6.708   0.253   6.797 -0.1439  0.4137 -0.2012
  402SOL    HW1 1584   6.738   0.235   6.708  0.9435  1.6377 -0.0975
  402SOL    HW2 1585   6.784   0.289   6.841 -1.1891  1.6117  0.6879
  403SOL     OW 1586   0.587   5.715   0.288  0.2852  0.3131  0.3067
  403SOL    HW1 1587   0.678   5.696   0.311  0.2356  1.2205  1.3387
  403SOL    HW2 1588   0.579   5.686   0.197  1.6842  0.4707  0.1077
  404SOL     OW 1589   2.816   1.713   4.303 -0.1518  0.3201 -0.3644
  404SOL    HW1 1590   2.747   1.692   4.240  0.2510  1.8081 -1.3483
  404SOL    HW2 1591   2.823   1.635   4.358 -2.1284 -0.1167 -0.6831
  405SOL     OW 1592   4.625   6.314   2.529  0.0128  0.1474  0.4784
  405SOL    HW1 1593   4.647   6.407   2.520  0.0430  0.1003  0.0602
  405SOL    HW2 1594   4.640   6.295   2.621 -0.6276  0.7172  0.7093
  406SOL     OW 1595   4.060   1.866   3.536 -0.2262  0.0639 -0.2675
  406SOL    HW1 1596   4.100   1.826   3.612 -1.4036 -1.0616 -0.2171
  406SOL    HW2 1597   4.021   1.947   3.569 -0.1716 -0.0941  0.1834
  407SOL     OW 1598   0.852   3.198   6.113  0.8810 -0.1754 -0.9035
  407SOL    HW1 1599   0.902   3.212   6.193  0.7794 -1.2439 -0.6439
  407SOL    HW2 1600   0.766   3.235   6.131  0.8633 -0.3960 -0.5192
  408SOL     OW 1601   5.941   1.671   0.883  0.7821 -0.0552 -0.2205
  408SOL    HW1 1602   5.965   1.761   0.906  2.6430 -0.6933  0.5079
  408SOL    HW2 1603   5.845   1.673   0.876  0.4404  1.2423  3.1590
  409SOL     OW 1604   4.356   2.859   0.227 -0.0459 -0.1580  0.0945
  409SOL    HW1 1605   4.373   2.847   0.320 -1.0735 -2.1873  0.0846
  409SOL    HW2 1606   4.263   2.837   0.217  0.0452  0.0284 -1.3971
  410SOL     OW 1607   0.739   3.676   1.417  0.6517  0.2470 -0.4394
  410SOL    HW1 1608   0.798   3.623   1.363  0.9576 -0.0326  0.1560
  410SOL    HW2 1609   0.790   3.696   1.496  0.3010  0.8581 -0.3588
  411SOL     OW 1610   4.800   5.028   0.976  0.1746  0.1604 -0.2877
  411SOL    HW1 1611   4.831   4.938   0.964 -0.6308  0.2022 -3.7460
  411SOL    HW2 1612   4.705   5.020   0.982  0.1794  0.7153  0.7330
  412SOL     OW 1613   0.643   2.607   4.670  0.4202  0.2531  0.0588
  412SOL    HW1 1614   0.648   2.602   4.574 -2.0553 -1.1083 -0.0971
  412SOL    HW2 1615   0.650   2.700   4.690 -2.2578  0.9827 -1.8006
  413SOL     OW 1616   1.691   3.766   2.020  0.1749  0.7435 -0.6451
  413SOL    HW1 1617   1.706   3.804   2.106  0.5755 -0.8193  0.0163
  413SOL    HW2 1618   1.596   3.766   2.009  0.1677  2.0149 -0.7367
  414SOL     OW 1619   6.239   0.319   6.071 -0.1863 -0.2692 -0.1037
  414SOL    HW1 1620   6.222   0.362   6.155  1.9618  1.0029 -0.2495
  414SOL    HW2 1621   6.230   0.390   6.007 -0.7308 -0.9994 -0.8525
  415SOL     OW 1622   1.001   6.398   3.599  0.0452  0.3282  0.0877
  415SOL    HW1 1623   1.005   6.308   3.633 -0.2506  0.2334 -0.1235
  415SOL    HW2 1624   1.034   6.391   3.510 -1.0857  0.2135 -0.3410
  416SOL     OW 1625   2.812   6.357   4.843  0.6328  0.2382 -0.2712
  416SOL    HW1 1626   2.847   6.439   4.877  1.4405  0.5327 -1.7321
  416SOL    HW2 1627   2.848   6.351   4.755 -1.7433 -0.2570 -1.2663
  417SOL     OW 1628   0.198   6.075   1.014  0.0004 -0.1375  0.5978
  417SOL    HW1 1629   0.151   6.006   1.060 -2.1620  2.3028  2.3288
  417SOL    HW2 1630   0.173   6.065   0.922 -0.4788 -1.4426  0.8563
  418SOL     OW 1631   0.895   6.607   2.628  0.2820 -0.0236 -0.2235
  418SOL    HW1 1632   0.822   6.667   2.643  0.6124  0.8150 -1.7217
  418SOL    HW2 1633   0.892   6.546   2.702 -2.0822 -0.1671 -0.3465
  419SOL     OW 1634   1.191   2.057   3.759  0.1114 -0.0686  0.3241
  419SOL    HW1 1635   1.285   2.066   3.771 -0.0113  1.4428  0.3742
  419SOL    HW2 1636   1.155   2.061   3.848 -0.0511  0.2214  0.2478
  420SOL     OW 1637   3.669   3.102   3.185  0.4080 -0.3782  0.2032
  420SOL    HW1 1638   3.719   3.024   3.207 -2.0471 -1.7637  1.3487
  420SOL    HW2 1639   3.631   3.082   3.099 -1.0038 -0.9344  0.9230
  421SOL     OW 1640   0.406   5.044   5.369  0.6426 -0.0569 -0.3919
  421SOL    HW1 1641   0.336   5.053   5.304  1.2274 -0.7597 -1.1440
  421SOL    HW2 1642   0.466   4.980   5.330  1.0189 -0.4717  0.8310
  422SOL     OW 1643   1.194   4.864   2.882 -0.1689  0.5297  0.1533
  422SOL    HW1 1644   1.277   4.835   2.844 -1.0861 -1.4988 -0.4635
  422SOL    HW2 1645   1.216   4.885   2.973  0.7327 -1.8415  0.5660
  423SOL     OW 1646   3.179   3.364   6.000 -0.0278 -0.1792  0.0947
  423SOL    HW1 1647   3.133   3.305   5.941 -0.1838 -0.1073  0.1452
  423SOL    HW2 1648   3.149   3.338   6.087  1.3877 -1.3571  0.2776
  424SOL     OW 1649   0.560   6.611   6.713 -0.0293  0.2366 -0.1121
  424SOL    HW1 1650   0.585   6.565   6.633  0.2673 -0.9647  0.6447
  424SOL    HW2 1651   0.631   6.591   6.774 -1.9136 -1.8044  1.5559
  425SOL     OW 1652   0.220   0.979   5.635  0.3182  0.2282 -0.2977
  425SOL    HW1 1653   0.228   0.917   5.708  0.9079  0.9912  0.2970
  425SOL    HW2 1654   0.132   0.965   5.602  0.2832 -0.6163  0.1162
  426SOL     OW 1655   4.226   2.338   2.018  0.3992  0.3834 -0.5439
  426SOL    HW1 1656   4.169   2.411   2.042  1.0374  0.7794 -0.2135
  426SOL    HW2 1657   4.263   2.308   2.102 -2.0545 -2.2247 -0.2184
  427SOL     OW 1658   6.714   1.466   5.515 -0.2772 -0.3878  0.1659
  427SOL    HW1 1659   6.642   1.406   5.535 -0.8223  0.4448  0.8016
  427SOL    HW2 1660   6.690   1.547   5.561 -0.4472  0.8998 -2.0542
  428SOL     OW 1661   4.673   3.106   3.407 -0.1179  0.0423  0.2394
  428SOL    HW1 1662   4.646   3.016   3.390 -1.6879  0.7593 -1.4316
  428SOL    HW2 1663   4.734   3.127   3.337 -1.4941  0.9292 -0.7613
  429SOL     OW 1664   0.998   6.011   6.671 -0.3209  0.3597 -0.0468
  429SOL    HW1 1665   0.913   5.967   6.676 -0.7364  0.9826 -1.3305
  429SOL    HW2 1666   0.987   6.077   6.603  0.5160  1.9894  1.3297
  430SOL     OW 1667   3.267   1.615   5.398 -0.3122  0.2867  0.1795
  430SOL    HW1 1668   3.193   1.626   5.457 -1.5828 -0.8385 -1.1221
  430SOL    HW2 1669   3.259   1.526   5.365  1.0888  0.4607 -0.7121
  431SOL     OW 1670   6.619   3.136   4.535 -0.4391 -0.2845  0.1062
  431SOL    HW1 1671   6.593   3.085   4.459 -1.1440 -3.2009  2.1157
  431SOL    HW2 1672   6.548   3.199   4.547 -0.9285 -0.6131 -0.9520
  432SOL     OW 1673   3.948   5.405   1.747 -0.1583  0.3397  0.3905
  432SOL    HW1 1674   4.030   5.355   1.750 -1.6201 -2.1695  0.5469
  432SOL    HW2 1675   3.952   5.451   1.663 -0.1515 -2.7039 -1.4426
  433SOL     OW 1676   6.218   4.796   2.172 -0.8142 -0.6227  0.2600
  433SOL    HW1 1677   6.251   4.860   2.235 -0.3637 -1.1446  0.5648
  433SOL    HW2 1678   6.139   4.760   2.214  0.7378 -2.6622  1.6631
  434SOL     OW 1679   5.217   1.426   4.902 -0.4133  0.1428 -0.7442
  434SOL    HW1 1680   5.303   1.465   4.884 -0.9014  1.5296 -0.1909
  434SOL    HW2 1681   5.218   1.410   4.996 -0.8779  0.4436 -0.6889
  435SOL     OW 1682   3.178   3.050   3.610  0.2632 -0.6760 -0.0548
  435SOL    HW1 1683   3.231   3.129   3.600  1.9689 -1.4855  2.0299
  435SOL    HW2 1684   3.100   3.080   3.657 -0.6948  0.3016 -2.1336
  436SOL     OW 1685   4.906   3.569   1.934 -0.4333 -0.1429  0.4137
  436SOL    HW1 1686   4.867   3.501   1.878 -0.7762  0.5462 -0.1924
  436SOL    HW2 1687   4.983   3.599   1.885 -0.4671  0.1326  0.5319
  437SOL     OW 1688   1.600   0.276   0.219  0.3037  0.1533 -0.5852
  437SOL    HW1 1689   1.525   0.319   0.178 -0.9089 -0.7276  0.6131
  437SOL    HW2 1690   1.598   0.305   0.310  1.1879 -0.1836 -0.4484
  438SOL     OW 1691   4.208   2.759   5.398  0.7647  0.3271 -0.3971
  438SOL    HW1 1692   4.192   2.822   5.469 -0.4683 -0.9875  0.5608
  438SOL    HW2 1693   4.120   2.732   5.370  1.2448  0.6083 -2.2681
  439SOL     OW 1694   3.787   0.588   5.493  0.0559  0.3831  0.0496
  439SOL    HW1 1695   3.797   0.674   5.454 -0.4260  0.5644  0.3161
  439SOL    HW2 1696   3.819   0.597   5.583 -1.9222  0.8573  0.7689
  440SOL     OW 1697   6.738   1.234   2.711 -0.1286 -0.5709  0.1201
  440SOL    HW1 1698   6.815   1.185   2.739 -0.8950 -1.2412  1.1360
  440SOL    HW2 1699   6.738   1.227   2.615  0.8182 -0.9419  0.1420
  441SOL     OW 1700   4.698   0.037   0.176 -0.2293  0.6915  0.3520
  441SOL    HW1 1701   4.728  -0.018   0.248 -0.2362 -0.2139 -0.3207
  441SOL    HW2 1702   4.610   0.066   0.203 -0.9257 -0.9890  0.0142
  442SOL     OW 1703   4.410   5.747   4.386 -0.0436 -0.2322  0.2763
  442SOL    HW1 1704   4.446   5.758   4.297 -0.2639  3.4016  0.4676
  442SOL    HW2 1705   4.479   5.701   4.434  0.8220 -0.7256 -1.3690
  443SOL     OW 1706   5.531   1.553   5.277 -0.1389  0.2405 -0.4546
  443SOL    HW1 1707   5.540   1.488   5.208  0.8047  0.2530 -0.3459
  443SOL    HW2 1708   5.529   1.502   5.358  0.4624  0.3418 -0.3784
  444SOL     OW 1709   4.308   0.045   5.876 -0.3335  0.2589  0.3091
  444SOL    HW1 1710   4.380   0.107   5.865 -0.7667  0.6100 -0.6885
  444SOL    HW2 1711   4.254   0.058   5.798 -0.5367 -1.2304  0.1720
  445SOL     OW 1712   3.317   3.568   0.840  0.7367  0.1012 -0.1692
  445SOL    HW1 1713   3.408   3.594   0.854  0.8111 -1.1893  2.1573
  445SOL    HW2 1714   3.309   3.482   0.881 -1.9200  0.8729  1.1683
  446SOL     OW 1715   6.415   4.762   2.630  0.0660 -0.1809  0.3687
  446SOL    HW1 1716   6.384   4.812   2.554  0.4013 -0.0372  0.3251
  446SOL    HW2 1717   6.339   4.758   2.688  0.0130  0.3180  0.3399
  447SOL     OW 1718   0.230   4.517   4.209  0.0925 -0.0642 -0.5185
  447SOL    HW1 1719   0.222   4.605   4.172  2.8647  0.1967 -0.7557
  447SOL    HW2 1720   0.252   4.532   4.301  2.2264 -0.3705 -0.9188
  448SOL     OW 1721   3.821   2.001   1.556 -0.0639 -0.5528  0.0191
  448SOL    HW1 1722   3.896   2.059   1.567 -0.4232 -0.0856  0.0298
  448SOL    HW2 1723   3.836   1.958   1.472  1.1407 -1.8507  0.8494
  449SOL     OW 1724   5.712   1.273   4.356 -0.0685  0.1951  0.0879
  449SOL    HW1 1725   5.797   1.316   4.360  1.4186 -2.4773  0.0877
  449SOL    HW2 1726   5.701   1.251   4.263  0.0563 -0.8808  0.3135
  450SOL     OW 1727   6.483   4.735   6.303 -0.1121  0.2157  0.5585
  450SOL    HW1 1728   6.499   4.685   6.383  0.9572  0.8450  0.7581
  450SOL    HW2 1729   6.511   4.676   6.233  0.9288  0.4294  0.7781
  451SOL     OW 1730   2.424   1.602   3.218  0.2065 -0.0918 -0.4755
  451SOL    HW1 1731   2.513   1.627   3.242  0.0043  1.6275 -1.3740
  451SOL    HW2 1732   2.398   1.666   3.152 -1.5689 -0.7880 -0.5086
  452SOL     OW 1733   3.268   0.780   5.533  0.5731  0.1146 -0.7570
  452SOL    HW1 1734   3.284   0.873   5.547 -3.7918  0.8900  0.4640
  452SOL    HW2 1735   3.280   0.740   5.619 -1.9256  0.4327 -0.2068
  453SOL     OW 1736   3.972   3.157   6.774 -0.3006  0.1725  0.0653
  453SOL    HW1 1737   3.913   3.212   6.724  0.1345  1.3538  0.8134
  453SOL    HW2 1738   3.914   3.096   6.820 -0.7641 -0.2086 -0.9957
  454SOL     OW 1739   5.163   5.698   1.903 -0.3081  0.1915 -0.0808
  454SOL    HW1 1740   5.114   5.780   1.903 -1.0748 -0.1442 -2.8973
  454SOL    HW2 1741   5.194   5.688   1.812  4.4268 -0.0305  1.3005
  455SOL     OW 1742   0.463   6.048   2.962 -0.5141  0.0861  0.0385
  455SOL    HW1 1743   0.471   6.047   2.866 -2.2255 -0.5575 -0.1276
  455SOL    HW2 1744   0.384   6.099   2.979  0.0712  0.6617  1.1611
  456SOL     OW 1745   1.582   4.504   6.694  0.6104  0.0785 -0.2649
  456SOL    HW1 1746   1.602   4.565   6.622  0.5167 -1.7198 -1.8925
  456SOL    HW2 1747   1.562   4.561   6.768 -0.2153  2.0556 -1.8862
  457SOL     OW 1748   0.223   1.055   6.091  0.3512 -0.6180 -0.2512
  457SOL    HW1 1749   0.286   1.075   6.160  0.3968 -0.2834 -0.3930
  457SOL    HW2 1750   0.213   1.136   6.043  0.3728 -0.8707 -0.6856
  458SOL     OW 1751   6.438   1.257   4.547  0.0600  0.0527  0.2660
  458SOL    HW1 1752   6.359   1.311   4.547  1.1432  1.7091 -0.7951
  458SOL    HW2 1753   6.506   1.313   4.584  1.1931 -0.6162 -0.7434
  459SOL     OW 1754   6.290   1.812   2.008 -0.2630 -0.3342 -0.2179
  459SOL    HW1 1755   6.245   1.807   2.092 -0.3296 -0.7039 -0.2735
  459SOL    HW2 1756   6.223   1.840   1.946  0.0803  1.2228  0.0708
  460SOL     OW 1757   1.100   2.357   3.777 -0.2854  0.5917  0.5472
  460SOL    HW1 1758   1.116   2.266   3.755  0.3274  0.9506 -0.5406
  460SOL    HW2 1759   1.005   2.368   3.768 -0.1251  0.6310 -1.6762
  461SOL     OW 1760   4.954   1.927   3.032  0.1260  0.2040  0.6278
  461SOL    HW1 1761   4.878   1.931   2.973  0.5309  1.5423  0.1602
  461SOL    HW2 1762   4.972   1.834   3.041 -1.0027 -0.0985 -0.0089
  462SOL     OW 1763   0.693   4.040   1.934  0.5443  0.1854 -0.1737
  462SOL    HW1 1764   0.720   4.062   1.845  1.6187 -0.4852 -0.0335
  462SOL    HW2 1765   0.690   4.125   1.979 -1.8815  0.7598 -1.2883
  463SOL     OW 1766   4.429   2.071   6.730  0.5223 -0.0735 -0.2060
  463SOL    HW1 1767   4.461   1.981   6.722 -1.5883 -1.0838  1.5571
  463SOL    HW2 1768   4.364   2.078   6.660  0.0822 -0.2430  0.1777
  464SOL     OW 1769   6.178   1.933   0.721 -0.9047 -0.3194 -0.1687
  464SOL    HW1 1770   6.084   1.921   0.730 -1.1021  0.3383 -1.2569
  464SOL    HW2 1771   6.190   2.027   0.707 -0.0350 -0.3177  0.4781
  465SOL     OW 1772   4.651   0.204   1.016 -0.1046  0.9118  0.0517
  465SOL    HW1 1773   4.733   0.190   0.968 -1.0059 -1.5300 -0.9517
  465SOL    HW2 1774   4.598   0.257   0.956 -0.2549  0.1171 -0.5372
  466SOL     OW 1775   2.381   1.175   2.799  0.2789  0.2385  0.0632
  466SOL    HW1 1776   2.313   1.132   2.850  1.4034  0.1129  1.5226
  466SOL    HW2 1777   2.336   1.248   2.757 -1.1041 -0.8241 -0.3867
  467SOL     OW 1778   1.283   1.446   0.719 -0.1761 -0.5148  0.3511
  467SOL    HW1 1779   1.259   1.516   0.658  0.6267 -0.9566 -0.4968
  467SOL    HW2 1780   1.304   1.491   0.800 -1.6620  0.0546  0.4459
  468SOL     OW 1781   4.202   1.728   0.011  0.1522  0.6833  0.4106
  468SOL    HW1 1782   4.197   1.748   0.104  0.8098 -0.8556  0.8029
  468SOL    HW2 1783   4.111   1.723  -0.018 -0.1446 -1.3738  1.5668
  469SOL     OW 1784   3.880   2.863   5.538  0.0995 -0.5304 -0.1875
  469SOL    HW1 1785   3.810   2.802   5.564 -0.5389 -0.0325 -0.6951
  469SOL    HW2 1786   3.864   2.879   5.445  0.6579 -0.0948 -0.2148
  470SOL     OW 1787   3.729   5.161   0.375  0.3301 -0.2518 -0.0892
  470SOL    HW1 1788   3.663   5.151   0.307  0.2042 -1.1725  0.1541
  470SOL    HW2 1789   3.678   5.180   0.454  0.2957 -1.4855  0.2074
  471SOL     OW 1790   6.664   1.645   4.592  0.5921 -0.0384 -0.1944
  471SOL    HW1 1791   6.755   1.616   4.582  0.4957 -0.4358  0.0570
  471SOL    HW2 1792   6.666   1.738   4.572  0.9272 -0.1927 -0.9214
  472SOL     OW 1793   6.037   2.564   5.792 -0.4194 -0.3930 -0.4689
  472SOL    HW1 1794   6.109   2.612   5.752  0.3578  1.0144  2.3614
  472SOL    HW2 1795   6.042   2.476   5.754  0.5258  0.6583 -2.9288
  473SOL     OW 1796   5.892   5.760   0.194  0.2006 -0.6008 -0.2452
  473SOL    HW1 1797   5.872   5.833   0.253 -0.1889 -1.1177  0.2741
  473SOL    HW2 1798   5.964   5.792   0.140 -0.4096  0.4240 -0.4858
  474SOL     OW 1799   5.360   3.965   3.314  0.1454 -0.6460 -0.0996
  474SOL    HW1 1800   5.325   4.040   3.265  0.1420 -0.8033 -0.3427
  474SOL    HW2 1801   5.405   4.004   3.389  0.3251 -0.3882 -0.3371
  475SOL     OW 1802   6.287   6.581   5.479 -0.1153  0.0025 -0.1603
  475SOL    HW1 1803   6.330   6.511   5.431  0.6163  0.2365  0.1454
  475SOL    HW2 1804   6.284   6.654   5.417 -0.6094 -0.1928 -0.3767
  476SOL     OW 1805   6.559   2.351   2.382  0.7278  0.3056 -0.2207
  476SOL    HW1 1806   6.509   2.349   2.464  0.3620  1.1550 -0.4130
  476SOL    HW2 1807   6.594   2.262   2.373  1.0869  0.2940  1.0512
  477SOL     OW 1808   3.320   1.740   1.237  0.3514  0.4123 -0.0781
  477SOL    HW1 1809   3.390   1.709   1.179 -0.6098 -0.4168 -0.8316
  477SOL    HW2 1810   3.319   1.835   1.224  0.6802  0.3262 -0.8294
  478SOL     OW 1811   4.223   6.502   5.457  0.4551 -0.1110 -0.1425
  478SOL    HW1 1812   4.195   6.584   5.496 -2.8057 -1.5161  0.8133
  478SOL    HW2 1813   4.301   6.476   5.506  2.9537  3.2958 -1.8957
  479SOL     OW 1814   0.573   0.545   5.002 -0.1431 -0.2944  0.4578
  479SOL    HW1 1815   0.503   0.502   5.052 -0.7162 -0.6176 -0.5974
  479SOL    HW2 1816   0.608   0.476   4.946 -0.8596  0.5079 -1.0240
  480SOL     OW 1817   6.563   2.824   0.944  0.3182 -0.0252 -0.2985
  480SOL    HW1 1818   6.634   2.764   0.967  1.0789  0.7372 -0.6122
  480SOL    HW2 1819   6.510   2.832   1.024  0.9753 -0.0645  0.1430
  481SOL     OW 1820   1.378   0.422   3.086 -0.1232 -0.3984  0.5092
  481SOL    HW1 1821   1.367   0.431   2.991  0.7730 -0.9394  0.3445
  481SOL    HW2 1822   1.289   0.423   3.120 -0.4248  0.7563 -0.2390
  482SOL     OW 1823   2.885   3.755   1.245  0.1303  0.4968  0.4392
  482SOL    HW1 1824   2.938   3.835   1.242 -1.6848  1.7411 -2.0606
  482SOL    HW2 1825   2.805   3.780   1.290  1.2859 -1.2843  3.8696
  483SOL     OW 1826   0.807   4.463   6.466 -0.0816 -0.0990 -0.1161
  483SOL    HW1 1827   0.810   4.461   6.561  2.5466 -1.5065 -0.1264
  483SOL    HW2 1828   0.750   4.537   6.445 -1.1807 -0.0937  2.5135
  484SOL     OW 1829   6.204   4.753   1.300 -0.2581  0.6366  0.2810
  484SOL    HW1 1830   6.164   4.680   1.253 -0.1264  0.9266 -0.2868
  484SOL    HW2 1831   6.197   4.729   1.393  0.1407 -0.2720  0.0757
  485SOL     OW 1832   2.876   1.837   0.117  0.0518  0.2228 -0.1711
  485SOL    HW1 1833   2.913   1.749   0.125  0.3668  0.4089  0.4977
  485SOL    HW2 1834   2.843   1.841   0.027 -1.9873 -1.3566  0.4426
  486SOL     OW 1835   1.334   5.559   5.402 -0.9211 -0.7833 -0.1436
  486SOL    HW1 1836   1.274   5.623   5.364 -0.4614 -0.2863 -0.0502
  486SOL    HW2 1837   1.312   5.557   5.495 -1.2933 -1.1671 -0.2335
  487SOL     OW 1838   0.552   4.552   5.207  0.4065  0.5579  0.4032
  487SOL    HW1 1839   0.569   4.599   5.289  0.7800  0.1833  0.5457
  487SOL    HW2 1840   0.554   4.460   5.232  1.3998  0.4041 -0.1751
  488SOL     OW 1841   5.680   0.681   4.762  0.7611 -0.4790  0.0566
  488SOL    HW1 1842   5.698   0.767   4.722 -0.5639  0.1690  0.7739
  488SOL    HW2 1843   5.765   0.651   4.794  1.2629  0.5479 -0.2645
  489SOL     OW 1844   1.996   5.248   2.123  0.4822  0.1587  0.6799
  489SOL    HW1 1845   2.039   5.165   2.104  2.0768  1.3519 -1.4117
  489SOL    HW2 1846   2.049   5.313   2.077 -3.5107  1.7702 -2.1865
  490SOL     OW 1847   1.738   0.976   0.743  0.4239 -0.1746  0.2231
  490SOL    HW1 1848   1.691   1.021   0.814  0.4649  0.9272 -0.4334
  490SOL    HW2 1849   1.731   0.883   0.765  0.8492  0.1653  1.9349
  491SOL     OW 1850   6.541   6.342   6.391  0.7936  0.2292  0.1525
  491SOL    HW1 1851   6.558   6.430   6.424 -0.8950  0.3753  0.7196
  491SOL    HW2 1852   6.586   6.284   6.452  1.2967  0.6590  0.1997
  492SOL     OW 1853   5.558   2.604   4.849 -0.3677 -0.5952  0.1104
  492SOL    HW1 1854   5.636   2.646   4.886  0.0730 -1.0899 -0.2437
  492SOL    HW2 1855   5.504   2.583   4.926 -1.0376  1.4252  0.2425
  493SOL     OW 1856   4.818   0.598   2.200  0.3777 -0.2912  0.0661
  493SOL    HW1 1857   4.731   0.613   2.236 -0.3895 -0.5869 -1.5960
  493SOL    HW2 1858   4.860   0.538   2.263 -1.5754 -2.2930 -0.4087
  494SOL     OW 1859   3.656   0.284   1.759 -0.4441  0.7017 -0.4408
  494SOL    HW1 1860   3.596   0.212   1.780  0.4631 -0.1237 -0.6108
  494SOL    HW2 1861   3.605   0.363   1.777 -1.6281  0.0303 -0.6952
  495SOL     OW 1862   1.230   1.476   2.379 -0.1907 -0.4432  0.3395
  495SOL    HW1 1863   1.248   1.384   2.358  1.5337 -0.4954  1.8093
  495SOL    HW2 1864   1.142   1.491   2.345  1.2553 -1.1615 -4.5923
  496SOL     OW 1865   0.457   0.033   1.382 -0.1746  0.2083  0.3596
  496SOL    HW1 1866   0.423   0.107   1.331 -0.4824  0.1053  0.4187
  496SOL    HW2 1867   0.438  -0.044   1.328  0.4211  0.1988  0.1549
  497SOL     OW 1868   0.113   0.296   3.627 -0.0163  0.0731  0.2823
  497SOL    HW1 1869   0.098   0.366   3.691  0.4488  0.9796 -0.5868
  497SOL    HW2 1870   0.084   0.332   3.544  0.6081 -0.6234 -0.2532
  498SOL     OW 1871   5.461   4.133   4.356  0.0048  0.3168  0.1498
  498SOL    HW1 1872   5.536   4.181   4.389 -0.8828  1.3129  0.7984
  498SOL    HW2 1873   5.497   4.074   4.290  1.6122 -0.5989  1.7526
  499SOL     OW 1874   5.149   6.278   2.121 -0.5396  0.5837  0.2634
  499SOL    HW1 1875   5.228   6.231   2.145 -0.5943  1.2009  1.7990
  499SOL    HW2 1876   5.080   6.239   2.176 -0.6873  2.0237  1.1647
  500SOL     OW 1877   6.010   2.888   2.347 -0.5023  0.2109 -0.0484
  500SOL    HW1 1878   5.922   2.918   2.373 -0.0803  0.0541  1.6596
  500SOL    HW2 1879   6.043   2.958   2.292 -1.7637  0.1964 -0.8756
  501SOL     OW 1880   3.298   1.619   1.905 -0.4531  0.1132 -0.5928
  501SOL    HW1 1881   3.227   1.683   1.904 -0.4652  0.1020 -0.4778
  501SOL    HW2 1882   3.373   1.666   1.868 -0.8088 -0.2179 -1.7861
  502SOL     OW 1883   6.044   4.056   0.790 -0.1674  0.1382 -0.6346
  502SOL    HW1 1884   5.964   4.089   0.749 -0.8909  1.9993  2.0378
  502SOL    HW2 1885   6.111   4.122   0.771 -0.2449  0.4824  0.2521
  503SOL     OW 1886   5.202   0.636   1.486 -0.1932 -0.2702  0.2929
  503SOL    HW1 1887   5.169   0.551   1.515 -2.2680  0.3761 -0.0240
  503SOL    HW2 1888   5.267   0.615   1.419 -1.3221 -1.6018 -0.4307
  504SOL     OW 1889   2.209   3.012   6.061  0.3362 -0.2058 -0.5719
  504SOL    HW1 1890   2.218   2.919   6.082 -1.6588  0.1951  2.8847
  504SOL    HW2 1891   2.157   3.014   5.981 -0.5636 -2.1060 -0.0792
  505SOL     OW 1892   4.853   1.020   3.568  0.1422 -0.1711 -0.2778
  505SOL    HW1 1893   4.809   1.093   3.525  0.2631 -0.9766 -1.8677
  505SOL    HW2 1894   4.916   1.061   3.627 -0.0036  1.0122 -0.9090
  506SOL     OW 1895   6.403   4.237   0.339  0.0689 -0.0487 -0.1399
  506SOL    HW1 1896   6.405   4.149   0.377 -1.8910 -0.0795 -0.0168
  506SOL    HW2 1897   6.319   4.273   0.367 -0.0105  1.1470 -1.8134
  507SOL     OW 1898   1.784   0.477   5.138  0.4847 -0.1660 -0.4943
  507SOL    HW1 1899   1.870   0.484   5.096  1.2881  0.3422  1.1691
  507SOL    HW2 1900   1.797   0.414   5.208  0.5865  2.5547  2.1693
  508SOL     OW 1901   3.855   0.885   6.322  0.5672  0.3585 -0.6618
  508SOL    HW1 1902   3.879   0.879   6.414 -0.3704  1.5430 -0.3095
  508SOL    HW2 1903   3.907   0.959   6.289 -0.3718  1.0579 -0.6230
  509SOL     OW 1904   6.214   4.816   2.844  0.2888 -0.4165 -0.0045
  509SOL    HW1 1905   6.194   4.908   2.860  1.6569  0.8147 -4.1819
  509SOL    HW2 1906   6.134   4.780   2.805  0.5073 -0.3383 -0.5306
  510SOL     OW 1907   3.868   2.781   6.263 -0.1756 -0.0200 -0.1721
  510SOL    HW1 1908   3.944   2.780   6.321  0.4998 -0.0252 -1.0385
  510SOL    HW2 1909   3.852   2.874   6.247 -0.8801  0.0145  0.6714
  511SOL     OW 1910   5.620   4.250   6.805  0.6032 -0.4804  0.3946
  511SOL    HW1 1911   5.595   4.320   6.745 -0.3379 -0.4788  0.7651
  511SOL    HW2 1912   5.687   4.289   6.860  2.0848 -0.7295 -1.1572
  512SOL     OW 1913   0.391   0.185   4.225 -0.3607  0.0449 -0.4023
  512SOL    HW1 1914   0.309   0.137   4.226 -0.2792 -0.1024  1.3509
  512SOL    HW2 1915   0.381   0.253   4.291  0.0410  1.6140 -1.8851
  513SOL     OW 1916   2.053   5.018   5.840 -0.1540  0.1506  0.3105
  513SOL    HW1 1917   2.005   5.078   5.897  0.4143 -0.4146  1.3930
  513SOL    HW2 1918   2.000   5.015   5.760  0.0377  2.4389  0.0362
  514SOL     OW 1919   3.482   1.713   5.593  0.0491 -0.0024 -0.4591
  514SOL    HW1 1920   3.474   1.808   5.584 -0.5088  0.0287  0.2580
  514SOL    HW2 1921   3.397   1.679   5.564 -0.7089 -0.0906  1.6696
  515SOL     OW 1922   2.724   3.319   5.887 -0.0582 -0.5200  0.0285
  515SOL    HW1 1923   2.763   3.281   5.809 -1.5180 -0.0506 -0.9628
  515SOL    HW2 1924   2.644   3.360   5.857 -0.4791 -0.0033  1.7215
  516SOL     OW 1925   3.250   5.703   1.659  0.2047 -0.0484 -0.1397
  516SOL    HW1 1926   3.306   5.717   1.735  2.3199  0.2967 -1.6557
  516SOL    HW2 1927   3.170   5.663   1.694  0.6959  0.9699  2.3348
  517SOL     OW 1928   5.444   1.254   5.876  0.1835  0.5133 -0.1919
  517SOL    HW1 1929   5.357   1.240   5.912  0.0378  0.0619 -0.6963
  517SOL    HW2 1930   5.503   1.213   5.939  0.1679  2.0995  0.9029
  518SOL     OW 1931   0.835   6.115   5.141 -0.2356 -0.0123  0.5715
  518SOL    HW1 1932   0.778   6.164   5.201 -4.1215 -0.9854 -1.9389
  518SOL    HW2 1933   0.882   6.183   5.093 -0.5618  0.9453  1.5580
  519SOL     OW 1934   3.980   3.336   0.540 -0.0060  0.2334  0.3519
  519SOL    HW1 1935   4.045   3.354   0.609 -0.1718 -0.6206  0.7435
  519SOL    HW2 1936   3.944   3.422   0.518  2.1755  0.9292 -0.8058
  520SOL     OW 1937   3.697   6.656   0.066 -0.2319  0.3287 -0.1231
  520SOL    HW1 1938   3.647   6.735   0.046 -0.4727  0.2522  0.1724
  520SOL    HW2 1939   3.710   6.614  -0.020  1.0032  1.3247 -0.4536
  521SOL     OW 1940   6.454   5.630   0.567  0.1559  0.3921 -0.3184
  521SOL    HW1 1941   6.508   5.665   0.496  0.3231 -0.4430 -0.6157
  521SOL    HW2 1942   6.496   5.548   0.591 -1.3717 -0.6537 -1.0729
  522SOL     OW 1943   5.785   5.277   6.272 -0.3623 -0.3188 -0.4095
  522SOL    HW1 1944   5.730   5.215   6.223 -0.0969 -1.1986  0.3827
  522SOL    HW2 1945   5.869   5.276   6.227 -0.5562 -0.0451 -0.7805
  523SOL     OW 1946   1.562   2.461   5.487 -0.3300  0.2948 -0.7112
  523SOL    HW1 1947   1.488   2.454   5.547  0.2249  0.4468  0.0078
  523SOL    HW2 1948   1.612   2.381   5.501 -1.3264 -0.7244 -2.5614
  524SOL     OW 1949   5.087   1.023   0.892 -0.4050 -0.2886  0.1007
  524SOL    HW1 1950   5.112   0.978   0.973  0.5425  0.0796  0.0262
  524SOL    HW2 1951   5.016   0.970   0.856  0.0452 -1.1855  0.5051
  525SOL     OW 1952   5.627   1.042   2.221 -0.0663 -0.8350  0.3605
  525SOL    HW1 1953   5.712   0.999   2.208  1.0876  1.6969 -1.3320
  525SOL    HW2 1954   5.588   1.044   2.133 -1.2702 -0.7663  0.8826
  526SOL     OW 1955   3.614   4.951   2.467  0.2797  0.7952  0.2468
  526SOL    HW1 1956   3.706   4.958   2.492  0.1856  1.0100  0.5313
  526SOL    HW2 1957   3.584   4.870   2.509  0.2637  0.8745  0.3887
  527SOL     OW 1958   4.555   4.865   5.381  0.7337 -0.4212  0.6960
  527SOL    HW1 1959   4.614   4.826   5.446 -0.0127 -2.3861  0.2796
  527SOL    HW2 1960   4.468   4.855   5.418  0.5088  0.8348  0.5264
  528SOL     OW 1961   2.336   5.883   0.813  0.2594 -0.5325  0.0751
  528SOL    HW1 1962   2.328   5.867   0.907  0.5499  0.4700  0.2793
  528SOL    HW2 1963   2.411   5.942   0.805 -1.2669  1.4010 -0.5479
  529SOL     OW 1964   0.041   4.482   3.361  0.1910 -0.2511 -0.1596
  529SOL    HW1 1965   0.061   4.575   3.345  1.4215  0.0525  2.6038
  529SOL    HW2 1966   0.102   4.434   3.306 -0.0407  0.5467 -1.1522
  530SOL     OW 1967   0.876   6.194   6.454  0.6643  0.3402  0.7791
  530SOL    HW1 1968   0.896   6.214   6.363 -0.9910  1.7665  0.6807
  530SOL    HW2 1969   0.862   6.279   6.495 -0.6214 -0.3439  1.8567
  531SOL     OW 1970   4.516   1.866   2.080 -0.5917 -0.6978 -0.4898
  531SOL    HW1 1971   4.436   1.917   2.065 -0.5074  0.6337  2.7348
  531SOL    HW2 1972   4.585   1.932   2.089  0.2671 -1.6274 -0.1186
  532SOL     OW 1973   1.055   3.854   1.712 -0.3679 -0.4729 -0.0437
  532SOL    HW1 1974   0.982   3.807   1.671  0.3030 -2.1159  0.5535
  532SOL    HW2 1975   1.116   3.869   1.641 -0.3772 -0.9647 -0.1620
  533SOL     OW 1976   5.594   2.508   6.741 -0.5603 -0.0918 -0.3807
  533SOL    HW1 1977   5.671   2.542   6.696  1.8511 -2.7186  1.3638
  533SOL    HW2 1978   5.528   2.499   6.672  1.0385  1.2274 -2.2068
  534SOL     OW 1979   0.078   2.353   2.063  0.4231 -0.3958  0.1767
  534SOL    HW1 1980   0.062   2.302   2.142  1.0625 -1.9985 -0.6813
  534SOL    HW2 1981   0.111   2.437   2.095  2.1696 -1.5480  1.6000
  535SOL     OW 1982   2.405   4.570   5.450 -0.0560 -0.4279  0.2056
  535SOL    HW1 1983   2.473   4.637   5.452 -0.7738  0.3283 -0.3265
  535SOL    HW2 1984   2.354   4.584   5.529 -2.1985  1.8043 -1.4477
  536SOL     OW 1985   3.555   4.691   6.070  0.3685 -0.0360 -0.6353
  536SOL    HW1 1986   3.473   4.669   6.025  0.6406  1.7942 -2.1586
  536SOL    HW2 1987   3.614   4.619   6.048 -0.3007 -0.5054 -0.9672
  537SOL     OW 1988   3.538   3.521   5.295  0.2399 -0.5712 -0.2671
  537SOL    HW1 1989   3.569   3.594   5.241 -0.5023 -1.0264 -1.3569
  537SOL    HW2 1990   3.617   3.469   5.311  0.5348 -0.2537 -0.6379
  538SOL     OW 1991   5.457   5.997   0.236 -0.6899  0.5364  0.8691
  538SOL    HW1 1992   5.421   5.908   0.230 -1.0849  0.7103  0.6395
  538SOL    HW2 1993   5.390   6.053   0.197  0.1422  0.7814 -0.2652
  539SOL     OW 1994   6.641   5.234   2.776 -0.0167 -0.1993  0.0927
  539SOL    HW1 1995   6.651   5.328   2.795  0.5620 -0.3233  0.4044
  539SOL    HW2 1996   6.553   5.227   2.739  0.5483  0.7306 -1.5547
  540SOL     OW 1997   3.131   0.053   6.553  0.3445  0.0495 -0.5939
  540SOL    HW1 1998   3.182  -0.020   6.588 -0.0537  0.5597  1.1252
  540SOL    HW2 1999   3.049   0.052   6.603 -0.3567  0.6843 -1.6797
  541SOL     OW 2000   3.045   1.289   1.234  0.1413 -0.1296 -0.2535
  541SOL    HW1 2001   3.075   1.235   1.161 -1.5889 -0.3321 -0.8723
  541SOL    HW2 2002   3.043   1.230   1.309  1.1483 -0.1304 -0.2199
  542SOL     OW 2003   1.769   6.212   1.593 -0.0837 -0.3685  0.0037
  542SOL    HW1 2004   1.790   6.281   1.656  2.3676 -0.4089 -0.6646
  542SOL    HW2 2005   1.818   6.136   1.623 -2.3264 -1.7353  0.4304
  543SOL     OW 2006   2.327   2.268   3.877  0.1272 -0.2717 -0.1942
  543SOL    HW1 2007   2.274   2.198   3.915  0.1114 -0.7760 -1.1320
  543SOL    HW2 2008   2.406   2.225   3.847  0.6354  0.3125  0.2650
  544SOL     OW 2009   5.654   6.018   2.805 -0.4566 -0.1773 -0.4114
  544SOL    HW1 2010   5.708   6.037   2.881 -0.2782  0.9411 -0.8092
  544SOL    HW2 2011   5.704   5.952   2.756  0.1048  0.1671 -0.3065
  545SOL     OW 2012   1.757   2.795   3.519 -0.0881  0.6246  0.7249
  545SOL    HW1 2013   1.706   2.768   3.595  0.3767 -2.5029  0.0587
  545SOL    HW2 2014   1.692   2.811   3.450 -0.3822  0.6799  1.0168
  546SOL     OW 2015   3.002   1.034   4.906  0.2586  0.2768 -0.2313
  546SOL    HW1 2016   3.061   1.042   4.831  0.4808 -1.0875 -0.2422
  546SOL    HW2 2017   3.060   1.020   4.981 -0.0016 -0.6309 -0.1758
  547SOL     OW 2018   2.702   2.154   3.262 -0.0527 -0.4334  0.0515
  547SOL    HW1 2019   2.608   2.143   3.278 -0.1222  0.0825  0.0108
  547SOL    HW2 2020   2.724   2.238   3.304  0.4330 -0.6493  0.2455
  548SOL     OW 2021   6.187   3.362   5.314  0.0501  0.4381 -0.0933
  548SOL    HW1 2022   6.176   3.442   5.366 -1.1879 -0.6207  1.3687
  548SOL    HW2 2023   6.280   3.340   5.322  0.4055  1.7206 -0.5312
  549SOL     OW 2024   4.392   0.919   2.606 -0.2985  0.3486 -0.0815
  549SOL    HW1 2025   4.454   0.992   2.611  0.2403 -0.0989 -0.1670
  549SOL    HW2 2026   4.306   0.961   2.600  0.0156  0.9768 -0.2693
  550SOL     OW 2027   1.183   6.339   1.599  0.1270  0.4846  0.1991
  550SOL    HW1 2028   1.121   6.268   1.615 -0.4830  0.4165 -2.0714
  550SOL    HW2 2029   1.261   6.295   1.567 -0.6708  0.8007 -2.4001
  551SOL     OW 2030   0.475   3.978   2.130  0.1461 -0.8373  0.4098
  551SOL    HW1 2031   0.433   3.899   2.163  1.4605 -1.3255  1.0036
  551SOL    HW2 2032   0.559   3.948   2.096  1.1815  0.4362  1.7130
  552SOL     OW 2033   4.703   5.174   4.396  0.1527  0.6274 -0.0431
  552SOL    HW1 2034   4.699   5.113   4.322  1.7240  0.4513 -0.0148
  552SOL    HW2 2035   4.644   5.136   4.461  0.5204 -0.4783 -0.3220
  553SOL     OW 2036   1.581   3.055   3.817 -0.6268 -0.1820  0.0793
  553SOL    HW1 2037   1.656   3.088   3.769 -1.2264 -0.1516 -0.8534
  553SOL    HW2 2038   1.560   3.125   3.880 -0.6225  0.3347 -0.4836
  554SOL     OW 2039   0.713   1.334   2.283 -0.2573  0.1314  0.7533
  554SOL    HW1 2040   0.681   1.414   2.324 -1.2053  0.9953 -1.5310
  554SOL    HW2 2041   0.635   1.283   2.265  0.3219 -1.2857  1.9892
  555SOL     OW 2042   1.216   5.570   0.107  0.3003 -0.4910  0.1925
  555SOL    HW1 2043   1.152   5.622   0.058  2.2793  1.1067 -0.8361
  555SOL    HW2 2044   1.209   5.603   0.197 -0.9126 -0.9705  0.2897
  556SOL     OW 2045   4.489   0.961   4.990  0.0507  0.4962 -0.1017
  556SOL    HW1 2046   4.459   0.903   4.920  1.7766 -1.3988  0.6357
  556SOL    HW2 2047   4.556   1.016   4.949  1.0385 -0.5928 -0.0223
  557SOL     OW 2048   1.991   6.742   3.304 -0.5830 -0.4448 -0.2550
  557SOL    HW1 2049   1.933   6.807   3.265 -1.4779 -0.8268  0.4176
  557SOL    HW2 2050   1.934   6.668   3.324  0.3986 -1.4047 -0.9038
  558SOL     OW 2051   5.050   6.788   6.147  0.1232  0.1730 -0.0263
  558SOL    HW1 2052   4.967   6.825   6.116  0.6099  2.5485  1.2312
  558SOL    HW2 2053   5.117   6.841   6.103  0.8495  2.2629  3.2314
  559SOL     OW 2054   3.250   2.278   5.187  0.4446 -0.4191 -0.9030
  559SOL    HW1 2055   3.185   2.316   5.247  2.4787  1.8126  0.0865
  559SOL    HW2 2056   3.204   2.207   5.143 -1.9479 -0.4539  1.4025
  560SOL     OW 2057   3.162   5.603   4.343  0.3242  0.3567  0.0404
  560SOL    HW1 2058   3.208   5.547   4.405  0.8122  1.0451  0.3161
  560SOL    HW2 2059   3.189   5.692   4.366  0.6330  0.6213 -1.2301
  561SOL     OW 2060   1.080   4.645   2.498  0.3629 -0.2880  0.6489
  561SOL    HW1 2061   1.143   4.587   2.456 -1.0046 -1.6616  0.3847
  561SOL    HW2 2062   1.054   4.706   2.429 -0.1029 -1.0215  0.1572
  562SOL     OW 2063   3.217   0.773   3.785 -0.2300 -0.1972 -0.6399
  562SOL    HW1 2064   3.193   0.731   3.867  0.0455  3.7911  1.6992
  562SOL    HW2 2065   3.282   0.714   3.746  0.8420 -1.4895  2.7726
  563SOL     OW 2066   5.638   6.193   6.347 -0.0016  0.0825  0.0536
  563SOL    HW1 2067   5.661   6.175   6.256 -1.9197 -1.3355 -0.2097
  563SOL    HW2 2068   5.604   6.282   6.346 -0.7671 -0.2049 -0.7987
  564SOL     OW 2069   1.901   2.534   5.053 -0.1866  0.0509  0.7704
  564SOL    HW1 2070   1.927   2.464   5.113  1.0200  2.2509  3.0411
  564SOL    HW2 2071   1.984   2.572   5.023 -0.7794  1.3726  0.7201
  565SOL     OW 2072   5.139   0.640   5.797 -0.7328  0.3049  0.4156
  565SOL    HW1 2073   5.199   0.693   5.744  0.0128 -0.6667  0.2515
  565SOL    HW2 2074   5.114   0.698   5.869 -0.1673  0.9767  0.0892
  566SOL     OW 2075   1.220   4.142   6.005  0.3439 -0.0941 -0.5404
  566SOL    HW1 2076   1.160   4.216   6.016 -0.3600 -0.3658 -2.1612
  566SOL    HW2 2077   1.191   4.078   6.070  0.4035  0.6914  0.2859
  567SOL     OW 2078   5.152   1.881   0.136  0.4909 -0.3553  0.7709
  567SOL    HW1 2079   5.064   1.897   0.103  0.5222 -0.7114  0.5063
  567SOL    HW2 2080   5.196   1.966   0.131  0.8955 -0.6219 -1.3155
  568SOL     OW 2081   4.480   6.295   1.938 -0.2091 -0.1344 -0.3381
  568SOL    HW1 2082   4.530   6.369   1.905  2.0972 -0.3162  2.3433
  568SOL    HW2 2083   4.496   6.224   1.875 -0.2996  0.8861 -1.5331
  569SOL     OW 2084   5.224   1.817   1.868  0.5058  0.0814 -0.5265
  569SOL    HW1 2085   5.269   1.901   1.876  0.2196  0.1355  0.9206
  569SOL    HW2 2086   5.269   1.760   1.931  0.9164 -0.9688 -1.7276
  570SOL     OW 2087   4.760   4.361   1.832  0.0848  0.4714 -0.1900
  570SOL    HW1 2088   4.854   4.342   1.838  0.0942  0.3283 -0.7665
  570SOL    HW2 2089   4.748   4.392   1.743 -0.3916  0.6495 -0.0621
  571SOL     OW 2090   2.621   3.059   3.275 -0.7097 -0.7208 -0.3107
  571SOL    HW1 2091   2.563   2.990   3.245 -0.4356 -1.4943  0.8411
  571SOL    HW2 2092   2.654   3.100   3.195 -2.0872 -0.8825 -0.9877
  572SOL     OW 2093   3.369   5.671   5.594  0.4165  0.1554  0.0874
  572SOL    HW1 2094   3.423   5.643   5.520  1.3813  0.8847  0.4938
  572SOL    HW2 2095   3.318   5.744   5.561 -1.5789 -1.5143 -0.7673
  573SOL     OW 2096   3.817   1.645   5.009  0.0719  0.1204  0.1175
  573SOL    HW1 2097   3.827   1.582   4.938 -1.4475  0.0952 -0.1028
  573SOL    HW2 2098   3.818   1.593   5.089  2.2618  0.1941  0.1937
  574SOL     OW 2099   4.882   6.712   1.331  0.2814 -0.2788 -0.0744
  574SOL    HW1 2100   4.973   6.705   1.300  0.8290 -0.2061  1.4387
  574SOL    HW2 2101   4.837   6.761   1.262  1.6670  0.7295 -0.3032
  575SOL     OW 2102   4.803   2.567   4.443  0.0239 -0.8780  0.1394
  575SOL    HW1 2103   4.796   2.482   4.487 -0.5301 -0.9586 -0.1001
  575SOL    HW2 2104   4.878   2.558   4.384 -0.4360 -1.4194 -0.3673
  576SOL     OW 2105   6.622   3.315   3.945 -0.2697 -0.1483 -0.9249
  576SOL    HW1 2106   6.546   3.266   3.978 -0.7008  1.2418  0.3135
  576SOL    HW2 2107   6.698   3.266   3.976 -0.6742 -0.9110 -1.1283
  577SOL     OW 2108   0.652   0.182   4.313  0.0435 -0.0753 -0.7539
  577SOL    HW1 2109   0.562   0.155   4.294 -0.1205 -0.2039  0.1665
  577SOL    HW2 2110   0.642   0.260   4.368  0.4379 -1.4944  1.4448
  578SOL     OW 2111   3.743   1.839   1.766  0.8009  0.1385 -0.0773
  578SOL    HW1 2112   3.749   1.910   1.830  1.7441  1.7527 -1.8733
  578SOL    HW2 2113   3.786   1.873   1.688  0.5862 -2.1407 -1.2724
  579SOL     OW 2114   5.184   4.554   6.497  0.6054 -0.0273  0.3897
  579SOL    HW1 2115   5.213   4.467   6.523 -0.8062 -0.3355  1.0141
  579SOL    HW2 2116   5.229   4.570   6.414 -0.0895 -1.8897 -0.3870
  580SOL     OW 2117   6.205   5.719   5.136 -0.6426  0.1214 -0.1724
  580SOL    HW1 2118   6.145   5.668   5.081  0.3841 -0.1537 -1.0693
  580SOL    HW2 2119   6.166   5.806   5.139 -1.0831 -0.0475 -0.7572
  581SOL     OW 2120   0.527   6.787   5.526  0.3821  0.2870  0.0199
  581SOL    HW1 2121   0.510   6.849   5.596 -1.9230 -0.5262  0.2661
  581SOL    HW2 2122   0.600   6.733   5.558  0.0159  0.5591  1.3511
  582SOL     OW 2123   1.875   3.721   4.013  0.2832  0.0151  0.9554
  582SOL    HW1 2124   1.817   3.796   4.025 -0.4990 -0.6523  1.4448
  582SOL    HW2 2125   1.962   3.755   4.032  0.0152  0.9459  0.5786
  583SOL     OW 2126   6.026   5.516   5.059 -0.2701 -0.5853 -0.0349
  583SOL    HW1 2127   5.967   5.539   5.131 -0.8257 -0.1491 -0.6233
  583SOL    HW2 2128   6.086   5.452   5.097 -1.5369 -1.5488  0.4043
  584SOL     OW 2129   1.766   0.602   4.801  0.8336  0.2130  0.4281
  584SOL    HW1 2130   1.728   0.548   4.871  0.4111  0.5511  0.4638
  584SOL    HW2 2131   1.690   0.639   4.756  1.1215  1.1915  0.7317
  585SOL     OW 2132   2.975   2.212   2.620 -0.8401 -0.4629 -0.4159
  585SOL    HW1 2133   2.899   2.198   2.676 -0.9544  1.7506  0.0555
  585SOL    HW2 2134   3.046   2.233   2.680 -0.5168  0.1509 -0.9968
  586SOL     OW 2135   5.828   5.032   4.533 -0.2799  0.1602 -0.1075
  586SOL    HW1 2136   5.802   5.098   4.598  3.5830  0.0473  1.8505
  586SOL    HW2 2137   5.904   5.070   4.489 -0.7384 -1.1921 -2.2043
  587SOL     OW 2138   2.572   3.502   4.465  0.5906  0.0778  0.7697
  587SOL    HW1 2139   2.568   3.534   4.555  1.0088 -1.8947  1.5515
  587SOL    HW2 2140   2.666   3.488   4.450  0.5262  0.4501 -0.0050
  588SOL     OW 2141   0.043   3.663   2.970 -0.0789  0.5519  0.6467
  588SOL    HW1 2142  -0.035   3.613   2.994  1.2148 -1.3931  1.0220
  588SOL    HW2 2143   0.019   3.708   2.889 -0.7786 -2.0733 -0.7094
  589SOL     OW 2144   4.072   4.959   5.284 -0.0361  0.3970 -0.1120
  589SOL    HW1 2145   4.164   4.983   5.272  0.0748 -0.6807 -1.7086
  589SOL    HW2 2146   4.074   4.889   5.349 -0.1406  2.8476  2.7239
  590SOL     OW 2147   4.648   0.283   2.424  0.4947  0.0062  0.2009
  590SOL    HW1 2148   4.720   0.298   2.486 -0.2928 -0.7878  1.3534
  590SOL    HW2 2149   4.626   0.191   2.436  0.4380 -0.2147 -1.4206
  591SOL     OW 2150   0.978   2.820   5.331 -0.3229  0.7241  0.2520
  591SOL    HW1 2151   0.914   2.815   5.260  0.7705  0.4289 -0.7463
  591SOL    HW2 2152   0.985   2.730   5.363  0.1675  0.6030 -0.1802
  592SOL     OW 2153   5.624   4.052   5.392 -0.1992 -0.0976  0.1637
  592SOL    HW1 2154   5.535   4.018   5.391  0.0849 -0.8772  0.2005
  592SOL    HW2 2155   5.643   4.069   5.484 -0.0664 -0.6180  0.2365
  593SOL     OW 2156   4.079   4.265   5.995  0.3471  0.1308 -0.0772
  593SOL    HW1 2157   4.041   4.181   5.971 -0.4407  0.1325  1.0871
  593SOL    HW2 2158   4.015   4.305   6.054  1.4089  0.8653  0.6271
  594SOL     OW 2159   5.343   3.991   5.421 -0.0298  0.1364  0.6259
  594SOL    HW1 2160   5.252   4.015   5.438 -0.4618 -0.4546 -0.7642
  594SOL    HW2 2161   5.341   3.897   5.404  1.2849 -0.5308  3.4659
  595SOL     OW 2162   0.492   0.215   5.962 -0.0349 -0.2447  0.1029
  595SOL    HW1 2163   0.442   0.135   5.945  0.9470 -0.8962  0.1943
  595SOL    HW2 2164   0.545   0.195   6.038  1.0503  0.0993 -0.5398
  596SOL     OW 2165   1.970   1.462   0.450 -0.3099  0.1573 -0.1748
  596SOL    HW1 2166   1.960   1.399   0.522  0.3870 -0.8511 -0.9336
  596SOL    HW2 2167   1.952   1.547   0.490  0.6378 -0.3173  1.3348
  597SOL     OW 2168   3.375   2.500   3.033  0.3433 -0.3483  0.0772
  597SOL    HW1 2169   3.302   2.506   3.095  0.6449  0.8771  0.3523
  597SOL    HW2 2170   3.429   2.428   3.065  0.0448 -0.2757  0.7511
  598SOL     OW 2171   0.379   0.867   2.801  0.2146  0.3172 -0.3069
  598SOL    HW1 2172   0.388   0.848   2.708  0.4401 -0.8819 -0.0567
  598SOL    HW2 2173   0.290   0.838   2.823 -0.3048  1.7619 -0.3988
  599SOL     OW 2174   3.051   2.604   5.608 -0.5964 -0.2273 -0.8427
  599SOL    HW1 2175   3.079   2.655   5.532 -0.6418 -0.1767 -0.8260
  599SOL    HW2 2176   3.040   2.515   5.575 -2.1931  0.0863 -1.2901
  600SOL     OW 2177   3.291   0.181   4.079  0.4406  0.0967  0.0981
  600SOL    HW1 2178   3.377   0.139   4.075  0.2234 -0.3155 -0.3842
  600SOL    HW2 2179   3.249   0.142   4.156  0.3680 -0.3162 -0.1522
  601SOL     OW 2180   3.177   5.959   4.038  0.2713  0.3995  0.1270
  601SOL    HW1 2181   3.230   5.952   4.118  0.2089  0.7366  0.1998
  601SOL    HW2 2182   3.241   5.967   3.967  0.3318 -0.1480  0.1143
  602SOL     OW 2183   3.522   4.681   5.177 -0.1002 -0.2030  0.2862
  602SOL    HW1 2184   3.459   4.620   5.215 -1.2269 -0.3711 -1.6672
  602SOL    HW2 2185   3.533   4.651   5.087  2.4535  0.1275  0.4180
  603SOL     OW 2186   2.359   3.064   4.973  0.1248 -0.2701  0.7738
  603SOL    HW1 2187   2.372   3.019   4.890 -0.5902 -1.6714  1.3848
  603SOL    HW2 2188   2.445   3.066   5.014  0.2714 -0.5676  0.4787
  604SOL     OW 2189   3.378   5.064   6.625  0.3635  0.5873 -0.0981
  604SOL    HW1 2190   3.370   5.042   6.532  0.1541  0.4483 -0.0472
  604SOL    HW2 2191   3.325   5.143   6.635 -1.5942 -0.7212  0.3800
  605SOL     OW 2192   2.138   1.285   0.697 -0.1971  0.1213 -0.6963
  605SOL    HW1 2193   2.172   1.206   0.738 -0.9001 -0.2527 -0.8090
  605SOL    HW2 2194   2.053   1.300   0.739 -0.5292  0.2357 -1.3751
  606SOL     OW 2195   5.455   4.452   2.060  0.1607 -0.0932 -0.7656
  606SOL    HW1 2196   5.519   4.383   2.042  1.5015  1.2072 -1.2033
  606SOL    HW2 2197   5.496   4.531   2.025 -1.4277  0.8893 -0.4663
  607SOL     OW 2198   6.759   3.120   3.412 -0.2689  0.1055 -0.3778
  607SOL    HW1 2199   6.696   3.127   3.341 -0.8783 -3.3237 -0.3344
  607SOL    HW2 2200   6.838   3.085   3.371  0.7538  1.8026  0.0449
  608SOL     OW 2201   5.959   4.723   5.868  0.8089  0.3748 -0.2765
  608SOL    HW1 2202   6.044   4.678   5.861  0.1380 -0.8996 -0.7283
  608SOL    HW2 2203   5.970   4.803   5.817  1.7296  0.1951 -0.3779
  609SOL     OW 2204   1.882   0.853   4.847 -0.1304 -0.1475 -0.0974
  609SOL    HW1 2205   1.786   0.845   4.848 -0.1012 -0.4680  0.5546
  609SOL    HW2 2206   1.913   0.764   4.861  0.2590  0.0435  0.2548
  610SOL     OW 2207   5.949   5.661   1.010  0.0896  0.2511  0.3391
  610SOL    HW1 2208   5.932   5.749   0.978  0.6668  0.5753  0.9057
  610SOL    HW2 2209   5.898   5.604   0.953 -0.9231  1.0126  0.4626
  611SOL     OW 2210   5.012   5.495   3.913 -0.0985 -0.3930  0.5443
  611SOL    HW1 2211   4.951   5.550   3.961 -1.1101  0.8667 -2.0233
  611SOL    HW2 2212   5.090   5.549   3.901 -0.6821  0.1477 -1.0442
  612SOL     OW 2213   3.162   2.053   1.692 -0.1754 -0.2289 -0.2722
  612SOL    HW1 2214   3.232   2.083   1.750 -0.9571  0.8085  0.1738
  612SOL    HW2 2215   3.081   2.080   1.736 -0.9651 -2.8654  0.0628
  613SOL     OW 2216   0.258   1.219   4.438  0.3107  0.6620 -0.9338
  613SOL    HW1 2217   0.297   1.162   4.504 -1.6832  0.7417  0.3937
  613SOL    HW2 2218   0.291   1.307   4.459  0.2471  0.5800 -0.4794
  614SOL     OW 2219   5.348   1.550   2.857  0.0737 -0.2903 -0.5397
  614SOL    HW1 2220   5.436   1.511   2.860 -0.2214 -0.9657 -0.6391
  614SOL    HW2 2221   5.351   1.620   2.922  0.2559 -1.2127  0.4738
  615SOL     OW 2222   3.524   6.175   2.962  0.3026  0.2072  0.4436
  615SOL    HW1 2223   3.611   6.197   2.927 -0.2770 -0.2393 -1.3560
  615SOL    HW2 2224   3.525   6.080   2.972  0.2249  0.2635  0.9863
  616SOL     OW 2225   5.324   6.673   0.417  0.1995  0.1618 -0.0113
  616SOL    HW1 2226   5.414   6.665   0.387  0.1117  0.0759 -0.2573
  616SOL    HW2 2227   5.296   6.584   0.436 -0.6798 -0.1600 -2.4662
  617SOL     OW 2228   1.168   5.932   0.653 -0.0621 -0.4487 -0.2292
  617SOL    HW1 2229   1.188   5.956   0.744 -1.4272 -0.8040  0.2013
  617SOL    HW2 2230   1.131   6.011   0.615 -0.8893 -0.7117 -0.0014
  618SOL     OW 2231   1.541   2.714   4.671  0.2680  0.4305  0.2207
  618SOL    HW1 2232   1.470   2.766   4.708  0.6926  2.0744 -1.1398
  618SOL    HW2 2233   1.621   2.752   4.707  0.6004  1.0304 -1.0812
  619SOL     OW 2234   1.133   4.507   2.099  0.1558 -0.0967  0.1745
  619SOL    HW1 2235   1.169   4.440   2.041  2.1788  0.1053  1.1259
  619SOL    HW2 2236   1.179   4.587   2.074 -1.2894  0.6860 -0.0729
  620SOL     OW 2237   3.509   2.378   1.810 -0.3714 -0.4229 -0.5756
  620SOL    HW1 2238   3.551   2.416   1.733 -1.3934  0.6889 -0.6220
  620SOL    HW2 2239   3.443   2.443   1.836  0.3044 -0.5031  1.5697
  621SOL     OW 2240   4.791   3.477   2.760  0.0519  0.0030  0.6048
  621SOL    HW1 2241   4.738   3.520   2.827  2.4111  1.2941  1.7421
  621SOL    HW2 2242   4.866   3.534   2.748 -0.3434 -0.0190 -3.3944
  622SOL     OW 2243   1.801   0.750   3.790  0.2327  0.7641 -0.0732
  622SOL    HW1 2244   1.889   0.729   3.821 -0.3360  1.3424  2.1588
  622SOL    HW2 2245   1.806   0.843   3.765  0.3888  0.6402 -0.5062
  623SOL     OW 2246   0.732   4.708   5.724 -0.4068  0.4205 -0.3185
  623SOL    HW1 2247   0.781   4.643   5.775  0.7952  1.3896 -0.1846
  623SOL    HW2 2248   0.779   4.713   5.640  0.1269  1.8233  0.0449
  624SOL     OW 2249   0.063   0.849   1.418 -0.0151  0.3389  0.1259
  624SOL    HW1 2250   0.118   0.924   1.397  2.3242 -1.0850  0.7410
  624SOL    HW2 2251  -0.023   0.886   1.439 -0.0937  2.4952 -3.2711
  625SOL     OW 2252   1.265   1.355   6.299 -0.3951  0.7464  0.3573
  625SOL    HW1 2253   1.251   1.445   6.269 -0.3507  0.2373 -1.2868
  625SOL    HW2 2254   1.326   1.318   6.236 -1.4744 -0.8487  0.1832
  626SOL     OW 2255   5.627   0.568   0.579 -0.3228  0.3454  0.0143
  626SOL    HW1 2256   5.586   0.595   0.496  0.3911 -1.3024 -0.9220
  626SOL    HW2 2257   5.721   0.571   0.560 -0.1682 -0.3450  0.6656
  627SOL     OW 2258   6.115   3.046   0.566 -0.6219  0.6370  0.0036
  627SOL    HW1 2259   6.051   3.093   0.620  1.1302  3.6429 -0.2634
  627SOL    HW2 2260   6.123   2.961   0.608 -0.9085  2.0506  3.3013
  628SOL     OW 2261   2.943   5.980   3.507  0.5107 -0.6058 -0.0141
  628SOL    HW1 2262   2.944   6.074   3.525 -1.4969 -0.5526  0.0110
  628SOL    HW2 2263   3.012   5.944   3.563  1.7012  0.9006 -0.4535
  629SOL     OW 2264   2.857   5.355   2.316  0.4479  1.0185 -0.3469
  629SOL    HW1 2265   2.943   5.358   2.358  0.5426  0.9163 -0.5317
  629SOL    HW2 2266   2.876   5.340   2.223  0.1514 -3.2432  0.0974
  630SOL     OW 2267   4.901   1.096   2.951 -0.2475 -0.1316 -0.0516
  630SOL    HW1 2268   4.944   1.049   3.023  0.9931 -0.5573 -1.0272
  630SOL    HW2 2269   4.830   1.145   2.993 -0.3525 -1.3434  1.2803
  631SOL     OW 2270   1.249   2.490   4.819 -0.1438  0.2723 -0.2758
  631SOL    HW1 2271   1.244   2.555   4.889 -2.1156 -0.3202  0.2153
  631SOL    HW2 2272   1.296   2.534   4.748 -2.4660  2.7664 -0.4646
  632SOL     OW 2273   2.000   4.811   1.781 -0.4998 -0.0984  0.1327
  632SOL    HW1 2274   2.037   4.807   1.693 -0.9787 -0.7625 -0.0494
  632SOL    HW2 2275   1.910   4.779   1.770 -0.5157 -0.3225  0.8888
  633SOL     OW 2276   3.266   0.465   2.409  0.4162  0.8768 -0.4766
  633SOL    HW1 2277   3.201   0.523   2.450 -0.7469 -1.3541  1.0626
  633SOL    HW2 2278   3.248   0.379   2.447  3.5226 -0.0882 -0.9598
  634SOL     OW 2279   2.681   4.726   4.211 -0.5087  0.0280  0.1878
  634SOL    HW1 2280   2.665   4.649   4.264 -0.7975  0.0719  0.1619
  634SOL    HW2 2281   2.691   4.797   4.275  0.3546 -0.1276  0.2484
  635SOL     OW 2282   1.242   0.723   3.287 -0.9105  0.0417 -0.2687
  635SOL    HW1 2283   1.329   0.721   3.247 -1.1750  0.3528 -0.8831
  635SOL    HW2 2284   1.251   0.784   3.360  0.1181 -2.1159  1.5030
  636SOL     OW 2285   2.239   4.624   3.326  0.2320 -0.2128  0.2131
  636SOL    HW1 2286   2.174   4.671   3.274  0.8922  0.4225 -0.0607
  636SOL    HW2 2287   2.224   4.531   3.306 -0.5006 -0.0690  0.0641
  637SOL     OW 2288   3.998   5.708   1.670 -0.3809  0.0467 -0.0162
  637SOL    HW1 2289   3.995   5.643   1.740 -1.5745  0.7925  0.6782
  637SOL    HW2 2290   4.077   5.760   1.688 -0.1460 -0.3840  0.2011
  638SOL     OW 2291   3.878   2.645   1.805  0.3651  0.1853 -0.2986
  638SOL    HW1 2292   3.811   2.672   1.868  0.9993 -1.2559  1.0538
  638SOL    HW2 2293   3.910   2.562   1.838  0.5454 -0.7934 -2.6961
  639SOL     OW 2294   3.885   6.586   1.737 -0.5927  0.4834 -0.1945
  639SOL    HW1 2295   3.880   6.539   1.820  1.2903  0.4042 -0.0901
  639SOL    HW2 2296   3.894   6.518   1.671  2.5711  0.5675 -0.0077
  640SOL     OW 2297   1.293   4.760   4.153 -0.2374  0.0481  0.0263
  640SOL    HW1 2298   1.226   4.698   4.182 -3.1204  2.3296 -1.1225
  640SOL    HW2 2299   1.247   4.844   4.149  2.1544  1.4277 -2.8739
  641SOL     OW 2300   0.197   1.781   1.822  0.1470  0.1703  0.5297
  641SOL    HW1 2301   0.164   1.691   1.824  1.2159 -0.2388  0.1221
  641SOL    HW2 2302   0.124   1.833   1.856 -0.8617 -0.7274 -0.1689
  642SOL     OW 2303   1.756   4.667   1.469 -0.3411  0.5241  0.3102
  642SOL    HW1 2304   1.806   4.742   1.437  0.2536  0.6632  1.5198
  642SOL    HW2 2305   1.764   4.671   1.564  0.7205 -1.7579  0.3825
  643SOL     OW 2306   3.288   4.991   5.846 -0.1520 -0.6915  0.6921
  643SOL    HW1 2307   3.375   5.000   5.884  0.0322 -1.7764  0.5629
  643SOL    HW2 2308   3.303   4.982   5.752 -0.5779  1.5406  0.3393
  644SOL     OW 2309   2.800   2.348   0.008  0.0737  0.0734 -0.0610
  644SOL    HW1 2310   2.842   2.335  -0.077 -0.9804  2.4551 -1.0464
  644SOL    HW2 2311   2.756   2.265   0.026  0.8152 -0.6797 -1.5428
  645SOL     OW 2312   5.631   4.083   4.748  0.6951 -0.0125 -0.0144
  645SOL    HW1 2313   5.599   4.079   4.838  1.1993  0.3486  0.1822
  645SOL    HW2 2314   5.576   4.019   4.701  0.1875  0.0577  0.4656
  646SOL     OW 2315   1.451   5.536   6.808 -0.1303 -0.2509  0.1346
  646SOL    HW1 2316   1.475   5.628   6.817  0.9200 -0.4658 -0.3005
  646SOL    HW2 2317   1.378   5.523   6.869  0.5180  0.5715  1.1010
  647SOL     OW 2318   0.807   0.089   1.097  0.2250  0.4415  0.4028
  647SOL    HW1 2319   0.836   0.044   1.177 -1.8904  1.4849  1.8504
  647SOL    HW2 2320   0.741   0.151   1.127 -0.9456  0.5934 -2.2343
  648SOL     OW 2321   3.537   4.310   0.459 -0.1845 -0.4337  0.1243
  648SOL    HW1 2322   3.474   4.311   0.532 -2.9125 -0.4786 -2.0622
  648SOL    HW2 2323   3.527   4.396   0.418  1.3103 -0.4126 -0.2340
  649SOL     OW 2324   5.337   0.369   1.789 -0.0112  0.1208 -0.3898
  649SOL    HW1 2325   5.408   0.412   1.836  0.1696  0.4221 -0.9323
  649SOL    HW2 2326   5.262   0.375   1.849 -0.1378  1.6796 -0.6615
  650SOL     OW 2327   6.290   6.164   1.691 -0.0221 -0.1929  0.3466
  650SOL    HW1 2328   6.248   6.078   1.699 -0.2005 -0.0071  1.6226
  650SOL    HW2 2329   6.376   6.152   1.730  0.0359  0.1549  0.3259
  651SOL     OW 2330   3.657   1.141   0.189  0.1377  0.3170 -0.1327
  651SOL    HW1 2331   3.674   1.066   0.245 -0.4229  1.0483  1.0405
  651SOL    HW2 2332   3.566   1.166   0.208  0.7880  2.2685  0.7126
  652SOL     OW 2333   5.697   5.398   5.514 -0.2716 -0.2852 -0.3319
  652SOL    HW1 2334   5.706   5.321   5.569 -1.3233 -0.0835  0.1438
  652SOL    HW2 2335   5.741   5.374   5.432  0.2715 -1.0166  0.1558
  653SOL     OW 2336   1.353   0.392   4.225 -0.3059 -0.5323 -0.0405
  653SOL    HW1 2337   1.297   0.318   4.200 -0.4180 -0.7667  0.8643
  653SOL    HW2 2338   1.430   0.351   4.264 -0.4843 -0.1783  0.6995
  654SOL     OW 2339   0.214   5.154   0.369 -0.1926  0.1117  0.5194
  654SOL    HW1 2340   0.146   5.147   0.436 -1.1414 -0.4989 -0.4685
  654SOL    HW2 2341   0.253   5.067   0.365  0.3358  0.3317  0.7424
  655SOL     OW 2342   1.909   4.760   3.085 -0.3840  0.1595  0.3810
  655SOL    HW1 2343   1.944   4.725   3.003  0.2063  1.2415  0.1542
  655SOL    HW2 2344   1.929   4.693   3.150  1.2040  0.2757  0.0562
  656SOL     OW 2345   5.130   6.435   3.628  0.5585  0.2626  0.5186
  656SOL    HW1 2346   5.126   6.491   3.551 -2.1608  0.7073  0.8936
  656SOL    HW2 2347   5.162   6.351   3.595  0.0081  0.6123 -0.9715
  657SOL     OW 2348   4.287   0.412   0.336  0.6029  0.3990  0.5180
  657SOL    HW1 2349   4.312   0.455   0.418  2.8193 -1.0876  0.6971
  657SOL    HW2 2350   4.191   0.405   0.340  0.7237 -0.6517  3.5041
  658SOL     OW 2351   4.898   4.255   0.177 -0.2418  0.7747 -0.1509
  658SOL    HW1 2352   4.943   4.282   0.258  0.2974  0.5217 -0.3585
  658SOL    HW2 2353   4.818   4.307   0.176 -1.6250 -1.1735  1.9174
  659SOL     OW 2354   4.304   1.408   3.274 -0.4541 -0.4153 -0.2903
  659SOL    HW1 2355   4.337   1.334   3.326 -0.4466 -0.2202 -0.0205
  659SOL    HW2 2356   4.247   1.456   3.333  0.8522  0.7634  0.0645
  660SOL     OW 2357   2.001   5.568   1.645  0.2242  0.5667  0.1211
  660SOL    HW1 2358   1.907   5.576   1.626  0.5094  1.1812 -1.0874
  660SOL    HW2 2359   2.008   5.591   1.738 -0.9558 -0.5791  0.5305
  661SOL     OW 2360   5.706   1.195   5.625  0.3057  0.3689  0.0252
  661SOL    HW1 2361   5.656   1.119   5.654  0.3831  1.0770  2.1394
  661SOL    HW2 2362   5.773   1.158   5.567  0.1019 -1.1323  0.6823
  662SOL     OW 2363   0.611   4.466   2.426 -0.6447  0.1586 -0.5076
  662SOL    HW1 2364   0.679   4.411   2.464 -0.6478  0.4530 -0.0600
  662SOL    HW2 2365   0.656   4.547   2.401 -0.9759  0.7245  0.6418
  663SOL     OW 2366   1.246   3.276   1.594  0.2835  0.1044 -0.1630
  663SOL    HW1 2367   1.268   3.190   1.557  0.3011  0.2229 -0.4294
  663SOL    HW2 2368   1.158   3.265   1.629  0.5801 -0.2402  0.4944
  664SOL     OW 2369   3.446   3.241   0.506  0.6118 -0.0621  0.0681
  664SOL    HW1 2370   3.458   3.326   0.548  1.7617 -0.6532  1.0082
  664SOL    HW2 2371   3.535   3.214   0.483  0.2567 -1.0154 -0.2009
  665SOL     OW 2372   6.590   1.570   3.367  0.0834  0.1837 -0.1405
  665SOL    HW1 2373   6.590   1.515   3.289  1.6785  0.6988 -0.5387
  665SOL    HW2 2374   6.679   1.563   3.402 -0.3236  0.7446  1.0879
  666SOL     OW 2375   3.129   0.303   6.446  0.0449  0.3075  0.2109
  666SOL    HW1 2376   3.110   0.386   6.490 -3.4219 -1.1121  1.8025
  666SOL    HW2 2377   3.124   0.237   6.515  2.6549 -1.3457 -1.0094
  667SOL     OW 2378   2.486   4.950   0.188  0.3432 -0.0604 -0.6470
  667SOL    HW1 2379   2.495   4.884   0.257  0.2720 -0.4074 -0.9620
  667SOL    HW2 2380   2.576   4.968   0.160  0.2824 -1.5081 -1.9225
  668SOL     OW 2381   4.872   0.092   5.039 -0.2963  0.4948 -0.4660
  668SOL    HW1 2382   4.952   0.042   5.023 -0.1838  0.0151  1.3857
  668SOL    HW2 2383   4.843   0.063   5.125 -1.5561  1.8962 -0.3869
  669SOL     OW 2384   4.050   4.879   3.678  0.0129 -0.2779 -0.3071
  669SOL    HW1 2385   4.021   4.814   3.613  0.4543 -0.4835 -0.2997
  669SOL    HW2 2386   4.010   4.849   3.760  0.1684 -0.5124 -0.3144
  670SOL     OW 2387   2.857   3.880   5.806  0.1763 -0.4283 -0.2089
  670SOL    HW1 2388   2.787   3.918   5.859  0.6286 -0.2946  0.2992
  670SOL    HW2 2389   2.865   3.790   5.838  1.2122 -0.0202  0.7538
  671SOL     OW 2390   2.508   4.643   2.968 -0.2759  1.0538 -0.0927
  671SOL    HW1 2391   2.541   4.577   2.907 -1.4114  0.2263  0.1425
  671SOL    HW2 2392   2.565   4.636   3.045 -0.1619  0.6029 -0.2177
  672SOL     OW 2393   5.443   0.005   1.088  0.4955 -0.0613  0.0255
  672SOL    HW1 2394   5.511  -0.063   1.091  1.2236  0.5184 -1.9525
  672SOL    HW2 2395   5.417   0.016   1.180  1.9833 -1.3686  0.6609
  673SOL     OW 2396   0.460   3.438   0.156  0.3002  0.6189  0.8819
  673SOL    HW1 2397   0.509   3.356   0.152  1.8624  1.5508 -1.1575
  673SOL    HW2 2398   0.469   3.467   0.247  1.7100 -0.3366  1.0845
  674SOL     OW 2399   1.639   5.353   4.937 -0.4415 -0.3816  0.1959
  674SOL    HW1 2400   1.701   5.286   4.967  0.5027  0.6779  0.7020
  674SOL    HW2 2401   1.589   5.376   5.015  0.0355  0.3165  0.3037
  675SOL     OW 2402   1.660   0.091   6.215  0.1119  0.3284 -0.0057
  675SOL    HW1 2403   1.747   0.131   6.225  0.2731 -0.3795  1.9998
  675SOL    HW2 2404   1.661   0.018   6.278 -1.1189 -1.1520 -1.6284
  676SOL     OW 2405   3.981   1.406   4.843 -0.1373 -0.4793  0.3970
  676SOL    HW1 2406   4.011   1.327   4.888  0.1882 -0.0749  0.8836
  676SOL    HW2 2407   3.905   1.376   4.792  1.3124 -1.6446 -1.2495
  677SOL     OW 2408   2.469   3.807   6.386 -0.0721 -0.3983  0.1553
  677SOL    HW1 2409   2.561   3.831   6.397 -0.2991  0.1010  1.0282
  677SOL    HW2 2410   2.457   3.800   6.291  1.1106 -1.4676  0.0727
  678SOL     OW 2411   5.715   6.749   6.317 -0.4349  0.6292  0.3512
  678SOL    HW1 2412   5.675   6.773   6.402 -0.8210  3.2477 -0.4577
  678SOL    HW2 2413   5.809   6.758   6.332 -0.4643  0.4027  0.6896
  679SOL     OW 2414   1.370   2.748   3.845  0.0165 -0.8915 -0.1111
  679SOL    HW1 2415   1.354   2.767   3.937  0.4680  1.2202 -0.4193
  679SOL    HW2 2416   1.291   2.701   3.816 -0.6554 -0.5226  1.0539
  680SOL     OW 2417   3.339   5.258   3.017  0.4582 -0.0566  0.3335
  680SOL    HW1 2418   3.359   5.345   2.983  1.6158 -0.1666  0.6850
  680SOL    HW2 2419   3.341   5.201   2.940  1.5553 -0.0605  0.3540
  681SOL     OW 2420   1.895   2.105   5.350 -0.9118 -0.1044  0.8705
  681SOL    HW1 2421   1.832   2.034   5.339 -1.4106  0.2593  1.3073
  681SOL    HW2 2422   1.947   2.079   5.426 -0.0873 -0.7227  0.1046
  682SOL     OW 2423   2.039   1.872   1.664 -0.4823  0.6833  0.2143
  682SOL    HW1 2424   2.042   1.852   1.758 -0.1123  1.2806  0.3366
  682SOL    HW2 2425   2.091   1.803   1.623 -1.2241  0.0152  0.3666
  683SOL     OW 2426   1.668   2.257   0.954 -0.7803  0.4047  0.5065
  683SOL    HW1 2427   1.586   2.217   0.982 -1.4822  1.3492 -0.1338
  683SOL    HW2 2428   1.658   2.350   0.975  1.1960  0.1741  2.8588
  684SOL     OW 2429   1.399   1.907   4.117 -0.3157  0.5547  1.2182
  684SOL    HW1 2430   1.463   1.885   4.185 -0.6758  1.3718  1.8375
  684SOL    HW2 2431   1.395   2.002   4.117 -1.1041  0.5341  0.7821
  685SOL     OW 2432   0.289   0.013   2.612 -0.1891 -0.3533 -0.0115
  685SOL    HW1 2433   0.212   0.064   2.588  0.3290  0.4567 -0.0136
  685SOL    HW2 2434   0.312  -0.035   2.533 -0.6629 -0.5617 -0.0223
  686SOL     OW 2435   3.875   3.180   5.767 -0.0035  0.0103 -0.1946
  686SOL    HW1 2436   3.832   3.119   5.826 -1.6333  0.0306 -1.2905
  686SOL    HW2 2437   3.839   3.266   5.791 -1.2716 -0.0739 -1.6607
  687SOL     OW 2438   3.094   1.197   2.772  0.8554 -0.5730  0.4176
  687SOL    HW1 2439   3.098   1.278   2.823 -1.7965  0.7284 -1.1936
  687SOL    HW2 2440   3.155   1.213   2.699  0.7002 -0.2340  0.3602
  688SOL     OW 2441   5.090   1.158   2.674  0.2219  0.0369 -0.6048
  688SOL    HW1 2442   5.063   1.154   2.766  0.3147  1.1321 -0.5095
  688SOL    HW2 2443   5.173   1.111   2.672 -0.1932 -0.7213 -0.2988
  689SOL     OW 2444   2.568   6.565   4.186 -0.5866 -0.1507  0.2892
  689SOL    HW1 2445   2.479   6.576   4.219 -0.1737 -0.7651  1.6789
  689SOL    HW2 2446   2.615   6.521   4.257  0.3353 -1.6371 -1.1704
  690SOL     OW 2447   1.209   2.965   3.171 -0.1636 -0.7200 -0.0618
  690SOL    HW1 2448   1.260   2.944   3.093 -0.8224  1.6190 -1.2069
  690SOL    HW2 2449   1.268   3.019   3.224  0.0796 -1.8139  0.8042
  691SOL     OW 2450   2.622   3.662   1.100  0.5355 -0.3209 -0.2065
  691SOL    HW1 2451   2.605   3.689   1.190  1.1517 -0.4506 -0.0404
  691SOL    HW2 2452   2.716   3.679   1.088  0.2772  0.5418 -1.1200
  692SOL     OW 2453   5.111   5.844   4.077 -0.2664 -0.2225 -0.2172
  692SOL    HW1 2454   5.174   5.810   4.014  0.6675  1.0642 -0.0165
  692SOL    HW2 2455   5.133   5.801   4.160  0.1242 -0.0660 -0.2359
  693SOL     OW 2456   5.360   3.050   4.805 -1.1419  0.1283 -0.1643
  693SOL    HW1 2457   5.319   3.123   4.758  0.4029  1.0676 -0.0878
  693SOL    HW2 2458   5.305   3.037   4.882 -1.1104  1.6015  0.1233
  694SOL     OW 2459   5.785   1.363   5.271 -0.0096  0.4902  0.3639
  694SOL    HW1 2460   5.868   1.362   5.223 -0.3287  0.4361 -0.1909
  694SOL    HW2 2461   5.804   1.415   5.350  0.4902  0.6618  0.1349
  695SOL     OW 2462   1.170   5.361   5.878 -0.3858 -0.1495  0.3836
  695SOL    HW1 2463   1.163   5.288   5.939 -0.3175  0.5958  1.3074
  695SOL    HW2 2464   1.260   5.392   5.887  0.2326 -1.2099 -1.5191
  696SOL     OW 2465   5.215   1.585   4.349  0.0289 -0.0369 -0.4335
  696SOL    HW1 2466   5.282   1.636   4.394  1.7903 -2.6639  0.1474
  696SOL    HW2 2467   5.218   1.617   4.259  1.4200  0.5517 -0.2116
  697SOL     OW 2468   2.434   4.381   3.971 -0.3873  0.1599 -0.1366
  697SOL    HW1 2469   2.470   4.410   4.055 -1.1829  0.2470  0.1835
  697SOL    HW2 2470   2.493   4.419   3.906 -1.9981  3.6225  0.1878
  698SOL     OW 2471   2.031   3.677   6.278  0.1928 -0.0175 -0.2163
  698SOL    HW1 2472   2.001   3.761   6.311  0.9562 -0.5078  1.8699
  698SOL    HW2 2473   2.027   3.686   6.183 -4.7567  0.5315 -0.1992
  699SOL     OW 2474   1.756   6.816   2.494  0.0605 -0.2197  0.5348
  699SOL    HW1 2475   1.667   6.851   2.489 -0.4696 -1.5194  0.5435
  699SOL    HW2 2476   1.779   6.794   2.404  0.5924  0.6141  0.4587
  700SOL     OW 2477   0.070   5.947   1.939 -0.3667 -0.0936  0.2426
  700SOL    HW1 2478  -0.014   5.912   1.909 -0.4105  0.4865 -0.3411
  700SOL    HW2 2479   0.079   6.031   1.893  0.3082  0.0750  0.6658
  701SOL     OW 2480   4.937   0.776   2.001 -0.2346 -0.2567 -0.2407
  701SOL    HW1 2481   4.879   0.853   2.005  0.6190  0.4481 -0.9521
  701SOL    HW2 2482   4.883   0.704   2.034 -1.1052  0.6142  0.3056
  702SOL     OW 2483   5.755   6.096   5.603  0.1965 -0.0274 -0.2835
  702SOL    HW1 2484   5.667   6.067   5.627  1.3358 -3.0791  0.7063
  702SOL    HW2 2485   5.746   6.127   5.513 -2.0581  0.9250  0.1795
  703SOL     OW 2486   2.787   1.087   4.119 -0.0044  0.4066  0.0558
  703SOL    HW1 2487   2.857   1.046   4.169  0.1805 -0.2926 -0.7590
  703SOL    HW2 2488   2.831   1.147   4.059 -0.1403  0.3074 -0.1433
  704SOL     OW 2489   6.197   4.119   4.024 -0.4580 -0.5829 -0.4314
  704SOL    HW1 2490   6.248   4.095   3.946 -1.8763 -0.6922 -1.3577
  704SOL    HW2 2491   6.219   4.210   4.041 -3.2242  0.8756 -3.5749
  705SOL     OW 2492   5.640   4.606   1.844 -0.4256 -1.0870  0.3227
  705SOL    HW1 2493   5.601   4.693   1.842  2.0358  0.0759  0.2757
  705SOL    HW2 2494   5.603   4.561   1.767 -1.2944  0.0854  0.0353
  706SOL     OW 2495   2.589   6.184   0.967  0.1974 -0.4161 -0.0353
  706SOL    HW1 2496   2.512   6.236   0.989  0.1419 -0.9821  1.1378
  706SOL    HW2 2497   2.569   6.147   0.881 -0.7976 -0.4851  0.2171
  707SOL     OW 2498   3.440   3.511   0.552 -0.0304  0.6858  0.1820
  707SOL    HW1 2499   3.386   3.535   0.627  0.2102  0.3052  0.4792
  707SOL    HW2 2500   3.501   3.585   0.543 -0.8172  1.2796 -0.3735
  708SOL     OW 2501   4.703   2.881   5.071  0.2301 -0.1031 -0.6242
  708SOL    HW1 2502   4.704   2.786   5.064  2.1165 -0.0911 -1.0243
  708SOL    HW2 2503   4.663   2.898   5.157  1.0458 -1.3266  0.0337
  709SOL     OW 2504   1.213   1.302   0.458  0.0714  0.4719  0.0776
  709SOL    HW1 2505   1.251   1.350   0.384 -0.2843  0.4940 -0.0924
  709SOL    HW2 2506   1.141   1.251   0.420  1.4857 -1.5146 -0.0440
  710SOL     OW 2507   2.423   6.616   4.435 -0.0006  0.1010  0.4394
  710SOL    HW1 2508   2.360   6.639   4.367 -0.3148 -1.7356  0.0764
  710SOL    HW2 2509   2.371   6.576   4.504  0.3829  1.5059  1.6112
  711SOL     OW 2510   4.067   4.940   4.465 -0.0665 -0.0596 -0.3634
  711SOL    HW1 2511   4.027   5.026   4.472 -0.0206  0.2944 -3.1820
  711SOL    HW2 2512   4.030   4.890   4.537 -2.7965  1.3049 -0.7124
  712SOL     OW 2513   5.300   6.746   6.394 -0.0481  0.1915  0.6048
  712SOL    HW1 2514   5.366   6.706   6.451  0.3650 -1.7427 -1.0994
  712SOL    HW2 2515   5.267   6.673   6.341  0.3610  1.9776 -2.3567
  713SOL     OW 2516   2.736   6.396   0.200  0.6880 -0.2010 -0.7035
  713SOL    HW1 2517   2.743   6.491   0.204  2.0445 -0.3205  0.6215
  713SOL    HW2 2518   2.642   6.378   0.195  0.4563  1.2125 -2.0099
  714SOL     OW 2519   5.784   0.613   5.399  0.1480 -0.1639 -0.4043
  714SOL    HW1 2520   5.782   0.671   5.323 -0.3693 -0.4675 -0.6279
  714SOL    HW2 2521   5.788   0.673   5.474  0.2714  0.1448 -0.6526
  715SOL     OW 2522   6.467   3.422   2.007  0.2038  0.2566  0.3500
  715SOL    HW1 2523   6.455   3.399   1.914  1.0270 -1.2512  0.5794
  715SOL    HW2 2524   6.489   3.339   2.049 -0.6870  0.8184  2.0098
  716SOL     OW 2525   4.022   3.535   6.623  0.2166 -0.3785  1.1900
  716SOL    HW1 2526   4.051   3.581   6.702  0.6572 -1.4380  1.6696
  716SOL    HW2 2527   3.940   3.492   6.650 -0.0503 -0.1060  0.8248
  717SOL     OW 2528   1.776   2.323   2.369  0.5148 -0.1539 -0.0571
  717SOL    HW1 2529   1.832   2.382   2.318 -0.4878 -0.1463 -1.2090
  717SOL    HW2 2530   1.696   2.373   2.383  0.2908 -0.6421  0.4177
  718SOL     OW 2531   3.628   5.209   0.892 -0.0014 -0.0004  0.2388
  718SOL    HW1 2532   3.637   5.115   0.879  0.8629 -0.3407  2.7010
  718SOL    HW2 2533   3.593   5.217   0.981 -0.2763  2.0084 -0.0115
  719SOL     OW 2534   0.422   3.076   6.299  0.1895  0.5474  0.2886
  719SOL    HW1 2535   0.492   3.045   6.357  0.8930  0.8917 -0.3463
  719SOL    HW2 2536   0.353   3.107   6.357  0.7026  0.5025  0.9299
  720SOL     OW 2537   1.279   2.184   4.214  0.5215 -0.5826 -0.0611
  720SOL    HW1 2538   1.373   2.181   4.196  0.5193 -0.9108 -0.0248
  720SOL    HW2 2539   1.270   2.250   4.284  0.8913 -1.5679  0.9418
  721SOL     OW 2540   2.238   2.224   0.774 -0.0885  0.1051 -0.0355
  721SOL    HW1 2541   2.322   2.226   0.819 -1.2098 -1.1712  2.3244
  721SOL    HW2 2542   2.245   2.149   0.714  0.6812  0.4521 -0.3924
  722SOL     OW 2543   2.241   3.763   6.516  0.2110  0.0194 -0.0727
  722SOL    HW1 2544   2.317   3.783   6.462  0.7702  1.3696  1.1523
  722SOL    HW2 2545   2.188   3.704   6.462  2.6452 -1.9231 -0.5226
  723SOL     OW 2546   1.088   2.406   2.691 -0.9452 -0.1125  0.4787
  723SOL    HW1 2547   1.094   2.498   2.665  1.1286  0.8725  3.8049
  723SOL    HW2 2548   1.000   2.398   2.729 -1.3507  0.3167 -0.3336
  724SOL     OW 2549   1.236   1.177   3.095  0.3608 -0.0587  0.2426
  724SOL    HW1 2550   1.238   1.271   3.080 -0.5107 -0.2563 -1.2612
  724SOL    HW2 2551   1.285   1.165   3.177  0.4644  1.6837  0.4709
  725SOL     OW 2552   2.385   1.344   5.707  0.7252 -0.3951 -0.3445
  725SOL    HW1 2553   2.323   1.355   5.779  0.7442 -1.6389 -0.1173
  725SOL    HW2 2554   2.402   1.250   5.704  4.7783  0.1060  1.3761
  726SOL     OW 2555   0.382   4.167   1.438  0.2259 -0.1239  0.2429
  726SOL    HW1 2556   0.392   4.251   1.392  2.7091 -1.5476 -2.0971
  726SOL    HW2 2557   0.289   4.146   1.430  0.4336 -0.4601 -4.8513
  727SOL     OW 2558   6.255   5.146   1.637 -0.1864  0.7230  0.2153
  727SOL    HW1 2559   6.186   5.086   1.610 -0.3575  1.1290 -0.2654
  727SOL    HW2 2560   6.289   5.108   1.718  1.3004 -1.3269 -1.2526
  728SOL     OW 2561   2.643   5.531   4.624  0.2155  0.0060 -0.3488
  728SOL    HW1 2562   2.583   5.539   4.698  1.6384 -0.5354  0.9042
  728SOL    HW2 2563   2.585   5.515   4.549 -1.1484 -3.0092  1.1557
  729SOL     OW 2564   3.577   0.306   6.123 -0.0467  0.2010  0.5667
  729SOL    HW1 2565   3.555   0.399   6.120 -0.1275  0.1498 -0.7307
  729SOL    HW2 2566   3.509   0.263   6.070  1.9509 -0.1843 -1.8458
  730SOL     OW 2567   5.722   4.234   3.983  0.2462  0.4496 -0.1763
  730SOL    HW1 2568   5.647   4.175   3.993  0.7845 -0.1542  0.4294
  730SOL    HW2 2569   5.771   4.199   3.909  1.2861 -0.6989  1.0087
  731SOL     OW 2570   6.116   0.160   4.772 -0.1956 -0.1721 -0.3393
  731SOL    HW1 2571   6.124   0.083   4.828 -1.9991 -0.6010 -0.6147
  731SOL    HW2 2572   6.187   0.218   4.800 -0.2353 -0.9483  1.4498
  732SOL     OW 2573   5.964   4.980   2.065 -0.4045  0.1460 -0.0231
  732SOL    HW1 2574   5.983   4.967   2.158  0.1877  1.4910  0.0607
  732SOL    HW2 2575   5.868   4.980   2.061 -0.4351  0.0153  0.5772
  733SOL     OW 2576   6.538   4.575   2.407  0.1284  0.8125 -0.1705
  733SOL    HW1 2577   6.493   4.533   2.480 -0.6588  0.4051 -0.8763
  733SOL    HW2 2578   6.494   4.659   2.396  0.0171  0.7237 -0.4045
  734SOL     OW 2579   1.371   4.675   4.756 -0.1249 -0.2583 -0.3702
  734SOL    HW1 2580   1.339   4.659   4.668  1.5214  0.4354 -1.1444
  734SOL    HW2 2581   1.355   4.769   4.770  0.6844 -0.1111 -0.4066
  735SOL     OW 2582   4.584   4.058   1.916  0.0303 -0.2119  0.5247
  735SOL    HW1 2583   4.676   4.035   1.925 -0.2223 -1.0328  1.0972
  735SOL    HW2 2584   4.555   4.013   1.836 -0.6635 -2.6722  2.0587
  736SOL     OW 2585   6.147   0.096   0.319  0.0404 -0.1167 -0.6946
  736SOL    HW1 2586   6.202   0.019   0.305 -0.6422 -0.4704 -1.5843
  736SOL    HW2 2587   6.206   0.163   0.352  0.2529 -1.6952  2.4789
  737SOL     OW 2588   2.005   1.772   0.300  0.3622  0.0194  0.6034
  737SOL    HW1 2589   1.975   1.759   0.210 -0.0806  0.3214  0.7064
  737SOL    HW2 2590   1.925   1.768   0.353  0.6248 -0.1943  0.9888
  738SOL     OW 2591   5.729   0.573   2.061  0.1040  0.1514 -0.7319
  738SOL    HW1 2592   5.769   0.576   2.148  0.0770 -0.5012 -0.6945
  738SOL    HW2 2593   5.646   0.620   2.072  1.4709  2.8861 -1.1702
  739SOL     OW 2594   5.677   4.162   0.291 -0.0196 -0.0232 -0.4327
  739SOL    HW1 2595   5.636   4.093   0.342  0.4876  0.0543  0.0902
  739SOL    HW2 2596   5.615   4.236   0.297 -0.7501 -0.5334 -1.3188
  740SOL     OW 2597   4.441   0.875   4.726 -0.1040  0.5413  0.3978
  740SOL    HW1 2598   4.505   0.919   4.670  0.4697 -0.6540  0.0849
  740SOL    HW2 2599   4.475   0.786   4.736 -1.1063  0.2295  1.2179
  741SOL     OW 2600   4.850   4.475   5.091  0.2938  0.1270 -0.4725
  741SOL    HW1 2601   4.820   4.559   5.124 -0.5003  0.2504 -1.4293
  741SOL    HW2 2602   4.878   4.494   5.001 -1.9389 -0.9705 -1.4823
  742SOL     OW 2603   6.148   4.825   1.607 -0.7634 -0.4443  0.2537
  742SOL    HW1 2604   6.087   4.886   1.565  0.8855  0.6346 -0.6644
  742SOL    HW2 2605   6.131   4.835   1.701 -1.0933  0.8468  0.0804
  743SOL     OW 2606   2.163   3.384   5.991  0.1185 -0.4413 -0.0374
  743SOL    HW1 2607   2.150   3.305   5.937 -0.4065 -1.3058  1.2828
  743SOL    HW2 2608   2.168   3.350   6.080  0.7394  0.9724  0.4789
  744SOL     OW 2609   5.999   3.743   6.333  0.0911 -0.1701 -0.3904
  744SOL    HW1 2610   5.985   3.813   6.269  1.9244  1.3279  0.7450
  744SOL    HW2 2611   6.082   3.765   6.376 -1.0957 -0.9813  2.6261
  745SOL     OW 2612   3.880   0.478   4.376  0.3272  0.2165  0.1186
  745SOL    HW1 2613   3.813   0.500   4.441 -1.3807 -1.8344 -0.8113
  745SOL    HW2 2614   3.923   0.400   4.412 -0.1844 -0.5368 -0.8432
  746SOL     OW 2615   6.535   4.997   6.388 -0.1950 -0.1503  0.6507
  746SOL    HW1 2616   6.473   5.044   6.332  0.9024  0.5509  0.0015
  746SOL    HW2 2617   6.519   4.905   6.369 -0.8236  0.0269  0.2746
  747SOL     OW 2618   5.056   1.664   4.927 -0.5325  0.1427 -0.3940
  747SOL    HW1 2619   5.088   1.575   4.910 -2.1024 -0.6691  0.7103
  747SOL    HW2 2620   4.971   1.668   4.883 -0.7656  0.8779  0.1092
  748SOL     OW 2621   4.215   1.606   5.413  0.0753  0.3350  0.3286
  748SOL    HW1 2622   4.131   1.638   5.380 -0.9873 -2.1541  0.4208
  748SOL    HW2 2623   4.270   1.600   5.335 -0.2571  0.7263  0.0571
  749SOL     OW 2624   6.026   1.060   2.969 -0.1706  0.3434 -0.5677
  749SOL    HW1 2625   5.955   1.109   2.927 -0.7119  0.0216 -0.0584
  749SOL    HW2 2626   6.070   1.124   3.024 -0.3533  0.4491 -0.5434
  750SOL     OW 2627   1.246   6.004   2.496  0.6400  0.1312 -0.5813
  750SOL    HW1 2628   1.271   6.035   2.409  1.7642  3.1022  0.6642
  750SOL    HW2 2629   1.322   6.023   2.551 -1.1875  1.4722  1.6758
  751SOL     OW 2630   3.382   3.673   4.749 -0.2503  0.3754 -0.0248
  751SOL    HW1 2631   3.380   3.635   4.662  0.9083 -1.5973  0.7566
  751SOL    HW2 2632   3.290   3.673   4.778 -0.8816  2.4707 -1.7377
  752SOL     OW 2633   0.561   1.642   4.879 -0.4677  0.5986 -0.2917
  752SOL    HW1 2634   0.652   1.619   4.861 -0.5035  0.3811 -0.1866
  752SOL    HW2 2635   0.538   1.592   4.957 -0.7057  0.5837 -0.3711
  753SOL     OW 2636   0.382   6.642   2.226  0.0515  0.0966 -0.1326
  753SOL    HW1 2637   0.342   6.636   2.313  0.7228 -0.4400  0.1452
  753SOL    HW2 2638   0.412   6.553   2.207  1.8799  0.6569  0.0310
  754SOL     OW 2639   0.113   2.193   6.369  0.1734 -0.3123  0.4002
  754SOL    HW1 2640   0.085   2.236   6.288  1.8018  0.4438  0.1961
  754SOL    HW2 2641   0.062   2.235   6.438 -0.2196  0.0164 -0.0799
  755SOL     OW 2642   2.054   3.938   3.230 -0.0839  0.4055  0.1897
  755SOL    HW1 2643   2.147   3.922   3.216 -0.0846  0.5350  0.0364
  755SOL    HW2 2644   2.051   4.003   3.301  0.0077  1.8612 -1.0795
  756SOL     OW 2645   0.355   2.666   1.605  0.2582  0.0598 -0.3626
  756SOL    HW1 2646   0.364   2.570   1.603 -2.0296 -0.3060  1.5754
  756SOL    HW2 2647   0.275   2.681   1.656  0.7622  3.0381 -0.2777
  757SOL     OW 2648   0.262   4.573   1.701  0.3845 -0.1393 -0.4008
  757SOL    HW1 2649   0.292   4.619   1.780  0.0899  0.0441 -0.3935
  757SOL    HW2 2650   0.287   4.481   1.716 -1.0265 -0.3977  0.6116
  758SOL     OW 2651   0.844   1.640   3.719 -0.0043 -0.1335 -0.2491
  758SOL    HW1 2652   0.847   1.735   3.729  1.1052 -0.1738 -0.0399
  758SOL    HW2 2653   0.932   1.617   3.691 -0.3096 -1.0928 -0.4463
  759SOL     OW 2654   0.734   3.247   4.883 -0.2864  0.2877  0.0380
  759SOL    HW1 2655   0.698   3.335   4.875 -0.9341  0.1795  1.4906
  759SOL    HW2 2656   0.820   3.259   4.923 -0.8992  0.1994  1.4343
  760SOL     OW 2657   3.533   6.016   5.888  0.4520 -0.1877 -0.0430
  760SOL    HW1 2658   3.560   6.048   5.974 -1.3618  0.1971  0.4170
  760SOL    HW2 2659   3.612   5.974   5.852  1.4410  0.2948  1.4765
  761SOL     OW 2660   6.107   2.874   5.176 -0.1486  0.7015 -0.2494
  761SOL    HW1 2661   6.097   2.873   5.081 -0.1115  0.2653 -0.2505
  761SOL    HW2 2662   6.190   2.918   5.191  0.1735  0.1700 -0.4505
  762SOL     OW 2663   0.392   4.570   2.876  0.1937 -0.7415 -0.3230
  762SOL    HW1 2664   0.475   4.524   2.888 -0.6713 -2.1151  0.7130
  762SOL    HW2 2665   0.334   4.532   2.943 -1.1911  0.3610 -0.8553
  763SOL     OW 2666   4.139   0.951   1.963  0.1521 -0.0782 -0.0990
  763SOL    HW1 2667   4.085   0.922   2.037 -1.0470  1.5066 -0.3029
  763SOL    HW2 2668   4.227   0.919   1.983 -0.4977 -1.1257  1.1697
  764SOL     OW 2669   2.891   1.438   3.446  0.1894 -0.4922  0.0426
  764SOL    HW1 2670   2.870   1.522   3.487  1.0202  0.3430 -1.1709
  764SOL    HW2 2671   2.945   1.393   3.511 -0.6449 -0.2910  0.8964
  765SOL     OW 2672   2.795   5.365   2.751  0.2519  0.8206  0.3255
  765SOL    HW1 2673   2.709   5.341   2.785 -1.0275  0.5699 -2.7285
  765SOL    HW2 2674   2.831   5.425   2.816 -2.0644  0.6216  1.8939
  766SOL     OW 2675   3.656   0.352   5.831  0.5288  0.2351  0.2889
  766SOL    HW1 2676   3.683   0.405   5.907  0.4769  1.2913 -0.4050
  766SOL    HW2 2677   3.581   0.302   5.863 -1.5702  3.0314  0.1231
  767SOL     OW 2678   2.441   1.889   6.528 -0.1529 -0.4250 -0.1297
  767SOL    HW1 2679   2.528   1.851   6.522 -0.5548 -1.8462  1.8150
  767SOL    HW2 2680   2.384   1.814   6.549 -1.9089  0.4119 -1.5378
  768SOL     OW 2681   5.004   0.534   4.237 -0.3500  0.0573  0.3977
  768SOL    HW1 2682   5.059   0.612   4.243 -0.7622  0.2668  2.0607
  768SOL    HW2 2683   4.927   0.561   4.187  0.2400  0.2520 -0.4170
  769SOL     OW 2684   6.339   4.633   1.606 -0.3211 -0.6638 -0.2628
  769SOL    HW1 2685   6.253   4.672   1.618  0.2198  0.1291  1.3198
  769SOL    HW2 2686   6.388   4.658   1.684  0.7832 -2.6162 -0.2606
  770SOL     OW 2687   1.574   2.970   6.423 -0.1679  0.1643 -0.1291
  770SOL    HW1 2688   1.497   2.963   6.479 -1.1610  0.9771 -1.3446
  770SOL    HW2 2689   1.546   3.025   6.350  1.4507  0.1436 -0.8078
  771SOL     OW 2690   2.308   4.571   4.152 -0.0318 -0.0081 -0.3810
  771SOL    HW1 2691   2.305   4.502   4.086  0.9642 -1.0819  0.6326
  771SOL    HW2 2692   2.225   4.563   4.199 -0.3070  0.0950 -0.8446
  772SOL     OW 2693   4.091   1.617   2.931 -0.3172  0.1038 -0.2804
  772SOL    HW1 2694   4.061   1.661   3.011 -0.6235  2.3974 -1.5827
  772SOL    HW2 2695   4.157   1.675   2.895 -1.8185  0.3492 -2.8834
  773SOL     OW 2696   1.916   3.844   3.665  0.1630  0.0571  0.0523
  773SOL    HW1 2697   1.927   3.814   3.574 -1.0214  1.0105 -0.4390
  773SOL    HW2 2698   1.828   3.883   3.666 -0.7351 -1.8266  2.1542
  774SOL     OW 2699   2.526   1.987   2.775  0.5899 -0.0744  0.2393
  774SOL    HW1 2700   2.587   1.988   2.701 -0.1160 -2.0220 -0.4296
  774SOL    HW2 2701   2.522   1.895   2.801 -0.7132  0.2836  1.4013
  775SOL     OW 2702   6.662   1.455   1.945 -0.0629 -0.3747 -0.5598
  775SOL    HW1 2703   6.670   1.405   1.863 -1.1306  1.8921 -2.1460
  775SOL    HW2 2704   6.580   1.504   1.934  1.5686  2.7713  0.2540
  776SOL     OW 2705   2.926   5.237   0.678 -0.1124 -0.6303 -0.1367
  776SOL    HW1 2706   2.858   5.302   0.696 -0.8029 -1.7200  1.3597
  776SOL    HW2 2707   2.971   5.225   0.762  1.1133 -0.8689 -0.8017
  777SOL     OW 2708   0.469   2.287   4.221 -0.1978 -0.0445  0.0423
  777SOL    HW1 2709   0.441   2.244   4.301 -1.2215 -2.6798 -1.5935
  777SOL    HW2 2710   0.522   2.221   4.175 -0.0506  1.1859 -1.6706
  778SOL     OW 2711   0.729   2.593   0.108 -0.6487  0.1384  0.2059
  778SOL    HW1 2712   0.643   2.554   0.091 -0.5974 -0.1765  0.6303
  778SOL    HW2 2713   0.730   2.608   0.203  0.2099 -0.9825  0.4012
  779SOL     OW 2714   3.667   3.141   6.636 -0.1007  0.6148  0.2869
  779SOL    HW1 2715   3.621   3.070   6.681  0.8306 -1.2788 -1.5649
  779SOL    HW2 2716   3.608   3.164   6.564 -0.5439  2.0052  1.0628
  780SOL     OW 2717   1.950   0.016   5.532 -0.0141  0.2381 -0.3867
  780SOL    HW1 2718   2.045   0.016   5.543  0.0539  1.6342 -0.7968
  780SOL    HW2 2719   1.935   0.055   5.446 -0.9553 -0.0919 -0.3835
  781SOL     OW 2720   4.558   5.724   0.227  0.7329  0.3036 -0.6406
  781SOL    HW1 2721   4.583   5.792   0.164 -0.7638  0.8546 -0.6872
  781SOL    HW2 2722   4.470   5.698   0.200  0.6406 -0.4917  0.3675
  782SOL     OW 2723   2.626   5.325   4.183 -0.5007  0.2867  0.1910
  782SOL    HW1 2724   2.563   5.283   4.124 -0.5216  0.6400 -0.0399
  782SOL    HW2 2725   2.636   5.263   4.255  0.0565 -0.4796 -0.5208
  783SOL     OW 2726   2.019   1.286   5.227 -0.1777  0.0599 -0.0311
  783SOL    HW1 2727   1.991   1.276   5.136 -0.7360 -0.4066  0.1890
  783SOL    HW2 2728   2.056   1.374   5.231  0.4259 -0.1439 -0.8563
  784SOL     OW 2729   4.594   4.038   0.341  0.0172 -0.6035 -0.2529
  784SOL    HW1 2730   4.590   4.133   0.349  0.2038 -0.5666 -0.5690
  784SOL    HW2 2731   4.507   4.012   0.312 -0.1529 -0.5717  0.2126
  785SOL     OW 2732   1.134   3.147   0.337  1.1601 -0.0643  0.7605
  785SOL    HW1 2733   1.040   3.159   0.325  1.3227 -0.1454 -0.7998
  785SOL    HW2 2734   1.149   3.055   0.317  1.4275 -0.3718  2.2137
  786SOL     OW 2735   0.250   2.000   5.217 -0.1669  0.2853 -0.2572
  786SOL    HW1 2736   0.160   1.969   5.211  0.4412 -1.4387 -1.0312
  786SOL    HW2 2737   0.260   2.060   5.143 -0.3214 -0.5015 -0.9183
  787SOL     OW 2738   4.791   3.286   0.129  0.1094 -0.0929  0.0716
  787SOL    HW1 2739   4.757   3.278   0.219  1.5413  1.1103  0.7646
  787SOL    HW2 2740   4.742   3.358   0.091  2.6838  2.6849  1.5822
  788SOL     OW 2741   5.321   5.309   4.110 -0.0587 -0.0144  0.3158
  788SOL    HW1 2742   5.334   5.342   4.021  0.2482 -1.6888 -0.2787
  788SOL    HW2 2743   5.368   5.226   4.113  1.8558  1.0196  2.7347
  789SOL     OW 2744   6.619   6.713   4.019  0.0722 -0.0562 -0.1505
  789SOL    HW1 2745   6.636   6.722   3.925 -1.1233  1.2962 -0.2739
  789SOL    HW2 2746   6.695   6.666   4.053  0.4693 -0.6694 -1.8112
  790SOL     OW 2747   6.006   0.321   6.585 -0.2098  0.5449  0.0454
  790SOL    HW1 2748   5.954   0.271   6.648 -0.2862  1.4913  0.7557
  790SOL    HW2 2749   6.095   0.318   6.621 -0.2111  0.8867  0.0806
  791SOL     OW 2750   3.017   1.027   0.370  0.3287  0.0729 -0.5448
  791SOL    HW1 2751   3.078   0.954   0.357  1.7353  0.8420  1.2218
  791SOL    HW2 2752   3.043   1.092   0.305  1.9819  0.6989  0.6665
  792SOL     OW 2753   6.465   6.604   6.187 -0.2819  0.1151  0.1861
  792SOL    HW1 2754   6.389   6.635   6.236 -2.0704 -1.6804 -1.2825
  792SOL    HW2 2755   6.429   6.567   6.106  2.1773 -0.6302 -0.6809
  793SOL     OW 2756   5.959   6.263   0.060 -0.2350 -0.0307 -0.9771
  793SOL    HW1 2757   5.865   6.259   0.078 -0.5211  0.8619 -2.1642
  793SOL    HW2 2758   5.968   6.329  -0.008  1.3121  0.2432 -0.5590
  794SOL     OW 2759   6.795   5.012   1.775  1.1494 -0.2840 -0.1708
  794SOL    HW1 2760   6.871   5.021   1.718  0.4300  1.1459 -0.9634
  794SOL    HW2 2761   6.733   4.959   1.725  0.5058  0.9969 -0.7794
  795SOL     OW 2762   0.753   3.179   5.285  0.3336  0.4196  0.6369
  795SOL    HW1 2763   0.743   3.096   5.332  0.6453 -0.5818 -0.9983
  795SOL    HW2 2764   0.664   3.203   5.259  0.4654 -0.6723 -0.9381
  796SOL     OW 2765   2.777   1.047   4.764  0.3928 -0.4836  0.6118
  796SOL    HW1 2766   2.857   1.067   4.813  1.0050 -0.2332 -0.4561
  796SOL    HW2 2767   2.707   1.087   4.815  0.7708 -1.7856  2.2455
  797SOL     OW 2768   2.158   3.323   5.493 -0.1593 -0.6825  0.2654
  797SOL    HW1 2769   2.065   3.316   5.472 -0.2971  0.9376  0.1952
  797SOL    HW2 2770   2.202   3.324   5.409 -0.2534  0.3739  0.2135
  798SOL     OW 2771   3.589   3.303   3.912  0.6588  0.0193 -0.5919
  798SOL    HW1 2772   3.505   3.338   3.881  0.2245  0.6721  1.2123
  798SOL    HW2 2773   3.575   3.209   3.918 -0.5128  0.2687  1.2168
  799SOL     OW 2774   1.910   4.593   3.321  0.2960  0.0029 -0.1245
  799SOL    HW1 2775   1.846   4.594   3.392  0.8919 -1.2173  0.4545
  799SOL    HW2 2776   1.879   4.523   3.263  1.1698 -0.7063  0.2430
  800SOL     OW 2777   6.644   5.735   5.327 -0.4449  0.2395 -0.3025
  800SOL    HW1 2778   6.694   5.694   5.398 -1.4372 -0.7828 -0.1646
  800SOL    HW2 2779   6.701   5.727   5.250 -0.3322 -0.8216 -0.1263
  801SOL     OW 2780   4.519   6.472   2.217  0.1213 -0.6237 -0.1220
  801SOL    HW1 2781   4.458   6.399   2.211 -0.0324 -0.4473 -0.7718
  801SOL    HW2 2782   4.606   6.432   2.207  0.0959 -0.8199  0.3881
  802SOL     OW 2783   6.244   5.120   4.800  0.4592  0.2861  0.0549
  802SOL    HW1 2784   6.250   5.055   4.730  0.5581  0.8477 -0.4700
  802SOL    HW2 2785   6.237   5.204   4.754  0.4941  0.6588  0.7190
  803SOL     OW 2786   0.866   0.872   1.363  0.4437 -0.1051  0.6868
  803SOL    HW1 2787   0.919   0.950   1.377 -1.9281  1.6131  0.7092
  803SOL    HW2 2788   0.848   0.839   1.451  1.6314 -0.8276  0.6673
  804SOL     OW 2789   5.766   1.825   5.703  0.6747 -0.4068 -0.1958
  804SOL    HW1 2790   5.693   1.833   5.642 -0.8390  0.5388  1.6388
  804SOL    HW2 2791   5.762   1.734   5.733  0.6994 -0.5524 -0.6280
  805SOL     OW 2792   4.805   1.299   5.629 -0.6258  0.3255  0.0930
  805SOL    HW1 2793   4.857   1.335   5.700  0.1591 -0.2014 -0.1969
  805SOL    HW2 2794   4.761   1.223   5.667 -0.2440  0.0729  0.0409
  806SOL     OW 2795   0.572   4.298   1.624 -0.2970  0.3406 -0.1380
  806SOL    HW1 2796   0.530   4.273   1.542 -0.7108 -1.4789  0.5619
  806SOL    HW2 2797   0.501   4.331   1.679 -0.3894 -0.3366  0.1629
  807SOL     OW 2798   5.468   1.355   4.156 -0.1694 -0.0183 -0.2486
  807SOL    HW1 2799   5.512   1.425   4.109  0.5697 -0.0526  0.3697
  807SOL    HW2 2800   5.386   1.341   4.109  0.4794  0.0500 -1.4206
  808SOL     OW 2801   6.591   5.761   4.428  0.4819 -0.1055  0.2567
  808SOL    HW1 2802   6.587   5.791   4.338 -1.2207 -0.1346  0.2856
  808SOL    HW2 2803   6.627   5.673   4.423 -0.4374 -0.4511 -0.5049
  809SOL     OW 2804   2.457   1.343   3.102  0.3154 -0.2923  0.1822
  809SOL    HW1 2805   2.550   1.325   3.105  0.5884  0.6733 -1.3785
  809SOL    HW2 2806   2.449   1.434   3.132  0.2486  0.5942 -2.2947
  810SOL     OW 2807   4.810   3.859   2.476  0.0606 -0.0536 -0.1434
  810SOL    HW1 2808   4.812   3.809   2.394 -0.8788  0.2499 -0.3676
  810SOL    HW2 2809   4.864   3.936   2.459  0.6177 -0.4523 -0.1679
  811SOL     OW 2810   4.828   5.647   5.161 -0.0143 -0.1845  0.4308
  811SOL    HW1 2811   4.900   5.698   5.124 -1.4266  1.5138 -0.1441
  811SOL    HW2 2812   4.810   5.581   5.094 -0.4015  0.7963 -0.4828
  812SOL     OW 2813   6.700   4.399   5.956 -0.0307  0.9261  0.2259
  812SOL    HW1 2814   6.700   4.477   5.901  2.0703  1.7689  1.2783
  812SOL    HW2 2815   6.793   4.379   5.968 -0.4839 -0.5299  1.6437
  813SOL     OW 2816   1.164   1.053   0.616  0.0709  0.2012  0.1412
  813SOL    HW1 2817   1.210   0.994   0.556  0.9333  1.1336 -0.1548
  813SOL    HW2 2818   1.174   1.012   0.702  2.1799  0.7381  0.2148
  814SOL     OW 2819   5.727   1.634   2.589  0.2804 -0.0176 -0.0332
  814SOL    HW1 2820   5.785   1.682   2.647  1.4282  0.1388 -1.2535
  814SOL    HW2 2821   5.668   1.586   2.648  4.4647 -3.9144  1.6611
  815SOL     OW 2822   6.259   1.158   4.831 -0.5314 -0.0977  0.1444
  815SOL    HW1 2823   6.301   1.073   4.816  1.9557  1.1689 -0.5888
  815SOL    HW2 2824   6.276   1.207   4.750 -2.0748  1.0702  0.4879
  816SOL     OW 2825   6.576   2.130   5.723 -0.9135  0.7113 -0.4098
  816SOL    HW1 2826   6.604   2.222   5.721 -0.6296  0.6303 -0.1488
  816SOL    HW2 2827   6.481   2.134   5.715 -0.9853  1.0754  0.5138
  817SOL     OW 2828   0.590   4.250   5.329  0.0652 -0.3136  0.3801
  817SOL    HW1 2829   0.609   4.196   5.252  0.4453 -1.3410  1.1847
  817SOL    HW2 2830   0.670   4.249   5.380 -0.1045  0.5798  0.6839
  818SOL     OW 2831   0.935   1.352   1.509 -0.0964  0.3618  0.1042
  818SOL    HW1 2832   0.904   1.414   1.575 -0.0889  0.7233 -0.2293
  818SOL    HW2 2833   1.030   1.366   1.507 -0.1662  0.7983 -0.4269
  819SOL     OW 2834   2.820   2.345   4.731 -0.3906 -0.0165 -0.1537
  819SOL    HW1 2835   2.812   2.261   4.686 -0.2997 -0.3489  0.4408
  819SOL    HW2 2836   2.857   2.323   4.817  0.1796  0.6948 -0.2062
  820SOL     OW 2837   5.487   5.082   4.112 -0.6357  0.4014  0.7803
  820SOL    HW1 2838   5.574   5.109   4.082 -0.9771  0.0498 -0.5998
  820SOL    HW2 2839   5.504   5.029   4.190  0.5797 -1.3475 -0.5977
  821SOL     OW 2840   2.280   2.658   2.407 -0.2590 -0.1157 -0.2912
  821SOL    HW1 2841   2.287   2.749   2.377  2.0445 -0.0522  0.2283
  821SOL    HW2 2842   2.365   2.620   2.387 -1.0601 -2.0837 -0.1711
  822SOL     OW 2843   4.408   3.486   4.320  0.0937 -0.1738 -0.4477
  822SOL    HW1 2844   4.447   3.424   4.381 -0.2402  0.1691  0.1229
  822SOL    HW2 2845   4.352   3.541   4.374  1.2041  1.3325 -0.7520
  823SOL     OW 2846   3.791   3.241   1.827 -0.1501 -0.0547 -0.0199
  823SOL    HW1 2847   3.739   3.285   1.760 -0.4075 -0.0859  0.1540
  823SOL    HW2 2848   3.852   3.307   1.859 -0.2046  0.0347 -0.1035
  824SOL     OW 2849   2.778   6.544   2.583 -0.4829  0.6514  0.3830
  824SOL    HW1 2850   2.749   6.504   2.665 -0.3040 -0.1333  0.0750
  824SOL    HW2 2851   2.783   6.471   2.521 -0.6253  1.2381 -0.3312
  825SOL     OW 2852   4.016   5.465   5.390  0.4449  0.7868  0.4910
  825SOL    HW1 2853   3.961   5.419   5.454 -2.3110  0.5851 -1.8318
  825SOL    HW2 2854   4.046   5.396   5.332 -1.2377  1.4504 -1.2654
  826SOL     OW 2855   2.015   5.018   0.872 -0.2593 -0.3833 -0.0514
  826SOL    HW1 2856   1.954   4.965   0.922 -1.3997 -0.6110 -1.6275
  826SOL    HW2 2857   2.096   4.967   0.871 -0.8006 -1.2640 -0.0390
  827SOL     OW 2858   1.568   1.167   5.501 -0.3393  0.3492 -0.0091
  827SOL    HW1 2859   1.630   1.160   5.428 -2.5622 -1.1585 -1.8657
  827SOL    HW2 2860   1.483   1.182   5.460 -1.4595  0.9904  2.3710
  828SOL     OW 2861   4.701   0.745   1.733  0.8573  0.4131 -0.5984
  828SOL    HW1 2862   4.633   0.800   1.694 -0.9782 -1.2724  0.0567
  828SOL    HW2 2863   4.710   0.778   1.823  1.2239  0.9142 -0.8177
  829SOL     OW 2864   4.291   3.502   2.321  0.6968 -0.1317  0.0005
  829SOL    HW1 2865   4.227   3.430   2.321 -0.1621  0.5816  1.4652
  829SOL    HW2 2866   4.304   3.522   2.414  1.4394  1.1566 -0.3569
  830SOL     OW 2867   4.693   0.378   6.744  0.2644 -0.4058 -0.0587
  830SOL    HW1 2868   4.633   0.411   6.812 -0.4001  0.4663 -1.0386
  830SOL    HW2 2869   4.636   0.353   6.672  0.9036 -2.1336 -0.0104
  831SOL     OW 2870   5.231   0.267   2.716 -0.3365  0.2525 -0.0874
  831SOL    HW1 2871   5.194   0.348   2.751  1.5360 -0.0650  3.0444
  831SOL    HW2 2872   5.207   0.200   2.780  0.3158 -1.1686 -1.2662
  832SOL     OW 2873   1.084   5.588   1.872  0.6753  0.0730  0.2611
  832SOL    HW1 2874   1.154   5.532   1.902  0.1352 -0.3806  0.6879
  832SOL    HW2 2875   1.113   5.618   1.785  1.8612  0.7344  0.8587
  833SOL     OW 2876   3.197   4.533   0.620 -1.2306 -0.0391  0.8415
  833SOL    HW1 2877   3.233   4.621   0.632 -1.0848 -0.3041  2.6804
  833SOL    HW2 2878   3.274   4.476   0.618 -1.1047  0.0075 -3.0237
  834SOL     OW 2879   0.030   2.043   1.035 -0.7667 -0.1668  0.2037
  834SOL    HW1 2880   0.046   1.982   0.963 -0.8437 -0.3788  0.3644
  834SOL    HW2 2881   0.083   2.120   1.014 -2.3512  0.6273 -1.1473
  835SOL     OW 2882   3.504   3.775   1.614  0.1838 -1.1169  0.0577
  835SOL    HW1 2883   3.591   3.746   1.643  1.0507  0.1702 -1.1053
  835SOL    HW2 2884   3.456   3.694   1.598  0.5503 -1.8712  2.3653
  836SOL     OW 2885   6.086   2.963   6.221  0.0987  0.5045 -0.1175
  836SOL    HW1 2886   6.168   2.972   6.270  0.1472  1.3516 -0.3336
  836SOL    HW2 2887   6.111   2.914   6.142 -0.1877 -1.8155  1.1546
  837SOL     OW 2888   1.135   2.204   5.939 -0.2648  0.0286 -0.2005
  837SOL    HW1 2889   1.150   2.297   5.952  4.0804 -0.4583 -0.3747
  837SOL    HW2 2890   1.141   2.192   5.844 -2.4380 -0.3006 -0.3450
  838SOL     OW 2891   6.251   2.308   4.371  0.4073  0.1318 -0.2805
  838SOL    HW1 2892   6.311   2.370   4.330  2.1191  0.4243  2.4378
  838SOL    HW2 2893   6.206   2.358   4.439  0.0429 -1.0344  0.3645
  839SOL     OW 2894   4.840   1.444   4.571 -0.4566 -0.2687  0.1274
  839SOL    HW1 2895   4.869   1.524   4.528 -1.0286  1.3657  2.5880
  839SOL    HW2 2896   4.921   1.404   4.604 -0.1000 -1.1265 -1.6875
  840SOL     OW 2897   2.414   6.527   2.074 -0.0141 -0.4382 -0.1521
  840SOL    HW1 2898   2.459   6.578   2.142  0.1205 -0.3525 -0.3056
  840SOL    HW2 2899   2.322   6.550   2.085  0.0220 -0.3248 -0.0800
  841SOL     OW 2900   3.197   0.683   4.045 -0.6037 -0.7482  0.5453
  841SOL    HW1 2901   3.248   0.722   4.115 -2.5754  1.4480  0.8904
  841SOL    HW2 2902   3.235   0.596   4.033  2.2538  0.2369  1.6605
  842SOL     OW 2903   5.830   6.524   0.961  0.0531  0.1096  0.3884
  842SOL    HW1 2904   5.750   6.555   1.003 -0.0212  0.1968  0.1853
  842SOL    HW2 2905   5.893   6.595   0.975 -0.5468  1.0563 -1.3839
  843SOL     OW 2906   4.136   5.996   4.988  0.2556  0.1601  0.3778
  843SOL    HW1 2907   4.172   6.014   5.075 -0.1460  0.4111  0.4961
  843SOL    HW2 2908   4.207   6.018   4.927  1.6174 -2.8123  0.7386
  844SOL     OW 2909   0.669   5.538   6.469  0.0804 -0.0236  0.2746
  844SOL    HW1 2910   0.733   5.586   6.417 -0.0803  2.5697  2.2271
  844SOL    HW2 2911   0.711   5.454   6.489  2.0429  0.8040 -0.1616
  845SOL     OW 2912   5.905   3.251   6.818 -0.1546  0.4378  0.3994
  845SOL    HW1 2913   5.981   3.217   6.866  0.2882  1.7206  0.6571
  845SOL    HW2 2914   5.830   3.209   6.860  0.2518  1.1636  1.9258
  846SOL     OW 2915   2.217   5.358   5.627 -0.4937  0.3074  0.3831
  846SOL    HW1 2916   2.172   5.430   5.585 -0.7196  0.8653  1.5388
  846SOL    HW2 2917   2.245   5.301   5.555 -1.3090  0.9560 -0.4653
  847SOL     OW 2918   2.679   1.793   5.763 -0.0628  0.9367 -0.1898
  847SOL    HW1 2919   2.608   1.798   5.699  0.0180 -0.9092 -0.4888
  847SOL    HW2 2920   2.759   1.803   5.711  0.0028 -0.5579 -0.4318
  848SOL     OW 2921   5.421   0.959   0.218  0.0956  0.2388 -0.5950
  848SOL    HW1 2922   5.445   1.038   0.171 -0.3239  0.1732 -0.9219
  848SOL    HW2 2923   5.386   0.991   0.301 -1.8956  0.5202 -1.4824
  849SOL     OW 2924   5.402   0.753   6.838  0.4588 -0.0179 -0.2965
  849SOL    HW1 2925   5.466   0.813   6.799 -0.4799  0.4426 -1.1682
  849SOL    HW2 2926   5.393   0.783   6.929 -0.7341  1.8483 -0.9702
  850SOL     OW 2927   4.551   5.923   4.619  0.6549  0.4922 -0.3372
  850SOL    HW1 2928   4.460   5.931   4.591  0.7409  2.4266 -0.2346
  850SOL    HW2 2929   4.570   6.007   4.661  2.5112  0.1677 -0.4472
  851SOL     OW 2930   2.018   6.744   6.802  0.2564 -0.1711 -0.1411
  851SOL    HW1 2931   2.062   6.825   6.830  3.7903 -1.6153 -0.9252
  851SOL    HW2 2932   2.034   6.683   6.874 -1.2979 -0.5730 -0.1003
  852SOL     OW 2933   2.174   2.001   4.453  0.4609 -0.7509  0.1567
  852SOL    HW1 2934   2.250   1.943   4.462  0.8231 -0.4633 -0.9677
  852SOL    HW2 2935   2.115   1.973   4.523  1.6988 -0.8241  1.2165
  853SOL     OW 2936   5.547   0.142   5.119  0.2373 -0.6259 -0.6007
  853SOL    HW1 2937   5.614   0.131   5.187 -1.5989 -0.4118  1.3225
  853SOL    HW2 2938   5.578   0.087   5.047  2.8591  0.0655 -0.1083
  854SOL     OW 2939   0.533   1.889   1.830 -0.2773  0.3777 -0.5641
  854SOL    HW1 2940   0.586   1.969   1.835 -0.8449  0.7731 -0.7691
  854SOL    HW2 2941   0.497   1.879   1.918 -0.5121  0.5669 -0.6359
  855SOL     OW 2942   4.303   0.941   0.982 -0.6095 -0.3290 -0.2833
  855SOL    HW1 2943   4.322   0.918   1.073 -0.0613  1.6044  0.1272
  855SOL    HW2 2944   4.386   0.972   0.947 -1.0983  0.1340 -1.0669
  856SOL     OW 2945   6.562   2.039   0.041 -0.3822 -0.7447 -0.5293
  856SOL    HW1 2946   6.606   1.973  -0.013 -0.7901 -0.4250 -1.2635
  856SOL    HW2 2947   6.511   1.988   0.104  0.9971 -1.1246  0.3305
  857SOL     OW 2948   2.681   3.590   2.445 -0.0585  0.4939  0.1762
  857SOL    HW1 2949   2.649   3.637   2.368  0.0047 -1.0227 -0.8180
  857SOL    HW2 2950   2.604   3.577   2.499 -0.7543 -1.0695 -1.0978
  858SOL     OW 2951   5.893   1.759   2.737 -0.0308  0.0042  0.6492
  858SOL    HW1 2952   5.940   1.711   2.805 -0.1425 -0.0673  0.6746
  858SOL    HW2 2953   5.934   1.846   2.737  2.2779 -0.9289 -1.4190
  859SOL     OW 2954   1.486   1.405   1.945 -0.6600 -0.4324  0.6594
  859SOL    HW1 2955   1.408   1.359   1.977  0.1365 -1.6694  0.8733
  859SOL    HW2 2956   1.496   1.376   1.855  0.5474 -1.6863  1.1651
  860SOL     OW 2957   0.353   4.685   1.915 -0.5813  0.0915 -0.0525
  860SOL    HW1 2958   0.440   4.718   1.894 -0.8453  0.3361 -0.7851
  860SOL    HW2 2959   0.354   4.675   2.010  0.3515 -0.2231 -0.0798
  861SOL     OW 2960   1.095   3.047   5.399  0.0622 -0.0441 -0.0327
  861SOL    HW1 2961   1.052   3.056   5.484  0.4799 -0.0410  0.1821
  861SOL    HW2 2962   1.076   2.957   5.372 -2.3114  0.7327 -1.1843
  862SOL     OW 2963   5.500   0.356   2.047 -0.1818 -0.6671  0.5118
  862SOL    HW1 2964   5.591   0.341   2.072 -0.3512 -0.8555  1.0430
  862SOL    HW2 2965   5.470   0.270   2.016 -0.2558 -0.6717  0.5963
  863SOL     OW 2966   5.072   5.003   3.560 -0.0369  1.0541 -0.0691
  863SOL    HW1 2967   5.068   5.088   3.516 -3.0155  0.0103 -2.1039
  863SOL    HW2 2968   5.063   4.939   3.490 -0.5343 -0.8656  1.6433
  864SOL     OW 2969   6.656   1.699   1.089  0.0945 -0.0396 -0.2721
  864SOL    HW1 2970   6.728   1.739   1.137  1.3055 -1.8343 -0.5284
  864SOL    HW2 2971   6.675   1.717   0.997  0.9482 -1.6128 -0.4279
  865SOL     OW 2972   4.268   6.708   1.502 -0.0122  0.1008 -0.0250
  865SOL    HW1 2973   4.199   6.756   1.548  0.8391  0.9934  0.3416
  865SOL    HW2 2974   4.221   6.651   1.442 -1.0740  0.7655  0.1487
  866SOL     OW 2975   1.168   2.580   0.502  0.1660  0.2052  0.4614
  866SOL    HW1 2976   1.214   2.663   0.514  0.1544  0.6640 -2.1534
  866SOL    HW2 2977   1.237   2.514   0.504  0.1525  0.1803  2.7609
  867SOL     OW 2978   4.155   0.469   5.478  0.4725  0.0629 -0.2548
  867SOL    HW1 2979   4.061   0.452   5.473  0.1530  1.5444  0.2010
  867SOL    HW2 2980   4.168   0.504   5.566  1.4844 -0.2266 -0.2718
  868SOL     OW 2981   6.110   3.608   5.381  0.4636  0.0295 -0.6003
  868SOL    HW1 2982   6.149   3.671   5.441  0.9972 -0.0079 -0.9038
  868SOL    HW2 2983   6.097   3.657   5.300  0.5578 -0.1545 -0.7285
  869SOL     OW 2984   3.520   0.028   0.010  0.0584  0.1836 -0.4643
  869SOL    HW1 2985   3.432   0.061  -0.008  0.0364 -0.9418 -2.6844
  869SOL    HW2 2986   3.579   0.087  -0.037  0.2547 -0.8638 -1.5674
  870SOL     OW 2987   4.722   0.978   1.964 -0.3858  0.2032  0.3910
  870SOL    HW1 2988   4.683   1.045   2.018  0.1203  1.5241 -0.8119
  870SOL    HW2 2989   4.774   1.026   1.899  2.9877 -1.3719  1.6559
  871SOL     OW 2990   3.357   4.917   6.311  0.2704 -0.2325 -0.1485
  871SOL    HW1 2991   3.451   4.935   6.309  0.3230 -0.3378  0.8350
  871SOL    HW2 2992   3.318   4.986   6.257  1.0084 -0.9632 -1.6799
  872SOL     OW 2993   3.723   0.251   3.842 -0.0619  0.2473  0.0810
  872SOL    HW1 2994   3.758   0.213   3.922 -1.4218  0.1479  0.6540
  872SOL    HW2 2995   3.668   0.182   3.804 -0.9969  0.9523  0.1095
  873SOL     OW 2996   2.469   5.232   0.141  0.2960 -0.1816  0.3011
  873SOL    HW1 2997   2.446   5.258   0.052  0.3993 -0.6932  0.1196
  873SOL    HW2 2998   2.495   5.140   0.133 -2.8493 -1.2857  1.3703
  874SOL     OW 2999   4.057   4.943   5.921  0.1823  0.6076  0.7544
  874SOL    HW1 3000   4.039   4.859   5.880 -0.3568  0.6321  0.9292
  874SOL    HW2 3001   4.144   4.967   5.890  0.5515 -0.2483  1.0973
  875SOL     OW 3002   5.417   2.559   6.528 -0.4641 -0.6300  0.5747
  875SOL    HW1 3003   5.377   2.645   6.543  0.8841 -0.1171  1.4330
  875SOL    HW2 3004   5.368   2.523   6.454  1.1324  2.4042 -2.2625
  876SOL     OW 3005   0.592   3.859   5.961  0.6839  0.4807  0.5266
  876SOL    HW1 3006   0.662   3.850   6.025  1.4385  2.3956  0.0622
  876SOL    HW2 3007   0.634   3.905   5.887 -0.7673  0.5868 -0.2619
  877SOL     OW 3008   3.036   6.024   5.233  0.3741  0.0635  0.0205
  877SOL    HW1 3009   2.960   6.046   5.179 -0.4856  0.3154  1.3027
  877SOL    HW2 3010   3.099   6.094   5.215 -0.0008  0.2914 -0.4350
  878SOL     OW 3011   3.616   2.981   0.527 -0.1203  0.0303  0.2773
  878SOL    HW1 3012   3.529   2.951   0.499 -0.4462  1.2150 -0.0594
  878SOL    HW2 3013   3.646   2.914   0.589 -1.6434  0.0203  1.0656
  879SOL     OW 3014   0.789   5.804   4.046 -1.0949  0.1278  0.4054
  879SOL    HW1 3015   0.848   5.843   4.111  0.5802  0.3913 -1.2156
  879SOL    HW2 3016   0.739   5.878   4.011 -0.6661  0.2518  0.0603
  880SOL     OW 3017   0.278   5.220   3.750  0.3200  0.7344 -0.2354
  880SOL    HW1 3018   0.314   5.309   3.755 -3.0831  2.3101 -0.3290
  880SOL    HW2 3019   0.275   5.200   3.656 -0.3917  1.2521 -0.3315
  881SOL     OW 3020   6.416   2.755   1.166  0.2849  0.9934 -0.4476
  881SOL    HW1 3021   6.392   2.831   1.220 -1.4384  0.1562  0.0069
  881SOL    HW2 3022   6.447   2.690   1.230  1.4887  1.1693 -0.8145
  882SOL     OW 3023   5.101   6.510   1.654 -0.4735 -0.2262  0.0669
  882SOL    HW1 3024   5.147   6.594   1.660 -0.9831  0.0508  0.0856
  882SOL    HW2 3025   5.088   6.483   1.744 -1.0130  0.0593  0.0759
  883SOL     OW 3026   3.271   1.086   5.345  0.0706  0.1879 -0.6117
  883SOL    HW1 3027   3.253   1.107   5.436 -0.1800 -2.2418 -0.0254
  883SOL    HW2 3028   3.366   1.098   5.335 -0.1396  2.2018 -0.5917
  884SOL     OW 3029   1.981   2.972   4.922 -0.2431  0.1682  0.0008
  884SOL    HW1 3030   2.005   2.894   4.872 -0.4272 -0.3604  0.7151
  884SOL    HW2 3031   2.041   2.973   4.996 -2.3145 -1.1767  1.8100
  885SOL     OW 3032   5.209   2.551   5.447 -0.4045 -0.6006 -0.3560
  885SOL    HW1 3033   5.150   2.526   5.376 -1.4773  1.2091 -0.1833
  885SOL    HW2 3034   5.289   2.580   5.402 -1.0236  0.3981 -0.8504
  886SOL     OW 3035   3.586   5.123   0.136 -0.0548 -0.0739 -0.1941
  886SOL    HW1 3036   3.591   5.072   0.055 -0.1821  0.7746 -0.7421
  886SOL    HW2 3037   3.498   5.106   0.170  0.4717 -1.5338  0.5168
  887SOL     OW 3038   5.385   2.696   5.290 -0.3022  0.2720 -0.4192
  887SOL    HW1 3039   5.436   2.774   5.267 -1.3335  1.4156  1.0042
  887SOL    HW2 3040   5.357   2.659   5.206 -0.5507  1.9483 -1.1035
  888SOL     OW 3041   0.853   1.301   2.554 -0.7683  0.3899 -0.2688
  888SOL    HW1 3042   0.779   1.306   2.493 -1.2540  0.1458  0.2900
  888SOL    HW2 3043   0.898   1.220   2.531 -0.0916  1.0270 -1.2519
  889SOL     OW 3044   4.228   1.046   4.705 -0.5453 -0.3314  0.3208
  889SOL    HW1 3045   4.278   0.964   4.717 -0.2918 -0.1724  0.3592
  889SOL    HW2 3046   4.293   1.115   4.718 -0.8221 -0.1186  0.5734
  890SOL     OW 3047   2.630   4.262   3.070 -0.1373 -0.5407  0.3800
  890SOL    HW1 3048   2.538   4.267   3.094 -0.0401  0.0334  0.6461
  890SOL    HW2 3049   2.667   4.346   3.099  0.7084 -1.2061  1.2917
  891SOL     OW 3050   4.335   6.727   3.439  0.0058 -0.5953 -0.0367
  891SOL    HW1 3051   4.255   6.676   3.427 -0.0853 -0.4007 -0.2703
  891SOL    HW2 3052   4.372   6.696   3.522 -1.1364  0.3949  0.8979
  892SOL     OW 3053   3.420   3.294   1.449  0.1457 -0.2039  0.5298
  892SOL    HW1 3054   3.375   3.351   1.511  0.5481  0.5902  0.1054
  892SOL    HW2 3055   3.367   3.214   1.446 -1.7487  1.0284 -0.6047
  893SOL     OW 3056   1.287   3.584   2.258  0.1746 -0.0483  0.2874
  893SOL    HW1 3057   1.250   3.646   2.321 -0.1944 -1.1032  1.1437
  893SOL    HW2 3058   1.381   3.583   2.279  0.2241  0.4108  0.0968
  894SOL     OW 3059   2.516   5.786   4.154 -0.1050 -0.1202  0.7162
  894SOL    HW1 3060   2.516   5.757   4.063  1.6724  0.4453  0.5129
  894SOL    HW2 3061   2.562   5.717   4.202 -0.9232 -0.3565  1.1836
  895SOL     OW 3062   5.898   4.504   2.201 -0.2315  0.3588  0.3935
  895SOL    HW1 3063   5.808   4.503   2.234 -0.8913  0.2417 -1.3264
  895SOL    HW2 3064   5.944   4.564   2.260 -1.6004  0.9485  0.9100
  896SOL     OW 3065   4.053   1.718   3.163 -0.0018 -0.4240 -0.3757
  896SOL    HW1 3066   4.062   1.674   3.247 -1.1246 -0.5712 -0.3124
  896SOL    HW2 3067   4.073   1.810   3.181 -3.6265  0.2683  0.8980
  897SOL     OW 3068   1.888   0.922   1.558 -0.0715  0.4378 -0.4874
  897SOL    HW1 3069   1.881   0.827   1.554 -0.1636  0.4396 -0.3729
  897SOL    HW2 3070   1.982   0.940   1.560 -0.0555  0.3086  0.4710
  898SOL     OW 3071   6.389   5.482   4.348 -0.5587  0.2272  0.1514
  898SOL    HW1 3072   6.434   5.500   4.430  0.4298  1.2060 -0.5738
  898SOL    HW2 3073   6.297   5.498   4.367 -0.2216  1.5406  0.7969
  899SOL     OW 3074   2.960   1.732   1.383  0.0461 -0.0949 -0.3190
  899SOL    HW1 3075   3.014   1.742   1.305 -0.5021 -1.1052 -0.8564
  899SOL    HW2 3076   2.871   1.747   1.353 -0.0207  1.4388  0.5368
  900SOL     OW 3077   3.892   5.929   5.426 -0.1333  0.5008 -0.3967
  900SOL    HW1 3078   3.962   5.864   5.412  0.0825  0.2508  1.5979
  900SOL    HW2 3079   3.912   5.998   5.363  1.8393  0.3562 -0.0024
  901SOL     OW 3080   6.177   5.466   0.483 -0.4625  0.3022  0.3114
  901SOL    HW1 3081   6.107   5.510   0.434  0.1462  3.0629  1.6979
  901SOL    HW2 3082   6.217   5.406   0.421 -2.2526  0.7455 -1.3443
  902SOL     OW 3083   4.151   1.496   5.676 -0.4635 -0.1388 -0.1857
  902SOL    HW1 3084   4.162   1.538   5.590  1.2118 -1.8270 -0.8800
  902SOL    HW2 3085   4.241   1.479   5.706 -1.0387 -0.3908  1.5067
  903SOL     OW 3086   6.431   4.009   6.619  0.1360  0.0731 -0.1933
  903SOL    HW1 3087   6.498   4.062   6.662  0.5067  2.3413 -3.2323
  903SOL    HW2 3088   6.406   3.943   6.685  1.3907  2.5044  2.9703
  904SOL     OW 3089   3.273   2.169   3.654  0.4082 -0.2963  0.6596
  904SOL    HW1 3090   3.303   2.220   3.729  0.5322 -1.3108  1.3169
  904SOL    HW2 3091   3.353   2.147   3.606  0.2778  0.8588 -0.1229
  905SOL     OW 3092   5.361   4.699   5.403  0.3361  0.3624 -0.4902
  905SOL    HW1 3093   5.394   4.634   5.465 -0.1543 -0.6039 -1.2162
  905SOL    HW2 3094   5.438   4.751   5.379  0.4103  1.2756  1.4866
  906SOL     OW 3095   3.955   3.487   4.432  0.2830  0.4022  0.1822
  906SOL    HW1 3096   4.015   3.450   4.367  0.0690 -0.2403  0.3426
  906SOL    HW2 3097   3.887   3.420   4.443 -1.0606  1.5476 -0.7918
  907SOL     OW 3098   1.038   4.853   2.296 -0.4016  0.7405 -0.8684
  907SOL    HW1 3099   0.971   4.826   2.233 -1.0093  0.2349 -0.0407
  907SOL    HW2 3100   0.988   4.898   2.365 -0.1663 -1.2271  0.6690
  908SOL     OW 3101   4.773   2.581   3.163  0.1644  0.2018  0.1336
  908SOL    HW1 3102   4.779   2.499   3.211  0.1902  0.6951  0.9977
  908SOL    HW2 3103   4.757   2.647   3.231 -3.1611  0.5316 -0.7871
  909SOL     OW 3104   2.584   2.312   6.313 -0.4115 -0.0537 -0.7738
  909SOL    HW1 3105   2.631   2.395   6.326  2.7439 -1.8610  0.6409
  909SOL    HW2 3106   2.556   2.286   6.401 -2.5801  0.0999 -1.3809
  910SOL     OW 3107   1.678   0.223   3.850  0.2487  0.2364 -0.3675
  910SOL    HW1 3108   1.765   0.200   3.881  0.0733  0.3739  0.2614
  910SOL    HW2 3109   1.678   0.319   3.848 -0.3707  0.3103  1.1807
  911SOL     OW 3110   3.500   2.121   0.890 -0.2275 -0.1342 -0.0305
  911SOL    HW1 3111   3.518   2.199   0.942  1.0102  0.0240 -0.6600
  911SOL    HW2 3112   3.532   2.048   0.943 -2.7144 -0.4341  1.2247
  912SOL     OW 3113   5.361   4.559   1.035 -0.4683 -0.2993 -0.0312
  912SOL    HW1 3114   5.394   4.482   1.080 -1.4474 -0.6762  0.0537
  912SOL    HW2 3115   5.424   4.628   1.056 -1.0262 -0.3953  2.1318
  913SOL     OW 3116   6.343   3.791   4.358  0.2052 -0.3859 -0.0301
  913SOL    HW1 3117   6.405   3.726   4.326  0.7400  0.1240 -0.0399
  913SOL    HW2 3118   6.290   3.745   4.423 -1.0951 -1.5357 -1.8200
  914SOL     OW 3119   5.367   2.498   3.017 -0.5341  0.1784 -0.0285
  914SOL    HW1 3120   5.352   2.411   2.979  0.5416  0.2540 -0.6670
  914SOL    HW2 3121   5.403   2.480   3.104 -0.0402 -0.0232 -0.2706
  915SOL     OW 3122   5.379   1.913   6.560  0.4158 -0.2481  0.9629
  915SOL    HW1 3123   5.349   2.004   6.564  1.3365  0.0746  0.7710
  915SOL    HW2 3124   5.474   1.919   6.566  0.8601 -0.9059 -3.0614
  916SOL     OW 3125   1.625   4.255   0.792  0.3180  0.0627  0.5830
  916SOL    HW1 3126   1.684   4.320   0.830  0.3647  1.3721 -1.5688
  916SOL    HW2 3127   1.667   4.171   0.811  3.1676  0.9380 -1.1871
  917SOL     OW 3128   3.746   1.372   2.472  0.4551 -0.7114 -1.1092
  917SOL    HW1 3129   3.815   1.409   2.527  0.3182  0.6180 -1.7836
  917SOL    HW2 3130   3.720   1.292   2.516  1.3103 -0.3975  0.0102
  918SOL     OW 3131   4.103   3.102   0.495  0.0446 -0.1797 -0.0490
  918SOL    HW1 3132   4.127   3.106   0.403 -0.0548  0.2484 -0.0580
  918SOL    HW2 3133   4.053   3.181   0.511 -1.0017 -0.8510  0.0818
  919SOL     OW 3134   0.309   4.813   0.479  0.2930 -0.3652  0.5796
  919SOL    HW1 3135   0.270   4.760   0.549 -0.8097  0.4385  0.5926
  919SOL    HW2 3136   0.402   4.813   0.499 -0.0805  0.6114  2.6114
  920SOL     OW 3137   4.228   4.704   6.793  0.4147 -0.3981  0.4765
  920SOL    HW1 3138   4.216   4.704   6.888  0.3741 -0.0331  0.4754
  920SOL    HW2 3139   4.194   4.790   6.765 -0.6325 -0.9448 -0.0025
  921SOL     OW 3140   5.555   4.752   1.133  0.4543  0.0313 -0.9345
  921SOL    HW1 3141   5.553   4.836   1.088  0.3835  0.4237 -0.2021
  921SOL    HW2 3142   5.533   4.772   1.224  0.8147 -0.7235 -0.6714
  922SOL     OW 3143   4.201   3.805   0.489  0.0107  0.2413 -0.0450
  922SOL    HW1 3144   4.175   3.789   0.579 -0.9362 -0.7846 -0.4762
  922SOL    HW2 3145   4.291   3.773   0.484  0.0757  0.3290  0.5419
  923SOL     OW 3146   6.375   1.877   1.580  1.0223 -0.1632 -0.0482
  923SOL    HW1 3147   6.334   1.948   1.629 -0.4419 -0.7812 -0.3269
  923SOL    HW2 3148   6.468   1.882   1.604  0.5445  0.2256  1.9419
  924SOL     OW 3149   0.046   5.160   0.586  0.4222 -0.7339 -0.3085
  924SOL    HW1 3150   0.096   5.095   0.636  1.0006 -0.0239  0.0409
  924SOL    HW2 3151   0.049   5.239   0.639 -0.1050 -0.3540 -0.8348
  925SOL     OW 3152   3.919   6.657   3.135  0.1634  0.8210 -0.6906
  925SOL    HW1 3153   3.863   6.609   3.074 -1.4858  1.1203  0.5258
  925SOL    HW2 3154   3.882   6.639   3.221  1.2030  2.0329  0.0450
  926SOL     OW 3155   6.520   5.268   3.059  0.1715  0.2709  0.5649
  926SOL    HW1 3156   6.560   5.222   2.985  0.4266  1.0828  0.1860
  926SOL    HW2 3157   6.444   5.215   3.082  0.6547 -0.5231  0.3651
  927SOL     OW 3158   4.713   1.593   6.605 -0.4226  0.0047  0.3551
  927SOL    HW1 3159   4.805   1.572   6.589 -0.3571  0.4408  0.1441
  927SOL    HW2 3160   4.668   1.565   6.525  0.0325  3.0305 -1.1178
  928SOL     OW 3161   6.470   0.227   5.709 -0.0794 -0.4150  0.2813
  928SOL    HW1 3162   6.375   0.229   5.718 -0.0504 -0.3298  0.5793
  928SOL    HW2 3163   6.501   0.297   5.766  0.0517  1.0142 -1.4533
  929SOL     OW 3164   5.656   0.313   0.660  0.3378  0.5323  0.4509
  929SOL    HW1 3165   5.648   0.402   0.625  0.4867 -0.2259 -1.6360
  929SOL    HW2 3166   5.574   0.298   0.706  0.4608  1.8624  1.1530
  930SOL     OW 3167   4.978   1.959   0.886 -0.5721 -0.0584 -0.1308
  930SOL    HW1 3168   5.035   1.894   0.926  0.4086  0.9373  0.1577
  930SOL    HW2 3169   4.954   2.018   0.958 -1.2061  0.0821 -0.4431
  931SOL     OW 3170   0.847   5.852   5.110 -0.7559 -0.1394 -0.1128
  931SOL    HW1 3171   0.867   5.837   5.017  1.9087  1.3141  0.1103
  931SOL    HW2 3172   0.848   5.948   5.119 -0.4082 -0.2641  1.4901
  932SOL     OW 3173   0.095   6.304   6.319 -0.8872 -0.0663 -0.3274
  932SOL    HW1 3174   0.050   6.251   6.385 -0.6658  1.8885  1.5139
  932SOL    HW2 3175   0.180   6.261   6.309 -0.4334  0.2685  1.6660
  933SOL     OW 3176   5.966   6.442   1.730  0.1533 -0.3107  0.3280
  933SOL    HW1 3177   5.946   6.493   1.808 -1.4203  0.4233 -0.5068
  933SOL    HW2 3178   6.046   6.395   1.752 -0.0564  0.1437  2.2396
  934SOL     OW 3179   0.547   4.062   4.361 -0.1967  0.2998  0.3848
  934SOL    HW1 3180   0.481   4.093   4.300  1.0928  0.1630 -1.1462
  934SOL    HW2 3181   0.630   4.078   4.317  1.0731  3.3324  3.4728
  935SOL     OW 3182   2.263   0.978   0.471  0.0962  0.6869  0.2500
  935SOL    HW1 3183   2.234   1.069   0.470 -1.8142  0.1168 -0.4635
  935SOL    HW2 3184   2.183   0.927   0.484  0.8480 -0.9869 -1.2168
  936SOL     OW 3185   1.417   0.521   2.060  0.5244  0.2692 -0.0678
  936SOL    HW1 3186   1.424   0.606   2.017 -0.9328 -0.2588 -1.4454
  936SOL    HW2 3187   1.508   0.498   2.080  1.1027  1.4122 -1.1673
  937SOL     OW 3188   0.557   6.087   5.537 -0.3192 -0.5132 -0.0594
  937SOL    HW1 3189   0.569   6.106   5.630 -0.6222 -0.1577 -0.0894
  937SOL    HW2 3190   0.624   6.022   5.516  0.3234  0.0586  0.2019
  938SOL     OW 3191   0.609   5.493   5.405 -0.0925  0.5459  0.4454
  938SOL    HW1 3192   0.572   5.420   5.354  0.1878  1.4987 -1.2029
  938SOL    HW2 3193   0.673   5.533   5.346  0.6722  1.3703  1.7918
  939SOL     OW 3194   4.349   4.667   5.835 -0.3930  0.7141 -0.2216
  939SOL    HW1 3195   4.401   4.657   5.756  0.2598  1.4828  0.0970
  939SOL    HW2 3196   4.332   4.762   5.841 -1.2272  0.5631  0.0581
  940SOL     OW 3197   6.211   6.662   3.340 -0.3125 -0.1918 -0.3866
  940SOL    HW1 3198   6.170   6.578   3.362 -1.9609  0.5751 -0.3531
  940SOL    HW2 3199   6.295   6.661   3.385 -0.2000 -1.9033 -0.5698
  941SOL     OW 3200   1.852   6.038   2.159 -0.0725 -0.2659 -0.2000
  941SOL    HW1 3201   1.934   6.081   2.137 -0.7777  0.8403 -0.7900
  941SOL    HW2 3202   1.878   5.959   2.207  1.3301 -0.1469 -0.7176
  942SOL     OW 3203   2.929   2.977   5.324  0.0384  0.4473  0.3006
  942SOL    HW1 3204   2.997   2.931   5.276  0.1957 -0.5451  1.4312
  942SOL    HW2 3205   2.858   2.913   5.333 -0.3556  0.9160  0.5767
  943SOL     OW 3206   0.552   5.003   5.592  0.4422  0.2513 -0.5535
  943SOL    HW1 3207   0.499   5.010   5.513  0.6352  0.8732 -0.6353
  943SOL    HW2 3208   0.618   5.072   5.583  0.6257  0.1597  0.0267
  944SOL     OW 3209   5.556   1.258   1.826 -0.3749  0.1517 -0.6588
  944SOL    HW1 3210   5.567   1.338   1.774 -0.0155  0.3681 -0.2471
  944SOL    HW2 3211   5.620   1.266   1.896  0.3919 -0.9914 -1.2152
  945SOL     OW 3212   4.313   1.003   2.239 -0.0654  0.2344 -0.1216
  945SOL    HW1 3213   4.344   1.093   2.252  2.4843 -0.3505 -1.4793
  945SOL    HW2 3214   4.390   0.948   2.256 -0.8654 -1.5084 -1.7235
  946SOL     OW 3215   5.669   5.867   1.905 -0.1428  0.1033 -0.4489
  946SOL    HW1 3216   5.721   5.915   1.841 -0.8378  1.0088 -0.3449
  946SOL    HW2 3217   5.586   5.914   1.910  0.2584  0.7104  1.8847
  947SOL     OW 3218   3.147   0.753   2.046  0.4015  0.7044 -0.2412
  947SOL    HW1 3219   3.160   0.661   2.070  0.4933  0.2813 -1.7732
  947SOL    HW2 3220   3.158   0.754   1.951 -1.6388  1.9213 -0.5304
  948SOL     OW 3221   5.669   1.790   5.223 -0.1817  0.1988 -0.1528
  948SOL    HW1 3222   5.641   1.698   5.228  1.0882 -0.2837 -1.1692
  948SOL    HW2 3223   5.605   1.832   5.167  0.9733 -0.8727 -2.4283
  949SOL     OW 3224   0.511   1.700   0.190 -0.1833 -0.0424 -0.1667
  949SOL    HW1 3225   0.554   1.636   0.246 -1.1483 -0.7313 -0.1814
  949SOL    HW2 3226   0.538   1.785   0.224  3.1225 -0.3589 -1.6571
  950SOL     OW 3227   3.410   4.016   1.490 -0.4692 -0.4856  0.1914
  950SOL    HW1 3228   3.317   4.007   1.511 -0.8742  1.1811 -0.7262
  950SOL    HW2 3229   3.452   3.942   1.534 -2.4377 -2.2532 -0.7541
  951SOL     OW 3230   5.093   0.722   1.708 -0.2970 -0.0816  0.3493
  951SOL    HW1 3231   5.005   0.693   1.683 -1.0520  3.0933 -1.1845
  951SOL    HW2 3232   5.146   0.705   1.630 -0.0191 -0.1494  0.5523
  952SOL     OW 3233   4.710   1.258   1.782 -0.2374 -0.3839 -0.1594
  952SOL    HW1 3234   4.637   1.241   1.722 -0.3141  0.4055 -0.2947
  952SOL    HW2 3235   4.777   1.194   1.756 -0.3793 -0.2483 -0.8970
  953SOL     OW 3236   0.672   3.894   4.141  0.4787 -0.1164 -0.2449
  953SOL    HW1 3237   0.606   3.948   4.184  0.5904 -0.1270 -0.0547
  953SOL    HW2 3238   0.675   3.926   4.051  2.5780  2.2198  0.5263
  954SOL     OW 3239   1.644   6.460   2.708  0.1263  0.1011  0.2562
  954SOL    HW1 3240   1.727   6.508   2.713  1.4414 -1.7653 -1.4891
  954SOL    HW2 3241   1.632   6.422   2.795  0.2909  1.6161  0.9587
  955SOL     OW 3242   1.460   4.372   2.968  0.1921 -0.6073 -0.5396
  955SOL    HW1 3243   1.544   4.394   3.008 -0.3685  2.2387 -0.6691
  955SOL    HW2 3244   1.402   4.355   3.042  0.6420 -1.6109 -0.4126
  956SOL     OW 3245   2.896   3.636   6.831  0.0966  0.1463  0.2840
  956SOL    HW1 3246   2.809   3.643   6.793 -0.5460 -1.6474  1.2969
  956SOL    HW2 3247   2.920   3.726   6.853 -1.7644  0.6279  0.5384
  957SOL     OW 3248   2.075   0.319   0.807 -0.0991  0.3861 -0.3883
  957SOL    HW1 3249   2.123   0.236   0.810  0.0957  0.5278  0.6642
  957SOL    HW2 3250   1.997   0.300   0.755  0.0904 -0.3846 -0.4000
  958SOL     OW 3251   6.023   4.059   1.940 -0.0637 -0.1223  0.3382
  958SOL    HW1 3252   5.982   4.115   2.007 -0.8369  0.1878 -0.3747
  958SOL    HW2 3253   6.021   3.971   1.978  0.4818  0.2089  1.1658
  959SOL     OW 3254   0.843   5.378   3.558 -0.0135 -0.4168 -0.1342
  959SOL    HW1 3255   0.934   5.359   3.534 -0.8066 -2.9545 -1.5403
  959SOL    HW2 3256   0.791   5.330   3.493 -2.3582 -0.0547  1.3622
  960SOL     OW 3257   6.641   2.786   5.590  0.0146 -0.3596 -0.1469
  960SOL    HW1 3258   6.603   2.873   5.593 -0.3696 -0.5466  0.6621
  960SOL    HW2 3259   6.735   2.800   5.591 -0.0476  0.0476  0.1351
  961SOL     OW 3260   2.450   5.091   4.056 -0.0201  0.4989 -0.1080
  961SOL    HW1 3261   2.439   4.996   4.065  1.6894  0.3590  0.9127
  961SOL    HW2 3262   2.497   5.102   3.974 -0.8013  0.5332 -0.5623
  962SOL     OW 3263   6.057   1.889   2.145  0.4674 -0.6941  0.2599
  962SOL    HW1 3264   6.093   1.950   2.209  1.0370 -1.4045  0.6386
  962SOL    HW2 3265   6.022   1.944   2.075  2.2724  0.0434 -0.1107
  963SOL     OW 3266   5.505   0.269   3.530  0.8538 -0.1806 -0.0616
  963SOL    HW1 3267   5.503   0.181   3.494  1.8463  0.4413 -1.7318
  963SOL    HW2 3268   5.492   0.257   3.624  0.9872 -2.0992 -0.2590
  964SOL     OW 3269   1.619   4.363   2.351  0.2409  0.1180 -0.5854
  964SOL    HW1 3270   1.701   4.326   2.318  0.0624 -0.4458 -0.4015
  964SOL    HW2 3271   1.620   4.345   2.445  0.5965  1.4398 -0.3179
  965SOL     OW 3272   6.607   2.694   5.872 -0.5163  0.2451 -0.0178
  965SOL    HW1 3273   6.519   2.706   5.836  0.5261  0.3934 -2.7648
  965SOL    HW2 3274   6.664   2.695   5.796  1.8354 -0.4928  1.6218
  966SOL     OW 3275   2.831   4.815   1.804 -0.0328 -0.2924  0.1585
  966SOL    HW1 3276   2.756   4.798   1.860 -2.0011 -1.2438 -2.5525
  966SOL    HW2 3277   2.883   4.735   1.810  0.2736 -0.0263  1.2758
  967SOL     OW 3278   5.758   6.350   3.065 -0.8627 -0.0615 -0.1032
  967SOL    HW1 3279   5.734   6.400   3.142 -1.7225  0.3857 -0.6524
  967SOL    HW2 3280   5.820   6.406   3.018 -1.0306  0.0459 -0.1955
  968SOL     OW 3281   6.782   6.277   5.429 -0.0491 -0.0276  0.0645
  968SOL    HW1 3282   6.746   6.189   5.424  0.8113 -0.3453 -1.2077
  968SOL    HW2 3283   6.708   6.333   5.451 -0.5549 -1.0845  1.1708
  969SOL     OW 3284   2.132   3.767   4.162 -0.3635 -0.0093 -0.6048
  969SOL    HW1 3285   2.165   3.682   4.134 -0.9148 -1.0126  1.5744
  969SOL    HW2 3286   2.193   3.795   4.231 -1.3587  0.3338  0.1739
  970SOL     OW 3287   1.153   0.989   4.433 -1.1745 -0.0658  0.2743
  970SOL    HW1 3288   1.164   0.905   4.478 -0.1019  0.0870  0.3217
  970SOL    HW2 3289   1.179   0.971   4.343 -0.5313  0.3005  0.3780
  971SOL     OW 3290   3.503   5.639   4.549 -0.2892  0.0600 -0.0179
  971SOL    HW1 3291   3.512   5.709   4.484 -0.6330 -0.4400 -0.6067
  971SOL    HW2 3292   3.473   5.685   4.628 -2.7550  0.3359 -0.9998
  972SOL     OW 3293   1.694   3.620   4.819 -0.0006  0.1908 -0.0545
  972SOL    HW1 3294   1.764   3.627   4.754  0.2594 -1.0964  0.0484
  972SOL    HW2 3295   1.710   3.535   4.861 -1.6941 -0.1849 -0.1207
  973SOL     OW 3296   3.518   2.797   2.589  0.0511  0.6868  0.4336
  973SOL    HW1 3297   3.572   2.758   2.657  1.3725 -0.2644 -1.0798
  973SOL    HW2 3298   3.431   2.805   2.628  0.6496 -0.2788  2.0395
  974SOL     OW 3299   5.770   4.088   1.482 -0.0266  0.2108 -0.1168
  974SOL    HW1 3300   5.792   4.180   1.468 -1.0837  0.4263 -0.3947
  974SOL    HW2 3301   5.697   4.089   1.543  0.6609 -0.5005  0.7505
  975SOL     OW 3302   0.239   1.792   2.748  0.4756  0.0429  0.2361
  975SOL    HW1 3303   0.187   1.831   2.678  1.5178 -0.0329 -0.6055
  975SOL    HW2 3304   0.183   1.723   2.784 -0.4756  0.7634  0.1878
  976SOL     OW 3305   3.721   5.391   4.701 -0.1588  0.1635 -0.2618
  976SOL    HW1 3306   3.779   5.466   4.713 -2.1071  2.1009 -2.2227
  976SOL    HW2 3307   3.648   5.407   4.761 -0.0905 -0.7679  0.0927
  977SOL     OW 3308   0.661   5.108   0.617  0.1906 -0.0970  0.2355
  977SOL    HW1 3309   0.623   5.050   0.683  1.8248  1.4965  2.7283
  977SOL    HW2 3310   0.755   5.101   0.629  0.4982  1.2663 -1.0536
  978SOL     OW 3311   2.357   3.997   3.395  0.0797  0.0981  0.1930
  978SOL    HW1 3312   2.347   4.017   3.488 -0.1870 -0.5700  0.3134
  978SOL    HW2 3313   2.276   4.030   3.355  0.5604  1.1450  0.0606
  979SOL     OW 3314   5.403   0.330   4.177 -0.2677  0.3863 -0.2973
  979SOL    HW1 3315   5.458   0.261   4.141 -1.6860 -0.9026 -0.0930
  979SOL    HW2 3316   5.462   0.381   4.233  0.8897 -0.4282 -0.7349
  980SOL     OW 3317   0.955   4.773   0.464 -0.2507 -0.5979  0.4984
  980SOL    HW1 3318   0.905   4.809   0.391  1.5487  2.1350  0.4639
  980SOL    HW2 3319   0.888   4.735   0.523 -1.8709 -1.2529 -1.6348
  981SOL     OW 3320   1.513   2.393   1.522  0.0637 -0.6288 -0.0941
  981SOL    HW1 3321   1.483   2.465   1.578  2.5253  0.5779 -0.2203
  981SOL    HW2 3322   1.563   2.336   1.580 -0.9429 -1.6920 -0.2313
  982SOL     OW 3323   6.098   0.678   1.384  0.3277  0.7425 -0.0048
  982SOL    HW1 3324   6.015   0.696   1.339 -0.6722  0.5936  1.6746
  982SOL    HW2 3325   6.089   0.722   1.468  1.0230 -1.1049  1.0893
  983SOL     OW 3326   4.916   4.518   5.772 -0.0827 -0.0186 -0.1950
  983SOL    HW1 3327   4.897   4.563   5.854  1.2920 -1.0744  0.7466
  983SOL    HW2 3328   4.949   4.432   5.799 -0.6432 -0.7965 -1.8880
  984SOL     OW 3329   4.027   3.585   2.197 -0.0941  0.5743 -0.1067
  984SOL    HW1 3330   4.022   3.552   2.287  1.8763  1.1046  0.2402
  984SOL    HW2 3331   4.115   3.619   2.189  0.1560 -0.4479 -2.6070
  985SOL     OW 3332   3.878   3.140   4.339 -0.5078  0.0180  0.2862
  985SOL    HW1 3333   3.963   3.167   4.372  0.1056 -1.4564 -0.0159
  985SOL    HW2 3334   3.898   3.079   4.267 -1.8063 -0.7623  0.5522
  986SOL     OW 3335   2.996   6.515   0.925 -0.7500  0.4011  0.6871
  986SOL    HW1 3336   2.949   6.583   0.877 -1.2497  1.0436  2.0284
  986SOL    HW2 3337   2.940   6.438   0.918 -1.2782  0.7466  0.9987
  987SOL     OW 3338   1.108   5.311   3.524 -0.1543  0.4254  0.1972
  987SOL    HW1 3339   1.170   5.383   3.522  0.9905 -0.5327  0.4563
  987SOL    HW2 3340   1.160   5.233   3.503 -1.3515 -0.3417 -0.0473
  988SOL     OW 3341   3.063   0.562   4.377 -0.2894 -0.0467 -0.2166
  988SOL    HW1 3342   3.091   0.604   4.296  1.1827  0.5766  0.5657
  988SOL    HW2 3343   2.981   0.604   4.399  0.2480  1.1393 -0.4121
  989SOL     OW 3344   5.341   3.276   3.845 -0.4585  0.1240  0.3215
  989SOL    HW1 3345   5.366   3.310   3.931  1.3688 -1.9115  0.6830
  989SOL    HW2 3346   5.421   3.281   3.793 -1.8267  2.5327 -1.7968
  990SOL     OW 3347   1.329   2.680   2.128  0.0546 -0.3311  0.1987
  990SOL    HW1 3348   1.328   2.611   2.195  1.3927  0.0859  0.6818
  990SOL    HW2 3349   1.238   2.708   2.121 -0.1370 -0.4461  1.8089
  991SOL     OW 3350   6.567   6.513   4.217  0.1053  0.1730  0.8439
  991SOL    HW1 3351   6.640   6.548   4.269  0.2101  1.0103  0.1575
  991SOL    HW2 3352   6.501   6.582   4.218 -0.1115 -0.0163  0.3224
  992SOL     OW 3353   3.660   3.011   1.880  0.1528  0.1455  0.2067
  992SOL    HW1 3354   3.721   3.084   1.868 -0.7404  0.8842 -0.0110
  992SOL    HW2 3355   3.681   2.975   1.966  1.7896 -0.5033 -0.4182
  993SOL     OW 3356   1.524   6.822   3.111  0.0608  0.2018 -1.2372
  993SOL    HW1 3357   1.527   6.800   3.204 -0.4323 -2.1112 -1.7293
  993SOL    HW2 3358   1.526   6.918   3.110 -0.7515  0.3222  1.1900
  994SOL     OW 3359   5.650   6.810   0.419 -0.7123  0.0678 -0.0607
  994SOL    HW1 3360   5.716   6.878   0.433  0.2698 -0.6550 -1.0067
  994SOL    HW2 3361   5.566   6.855   0.431 -0.1733  1.8935 -2.2908
  995SOL     OW 3362   1.973   2.326   5.209 -0.4929  0.3153 -0.1884
  995SOL    HW1 3363   1.955   2.248   5.262  0.5183  0.4674  0.4049
  995SOL    HW2 3364   2.066   2.320   5.188 -0.2087  1.7543  0.5507
  996SOL     OW 3365   0.373   4.071   3.908 -0.5668  0.1392  0.1182
  996SOL    HW1 3366   0.352   4.128   3.833  1.4122  0.3775 -0.3085
  996SOL    HW2 3367   0.364   3.982   3.873 -1.2689  0.2221  0.0785
  997SOL     OW 3368   5.757   6.180   4.571  0.5384  0.4185  0.0218
  997SOL    HW1 3369   5.790   6.106   4.519  0.0593 -0.0807  0.4294
  997SOL    HW2 3370   5.749   6.146   4.660  1.3893  1.2850  0.4489
  998SOL     OW 3371   3.733   0.541   4.583 -0.3287 -0.0444  0.8444
  998SOL    HW1 3372   3.642   0.516   4.565 -0.6767  2.3687 -1.1933
  998SOL    HW2 3373   3.731   0.573   4.673 -1.3164 -0.7280  1.0869
  999SOL     OW 3374   0.188   2.174   2.462  0.1618 -0.2981  0.7157
  999SOL    HW1 3375   0.242   2.124   2.522  0.7491  0.2135  0.6242
  999SOL    HW2 3376   0.246   2.197   2.390 -0.6142 -1.1703 -0.2121
 1000SOL     OW 3377   1.014   3.110   2.632  0.2484 -0.1154  0.0931
 1000SOL    HW1 3378   1.076   3.053   2.678  0.9018  0.4034 -0.1300
 1000SOL    HW2 3379   1.032   3.198   2.667 -1.7464 -0.2048  1.5352
 1001SOL     OW 3380   0.248   4.638   4.495 -0.2210  0.6130 -0.0463
 1001SOL    HW1 3381   0.174   4.698   4.504 -1.3740 -0.5396 -1.3071
 1001SOL    HW2 3382   0.231   4.570   4.560  0.4612  1.0088  0.5673
 1002SOL     OW 3383   5.719   1.346   2.030  0.5412 -0.0697  0.0982
 1002SOL    HW1 3384   5.723   1.440   2.012  1.5300 -0.1385 -0.1291
 1002SOL    HW2 3385   5.674   1.340   2.114  0.6048  0.6251  0.1919
 1003SOL     OW 3386   6.705   1.177   0.653 -0.0756 -0.5686 -0.2357
 1003SOL    HW1 3387   6.750   1.118   0.713 -0.8183  0.1766  1.1039
 1003SOL    HW2 3388   6.722   1.141   0.566  0.8066 -1.8293  0.4334
 1004SOL     OW 3389   2.378   1.825   4.526  0.2902  0.0059 -0.3090
 1004SOL    HW1 3390   2.448   1.801   4.588  0.0760  0.6557  0.1868
 1004SOL    HW2 3391   2.313   1.755   4.536 -0.3167  0.7521  1.1117
 1005SOL     OW 3392   2.003   2.065   2.317  0.1854  0.2225 -0.2092
 1005SOL    HW1 3393   2.051   2.108   2.388 -1.1869  1.8632 -0.2347
 1005SOL    HW2 3394   1.924   2.031   2.359  0.8758 -1.6784 -0.3508
 1006SOL     OW 3395   6.802   6.244   1.885  0.2682  0.0768  0.2226
 1006SOL    HW1 3396   6.808   6.304   1.959  2.2691  0.2874 -0.0303
 1006SOL    HW2 3397   6.773   6.298   1.812  1.6182  0.7031  0.1039
 1007SOL     OW 3398   4.711   5.186   3.725  0.1870 -0.3243 -0.4433
 1007SOL    HW1 3399   4.769   5.170   3.799 -0.7331 -0.7879  0.1937
 1007SOL    HW2 3400   4.636   5.128   3.740  0.8810 -1.9533 -2.7964
 1008SOL     OW 3401   1.155   4.997   2.626 -0.3522  0.4576  0.7081
 1008SOL    HW1 3402   1.192   4.920   2.583 -1.7435  0.3512 -0.3769
 1008SOL    HW2 3403   1.181   4.988   2.718  0.7793 -0.5032  0.3186
 1009SOL     OW 3404   3.850   4.001   0.669 -0.2084  0.2662  0.4901
 1009SOL    HW1 3405   3.897   4.056   0.606 -1.0066  2.8078  1.9576
 1009SOL    HW2 3406   3.914   3.983   0.738  0.0994 -0.8426 -0.0669
 1010SOL     OW 3407   2.440   4.240   6.200  0.4101 -0.3744 -0.1360
 1010SOL    HW1 3408   2.490   4.314   6.164 -0.0449  0.5618  1.0721
 1010SOL    HW2 3409   2.490   4.213   6.278 -0.1638 -0.4175  0.2218
 1011SOL     OW 3410   4.981   4.424   5.381  0.2364  0.6954 -0.1827
 1011SOL    HW1 3411   4.942   4.511   5.368  0.7661  0.9091 -0.3822
 1011SOL    HW2 3412   5.019   4.402   5.296  0.6035  0.5186  0.0252
 1012SOL     OW 3413   2.278   6.067   4.175  0.2855 -1.1534  0.2985
 1012SOL    HW1 3414   2.201   6.011   4.180  0.9940 -2.3819 -1.4871
 1012SOL    HW2 3415   2.279   6.098   4.085  1.8620 -1.1697  0.2848
 1013SOL     OW 3416   3.818   2.850   3.195  0.5482 -0.1942 -0.0440
 1013SOL    HW1 3417   3.768   2.776   3.161  1.9369 -1.4796  0.5864
 1013SOL    HW2 3418   3.904   2.814   3.214  1.2746  1.6042  0.2879
 1014SOL     OW 3419   4.695   6.451   6.499  0.6090  0.1996  0.7642
 1014SOL    HW1 3420   4.714   6.459   6.592 -0.1205 -1.1939  1.0642
 1014SOL    HW2 3421   4.604   6.478   6.489  0.4379 -0.4091  0.6006
 1015SOL     OW 3422   1.431   2.123   5.938 -0.3409  0.6407  0.1402
 1015SOL    HW1 3423   1.394   2.178   5.870 -0.2051  0.3826 -0.1442
 1015SOL    HW2 3424   1.359   2.067   5.966 -0.5996  1.2593  0.7429
 1016SOL     OW 3425   6.342   1.343   2.033  0.0660  0.5070 -0.7003
 1016SOL    HW1 3426   6.363   1.408   1.966  1.0119  0.8084 -0.1290
 1016SOL    HW2 3427   6.319   1.395   2.110 -1.2405  0.1638 -0.8465
 1017SOL     OW 3428   6.275   1.950   5.881  0.1563 -0.3494 -0.4603
 1017SOL    HW1 3429   6.339   1.879   5.880  0.2064 -0.3135 -1.9553
 1017SOL    HW2 3430   6.198   1.914   5.838 -0.3245  0.0763  0.0199
 1018SOL     OW 3431   0.593   4.335   4.394 -0.4543 -0.4758 -0.1754
 1018SOL    HW1 3432   0.651   4.268   4.358  1.6629  2.2132 -2.1938
 1018SOL    HW2 3433   0.577   4.395   4.321 -2.4721  1.1052  1.4350
 1019SOL     OW 3434   0.667   5.857   5.874  0.2170  0.2924 -0.0621
 1019SOL    HW1 3435   0.624   5.831   5.956 -0.0917  0.9133 -0.0184
 1019SOL    HW2 3436   0.718   5.780   5.848 -1.1736 -0.5875 -0.2899
 1020SOL     OW 3437   2.876   4.577   4.925  0.5628 -0.2276 -0.0108
 1020SOL    HW1 3438   2.860   4.657   4.874 -1.0013  0.2385  1.1198
 1020SOL    HW2 3439   2.971   4.570   4.930  0.7363  1.4700 -0.2982
 1021SOL     OW 3440   1.028   2.820   2.186 -0.1603 -0.3822 -0.5076
 1021SOL    HW1 3441   1.082   2.857   2.117  1.9885 -1.0158  0.7277
 1021SOL    HW2 3442   0.975   2.754   2.142  0.3732 -0.0333 -1.7230
 1022SOL     OW 3443   3.774   1.564   4.511 -0.4532  0.2874 -0.2494
 1022SOL    HW1 3444   3.832   1.576   4.435 -0.3516 -0.2386 -0.2567
 1022SOL    HW2 3445   3.823   1.602   4.584 -0.8925  1.5481 -0.5762
 1023SOL     OW 3446   2.572   4.136   1.270  0.4684 -0.1671 -0.7192
 1023SOL    HW1 3447   2.613   4.124   1.356  1.0764  0.4813 -0.8994
 1023SOL    HW2 3448   2.643   4.120   1.207 -0.3116 -2.0864 -1.1875
 1024SOL     OW 3449   1.307   1.236   5.429 -0.2950  0.4866  0.2507
 1024SOL    HW1 3450   1.223   1.226   5.384 -0.4253  0.6670  0.4605
 1024SOL    HW2 3451   1.329   1.328   5.420 -0.0608  0.4197  0.0967
 1025SOL     OW 3452   6.203   6.212   2.335 -0.3883 -0.2432  0.1559
 1025SOL    HW1 3453   6.179   6.184   2.247 -0.6830  2.7798 -0.8243
 1025SOL    HW2 3454   6.267   6.147   2.364 -0.2688 -1.3145 -2.2633
 1026SOL     OW 3455   4.452   6.201   0.844  0.3630  0.3983  0.0260
 1026SOL    HW1 3456   4.463   6.144   0.768 -1.2527 -0.0535  0.0905
 1026SOL    HW2 3457   4.456   6.141   0.919 -0.1952  0.5208  0.1603
 1027SOL     OW 3458   5.067   2.007   6.417  0.2287  0.3254 -0.3356
 1027SOL    HW1 3459   4.979   2.034   6.442 -0.8221 -1.4634 -1.8283
 1027SOL    HW2 3460   5.102   2.083   6.370 -1.4050  0.3106 -1.6778
 1028SOL     OW 3461   0.926   0.109   3.565 -0.2281  0.3540 -0.5840
 1028SOL    HW1 3462   0.867   0.041   3.596  0.5615 -0.7681 -1.4440
 1028SOL    HW2 3463   0.937   0.092   3.472 -0.1690  1.7979 -0.8728
 1029SOL     OW 3464   6.128   6.189   4.907 -0.0950  0.4690 -0.3727
 1029SOL    HW1 3465   6.201   6.251   4.915 -0.1533  0.6313 -1.0507
 1029SOL    HW2 3466   6.114   6.181   4.813 -0.1446 -0.5178 -0.2898
 1030SOL     OW 3467   5.618   2.513   0.545  0.5452  0.1121  0.4238
 1030SOL    HW1 3468   5.557   2.582   0.519  0.2084 -0.3275  0.0345
 1030SOL    HW2 3469   5.564   2.434   0.551  0.6009  0.1694  2.4478
 1031SOL     OW 3470   1.135   6.758   6.073 -0.0030  0.0546 -0.5266
 1031SOL    HW1 3471   1.074   6.825   6.042  0.8725  0.4799 -1.3701
 1031SOL    HW2 3472   1.099   6.676   6.040 -0.3752  0.2551 -0.6230
 1032SOL     OW 3473   1.865   5.438   3.313  0.3170 -0.0438  0.2408
 1032SOL    HW1 3474   1.877   5.407   3.223 -0.2024  1.1076 -0.2460
 1032SOL    HW2 3475   1.905   5.370   3.367  0.1503 -1.0279 -0.8262
 1033SOL     OW 3476   3.010   0.406   1.623 -0.6317 -0.1943 -0.0330
 1033SOL    HW1 3477   3.028   0.313   1.614 -3.9071 -0.7579 -2.5452
 1033SOL    HW2 3478   2.968   0.415   1.709  2.3729 -0.3580  1.6013
 1034SOL     OW 3479   0.886   1.451   6.150 -0.1069  0.1530 -0.6420
 1034SOL    HW1 3480   0.970   1.494   6.138  0.3002 -0.0603  1.2120
 1034SOL    HW2 3481   0.888   1.377   6.089  0.1081  1.4017 -2.2115
 1035SOL     OW 3482   5.214   6.818   4.720  0.7092 -0.1479 -0.1910
 1035SOL    HW1 3483   5.227   6.724   4.708  0.2896 -0.2739  0.3227
 1035SOL    HW2 3484   5.206   6.853   4.632  2.6254 -0.3324 -0.4931
 1036SOL     OW 3485   2.174   0.753   6.563 -0.5853  0.9166 -0.3144
 1036SOL    HW1 3486   2.142   0.691   6.629 -0.5359  0.9229 -0.2850
 1036SOL    HW2 3487   2.240   0.704   6.514 -0.6267  0.9095 -0.3640
 1037SOL     OW 3488   4.324   2.150   2.494 -0.3661  0.0848 -0.0777
 1037SOL    HW1 3489   4.344   2.159   2.401 -1.9419  0.8611 -0.3710
 1037SOL    HW2 3490   4.357   2.063   2.517  2.3322  0.8391 -0.7097
 1038SOL     OW 3491   2.664   4.523   3.186  0.0891 -0.3955  0.0177
 1038SOL    HW1 3492   2.747   4.569   3.194  0.8164 -1.5434 -0.6244
 1038SOL    HW2 3493   2.617   4.543   3.267  0.3560  1.4611 -0.2475
 1039SOL     OW 3494   2.728   1.815   6.233  0.5923 -0.1014 -0.0959
 1039SOL    HW1 3495   2.640   1.841   6.206  1.2836  2.9465  0.1587
 1039SOL    HW2 3496   2.745   1.733   6.186 -1.8776 -0.1149 -1.1210
 1040SOL     OW 3497   5.384   2.356   4.958 -0.0718 -0.2838 -0.3723
 1040SOL    HW1 3498   5.436   2.316   4.888 -0.4277 -2.6987  0.6489
 1040SOL    HW2 3499   5.300   2.310   4.956 -0.3114  0.0083  1.2222
 1041SOL     OW 3500   2.337   5.122   2.242 -0.3243 -0.2573  0.4301
 1041SOL    HW1 3501   2.402   5.187   2.267 -0.9704 -0.2777  2.3323
 1041SOL    HW2 3502   2.260   5.143   2.296 -1.4003 -1.1101 -0.7064
 1042SOL     OW 3503   4.037   4.399   3.832  0.6795 -0.4217  0.2271
 1042SOL    HW1 3504   3.943   4.379   3.826  0.9773 -1.5150 -1.5642
 1042SOL    HW2 3505   4.065   4.408   3.741  1.9764  1.7361  0.7621
 1043SOL     OW 3506   1.982   2.488   0.538  0.1672 -0.1063 -0.4173
 1043SOL    HW1 3507   2.033   2.550   0.590 -0.9880  1.1304 -0.6985
 1043SOL    HW2 3508   1.928   2.543   0.481 -0.0075 -1.3958 -1.5617
 1044SOL     OW 3509   2.802   3.934   6.118  0.6370 -0.0088 -0.1108
 1044SOL    HW1 3510   2.772   4.023   6.099  0.8542 -0.3248 -2.2631
 1044SOL    HW2 3511   2.886   3.944   6.162  0.3807  0.8433  0.1901
 1045SOL     OW 3512   6.085   6.708   0.059  0.0839 -0.4869  0.1050
 1045SOL    HW1 3513   6.168   6.724   0.105  0.0941  3.7957 -0.9116
 1045SOL    HW2 3514   6.028   6.668   0.124  1.9830 -0.5469  1.8196
 1046SOL     OW 3515   3.137   3.732   1.841  0.5189 -0.0019 -0.2330
 1046SOL    HW1 3516   3.128   3.637   1.833 -2.4750  0.1066  0.4826
 1046SOL    HW2 3517   3.109   3.751   1.931 -0.2557  1.6428 -0.7764
 1047SOL     OW 3518   0.792   5.798   0.592 -0.7087 -0.2950  0.4741
 1047SOL    HW1 3519   0.729   5.730   0.614 -0.1516 -0.4651  1.6311
 1047SOL    HW2 3520   0.738   5.877   0.579 -1.2837 -0.7751 -0.1112
 1048SOL     OW 3521   6.744   2.307   5.344  0.1010  0.2069  0.2451
 1048SOL    HW1 3522   6.785   2.249   5.408  0.5605 -0.7685 -0.8943
 1048SOL    HW2 3523   6.656   2.323   5.379  0.8250  0.9208  1.8539
 1049SOL     OW 3524   5.581   4.896   4.642  0.4682  0.2633 -0.4602
 1049SOL    HW1 3525   5.657   4.913   4.586  0.4071  0.4910 -0.4746
 1049SOL    HW2 3526   5.511   4.948   4.603  0.0879 -0.5686 -0.9201
 1050SOL     OW 3527   2.847   1.258   1.736  0.6633  0.3939  0.1548
 1050SOL    HW1 3528   2.889   1.343   1.750  1.2103 -0.1004  1.7233
 1050SOL    HW2 3529   2.901   1.216   1.668  1.5501  0.5518  0.7418
 1051SOL     OW 3530   0.025   6.282   4.840  0.1918 -0.2717  0.2330
 1051SOL    HW1 3531  -0.002   6.191   4.848 -0.6356  0.0678  1.5949
 1051SOL    HW2 3532  -0.057   6.331   4.831  0.6220  0.3569 -0.4001
 1052SOL     OW 3533   6.266   5.615   0.250  0.6902 -0.0060 -0.4601
 1052SOL    HW1 3534   6.278   5.607   0.345 -1.8504  1.5602  0.0688
 1052SOL    HW2 3535   6.287   5.706   0.230  0.2579 -0.0616 -1.2233
 1053SOL     OW 3536   3.029   4.985   5.466 -0.1674 -0.2685 -0.5567
 1053SOL    HW1 3537   2.990   4.966   5.380 -0.4963  0.8993 -0.6814
 1053SOL    HW2 3538   2.972   5.050   5.505  1.3939  1.1949 -0.5755
 1054SOL     OW 3539   3.516   5.546   2.202 -0.0146 -0.4188  0.0690
 1054SOL    HW1 3540   3.477   5.469   2.161 -1.3598  0.1735  0.1983
 1054SOL    HW2 3541   3.450   5.614   2.194  0.9574  0.6032  0.3952
 1055SOL     OW 3542   6.059   6.793   6.660  0.5579 -0.2243 -0.4226
 1055SOL    HW1 3543   6.102   6.878   6.669 -1.0957  0.5724  0.5586
 1055SOL    HW2 3544   6.073   6.750   6.744 -0.7869  0.1871  0.0337
 1056SOL     OW 3545   2.669   1.136   3.525  0.3184  0.2933  0.5233
 1056SOL    HW1 3546   2.719   1.152   3.604 -0.5426 -0.9312  1.3555
 1056SOL    HW2 3547   2.672   1.040   3.514  0.9136  0.4821 -1.2542
 1057SOL     OW 3548   2.213   1.252   0.396  0.1770 -0.2171  0.2332
 1057SOL    HW1 3549   2.153   1.294   0.335 -0.4977  0.8514  1.5678
 1057SOL    HW2 3550   2.175   1.270   0.483  1.7970 -0.5343  1.0475
 1058SOL     OW 3551   0.396   4.718   2.213 -0.1263  0.6079  0.1330
 1058SOL    HW1 3552   0.445   4.769   2.278 -0.4664 -0.2732  1.1219
 1058SOL    HW2 3553   0.304   4.729   2.237 -0.1900 -0.8117  0.6795
 1059SOL     OW 3554   1.151   4.832   1.051  0.2772 -0.1471 -0.2052
 1059SOL    HW1 3555   1.107   4.887   0.986 -0.4965 -0.2959  0.1765
 1059SOL    HW2 3556   1.135   4.743   1.022  0.4066 -0.1991 -0.1168
 1060SOL     OW 3557   1.242   2.994   2.405 -0.5436  0.7014  0.1200
 1060SOL    HW1 3558   1.200   3.080   2.413 -0.4752  0.6422  1.2924
 1060SOL    HW2 3559   1.251   2.980   2.311 -1.6403  1.4512 -0.1146
 1061SOL     OW 3560   3.306   5.512   3.995 -0.0097 -0.2587 -0.2318
 1061SOL    HW1 3561   3.353   5.484   4.074 -0.5968 -0.2166  0.1402
 1061SOL    HW2 3562   3.297   5.432   3.943 -0.2188 -0.4278  0.0622
 1062SOL     OW 3563   5.001   2.983   6.319  0.4596  0.6447  0.2271
 1062SOL    HW1 3564   4.945   2.945   6.387  1.5164 -1.4809 -0.0090
 1062SOL    HW2 3565   5.082   3.006   6.364  1.1733 -0.7919 -0.2451
 1063SOL     OW 3566   3.299   4.920   5.555 -0.6591  0.1602 -0.3493
 1063SOL    HW1 3567   3.352   4.969   5.492 -0.0708  2.4168  1.7526
 1063SOL    HW2 3568   3.212   4.958   5.548 -0.8345 -0.2643 -0.4827
 1064SOL     OW 3569   2.492   2.690   2.032  0.3233  0.6102  0.5333
 1064SOL    HW1 3570   2.497   2.783   2.052 -0.7999  0.9671 -0.6920
 1064SOL    HW2 3571   2.398   2.672   2.024  0.5502 -0.4596  0.0129
 1065SOL     OW 3572   2.412   4.413   2.024 -0.1252  1.3489 -0.3053
 1065SOL    HW1 3573   2.370   4.495   2.001 -1.8019  0.2689 -1.3047
 1065SOL    HW2 3574   2.375   4.390   2.109  0.1908  1.5126 -0.1206
 1066SOL     OW 3575   0.510   3.656   5.171 -0.7535  0.1034  0.3587
 1066SOL    HW1 3576   0.464   3.738   5.155 -2.0973 -0.4593  1.0960
 1066SOL    HW2 3577   0.576   3.678   5.236  0.4331  1.0462 -1.1198
 1067SOL     OW 3578   2.174   0.096   0.018 -0.4812  0.9366  0.7031
 1067SOL    HW1 3579   2.153   0.132  -0.069 -1.5400  0.1738  0.6153
 1067SOL    HW2 3580   2.210   0.170   0.066  2.2523  0.8867 -1.0558
 1068SOL     OW 3581   1.728   1.312   2.997  0.2418 -0.0006 -0.7427
 1068SOL    HW1 3582   1.681   1.395   3.002 -1.9017 -1.0875 -1.2630
 1068SOL    HW2 3583   1.694   1.262   3.072 -0.8950 -1.4911 -2.1893
 1069SOL     OW 3584   2.224   2.653   6.416  0.2808  0.2248 -0.3894
 1069SOL    HW1 3585   2.208   2.590   6.346 -0.5589 -1.2241  1.0591
 1069SOL    HW2 3586   2.311   2.631   6.449  0.4042  0.4904 -0.5298
 1070SOL     OW 3587   4.038   5.411   4.999 -0.0576 -0.0044  0.0034
 1070SOL    HW1 3588   3.996   5.480   5.051 -0.6548 -0.3359 -0.0247
 1070SOL    HW2 3589   4.044   5.337   5.059  0.9702  0.2013  0.1632
 1071SOL     OW 3590   6.621   4.896   2.269  0.4206  0.6525 -0.1286
 1071SOL    HW1 3591   6.636   4.882   2.175  1.6924  1.7151 -0.1041
 1071SOL    HW2 3592   6.704   4.928   2.303  0.6068 -1.5825  1.7863
 1072SOL     OW 3593   0.178   2.230   6.812  0.2548  0.4155  0.5812
 1072SOL    HW1 3594   0.143   2.305   6.765 -1.9378  1.6422  3.7915
 1072SOL    HW2 3595   0.142   2.154   6.767  2.0969  1.1704 -2.4178
 1073SOL     OW 3596   4.599   1.043   5.627  0.3205  0.1203 -0.6533
 1073SOL    HW1 3597   4.633   1.030   5.716 -2.4349 -1.2092  0.3379
 1073SOL    HW2 3598   4.675   1.037   5.570  1.8632 -1.4621  1.4479
 1074SOL     OW 3599   0.483   6.122   2.672  0.0381  0.1936  0.4312
 1074SOL    HW1 3600   0.555   6.069   2.638  0.2413 -0.1226  1.3389
 1074SOL    HW2 3601   0.514   6.212   2.663 -0.3780  0.2042 -1.2745
 1075SOL     OW 3602   5.453   5.317   5.421 -0.4575  0.4144  0.9219
 1075SOL    HW1 3603   5.480   5.366   5.343  0.4251 -1.1767  0.1708
 1075SOL    HW2 3604   5.518   5.340   5.487  0.4065 -0.3017  0.3396
 1076SOL     OW 3605   5.513   6.448   6.373  0.0596  0.4490  0.1968
 1076SOL    HW1 3606   5.507   6.506   6.449  0.8604 -0.9100  1.3476
 1076SOL    HW2 3607   5.422   6.425   6.354 -0.2546  1.8331 -0.1322
 1077SOL     OW 3608   6.589   3.612   3.150 -0.1485 -0.0231 -0.6502
 1077SOL    HW1 3609   6.573   3.690   3.203 -1.7659 -0.0794 -1.0256
 1077SOL    HW2 3610   6.646   3.558   3.204 -0.4284  0.6551  0.3441
 1078SOL     OW 3611   5.028   0.417   0.439 -0.3401 -0.3680 -0.0833
 1078SOL    HW1 3612   4.979   0.483   0.390 -0.5128 -1.1181 -0.9580
 1078SOL    HW2 3613   5.084   0.376   0.373  2.3608  1.2353  1.0810
 1079SOL     OW 3614   3.636   0.690   0.496  0.3221 -0.0998 -0.1530
 1079SOL    HW1 3615   3.695   0.659   0.565  0.8175  0.5058 -0.2983
 1079SOL    HW2 3616   3.656   0.634   0.421  1.0866  0.4283 -0.3592
 1080SOL     OW 3617   5.958   6.444   2.829  0.1206 -0.0429  0.3375
 1080SOL    HW1 3618   6.052   6.447   2.845  0.1826 -0.2726  0.0425
 1080SOL    HW2 3619   5.943   6.508   2.759 -0.6293  3.3857  3.3555
 1081SOL     OW 3620   0.224   0.283   0.183 -0.0732 -0.6121 -0.1433
 1081SOL    HW1 3621   0.244   0.209   0.240 -1.2446 -1.3750 -0.6628
 1081SOL    HW2 3622   0.231   0.247   0.094  1.2911  0.4374 -0.4905
 1082SOL     OW 3623   5.907   4.763   6.140  0.4714 -0.9388 -0.1741
 1082SOL    HW1 3624   5.920   4.753   6.046  2.6373  2.1865 -0.3632
 1082SOL    HW2 3625   5.971   4.704   6.180 -0.5333 -2.3583 -0.5782
 1083SOL     OW 3626   3.091   0.763   0.654 -0.3698 -0.4579 -1.1209
 1083SOL    HW1 3627   3.152   0.833   0.679  0.5596 -1.1351 -1.4468
 1083SOL    HW2 3628   3.012   0.781   0.705  0.4537 -0.1296  0.0763
 1084SOL     OW 3629   2.244   3.519   4.141  0.4697 -0.5275 -0.1318
 1084SOL    HW1 3630   2.336   3.508   4.166  0.4632 -2.2854 -0.7363
 1084SOL    HW2 3631   2.195   3.478   4.213  0.2448 -1.0655 -0.5807
 1085SOL     OW 3632   6.371   2.393   4.044  0.6869 -0.1260 -0.3099
 1085SOL    HW1 3633   6.275   2.389   4.040  0.7100 -4.1165 -0.7779
 1085SOL    HW2 3634   6.399   2.366   3.956  2.1595 -1.0653  0.4168
 1086SOL     OW 3635   3.513   6.554   6.206 -0.4123  0.1383 -0.1371
 1086SOL    HW1 3636   3.485   6.646   6.206  0.1364  0.3375 -1.5123
 1086SOL    HW2 3637   3.566   6.546   6.127  1.4454 -0.7898  1.1194
 1087SOL     OW 3638   6.556   4.696   2.971  0.3610  0.1131  0.0450
 1087SOL    HW1 3639   6.620   4.653   3.028  0.7417 -2.5112 -2.1565
 1087SOL    HW2 3640   6.475   4.645   2.983 -0.5792  1.7003  0.7624
 1088SOL     OW 3641   5.250   3.355   6.226 -0.4738  0.2575 -0.5291
 1088SOL    HW1 3642   5.302   3.369   6.305 -0.1780  0.8174 -0.8185
 1088SOL    HW2 3643   5.233   3.261   6.225 -0.9510  0.3192  0.4869
 1089SOL     OW 3644   4.885   0.200   0.869  0.5413 -0.5277 -0.1540
 1089SOL    HW1 3645   4.903   0.206   0.775  0.8665  2.4619  0.0280
 1089SOL    HW2 3646   4.971   0.210   0.911  0.4232 -2.0002  0.5027
 1090SOL     OW 3647   2.062   2.721   4.824  0.2163  0.3236  0.1173
 1090SOL    HW1 3648   2.125   2.721   4.752  0.8570 -0.7005  0.6605
 1090SOL    HW2 3649   1.985   2.677   4.789 -0.1497  1.4070 -0.4882
 1091SOL     OW 3650   1.955   6.330   2.610 -0.4364 -0.0085 -0.0993
 1091SOL    HW1 3651   1.902   6.410   2.606 -0.3646  0.0089 -0.7225
 1091SOL    HW2 3652   2.018   6.340   2.539  0.0804 -0.2634  0.3248
 1092SOL     OW 3653   5.470   1.108   3.537  0.5219  0.5436  0.0538
 1092SOL    HW1 3654   5.412   1.035   3.560  0.6497  0.3917 -0.1009
 1092SOL    HW2 3655   5.416   1.186   3.550  0.8132  0.5130  1.5183
 1093SOL     OW 3656   0.003   6.754   5.353 -0.2446  0.1142  0.3654
 1093SOL    HW1 3657   0.047   6.670   5.342 -0.5810 -0.2125  1.3649
 1093SOL    HW2 3658  -0.079   6.745   5.305 -0.0884  0.0376  0.1090
 1094SOL     OW 3659   4.068   2.388   1.428  0.0439 -0.3125  0.0535
 1094SOL    HW1 3660   4.153   2.403   1.386  0.3102  1.0766  1.0049
 1094SOL    HW2 3661   4.056   2.464   1.485 -1.2969 -1.0759  0.8464
 1095SOL     OW 3662   2.003   1.652   6.586 -0.0876  0.3447 -0.2080
 1095SOL    HW1 3663   1.948   1.594   6.638  2.8378  0.3672  3.2912
 1095SOL    HW2 3664   1.979   1.741   6.614  0.2243  0.4573 -0.2848
 1096SOL     OW 3665   3.075   4.270   5.528  0.8016  0.1219  0.2117
 1096SOL    HW1 3666   3.030   4.355   5.519 -0.1281 -0.3613  0.1230
 1096SOL    HW2 3667   3.028   4.213   5.467 -0.2175 -1.1077  2.0826
 1097SOL     OW 3668   1.549   0.311   5.521 -0.4701 -0.7459  0.1353
 1097SOL    HW1 3669   1.509   0.397   5.510  2.1374  1.0315  3.1101
 1097SOL    HW2 3670   1.491   0.265   5.583 -1.0361 -0.5975 -0.2686
 1098SOL     OW 3671   2.664   3.438   5.247  0.4972  0.0587 -0.3476
 1098SOL    HW1 3672   2.735   3.452   5.185  0.1075  0.0855 -0.7993
 1098SOL    HW2 3673   2.672   3.346   5.273  0.8995  0.1546 -0.1370
 1099SOL     OW 3674   0.891   1.086   2.232  0.1769  0.0928 -0.1167
 1099SOL    HW1 3675   0.916   1.075   2.140  2.1117  0.8659  0.2574
 1099SOL    HW2 3676   0.816   1.145   2.230  0.8484  0.9436 -1.1743
 1100SOL     OW 3677   3.432   2.974   6.525  0.1463  0.0196 -0.0679
 1100SOL    HW1 3678   3.374   3.016   6.589 -0.2981 -0.5937 -0.0634
 1100SOL    HW2 3679   3.382   2.973   6.444  0.5116  0.3208 -0.3021
 1101SOL     OW 3680   5.292   6.612   4.279  0.0123  0.0694 -0.1180
 1101SOL    HW1 3681   5.216   6.647   4.232  0.0036  0.9334  0.5185
 1101SOL    HW2 3682   5.350   6.687   4.292 -0.3168  0.0428  1.8864
 1102SOL     OW 3683   5.677   5.507   6.326 -0.1405 -0.4248 -0.6191
 1102SOL    HW1 3684   5.724   5.427   6.304  0.4605  0.2978 -2.0994
 1102SOL    HW2 3685   5.745   5.570   6.349 -0.4899  0.0767 -0.9207
 1103SOL     OW 3686   1.193   2.205   4.824  0.6169 -0.3588  0.2993
 1103SOL    HW1 3687   1.205   2.297   4.849 -1.0397 -0.4630  1.6514
 1103SOL    HW2 3688   1.117   2.176   4.874  1.7669 -2.8141  0.7882
 1104SOL     OW 3689   5.736   2.931   0.469 -0.0170  0.2915  0.1218
 1104SOL    HW1 3690   5.785   2.852   0.444 -0.5010 -0.9047  2.6097
 1104SOL    HW2 3691   5.666   2.937   0.404 -0.5344 -1.9522  0.3722
 1105SOL     OW 3692   4.529   0.695   6.579 -0.1436  0.3418 -0.1163
 1105SOL    HW1 3693   4.455   0.641   6.606  1.0538 -1.8712 -1.0003
 1105SOL    HW2 3694   4.513   0.780   6.621 -1.7893 -0.8466  1.8786
 1106SOL     OW 3695   6.608   0.029   5.886  0.0025  0.1355  0.1456
 1106SOL    HW1 3696   6.547   0.020   5.812  0.1856  1.1858 -0.1409
 1106SOL    HW2 3697   6.694   0.033   5.845  0.1079  0.6966  0.4161
 1107SOL     OW 3698   5.931   5.589   0.411 -0.2573  0.4212  0.0464
 1107SOL    HW1 3699   5.882   5.623   0.486 -0.0244  0.6653  0.0887
 1107SOL    HW2 3700   5.920   5.656   0.343  1.0761  1.1093  0.4695
 1108SOL     OW 3701   0.554   5.789   6.106  0.0410 -0.5584  0.2427
 1108SOL    HW1 3702   0.537   5.795   6.200  0.9138  0.3586  0.3544
 1108SOL    HW2 3703   0.470   5.763   6.068 -0.3809 -0.7016  1.2449
 1109SOL     OW 3704   2.027   5.378   2.571 -0.0424  0.2510  0.0555
 1109SOL    HW1 3705   2.071   5.413   2.649 -0.3938 -0.5185  0.6068
 1109SOL    HW2 3706   1.934   5.378   2.594 -0.3398  1.6005 -0.9998
 1110SOL     OW 3707   0.678   1.147   3.626 -0.4780 -0.2990  0.4345
 1110SOL    HW1 3708   0.689   1.231   3.581  1.6882 -1.1556 -0.8197
 1110SOL    HW2 3709   0.748   1.146   3.691 -2.0494 -0.1315  2.1903
 1111SOL     OW 3710   2.686   5.042   5.784 -0.0124 -0.1763 -0.2428
 1111SOL    HW1 3711   2.596   5.009   5.774 -0.1750  0.6064 -1.5365
 1111SOL    HW2 3712   2.741   4.968   5.758 -0.3171 -0.1762 -0.8932
 1112SOL     OW 3713   0.927   2.951   6.151 -0.0312 -0.0595  0.2220
 1112SOL    HW1 3714   0.860   2.883   6.159  1.2115 -1.2289  1.2386
 1112SOL    HW2 3715   0.879   3.030   6.130 -1.4526 -1.4567 -2.3126
 1113SOL     OW 3716   4.026   2.879   4.305  0.5808  0.1363 -0.2617
 1113SOL    HW1 3717   4.100   2.824   4.282  0.1956 -0.7705  0.6016
 1113SOL    HW2 3718   4.016   2.869   4.400  1.0886  2.4434  0.1076
 1114SOL     OW 3719   3.729   4.090   5.803  0.8032  0.2402 -0.0877
 1114SOL    HW1 3720   3.716   3.999   5.774 -0.4755 -0.1989  1.6910
 1114SOL    HW2 3721   3.641   4.128   5.801  0.8686  0.5888  1.8209
 1115SOL     OW 3722   2.786   5.895   1.675  0.2291  0.7018  0.2100
 1115SOL    HW1 3723   2.805   5.808   1.639 -0.0025  1.1814 -1.1297
 1115SOL    HW2 3724   2.749   5.877   1.761  0.4969 -0.5168  0.0951
 1116SOL     OW 3725   0.583   5.246   2.693 -0.1373  0.2928 -0.5531
 1116SOL    HW1 3726   0.572   5.297   2.774  0.0413 -3.0601  1.7750
 1116SOL    HW2 3727   0.515   5.179   2.698  0.3475 -0.4327 -2.8605
 1117SOL     OW 3728   2.600   1.764   4.689 -0.0935  0.5758  0.2001
 1117SOL    HW1 3729   2.686   1.805   4.697 -0.0548  1.0086 -1.8539
 1117SOL    HW2 3730   2.617   1.670   4.699  0.6218  0.6659 -0.0802
 1118SOL     OW 3731   5.946   3.087   0.346 -0.1151  0.0752 -0.0828
 1118SOL    HW1 3732   5.863   3.047   0.373  0.2423 -0.9183 -0.4017
 1118SOL    HW2 3733   6.010   3.054   0.409  0.2430 -0.1013 -0.5362
 1119SOL     OW 3734   3.828   6.023   0.025 -0.2353 -0.1919 -0.1498
 1119SOL    HW1 3735   3.833   5.941  -0.024  0.9624  0.4467 -1.1348
 1119SOL    HW2 3736   3.794   6.087  -0.037 -0.1452  0.3025  0.2990
 1120SOL     OW 3737   3.550   3.195   6.113  0.4232 -0.1838  0.3029
 1120SOL    HW1 3738   3.461   3.211   6.080  0.8581 -0.8509 -1.2886
 1120SOL    HW2 3739   3.567   3.267   6.173 -0.7848  0.5619 -0.2251
 1121SOL     OW 3740   1.935   2.193   0.974  0.2197 -0.0939  0.4213
 1121SOL    HW1 3741   1.938   2.135   0.898  0.9548 -0.4945  0.7460
 1121SOL    HW2 3742   1.856   2.245   0.962  0.6749  0.3198 -0.9684
 1122SOL     OW 3743   2.236   2.362   2.277  0.1433 -0.7292 -0.4575
 1122SOL    HW1 3744   2.166   2.354   2.342 -0.9193 -0.8076 -1.5766
 1122SOL    HW2 3745   2.253   2.456   2.272 -0.0744 -0.6831 -0.3625
 1123SOL     OW 3746   2.133   3.824   2.272 -0.0337  0.6752 -0.3849
 1123SOL    HW1 3747   2.164   3.863   2.191  1.6847  0.5226  0.1467
 1123SOL    HW2 3748   2.190   3.749   2.286 -1.7142 -0.6242 -0.1330
 1124SOL     OW 3749   1.713   4.031   3.652  0.0110 -0.2333  0.3463
 1124SOL    HW1 3750   1.624   4.013   3.682  0.4194  0.3720  1.9956
 1124SOL    HW2 3751   1.740   4.108   3.701  1.7752 -0.9475  0.5755
 1125SOL     OW 3752   1.532   5.383   4.002  0.3330 -0.3011  0.3895
 1125SOL    HW1 3753   1.447   5.339   4.010  0.7835 -1.2839 -0.0640
 1125SOL    HW2 3754   1.522   5.440   3.925 -0.6692  1.4405  1.7117
 1126SOL     OW 3755   0.236   2.036   4.175  0.6008 -0.1576 -0.0619
 1126SOL    HW1 3756   0.212   2.110   4.119 -2.9905 -0.6081  0.6309
 1126SOL    HW2 3757   0.184   2.049   4.255  1.4337 -2.3500  0.9040
 1127SOL     OW 3758   1.947   2.389   1.522  0.1372 -0.1634 -0.0322
 1127SOL    HW1 3759   1.936   2.484   1.516  0.6688 -0.1074 -0.1763
 1127SOL    HW2 3760   1.864   2.357   1.557 -1.1512  0.0506 -2.6394
 1128SOL     OW 3761   5.606   6.108   3.575 -0.1275 -0.4093  0.3279
 1128SOL    HW1 3762   5.634   6.187   3.528 -0.2653 -1.5157 -1.7322
 1128SOL    HW2 3763   5.592   6.043   3.506 -0.6887 -2.0440  1.9101
 1129SOL     OW 3764   2.041   2.615   3.734  0.1479  0.2604 -0.4266
 1129SOL    HW1 3765   1.978   2.611   3.806 -0.1931  1.2590 -0.6448
 1129SOL    HW2 3766   2.090   2.533   3.740  1.2831  1.0020  2.0045
 1130SOL     OW 3767   6.187   0.535   5.473 -0.1078 -0.1872 -0.1074
 1130SOL    HW1 3768   6.253   0.519   5.405 -0.1334  0.0363 -0.1863
 1130SOL    HW2 3769   6.192   0.629   5.489 -0.0232 -0.2559  0.2865
 1131SOL     OW 3770   2.273   5.976   2.939  0.0754 -0.2084 -0.0354
 1131SOL    HW1 3771   2.341   5.932   2.888 -0.4146  0.6348 -1.4604
 1131SOL    HW2 3772   2.258   5.917   3.013  1.6601 -0.8756 -0.1925
 1132SOL     OW 3773   5.421   0.904   4.464 -0.5248  0.0334  0.0122
 1132SOL    HW1 3774   5.487   0.927   4.400 -0.1652  1.4543  0.8548
 1132SOL    HW2 3775   5.339   0.904   4.415 -0.4095  2.1972 -0.2734
 1133SOL     OW 3776   4.012   1.538   5.915  0.0492 -0.5882  0.1685
 1133SOL    HW1 3777   4.042   1.511   5.828 -0.9303  0.1228 -0.4133
 1133SOL    HW2 3778   4.077   1.602   5.944 -1.2697  1.5662 -1.4331
 1134SOL     OW 3779   6.099   5.962   5.085  0.2203 -0.0115  0.0772
 1134SOL    HW1 3780   6.027   5.972   5.146  1.6716  0.7200  1.7708
 1134SOL    HW2 3781   6.097   6.042   5.032 -0.7466 -0.4218 -0.5277
 1135SOL     OW 3782   6.200   6.456   2.668  0.0539 -0.3914 -0.0279
 1135SOL    HW1 3783   6.175   6.497   2.586 -0.0037 -2.8511 -1.3321
 1135SOL    HW2 3784   6.288   6.490   2.686  1.3646 -2.0184 -2.7746
 1136SOL     OW 3785   2.904   4.461   3.803  0.8138 -1.2188 -0.5412
 1136SOL    HW1 3786   2.845   4.413   3.744 -1.1935 -1.4261  1.4767
 1136SOL    HW2 3787   2.851   4.477   3.882  3.0567 -0.1500  0.8567
 1137SOL     OW 3788   3.779   5.690   5.512  0.4038  0.3895  0.0185
 1137SOL    HW1 3789   3.741   5.675   5.426  0.2325 -0.2084  0.1955
 1137SOL    HW2 3790   3.844   5.759   5.498 -0.7416  1.4476 -0.2999
 1138SOL     OW 3791   5.922   0.943   3.970 -0.0432 -0.6876  0.4225
 1138SOL    HW1 3792   5.914   1.038   3.974  0.3931 -0.6797  1.9595
 1138SOL    HW2 3793   5.856   0.915   3.907  0.8929  0.7448 -1.2623
 1139SOL     OW 3794   4.867   6.816   5.313  0.4163  0.0748  0.7299
 1139SOL    HW1 3795   4.802   6.751   5.341  0.7679 -0.7960 -0.4048
 1139SOL    HW2 3796   4.949   6.786   5.352  0.2449  0.9298  1.7950
 1140SOL     OW 3797   5.539   0.025   2.429 -0.6508 -0.7362 -0.0067
 1140SOL    HW1 3798   5.589   0.106   2.444 -1.6519 -0.3013  1.2653
 1140SOL    HW2 3799   5.570  -0.007   2.345 -0.4106  1.1369 -0.6986
 1141SOL     OW 3800   0.013   1.404   4.044 -0.2181  0.6501  0.4813
 1141SOL    HW1 3801   0.026   1.489   4.086 -0.2891  0.1360  1.6011
 1141SOL    HW2 3802   0.096   1.358   4.056  0.9086  1.6085 -2.7854
 1142SOL     OW 3803   6.285   2.534   1.879  0.1854 -0.1664  1.0443
 1142SOL    HW1 3804   6.302   2.441   1.891 -2.8358 -1.1109 -0.7793
 1142SOL    HW2 3805   6.217   2.555   1.944 -0.2372  0.3348  0.4588
 1143SOL     OW 3806   3.339   3.516   1.874 -0.1483 -0.0314 -0.1052
 1143SOL    HW1 3807   3.401   3.581   1.907  0.2506  0.5244 -1.8631
 1143SOL    HW2 3808   3.279   3.502   1.948 -0.1582  2.2229  0.4085
 1144SOL     OW 3809   5.016   2.671   2.230  0.2510  0.3195  0.1210
 1144SOL    HW1 3810   5.033   2.586   2.271  1.4645  1.1014  1.3007
 1144SOL    HW2 3811   5.008   2.732   2.303 -0.5602  1.2476 -0.7163
 1145SOL     OW 3812   3.769   1.833   3.149  0.0268 -0.4532 -0.2278
 1145SOL    HW1 3813   3.860   1.814   3.125  0.1553 -1.1759  0.7223
 1145SOL    HW2 3814   3.765   1.928   3.156  0.3673 -0.3235 -1.5221
 1146SOL     OW 3815   4.192   5.189   2.421  0.0432  0.6322  0.7358
 1146SOL    HW1 3816   4.097   5.176   2.424  0.2373 -1.4881 -0.3806
 1146SOL    HW2 3817   4.206   5.244   2.344 -0.2257 -0.3314 -0.0373
 1147SOL     OW 3818   3.270   3.310   4.119  0.1195 -0.3944  0.4461
 1147SOL    HW1 3819   3.253   3.242   4.184 -0.7238 -0.5098  0.1162
 1147SOL    HW2 3820   3.354   3.285   4.080  0.3915 -0.5880  1.1524
 1148SOL     OW 3821   2.534   4.031   4.871  0.1308  0.7512 -0.7340
 1148SOL    HW1 3822   2.480   4.064   4.943 -0.9395 -0.8589 -0.7206
 1148SOL    HW2 3823   2.623   4.057   4.893 -0.5368  2.8712 -0.3739
 1149SOL     OW 3824   4.933   1.477   6.754 -0.2277 -0.1743  0.9393
 1149SOL    HW1 3825   5.016   1.437   6.779 -0.8176 -0.7173  2.0753
 1149SOL    HW2 3826   4.870   1.404   6.753 -0.3610 -0.1161 -1.7009
 1150SOL     OW 3827   0.190   4.368   0.186  0.0781  0.2316 -0.0326
 1150SOL    HW1 3828   0.263   4.414   0.146  0.0058  1.5244  1.2493
 1150SOL    HW2 3829   0.175   4.414   0.269 -1.5928 -0.5821  0.1573
 1151SOL     OW 3830   2.482   0.329   0.417 -0.0139  0.1383  0.5092
 1151SOL    HW1 3831   2.423   0.318   0.491 -0.1346  0.3136  0.4393
 1151SOL    HW2 3832   2.526   0.412   0.434 -1.0272  0.8655 -0.2957
 1152SOL     OW 3833   6.400   5.945   6.192 -0.0547 -0.0286 -0.6580
 1152SOL    HW1 3834   6.310   5.961   6.164 -0.6464 -2.3134 -0.2530
 1152SOL    HW2 3835   6.392   5.897   6.274  1.5546  0.3233 -0.2585
 1153SOL     OW 3836   6.466   4.048   3.450 -0.2072 -0.6569 -0.2552
 1153SOL    HW1 3837   6.500   4.134   3.475 -0.6848 -0.4987 -0.1421
 1153SOL    HW2 3838   6.488   3.991   3.524 -0.8658 -0.3819  0.1539
 1154SOL     OW 3839   2.136   5.222   4.367 -0.5846 -0.1756  0.1835
 1154SOL    HW1 3840   2.159   5.233   4.275 -0.0652  2.4660  0.5503
 1154SOL    HW2 3841   2.068   5.155   4.367 -0.4136 -0.4210 -2.0845
 1155SOL     OW 3842   1.199   6.463   0.098 -0.1415 -0.4877  0.6576
 1155SOL    HW1 3843   1.153   6.441   0.179  0.9310 -0.2305  1.3551
 1155SOL    HW2 3844   1.221   6.556   0.108  0.3069 -0.5476  0.2287
 1156SOL     OW 3845   5.134   2.312   5.643 -0.4332 -0.0818  0.3099
 1156SOL    HW1 3846   5.043   2.294   5.617 -0.1282 -0.8974 -0.2566
 1156SOL    HW2 3847   5.152   2.398   5.606 -0.2268 -0.9282 -1.7321
 1157SOL     OW 3848   2.333   0.838   5.201 -0.2832  0.5676  0.6129
 1157SOL    HW1 3849   2.352   0.798   5.285 -0.3075  1.2041  0.9242
 1157SOL    HW2 3850   2.294   0.923   5.222  0.2191  0.9697 -0.0364
 1158SOL     OW 3851   4.536   6.627   5.187 -0.4901 -0.0277 -0.3250
 1158SOL    HW1 3852   4.538   6.563   5.258 -1.1610 -1.3125 -1.4077
 1158SOL    HW2 3853   4.620   6.616   5.143 -0.5507 -0.0782 -0.4296
 1159SOL     OW 3854   2.074   2.938   2.659  0.3481  0.1893  0.2044
 1159SOL    HW1 3855   2.019   3.007   2.621  0.9170  0.0498 -0.9085
 1159SOL    HW2 3856   2.033   2.856   2.632  1.8146  0.0518 -1.8585
 1160SOL     OW 3857   5.955   3.092   1.097 -0.1513  0.3357 -0.4038
 1160SOL    HW1 3858   5.921   3.178   1.119 -2.2326 -0.3561 -0.6247
 1160SOL    HW2 3859   5.976   3.052   1.182  1.4388  1.2497 -0.3343
 1161SOL     OW 3860   1.370   2.166   0.997 -0.3866  0.0689 -0.1648
 1161SOL    HW1 3861   1.288   2.171   0.947 -1.1197 -0.8298  0.8933
 1161SOL    HW2 3862   1.376   2.250   1.041  0.4979  1.0480 -2.0510
 1162SOL     OW 3863   1.247   4.313   1.662  0.3208  0.2585  0.8285
 1162SOL    HW1 3864   1.223   4.370   1.589  0.8078 -0.2730  0.2308
 1162SOL    HW2 3865   1.296   4.242   1.621  0.4571 -0.1432  1.6610
 1163SOL     OW 3866   5.523   4.934   5.510  0.4254  0.5746 -0.5047
 1163SOL    HW1 3867   5.612   4.946   5.476  0.8442 -0.0309  0.3387
 1163SOL    HW2 3868   5.531   4.862   5.573 -0.3015  1.6669  0.8865
 1164SOL     OW 3869   5.492   2.192   3.452 -0.0612  0.1903 -0.0294
 1164SOL    HW1 3870   5.478   2.228   3.539 -0.6330  3.2342 -1.2738
 1164SOL    HW2 3871   5.587   2.192   3.441 -0.0054  0.1417  0.4346
 1165SOL     OW 3872   6.242   5.235   6.754 -0.0797  0.2822 -0.5168
 1165SOL    HW1 3873   6.302   5.305   6.781 -1.3157  0.5306  1.8360
 1165SOL    HW2 3874   6.191   5.274   6.684  0.8851  0.8669 -0.9235
 1166SOL     OW 3875   4.615   5.573   4.470  0.2581  0.3179  0.0825
 1166SOL    HW1 3876   4.639   5.508   4.404  0.7493  0.0223  0.5375
 1166SOL    HW2 3877   4.592   5.521   4.547  0.9495  0.6772  0.5460
 1167SOL     OW 3878   6.692   4.250   4.801  0.2903 -0.5207  0.5515
 1167SOL    HW1 3879   6.779   4.249   4.760  0.0916 -0.2503  0.1170
 1167SOL    HW2 3880   6.657   4.163   4.784  0.4437 -0.6046  0.6593
 1168SOL     OW 3881   1.707   6.752   1.895 -0.1099  0.1477  0.2105
 1168SOL    HW1 3882   1.680   6.680   1.952 -0.8413  1.0845  1.0703
 1168SOL    HW2 3883   1.655   6.741   1.816  1.3205 -1.5000 -0.5899
 1169SOL     OW 3884   4.576   0.156   3.562  0.2443  0.2150 -0.8602
 1169SOL    HW1 3885   4.663   0.144   3.523  0.7794 -0.5171  0.4834
 1169SOL    HW2 3886   4.594   0.175   3.654 -1.0499 -2.2106 -0.0217
 1170SOL     OW 3887   1.386   3.963   2.533 -0.2567  0.2451  0.0448
 1170SOL    HW1 3888   1.350   4.051   2.543 -1.0132  0.1188 -1.2992
 1170SOL    HW2 3889   1.475   3.978   2.499  0.0427  0.5006  0.9146
 1171SOL     OW 3890   4.775   5.710   3.779  0.0373 -0.0492  0.2998
 1171SOL    HW1 3891   4.711   5.642   3.758  1.1954 -0.8520 -0.8102
 1171SOL    HW2 3892   4.807   5.686   3.866  1.0351 -1.4647 -0.4106
 1172SOL     OW 3893   2.016   0.724   5.363  0.2238  0.0041 -0.3688
 1172SOL    HW1 3894   2.027   0.629   5.373 -2.7633 -0.3204  1.3861
 1172SOL    HW2 3895   2.071   0.761   5.432  1.8190 -0.3620 -1.3958
 1173SOL     OW 3896   5.214   1.437   5.182 -0.1137  0.3176 -0.0582
 1173SOL    HW1 3897   5.187   1.504   5.246  0.3549 -1.7434  2.4427
 1173SOL    HW2 3898   5.302   1.414   5.209  0.1874 -0.4620 -1.6541
 1174SOL     OW 3899   2.054   0.842   0.578 -0.6501  0.6535 -0.3982
 1174SOL    HW1 3900   2.033   0.758   0.539 -1.7416  0.0401  1.3888
 1174SOL    HW2 3901   2.104   0.821   0.657  1.0472  1.8253 -1.0801
 1175SOL     OW 3902   2.168   2.092   3.400 -0.3385  0.4583 -0.1775
 1175SOL    HW1 3903   2.210   2.060   3.320  1.5500  0.8843  0.5823
 1175SOL    HW2 3904   2.095   2.032   3.414  0.0522 -0.3856 -1.5382
 1176SOL     OW 3905   2.717   2.152   6.122  0.3107 -0.1609 -0.0781
 1176SOL    HW1 3906   2.690   2.226   6.177 -0.3955 -0.9213  0.6257
 1176SOL    HW2 3907   2.638   2.099   6.112  0.8784 -0.9821 -0.3234
 1177SOL     OW 3908   3.501   3.576   5.961  0.6152 -0.1095 -0.1778
 1177SOL    HW1 3909   3.539   3.574   6.049 -1.8315 -1.4087  0.9593
 1177SOL    HW2 3910   3.497   3.669   5.939  0.6694  0.2972  1.4018
 1178SOL     OW 3911   0.335   0.908   1.632 -0.0143 -0.0092 -0.9929
 1178SOL    HW1 3912   0.403   0.841   1.641 -1.1982 -1.0832  0.4986
 1178SOL    HW2 3913   0.254   0.863   1.655 -1.2230  1.3147 -2.4054
 1179SOL     OW 3914   5.735   0.422   0.233 -0.3835 -0.1965  0.0602
 1179SOL    HW1 3915   5.719   0.330   0.255 -0.4094  0.1003  1.3491
 1179SOL    HW2 3916   5.830   0.432   0.240 -0.4445  0.0326  0.6029
 1180SOL     OW 3917   2.467   2.016   6.164 -0.0591  0.0499  0.1596
 1180SOL    HW1 3918   2.416   1.982   6.238  0.3257 -0.1397  0.3393
 1180SOL    HW2 3919   2.427   2.101   6.145 -1.9989 -1.0790 -1.2339
 1181SOL     OW 3920   1.560   6.296   4.904 -0.0725 -0.1224 -0.0247
 1181SOL    HW1 3921   1.615   6.365   4.938 -2.0501  0.6476  1.8460
 1181SOL    HW2 3922   1.577   6.295   4.809  2.9442  0.1191  0.4441
 1182SOL     OW 3923   2.021   0.487   5.016  0.4465  0.3042 -0.0045
 1182SOL    HW1 3924   2.086   0.557   5.025 -0.3198  1.1134 -0.5639
 1182SOL    HW2 3925   2.071   0.410   4.990  1.2331  0.8021  0.0246
 1183SOL     OW 3926   6.517   5.392   4.732  0.3066  0.4573  0.4528
 1183SOL    HW1 3927   6.421   5.386   4.735  0.3604 -0.5161  0.6610
 1183SOL    HW2 3928   6.545   5.348   4.813  0.9788 -0.8695 -0.4730
 1184SOL     OW 3929   2.939   2.304   4.956  0.2393  0.1874  0.5185
 1184SOL    HW1 3930   2.890   2.228   4.988  2.4329 -2.0515 -1.0176
 1184SOL    HW2 3931   2.948   2.361   5.032 -3.3021  0.0314  1.2312
 1185SOL     OW 3932   3.600   5.782   3.289 -0.4355 -0.1691  0.5039
 1185SOL    HW1 3933   3.673   5.800   3.348 -0.3107  0.2251  0.2316
 1185SOL    HW2 3934   3.599   5.686   3.281  0.9490 -0.1194 -0.6065
 1186SOL     OW 3935   0.692   1.628   0.881  0.2455 -0.0347 -0.1589
 1186SOL    HW1 3936   0.597   1.631   0.882  0.2030 -0.3627  1.8622
 1186SOL    HW2 3937   0.719   1.693   0.945  1.4514  0.7954 -1.4526
 1187SOL     OW 3938   5.716   6.220   1.079  0.0279 -0.2881 -0.1449
 1187SOL    HW1 3939   5.703   6.289   1.144 -0.7112 -2.4506  2.1157
 1187SOL    HW2 3940   5.643   6.231   1.018 -2.1438 -1.1281  2.1589
 1188SOL     OW 3941   6.107   5.868   0.040 -0.0972  0.1128  0.2445
 1188SOL    HW1 3942   6.144   5.956   0.042  1.9875 -0.6975  0.0268
 1188SOL    HW2 3943   6.170   5.814   0.089 -1.9260 -1.0749  1.4400
 1189SOL     OW 3944   3.826   6.061   6.407  0.3617 -0.4383 -0.2049
 1189SOL    HW1 3945   3.758   6.006   6.370 -0.1225 -0.1118  0.1880
 1189SOL    HW2 3946   3.881   6.086   6.332 -1.0961  0.9227 -0.8800
 1190SOL     OW 3947   3.254   5.963   0.952  0.7037  0.8208 -0.1406
 1190SOL    HW1 3948   3.175   5.990   0.905  0.9029  0.0202 -0.9487
 1190SOL    HW2 3949   3.326   6.004   0.903  0.8153  1.4631  0.5329
 1191SOL     OW 3950   2.472   5.947   4.862 -0.1904 -0.0393  0.2813
 1191SOL    HW1 3951   2.456   6.040   4.878 -1.7893 -0.3560  0.6821
 1191SOL    HW2 3952   2.513   5.944   4.775 -0.0594  1.0410  0.2939
 1192SOL     OW 3953   4.112   4.672   2.583 -0.2717  0.5436 -0.6139
 1192SOL    HW1 3954   4.150   4.759   2.577 -0.0677  0.4649 -0.4527
 1192SOL    HW2 3955   4.033   4.684   2.635  1.8666 -0.0322  3.0609
 1193SOL     OW 3956   6.757   3.255   1.932  0.7136 -0.3182  0.4898
 1193SOL    HW1 3957   6.691   3.190   1.908  1.5913 -0.8467 -0.5918
 1193SOL    HW2 3958   6.825   3.205   1.977  0.4717  0.2021  1.4710
 1194SOL     OW 3959   1.161   3.934   6.180  0.5764  0.2049  0.3928
 1194SOL    HW1 3960   1.247   3.893   6.175  0.3981 -0.2970  1.3000
 1194SOL    HW2 3961   1.106   3.880   6.124  0.9217  0.7417 -0.4854
 1195SOL     OW 3962   1.202   5.179   6.574  0.5527 -0.0253 -0.1475
 1195SOL    HW1 3963   1.272   5.244   6.583  1.0909 -0.2009 -2.4457
 1195SOL    HW2 3964   1.129   5.227   6.535 -0.2811 -0.0765  1.2904
 1196SOL     OW 3965   6.844   0.317   5.197 -0.0605 -0.5336 -0.3876
 1196SOL    HW1 3966   6.824   0.327   5.104 -0.5651  1.2131 -0.1118
 1196SOL    HW2 3967   6.759   0.305   5.239  0.0754 -0.3055 -0.0425
 1197SOL     OW 3968   4.088   0.825   5.308 -0.1352  0.0272  0.0378
 1197SOL    HW1 3969   4.112   0.827   5.400 -0.0177  0.1293  0.0058
 1197SOL    HW2 3970   4.064   0.734   5.291 -1.2766  0.2368  0.4511
 1198SOL     OW 3971   2.936   5.390   6.014 -0.2599 -0.5561 -0.0141
 1198SOL    HW1 3972   2.853   5.342   6.010 -0.7939  0.3816 -1.1249
 1198SOL    HW2 3973   2.996   5.340   5.959 -0.9526  0.2343 -1.5717
 1199SOL     OW 3974   3.703   2.833   4.378 -0.0814 -0.1267 -0.4987
 1199SOL    HW1 3975   3.705   2.738   4.369  1.1485 -0.2262  0.5067
 1199SOL    HW2 3976   3.795   2.859   4.375 -0.3876  1.0001 -0.4580
 1200SOL     OW 3977   6.833   6.530   0.216 -0.0812  0.0130  0.5282
 1200SOL    HW1 3978   6.856   6.481   0.295  0.4402  1.8824  1.5895
 1200SOL    HW2 3979   6.805   6.616   0.248 -0.0331  0.7553 -1.3039
 1201SOL     OW 3980   3.084   5.661   3.049 -0.0678 -0.3272  0.0061
 1201SOL    HW1 3981   3.129   5.675   3.132  0.9920 -0.4413 -0.5372
 1201SOL    HW2 3982   3.144   5.607   2.998 -0.8107 -0.4517 -0.7555
 1202SOL     OW 3983   4.877   2.731   4.776 -0.7201  0.2829  0.0784
 1202SOL    HW1 3984   4.859   2.745   4.869  0.7582  0.9439  0.2907
 1202SOL    HW2 3985   4.791   2.717   4.737 -1.2691 -1.6052  1.7903
 1203SOL     OW 3986   3.674   5.790   0.269  0.1740  0.2664  0.0958
 1203SOL    HW1 3987   3.699   5.700   0.290  0.7130  0.3837 -0.0406
 1203SOL    HW2 3988   3.594   5.781   0.217  0.1167 -0.1239  0.2464
 1204SOL     OW 3989   2.332   0.319   6.398 -0.5353 -0.3028  0.0260
 1204SOL    HW1 3990   2.356   0.283   6.312 -1.2793 -1.0764  0.1375
 1204SOL    HW2 3991   2.242   0.290   6.412 -0.5815  0.2264  0.8604
 1205SOL     OW 3992   6.766   4.719   0.359  0.2997  0.6751 -0.3875
 1205SOL    HW1 3993   6.715   4.800   0.350  1.3902  1.2806 -1.3802
 1205SOL    HW2 3994   6.734   4.680   0.440 -3.3191 -0.1363 -2.0184
 1206SOL     OW 3995   1.665   1.365   2.145 -0.1392 -0.1914  0.0967
 1206SOL    HW1 3996   1.631   1.275   2.141 -1.8109  0.3643  1.0164
 1206SOL    HW2 3997   1.621   1.410   2.073 -0.6386  0.3061  0.7061
 1207SOL     OW 3998   2.857   1.029   2.807 -0.7646 -0.1828 -0.0304
 1207SOL    HW1 3999   2.926   1.092   2.828 -0.4479 -1.1342  2.1111
 1207SOL    HW2 4000   2.776   1.074   2.832 -0.8179  0.4005 -1.1961
 1208SOL     OW 4001   5.469   6.324   0.675 -0.1561  0.2688  0.3641
 1208SOL    HW1 4002   5.526   6.402   0.674  0.5841 -0.2399 -1.1062
 1208SOL    HW2 4003   5.526   6.253   0.645 -1.0267 -0.6877  0.9315
 1209SOL     OW 4004   3.392   1.599   0.389  0.3156 -0.4968 -0.4965
 1209SOL    HW1 4005   3.349   1.565   0.467  0.9525 -1.1344 -0.4164
 1209SOL    HW2 4006   3.321   1.636   0.337 -0.4162 -2.0561 -0.6422
 1210SOL     OW 4007   0.318   5.653   3.539  0.3525 -0.7407 -0.7266
 1210SOL    HW1 4008   0.367   5.592   3.484 -0.6949 -1.5570 -0.7735
 1210SOL    HW2 4009   0.337   5.739   3.501  0.6313 -1.1740 -1.5925
 1211SOL     OW 4010   1.931   5.427   6.174  0.1862 -0.2460 -0.1830
 1211SOL    HW1 4011   2.008   5.370   6.179  1.6388  1.3512 -2.3118
 1211SOL    HW2 4012   1.967   5.516   6.176 -1.5674  0.5608 -1.3580
 1212SOL     OW 4013   1.413   2.669   6.615  0.1294 -0.4345 -0.0282
 1212SOL    HW1 4014   1.469   2.717   6.554 -1.7012  2.9065  0.6356
 1212SOL    HW2 4015   1.324   2.681   6.581 -0.5283 -2.6817  0.7263
 1213SOL     OW 4016   0.158   2.633   3.186  0.0924 -0.0397  0.2406
 1213SOL    HW1 4017   0.113   2.657   3.105  1.1778 -2.8947 -1.3583
 1213SOL    HW2 4018   0.236   2.585   3.157  0.8145 -0.7188  2.9920
 1214SOL     OW 4019   4.784   2.064   3.551 -0.3348  0.1692 -0.4368
 1214SOL    HW1 4020   4.819   1.983   3.514  1.0126  0.8007 -0.5746
 1214SOL    HW2 4021   4.755   2.039   3.639 -0.2094 -0.5176 -0.5832
 1215SOL     OW 4022   6.068   2.625   0.963 -0.3059  0.2646  0.5342
 1215SOL    HW1 4023   6.116   2.673   0.896 -0.6237  0.8143  0.6903
 1215SOL    HW2 4024   6.092   2.534   0.950 -0.1784  0.3977 -0.1698
 1216SOL     OW 4025   1.077   2.561   2.442 -0.3421 -0.0614  0.8764
 1216SOL    HW1 4026   1.011   2.493   2.429 -0.4994  0.1836  0.3835
 1216SOL    HW2 4027   1.039   2.620   2.506 -0.5852  0.0568  0.6226
 1217SOL     OW 4028   3.515   6.291   4.042 -0.0644  0.2002 -0.1758
 1217SOL    HW1 4029   3.572   6.308   4.118 -0.8171  1.0107  0.2304
 1217SOL    HW2 4030   3.566   6.321   3.967  0.1364  0.7386  0.1646
 1218SOL     OW 4031   0.212   5.855   4.666  0.0193  0.2094 -0.1850
 1218SOL    HW1 4032   0.171   5.770   4.646 -0.5376  0.5694 -0.5920
 1218SOL    HW2 4033   0.249   5.843   4.754 -1.7678  0.1626  0.6070
 1219SOL     OW 4034   3.983   0.153   5.778  0.4338 -0.1938 -0.5244
 1219SOL    HW1 4035   4.028   0.174   5.696  4.2841 -0.3970  1.3090
 1219SOL    HW2 4036   4.012   0.220   5.840 -2.3785 -0.0294  0.7645
 1220SOL     OW 4037   1.043   0.964   4.035 -0.1747  0.4352  0.7336
 1220SOL    HW1 4038   1.112   0.909   4.074  0.1164  0.9503  0.9654
 1220SOL    HW2 4039   0.975   0.903   4.009 -0.2151  0.0328  1.7281
 1221SOL     OW 4040   2.223   3.596   2.961  0.2304  0.4018 -0.4723
 1221SOL    HW1 4041   2.142   3.646   2.959  0.4694  0.7613 -1.5518
 1221SOL    HW2 4042   2.273   3.627   2.886  1.4211  0.2594  0.2339
 1222SOL     OW 4043   2.472   6.113   2.249 -0.5385  0.0815 -0.0893
 1222SOL    HW1 4044   2.458   6.199   2.289 -2.0362  0.7064 -1.8144
 1222SOL    HW2 4045   2.533   6.069   2.308 -1.1081  1.6508  1.7960
 1223SOL     OW 4046   4.817   5.325   3.036 -0.1880  0.0291  0.0186
 1223SOL    HW1 4047   4.743   5.343   3.095  0.5438  0.0674  0.9408
 1223SOL    HW2 4048   4.776   5.312   2.951 -1.1956  0.8834  0.3452
 1224SOL     OW 4049   5.481   0.840   2.483  0.3925  0.0691  0.7090
 1224SOL    HW1 4050   5.488   0.767   2.545  0.8824  0.9409  1.7071
 1224SOL    HW2 4051   5.427   0.805   2.412 -2.3561 -0.2145  2.7506
 1225SOL     OW 4052   4.151   5.211   4.713 -0.1829  0.1871  0.1800
 1225SOL    HW1 4053   4.116   5.162   4.787  0.3026 -1.4984 -0.6474
 1225SOL    HW2 4054   4.244   5.191   4.713 -0.1085  0.4961 -0.6527
 1226SOL     OW 4055   1.831   3.913   0.316 -0.0109 -0.2960 -0.2068
 1226SOL    HW1 4056   1.765   3.970   0.278  1.2091  0.7884 -0.7693
 1226SOL    HW2 4057   1.826   3.930   0.410 -0.1430  0.2180 -0.3041
 1227SOL     OW 4058   0.287   1.754   0.332 -0.0970  0.0945 -0.0177
 1227SOL    HW1 4059   0.284   1.848   0.352  0.5914  0.4025 -1.2867
 1227SOL    HW2 4060   0.373   1.740   0.294 -0.1870 -1.0731  0.1641
 1228SOL     OW 4061   0.097   2.989   6.612  0.5256 -0.8676 -0.1202
 1228SOL    HW1 4062   0.121   2.903   6.647 -0.3183  0.1777  3.3536
 1228SOL    HW2 4063   0.150   3.051   6.661 -1.0099  0.7747 -0.4568
 1229SOL     OW 4064   1.582   3.248   2.793 -0.0616 -0.3381 -0.8766
 1229SOL    HW1 4065   1.658   3.304   2.778  0.1034 -0.5901 -1.0014
 1229SOL    HW2 4066   1.565   3.208   2.707 -0.7930  0.2821 -1.0234
 1230SOL     OW 4067   2.404   5.748   5.925 -0.0178  0.1070  0.0716
 1230SOL    HW1 4068   2.416   5.712   6.012 -0.5940  1.0209  0.5457
 1230SOL    HW2 4069   2.327   5.805   5.933 -0.3660 -0.1595 -1.1419
 1231SOL     OW 4070   4.374   3.066   4.375 -0.1019  0.2434 -0.5048
 1231SOL    HW1 4071   4.415   3.129   4.316  0.5573 -0.3888 -0.7397
 1231SOL    HW2 4072   4.341   2.997   4.317 -0.1706  0.0171 -0.1993
 1232SOL     OW 4073   2.257   3.565   4.503 -0.4586  0.2079  0.1563
 1232SOL    HW1 4074   2.313   3.580   4.580 -0.5009  0.1166  0.2047
 1232SOL    HW2 4075   2.196   3.639   4.504 -0.9868 -0.2286  0.6804
 1233SOL     OW 4076   4.157   5.803   4.067  0.1341 -0.1861  0.0790
 1233SOL    HW1 4077   4.252   5.802   4.076  0.0266 -0.9639  1.3976
 1233SOL    HW2 4078   4.133   5.711   4.057 -0.6156 -0.2443  1.9546
 1234SOL     OW 4079   0.038   3.022   4.978 -0.7387 -0.6612 -0.1901
 1234SOL    HW1 4080  -0.043   3.072   4.967 -0.5696 -1.0008 -6.1491
 1234SOL    HW2 4081   0.104   3.087   5.002 -2.0493  0.2861  0.9727
 1235SOL     OW 4082   2.944   2.688   3.322 -0.5675  0.2898  0.5939
 1235SOL    HW1 4083   3.023   2.730   3.354 -1.0368  1.8509 -0.1687
 1235SOL    HW2 4084   2.922   2.623   3.389  0.9607  0.3014  1.1435
 1236SOL     OW 4085   3.376   1.644   5.024  0.1297  0.5829 -0.2874
 1236SOL    HW1 4086   3.426   1.567   5.049 -1.8302 -0.0015  2.3785
 1236SOL    HW2 4087   3.387   1.705   5.097 -2.5538  0.5826  0.2448
 1237SOL     OW 4088   1.311   2.452   2.289 -0.3875  0.0711 -0.3692
 1237SOL    HW1 4089   1.363   2.474   2.366 -0.0563 -0.3378 -0.4747
 1237SOL    HW2 4090   1.221   2.472   2.314 -0.2610  0.0882  0.0708
 1238SOL     OW 4091   3.875   6.562   6.134 -0.1741 -0.3566 -0.5747
 1238SOL    HW1 4092   3.806   6.556   6.069 -0.2446 -0.9681 -0.4476
 1238SOL    HW2 4093   3.944   6.505   6.102  0.2850  0.2643 -0.7081
 1239SOL     OW 4094   6.752   5.566   4.829  0.2042 -0.3238 -0.0376
 1239SOL    HW1 4095   6.794   5.600   4.750 -0.9102  0.4955 -0.2947
 1239SOL    HW2 4096   6.661   5.551   4.804  0.2556 -1.9167  0.5624
 1240SOL     OW 4097   6.641   6.259   3.219 -0.5973 -1.0830 -0.4908
 1240SOL    HW1 4098   6.657   6.351   3.196 -1.2358 -1.3773 -2.2281
 1240SOL    HW2 4099   6.693   6.209   3.157  0.5915 -1.9446  1.1063
 1241SOL     OW 4100   5.265   1.854   1.583 -0.0658 -0.5871  0.4598
 1241SOL    HW1 4101   5.171   1.868   1.584 -0.1998 -0.8788 -1.7460
 1241SOL    HW2 4102   5.302   1.932   1.624 -1.1824  1.2166 -1.7286
 1242SOL     OW 4103   2.645   0.423   1.393  0.5607 -0.1222 -0.3032
 1242SOL    HW1 4104   2.590   0.398   1.467  0.5451 -1.7529 -0.8383
 1242SOL    HW2 4105   2.630   0.517   1.383 -2.0470 -0.4738 -0.3465
 1243SOL     OW 4106   6.789   5.626   1.784  0.1949  0.7624  0.4472
 1243SOL    HW1 4107   6.741   5.703   1.814  1.4340  1.7806 -0.1200
 1243SOL    HW2 4108   6.780   5.628   1.688  1.5504  1.1083  0.3146
 1244SOL     OW 4109   5.877   5.050   0.993 -0.2711 -0.0189  0.0184
 1244SOL    HW1 4110   5.893   4.958   1.013 -0.7889 -0.4314 -1.3084
 1244SOL    HW2 4111   5.898   5.058   0.900 -2.2937  0.6743 -0.4348
 1245SOL     OW 4112   4.661   6.246   6.305 -0.1832 -0.7499 -0.2213
 1245SOL    HW1 4113   4.599   6.188   6.349  0.9039 -0.6195  1.6142
 1245SOL    HW2 4114   4.676   6.317   6.368 -1.0291  1.2735 -2.1727
 1246SOL     OW 4115   3.299   3.814   2.351 -0.1831  0.3088  0.2286
 1246SOL    HW1 4116   3.232   3.868   2.308  1.8634  1.0204 -2.2889
 1246SOL    HW2 4117   3.360   3.878   2.389 -0.6146 -0.3290  2.0887
 1247SOL     OW 4118   3.156   2.244   2.352 -0.2590 -0.1321 -0.1581
 1247SOL    HW1 4119   3.159   2.152   2.381  0.2260  0.0556  0.4049
 1247SOL    HW2 4120   3.083   2.282   2.401  0.8900  0.3198  1.2737
 1248SOL     OW 4121   5.730   4.460   3.758 -0.4548 -0.0561  0.0571
 1248SOL    HW1 4122   5.682   4.386   3.796 -0.8762 -0.7477 -1.7492
 1248SOL    HW2 4123   5.668   4.532   3.761 -1.0133 -0.4996 -0.6945
 1249SOL     OW 4124   5.594   1.043   3.988 -1.0926 -0.1141 -0.4216
 1249SOL    HW1 4125   5.619   0.960   3.948 -0.3652  0.2323 -0.7060
 1249SOL    HW2 4126   5.632   1.110   3.931 -0.7395  0.4024  0.3979
 1250SOL     OW 4127   4.741   2.804   4.298 -0.6907 -0.4760 -0.0615
 1250SOL    HW1 4128   4.823   2.814   4.250  0.1840  1.2825  1.6751
 1250SOL    HW2 4129   4.746   2.715   4.335 -0.0054 -0.7191 -0.6984
 1251SOL     OW 4130   5.974   0.742   2.896 -0.2661 -0.2602  0.2924
 1251SOL    HW1 4131   6.050   0.710   2.945  0.0800 -0.1394 -0.1649
 1251SOL    HW2 4132   5.986   0.837   2.891 -1.1665 -0.0519  1.4298
 1252SOL     OW 4133   1.491   4.662   1.817 -0.2352  0.1896 -0.2321
 1252SOL    HW1 4134   1.458   4.679   1.906  1.7297  0.8392  0.4385
 1252SOL    HW2 4135   1.415   4.670   1.761 -1.4840  0.0691  1.3674
 1253SOL     OW 4136   5.359   5.605   5.033  0.7038 -0.3887  0.2494
 1253SOL    HW1 4137   5.283   5.660   5.013  0.4710 -1.2480 -1.3982
 1253SOL    HW2 4138   5.391   5.638   5.117 -1.4924 -0.0176  0.9900
 1254SOL     OW 4139   5.250   2.817   5.606  0.6708  0.1352  0.2897
 1254SOL    HW1 4140   5.338   2.818   5.570  0.5433  1.2082 -0.0474
 1254SOL    HW2 4141   5.215   2.731   5.584  1.0347  0.3116 -1.0891
 1255SOL     OW 4142   0.619   2.788   0.781 -0.3573  0.1380 -0.1867
 1255SOL    HW1 4143   0.632   2.851   0.852 -0.6557  0.6546 -0.5925
 1255SOL    HW2 4144   0.535   2.812   0.742 -1.1235 -1.3226  0.4883
 1256SOL     OW 4145   0.486   6.450   0.415 -0.9652  0.2337 -0.5560
 1256SOL    HW1 4146   0.502   6.356   0.420  0.5819  0.4269 -1.2028
 1256SOL    HW2 4147   0.489   6.471   0.322 -3.9816  0.5568 -0.6731
 1257SOL     OW 4148   5.142   5.535   0.551  0.6300  0.3044 -0.1783
 1257SOL    HW1 4149   5.047   5.536   0.536  0.7829  0.3602 -1.2185
 1257SOL    HW2 4150   5.163   5.626   0.573  0.5364  0.4326 -0.6073
 1258SOL     OW 4151   3.080   0.918   3.333  1.1097 -0.0135 -0.1619
 1258SOL    HW1 4152   3.042   0.841   3.376  1.2951  0.5990  1.1243
 1258SOL    HW2 4153   3.140   0.881   3.268  0.6377 -0.9586 -0.0848
 1259SOL     OW 4154   2.127   4.187   0.177 -0.1415 -0.3500  0.4083
 1259SOL    HW1 4155   2.188   4.171   0.105 -0.1031 -0.4118  0.4542
 1259SOL    HW2 4156   2.107   4.099   0.211 -2.3884 -0.6078 -1.3453
 1260SOL     OW 4157   4.928   4.867   3.852 -0.2593 -0.0719 -0.3668
 1260SOL    HW1 4158   4.928   4.865   3.756 -0.8975  1.0250 -0.4060
 1260SOL    HW2 4159   4.950   4.958   3.873  1.7709 -0.7326  0.5599
 1261SOL     OW 4160   0.231   4.176   2.428 -0.1047  0.1558  0.4476
 1261SOL    HW1 4161   0.220   4.265   2.461 -2.3729 -0.2395  0.9283
 1261SOL    HW2 4162   0.291   4.135   2.491  1.2240  1.3901  0.0407
 1262SOL     OW 4163   3.560   6.007   6.496  0.2228  0.7660  0.2015
 1262SOL    HW1 4164   3.553   5.957   6.577  0.8684 -0.2984 -0.3782
 1262SOL    HW2 4165   3.577   6.097   6.526  0.4347  0.4004  1.2502
 1263SOL     OW 4166   1.478   3.865   6.139 -0.0747  0.4408  0.0729
 1263SOL    HW1 4167   1.531   3.908   6.073  1.7580  0.4015  1.4348
 1263SOL    HW2 4168   1.506   3.773   6.136 -1.8143 -0.1052 -0.7908
 1264SOL     OW 4169   3.529   6.149   2.151  0.3020  0.5271 -0.0745
 1264SOL    HW1 4170   3.574   6.111   2.226  2.6362 -1.6838 -2.3680
 1264SOL    HW2 4171   3.588   6.219   2.121 -0.9247  1.8314  0.4688
 1265SOL     OW 4172   6.467   0.576   5.022 -0.1648  0.1572 -0.1853
 1265SOL    HW1 4173   6.523   0.636   4.973  1.1971 -1.9687 -1.4095
 1265SOL    HW2 4174   6.491   0.589   5.114 -0.6273  2.1141 -0.3006
 1266SOL     OW 4175   6.678   6.191   4.293 -0.6556 -0.1661  0.2282
 1266SOL    HW1 4176   6.705   6.276   4.328 -0.5929  0.0868 -0.4251
 1266SOL    HW2 4177   6.758   6.152   4.259 -0.9755  0.3400 -1.1932
 1267SOL     OW 4178   1.492   1.877   0.254  0.0287  0.3122  0.4801
 1267SOL    HW1 4179   1.462   1.799   0.300 -0.3009 -0.7516 -1.4166
 1267SOL    HW2 4180   1.422   1.942   0.268 -0.7982 -0.4985  0.2366
 1268SOL     OW 4181   6.011   2.379   1.261 -0.2071 -0.8853 -0.7344
 1268SOL    HW1 4182   6.080   2.328   1.218  0.9099 -0.4276  0.4534
 1268SOL    HW2 4183   6.048   2.467   1.270 -0.5546 -0.8615  0.7490
 1269SOL     OW 4184   0.993   3.863   6.371  0.0437  0.0429  0.4154
 1269SOL    HW1 4185   1.065   3.903   6.322 -1.2463  0.9992 -0.7990
 1269SOL    HW2 4186   0.923   3.929   6.368 -1.5001 -1.5346  0.0119
 1270SOL     OW 4187   2.879   2.947   3.387 -0.2968  0.5308 -0.3057
 1270SOL    HW1 4188   2.806   2.971   3.329 -0.8941  1.1480  0.6829
 1270SOL    HW2 4189   2.840   2.937   3.473  0.6134 -0.2497  0.0322
 1271SOL     OW 4190   2.212   6.265   3.296  0.0850 -0.0314  0.0330
 1271SOL    HW1 4191   2.221   6.238   3.205 -0.0012  0.5994 -0.1661
 1271SOL    HW2 4192   2.230   6.359   3.296  1.6362 -0.2954  0.9134
 1272SOL     OW 4193   0.557   0.873   5.061 -0.0306  0.2647 -0.4607
 1272SOL    HW1 4194   0.465   0.854   5.081 -0.2439  0.4763 -1.1897
 1272SOL    HW2 4195   0.606   0.804   5.105 -0.7736 -2.1452 -3.0744
 1273SOL     OW 4196   4.539   4.357   4.073 -0.1256  0.1282 -0.2593
 1273SOL    HW1 4197   4.490   4.288   4.118  2.0580 -2.4151 -1.5351
 1273SOL    HW2 4198   4.504   4.357   3.984 -0.0961  0.6936 -0.2779
 1274SOL     OW 4199   2.890   6.458   6.065  0.5955 -0.0754 -0.3864
 1274SOL    HW1 4200   2.815   6.506   6.101 -0.0226 -0.1164 -1.5545
 1274SOL    HW2 4201   2.910   6.392   6.132  0.3564  0.6995  0.4686
 1275SOL     OW 4202   5.330   0.916   3.654 -0.4140  0.2097  0.5886
 1275SOL    HW1 4203   5.326   0.821   3.662 -1.1974  0.1511 -0.3261
 1275SOL    HW2 4204   5.336   0.947   3.744  0.5113 -0.7170  0.8723
 1276SOL     OW 4205   6.080   5.050   5.009 -0.1487  0.0322  0.0308
 1276SOL    HW1 4206   6.082   4.954   5.016 -0.2291  0.1110  1.2792
 1276SOL    HW2 4207   6.135   5.069   4.933  0.1199 -0.9798 -0.0499
 1277SOL     OW 4208   6.575   1.417   0.564  0.1586 -0.6472  0.4378
 1277SOL    HW1 4209   6.491   1.397   0.523 -0.6231 -0.4752  1.8650
 1277SOL    HW2 4210   6.608   1.332   0.593 -0.4129 -0.5314  1.4693
 1278SOL     OW 4211   1.659   1.684   1.627 -0.0397  0.1095 -0.3522
 1278SOL    HW1 4212   1.592   1.666   1.561  0.5998  0.9484 -1.2550
 1278SOL    HW2 4213   1.710   1.604   1.633 -2.4672 -1.4462  2.0663
 1279SOL     OW 4214   2.999   0.124   1.671  0.2574 -0.8657 -0.0136
 1279SOL    HW1 4215   3.080   0.087   1.705 -0.0389 -1.2407  0.2906
 1279SOL    HW2 4216   2.932   0.095   1.733  0.2565  1.7628  1.3477
 1280SOL     OW 4217   2.662   6.445   0.664  0.1997 -0.2507 -0.0982
 1280SOL    HW1 4218   2.576   6.446   0.707  0.6749  0.4972  0.8867
 1280SOL    HW2 4219   2.644   6.474   0.574 -0.2643  2.6104  0.8147
 1281SOL     OW 4220   5.219   2.693   5.937 -0.0580 -0.3898  0.5351
 1281SOL    HW1 4221   5.155   2.762   5.957  0.9458  0.2024  1.8668
 1281SOL    HW2 4222   5.274   2.731   5.869 -0.1064 -0.2473  0.5740
 1282SOL     OW 4223   4.648   1.510   3.267  0.2516  0.1855  0.4964
 1282SOL    HW1 4224   4.663   1.560   3.187 -0.7858  0.0274  0.1932
 1282SOL    HW2 4225   4.584   1.560   3.316  0.4296 -0.0273  0.9541
 1283SOL     OW 4226   1.710   0.725   5.378  0.1562 -0.3982  0.3593
 1283SOL    HW1 4227   1.696   0.797   5.316 -0.5083  1.0794  2.1512
 1283SOL    HW2 4228   1.790   0.682   5.347 -0.7008 -0.3946 -2.1085
 1284SOL     OW 4229   5.010   1.106   2.058  0.2798 -0.1006 -0.5832
 1284SOL    HW1 4230   5.087   1.065   2.096  0.5527  1.0215  0.1273
 1284SOL    HW2 4231   5.017   1.088   1.964  0.6134 -1.2648 -0.3465
 1285SOL     OW 4232   5.183   0.305   4.356  0.0118 -0.4882  0.3231
 1285SOL    HW1 4233   5.203   0.390   4.394 -2.5093  0.6740 -0.7615
 1285SOL    HW2 4234   5.232   0.303   4.274  0.6774 -0.4189  0.7142
 1286SOL     OW 4235   6.223   2.683   4.785  0.4587 -0.6470 -0.6292
 1286SOL    HW1 4236   6.312   2.719   4.788 -0.8999  3.0744  1.2964
 1286SOL    HW2 4237   6.219   2.623   4.860  1.3369 -0.9220 -0.7911
 1287SOL     OW 4238   4.525   3.498   0.249 -0.4550  0.1499 -0.2995
 1287SOL    HW1 4239   4.543   3.472   0.158 -0.6401 -0.4461 -0.1706
 1287SOL    HW2 4240   4.462   3.433   0.280  0.9825 -0.7415  0.8433
 1288SOL     OW 4241   5.280   2.520   6.109  0.2589 -0.5278 -0.2415
 1288SOL    HW1 4242   5.238   2.592   6.061  1.8242  0.5408 -0.1128
 1288SOL    HW2 4243   5.354   2.495   6.053 -0.7098 -2.6390 -0.6749
 1289SOL     OW 4244   4.265   1.135   5.795 -0.8719  0.7042  0.1555
 1289SOL    HW1 4245   4.275   1.197   5.868  1.2610 -0.0467  0.5872
 1289SOL    HW2 4246   4.299   1.182   5.719 -1.7410  0.9733 -0.0781
 1290SOL     OW 4247   2.552   1.869   0.163  0.0070  0.4543 -0.1991
 1290SOL    HW1 4248   2.551   1.830   0.251 -1.2553 -0.0791 -0.4303
 1290SOL    HW2 4249   2.561   1.795   0.104  1.4332  0.8605 -0.5259
 1291SOL     OW 4250   3.002   4.209   6.672 -0.0420  0.1488 -0.3360
 1291SOL    HW1 4251   2.937   4.206   6.602 -0.0808  1.0796 -0.3495
 1291SOL    HW2 4252   2.954   4.242   6.748  0.1211 -0.3731 -0.0008
 1292SOL     OW 4253   1.359   3.210   1.055  0.8338  0.5863 -0.0109
 1292SOL    HW1 4254   1.379   3.166   1.137 -0.1606 -0.8669 -0.5196
 1292SOL    HW2 4255   1.445   3.235   1.020  1.3408  0.1233  0.8675
 1293SOL     OW 4256   0.569   3.592   6.012 -0.2477  0.1818 -0.1138
 1293SOL    HW1 4257   0.573   3.682   5.979 -1.1774  0.6550  0.9768
 1293SOL    HW2 4258   0.475   3.572   6.015 -0.1720 -0.0671  1.5549
 1294SOL     OW 4259   3.478   0.056   2.435 -0.3830 -0.5304  0.3115
 1294SOL    HW1 4260   3.439  -0.027   2.407 -2.4092  0.5276 -0.2567
 1294SOL    HW2 4261   3.427   0.123   2.387  0.8344  1.0501  1.1463
 1295SOL     OW 4262   2.634   5.138   3.184  0.8226  0.4849  0.1260
 1295SOL    HW1 4263   2.680   5.056   3.201  0.6336  0.0526 -1.2887
 1295SOL    HW2 4264   2.549   5.127   3.226  2.1584  1.5886  3.4278
 1296SOL     OW 4265   0.921   0.174   4.233  0.4029  0.2940  0.3629
 1296SOL    HW1 4266   0.978   0.198   4.306 -0.4649  1.5794  0.6608
 1296SOL    HW2 4267   0.834   0.165   4.272  0.0154  0.5088 -0.4267
 1297SOL     OW 4268   1.369   2.008   5.244  0.4157 -0.6002 -0.0911
 1297SOL    HW1 4269   1.320   1.945   5.191 -1.5599  0.8170 -0.0431
 1297SOL    HW2 4270   1.400   2.073   5.182 -1.1491  0.5907  0.3192
 1298SOL     OW 4271   5.141   4.691   0.300  0.1855  0.1642 -0.4235
 1298SOL    HW1 4272   5.073   4.703   0.366 -0.3816  0.1494 -0.9968
 1298SOL    HW2 4273   5.223   4.706   0.348 -0.2018  0.0043  0.3135
 1299SOL     OW 4274   6.242   3.286   6.756  0.2110  0.2385 -1.0432
 1299SOL    HW1 4275   6.334   3.284   6.731  0.4905  2.0231 -0.2897
 1299SOL    HW2 4276   6.204   3.356   6.703 -0.3715  0.4960 -0.3003
 1300SOL     OW 4277   1.527   6.448   3.977  0.1783 -0.1735  0.1473
 1300SOL    HW1 4278   1.609   6.419   3.936 -0.4682 -0.5899 -0.8835
 1300SOL    HW2 4279   1.532   6.544   3.972 -0.2963 -0.2056 -1.8237
 1301SOL     OW 4280   6.659   4.629   4.493 -0.1841  0.4947  0.2638
 1301SOL    HW1 4281   6.608   4.670   4.423  0.8645 -0.4154 -1.0860
 1301SOL    HW2 4282   6.593   4.600   4.556 -1.3265 -0.2634 -1.2067
 1302SOL     OW 4283   3.331   1.034   1.656 -0.3914  0.6677  0.6851
 1302SOL    HW1 4284   3.406   0.982   1.684 -1.7998 -1.0418  1.4656
 1302SOL    HW2 4285   3.274   0.972   1.612  0.4476  2.6905 -3.8675
 1303SOL     OW 4286   5.608   2.292   4.815  0.1959  0.0606  0.2870
 1303SOL    HW1 4287   5.570   2.371   4.854 -0.3570 -0.1455  0.1758
 1303SOL    HW2 4288   5.621   2.314   4.723  1.1887  0.4322  0.5023
 1304SOL     OW 4289   4.885   1.219   2.501  0.1535 -0.6116 -0.1082
 1304SOL    HW1 4290   4.924   1.243   2.417  0.9828  0.7033  0.6120
 1304SOL    HW2 4291   4.960   1.212   2.560 -0.4492 -1.1996  0.6031
 1305SOL     OW 4292   0.062   0.258   0.500 -0.2783 -0.2661  0.3454
 1305SOL    HW1 4293   0.125   0.323   0.530 -0.6434  0.5217 -0.5413
 1305SOL    HW2 4294   0.090   0.236   0.411 -1.3126  0.2069 -0.1185
 1306SOL     OW 4295   6.286   4.576   4.311 -0.1373  0.4600  0.0710
 1306SOL    HW1 4296   6.242   4.660   4.326  0.6140  1.0579 -0.9530
 1306SOL    HW2 4297   6.216   4.515   4.288 -0.6602  0.8745  0.5561
 1307SOL     OW 4298   6.407   0.279   0.242 -0.1924 -0.1785 -0.0905
 1307SOL    HW1 4299   6.405   0.346   0.311  0.6141  0.3476 -0.5557
 1307SOL    HW2 4300   6.408   0.196   0.288 -1.4627  0.1121  0.5001
 1308SOL     OW 4301   0.562   0.564   4.253 -0.2023  0.1003  0.1957
 1308SOL    HW1 4302   0.477   0.535   4.284  0.8075 -1.7266  1.4144
 1308SOL    HW2 4303   0.571   0.653   4.286 -1.2840  0.0150  0.7552
 1309SOL     OW 4304   5.597   1.454   2.751  0.8148  0.0095  0.1330
 1309SOL    HW1 4305   5.534   1.383   2.752 -0.7789  1.3405 -0.5600
 1309SOL    HW2 4306   5.667   1.423   2.694 -0.9143 -0.2232 -2.0217
 1310SOL     OW 4307   5.054   1.133   5.995  0.6638 -0.4293 -0.0658
 1310SOL    HW1 4308   5.117   1.200   6.023  0.1301  1.1020 -2.2585
 1310SOL    HW2 4309   5.082   1.110   5.907 -0.0408 -2.0555  0.1141
 1311SOL     OW 4310   1.029   1.191   0.293 -0.1971 -0.1441  0.8780
 1311SOL    HW1 4311   1.072   1.196   0.208 -1.4086 -0.1639  0.2455
 1311SOL    HW2 4312   0.997   1.101   0.299 -0.6801  0.0420  1.0830
 1312SOL     OW 4313   3.398   6.121   1.239  0.4411 -0.0523  0.7678
 1312SOL    HW1 4314   3.447   6.077   1.169 -0.4116  0.0528  0.0845
 1312SOL    HW2 4315   3.429   6.079   1.319 -1.2312 -2.8552  0.0884
 1313SOL     OW 4316   5.844   1.994   4.822 -0.7143 -0.3950  0.1030
 1313SOL    HW1 4317   5.933   2.006   4.791 -0.7718  1.3661  0.5181
 1313SOL    HW2 4318   5.848   1.915   4.876  1.4186  1.3808  2.8662
 1314SOL     OW 4319   1.810   1.278   5.920 -0.5445 -0.2694  0.3174
 1314SOL    HW1 4320   1.752   1.208   5.891 -0.1944 -0.6235  0.4538
 1314SOL    HW2 4321   1.879   1.233   5.969 -0.7974  0.2549  1.1826
 1315SOL     OW 4322   4.362   1.115   3.923 -0.2722  0.1368 -0.3245
 1315SOL    HW1 4323   4.371   1.025   3.954  1.4840  0.7488  1.0849
 1315SOL    HW2 4324   4.444   1.132   3.877 -0.2219  1.2869  0.1671
 1316SOL     OW 4325   0.706   6.740   2.818  0.1576  0.0211  0.0914
 1316SOL    HW1 4326   0.746   6.828   2.822 -0.2797  0.2216  0.1070
 1316SOL    HW2 4327   0.612   6.757   2.811  0.1213 -0.4444 -0.5851
 1317SOL     OW 4328   4.172   4.123   3.840 -0.1413 -0.3581  0.1300
 1317SOL    HW1 4329   4.173   4.219   3.844 -1.8053 -0.1606 -2.2846
 1317SOL    HW2 4330   4.250   4.100   3.789  0.1469 -0.2878  0.5352
 1318SOL     OW 4331   5.570   0.149   3.757 -0.1944  0.0439 -0.2516
 1318SOL    HW1 4332   5.616   0.067   3.772 -0.5767 -0.1860 -0.3046
 1318SOL    HW2 4333   5.632   0.217   3.783  0.4868 -0.2243 -1.1290
 1319SOL     OW 4334   1.342   5.160   3.875 -0.1298 -0.2990 -0.0827
 1319SOL    HW1 4335   1.277   5.125   3.814  0.3450 -1.4270  0.0261
 1319SOL    HW2 4336   1.409   5.091   3.880  0.5501  0.3978  0.6002
 1320SOL     OW 4337   4.016   4.009   1.335 -0.0033  0.2647 -0.1167
 1320SOL    HW1 4338   4.054   3.930   1.297  0.6849  0.7411 -0.4349
 1320SOL    HW2 4339   3.982   4.058   1.260  0.7521  0.8846 -0.0687
 1321SOL     OW 4340   4.685   3.276   5.295 -0.3441 -0.0309  0.0469
 1321SOL    HW1 4341   4.764   3.325   5.320 -0.0495  0.2348 -1.3286
 1321SOL    HW2 4342   4.640   3.333   5.233 -1.1055 -0.6164  0.0425
 1322SOL     OW 4343   3.044   2.471   5.330 -0.4307  0.3294 -0.2120
 1322SOL    HW1 4344   3.005   2.429   5.407  0.3680 -2.4560 -1.1916
 1322SOL    HW2 4345   2.971   2.482   5.270 -0.5816 -0.2047 -0.1382
 1323SOL     OW 4346   4.593   4.463   6.685 -0.0178  0.7476 -0.3591
 1323SOL    HW1 4347   4.684   4.477   6.711 -0.2665  0.5680  0.6340
 1323SOL    HW2 4348   4.598   4.444   6.591  1.0320  0.1594 -0.2004
 1324SOL     OW 4349   4.534   0.615   4.790  0.3436 -0.3333 -0.7738
 1324SOL    HW1 4350   4.615   0.623   4.840 -0.7967  0.1390  1.0671
 1324SOL    HW2 4351   4.510   0.523   4.797  0.8546 -0.5384 -1.5797
 1325SOL     OW 4352   3.256   0.515   1.726 -0.3072 -0.1867  0.1945
 1325SOL    HW1 4353   3.176   0.469   1.704  0.1251 -2.3803  2.6906
 1325SOL    HW2 4354   3.324   0.472   1.675 -0.3037 -0.4641  0.4277
 1326SOL     OW 4355   4.427   2.161   4.882 -0.0440 -0.6225  0.1345
 1326SOL    HW1 4356   4.334   2.154   4.902 -0.1194  0.6281  0.3424
 1326SOL    HW2 4357   4.470   2.166   4.967 -0.1248  2.0234  0.1244
 1327SOL     OW 4358   6.664   3.176   6.428 -0.5683  0.1910 -0.4303
 1327SOL    HW1 4359   6.664   3.128   6.510 -0.4720 -0.4671 -0.8104
 1327SOL    HW2 4360   6.595   3.242   6.438  1.2007  1.9499  1.2296
 1328SOL     OW 4361   4.269   3.722   4.399 -0.2850  0.1577  0.4015
 1328SOL    HW1 4362   4.201   3.783   4.369 -1.2696 -0.8319  0.5203
 1328SOL    HW2 4363   4.250   3.710   4.492 -0.4428 -0.7248  0.2612
 1329SOL     OW 4364   6.757   3.807   6.772 -0.4134 -0.8026 -0.5338
 1329SOL    HW1 4365   6.782   3.848   6.855 -1.0689  1.0651 -1.2128
 1329SOL    HW2 4366   6.672   3.767   6.789 -0.8672  0.1674 -0.4630
 1330SOL     OW 4367   3.701   4.881   6.464 -0.7059 -0.3955 -0.0415
 1330SOL    HW1 4368   3.683   4.918   6.377  1.5482 -0.1402 -0.4677
 1330SOL    HW2 4369   3.692   4.954   6.524 -0.7571 -0.2077 -0.2766
 1331SOL     OW 4370   3.003   0.086   3.627  0.1500  0.5471 -0.3414
 1331SOL    HW1 4371   3.069   0.100   3.695  1.4854  0.4794 -1.5645
 1331SOL    HW2 4372   2.967  -0.000   3.647 -0.9582  1.3576  1.4258
 1332SOL     OW 4373   3.002   5.294   1.681 -0.0787  0.2727  0.3148
 1332SOL    HW1 4374   2.988   5.210   1.725  0.5098 -0.4220 -0.7626
 1332SOL    HW2 4375   2.928   5.303   1.621 -0.3598  0.7407  0.7209
 1333SOL     OW 4376   5.042   5.454   0.173  0.0366 -0.1476 -0.2127
 1333SOL    HW1 4377   4.972   5.517   0.186  0.0211 -0.1451 -0.3142
 1333SOL    HW2 4378   5.090   5.486   0.097 -2.1317 -2.1765 -2.6301
 1334SOL     OW 4379   0.373   3.313   1.355  0.2043 -0.0791  0.5214
 1334SOL    HW1 4380   0.450   3.263   1.327 -1.0404 -1.7710 -0.0359
 1334SOL    HW2 4381   0.407   3.400   1.375  1.8439  0.0667 -2.3945
 1335SOL     OW 4382   4.743   3.182   1.753  0.6828 -0.3269  0.7014
 1335SOL    HW1 4383   4.790   3.261   1.725 -0.3936 -0.4205 -1.5680
 1335SOL    HW2 4384   4.658   3.215   1.781  0.3794 -0.6200  0.1381
 1336SOL     OW 4385   3.060   1.828   6.395  0.0859 -0.1841 -0.3753
 1336SOL    HW1 4386   3.093   1.767   6.328 -0.7258 -0.7283 -0.2885
 1336SOL    HW2 4387   2.988   1.874   6.352  0.9366  1.0103 -0.5669
 1337SOL     OW 4388   3.914   1.001   4.385  0.1392  0.2140  0.0385
 1337SOL    HW1 4389   3.948   0.966   4.467 -0.1254 -0.8517 -0.2977
 1337SOL    HW2 4390   3.867   0.928   4.345 -0.5811  1.0053 -0.5971
 1338SOL     OW 4391   5.725   2.797   4.518 -0.0750 -0.5858  0.2987
 1338SOL    HW1 4392   5.691   2.726   4.463 -0.6395 -1.9149  2.2874
 1338SOL    HW2 4393   5.652   2.857   4.528 -0.0172 -0.4177 -0.2497
 1339SOL     OW 4394   3.388   4.721   0.274 -0.2538 -0.0354 -0.1663
 1339SOL    HW1 4395   3.438   4.640   0.274  0.4888  0.2597 -3.6764
 1339SOL    HW2 4396   3.312   4.703   0.218 -1.7521  0.8597  1.4620
 1340SOL     OW 4397   1.883   2.089   1.252 -0.0865  0.1210  0.0559
 1340SOL    HW1 4398   1.793   2.119   1.264 -1.0714 -2.0322 -1.3957
 1340SOL    HW2 4399   1.898   2.093   1.157  1.7705  1.4233  0.3319
 1341SOL     OW 4400   2.086   0.753   2.025 -0.0456  0.0320 -0.4142
 1341SOL    HW1 4401   2.041   0.671   2.046 -1.1261  0.5820 -0.4702
 1341SOL    HW2 4402   2.016   0.810   1.992  0.9886  0.3630 -2.1550
 1342SOL     OW 4403   2.743   2.854   2.515  0.4679 -0.2553 -0.5272
 1342SOL    HW1 4404   2.836   2.859   2.494  0.5277  0.7841 -0.0583
 1342SOL    HW2 4405   2.739   2.855   2.610 -0.0625  0.6038 -0.5471
 1343SOL     OW 4406   4.018   5.738   0.702 -0.5302 -0.0038 -0.2437
 1343SOL    HW1 4407   3.933   5.697   0.685 -0.0727 -1.0045 -0.1679
 1343SOL    HW2 4408   3.996   5.827   0.729 -1.7112 -0.9354  2.1138
 1344SOL     OW 4409   0.993   1.102   6.204  0.2893 -0.1480 -0.3223
 1344SOL    HW1 4410   1.060   1.133   6.266 -1.3480 -1.3436  2.1926
 1344SOL    HW2 4411   1.024   1.016   6.177  0.1655 -0.3542  0.1900
 1345SOL     OW 4412   0.331   3.409   1.790 -0.1834 -0.0846  0.3841
 1345SOL    HW1 4413   0.239   3.438   1.790 -0.0932  0.2922  1.7409
 1345SOL    HW2 4414   0.381   3.488   1.807  0.4073 -0.2978 -0.3120
 1346SOL     OW 4415   0.107   4.251   5.410 -0.0699 -0.1370  0.0944
 1346SOL    HW1 4416   0.069   4.290   5.489 -0.5750 -0.1373 -0.1416
 1346SOL    HW2 4417   0.201   4.260   5.421 -0.1689  1.3940 -0.0825
 1347SOL     OW 4418   5.881   3.678   1.515 -0.1616 -0.1955 -0.1415
 1347SOL    HW1 4419   5.955   3.637   1.559  0.4705  1.0595 -0.0013
 1347SOL    HW2 4420   5.919   3.751   1.467 -0.8124 -1.4662 -2.7833
 1348SOL     OW 4421   5.141   5.000   4.011  0.2555 -0.4060 -0.6185
 1348SOL    HW1 4422   5.138   5.095   4.017  0.4726 -0.4621  0.9441
 1348SOL    HW2 4423   5.192   4.982   3.932  0.7073  0.7822 -0.6199
 1349SOL     OW 4424   0.897   1.263   5.055 -0.2288 -0.2483 -0.1766
 1349SOL    HW1 4425   0.942   1.279   4.972 -0.0373 -1.1031 -0.2417
 1349SOL    HW2 4426   0.817   1.217   5.031  0.0043 -0.8257  0.1408
 1350SOL     OW 4427   3.718   1.485   0.981  0.1951 -0.1971  0.2798
 1350SOL    HW1 4428   3.746   1.533   1.059 -0.2310  0.9277 -0.2356
 1350SOL    HW2 4429   3.784   1.505   0.915  0.1998 -0.6058  0.1573
 1351SOL     OW 4430   2.169   3.353   4.350 -0.1047  0.4955 -0.5293
 1351SOL    HW1 4431   2.133   3.287   4.410 -0.0188  1.2390  0.3659
 1351SOL    HW2 4432   2.212   3.416   4.407 -0.7233  1.6609 -1.3205
 1352SOL     OW 4433   4.405   2.644   3.292  0.1959  0.2576  0.2219
 1352SOL    HW1 4434   4.397   2.573   3.229  1.1704  0.1440  0.2054
 1352SOL    HW2 4435   4.364   2.611   3.372  0.3387 -0.1939  0.1096
 1353SOL     OW 4436   0.791   0.544   3.161 -0.4608  0.1944  0.9652
 1353SOL    HW1 4437   0.885   0.544   3.183 -0.7376  0.9893  2.2711
 1353SOL    HW2 4438   0.750   0.497   3.234 -1.0306 -0.7799  0.0444
 1354SOL     OW 4439   1.855   4.239   4.355  0.3399 -0.3546  0.5252
 1354SOL    HW1 4440   1.792   4.286   4.300  0.3124  0.3311  1.1283
 1354SOL    HW2 4441   1.863   4.294   4.434  1.4281 -0.6132  0.6007
 1355SOL     OW 4442   2.303   4.411   0.040 -0.1997 -0.3452 -0.0452
 1355SOL    HW1 4443   2.335   4.436   0.126  1.7103 -0.3156 -0.7250
 1355SOL    HW2 4444   2.256   4.489   0.008  0.6837  0.3198  0.2286
 1356SOL     OW 4445   2.942   5.664   2.480  0.0805 -0.5252 -0.1660
 1356SOL    HW1 4446   2.853   5.649   2.513 -0.2218  0.0750 -0.6767
 1356SOL    HW2 4447   2.936   5.647   2.386  0.7206 -1.3473 -0.0667
 1357SOL     OW 4448   5.991   6.775   2.935 -0.0363 -0.4692  0.1509
 1357SOL    HW1 4449   6.022   6.808   2.851 -2.3994 -0.1075 -0.6477
 1357SOL    HW2 4450   6.071   6.762   2.987  1.2849  2.1026 -1.0854
 1358SOL     OW 4451   0.082   6.173   6.632  0.3703  0.2705 -0.1563
 1358SOL    HW1 4452   0.159   6.229   6.621  0.6535  0.4101  2.0791
 1358SOL    HW2 4453   0.116   6.092   6.671 -0.5126  0.0984  0.2952
 1359SOL     OW 4454   4.659   0.123   5.443 -0.1611  0.0861  0.1473
 1359SOL    HW1 4455   4.620   0.185   5.382 -3.1728 -2.0905 -0.3845
 1359SOL    HW2 4456   4.726   0.078   5.392 -0.6411  0.2680 -0.6637
 1360SOL     OW 4457   5.260   5.341   5.045  0.2019  0.0295  0.6723
 1360SOL    HW1 4458   5.306   5.424   5.036 -1.2149  0.7185 -0.5911
 1360SOL    HW2 4459   5.313   5.279   4.994  0.5702  0.4511  0.5321
 1361SOL     OW 4460   5.060   6.496   5.069  0.6836  0.3083 -0.1768
 1361SOL    HW1 4461   4.964   6.505   5.069  0.4324 -1.8092  0.4624
 1361SOL    HW2 4462   5.091   6.578   5.109 -1.0810 -0.2426  2.5962
 1362SOL     OW 4463   2.044   4.201   0.775 -0.8160  0.1231 -0.5666
 1362SOL    HW1 4464   2.038   4.289   0.738  0.3546 -0.0335 -1.1845
 1362SOL    HW2 4465   1.981   4.201   0.847 -2.9792  0.5300 -2.3431
 1363SOL     OW 4466   3.846   3.960   1.046  0.2162  0.1703  0.4314
 1363SOL    HW1 4467   3.830   3.866   1.055  0.5534 -0.1951 -1.9494
 1363SOL    HW2 4468   3.919   3.966   0.985 -0.2964  1.9730 -0.0812
 1364SOL     OW 4469   0.820   5.982   2.920  0.2917  0.0812 -0.6394
 1364SOL    HW1 4470   0.762   5.919   2.879 -0.5780  1.2106 -1.1764
 1364SOL    HW2 4471   0.864   5.932   2.989 -2.4061 -0.4680  0.8100
 1365SOL     OW 4472   5.582   5.389   1.467  0.0154 -0.2208 -0.6421
 1365SOL    HW1 4473   5.568   5.377   1.561 -0.4840 -0.3696 -0.7294
 1365SOL    HW2 4474   5.671   5.358   1.451  0.0344 -0.3745 -0.2510
 1366SOL     OW 4475   2.138   0.967   3.481  0.4770 -0.0189 -0.1435
 1366SOL    HW1 4476   2.130   0.877   3.450  1.2212  0.0022 -0.4250
 1366SOL    HW2 4477   2.056   1.009   3.455  0.0877 -0.6377  0.0772
 1367SOL     OW 4478   2.217   0.091   4.055 -0.1119 -0.2193  0.8074
 1367SOL    HW1 4479   2.267   0.012   4.035  0.7259  0.5521 -0.2386
 1367SOL    HW2 4480   2.164   0.106   3.977 -0.5038  0.0770  1.1297
 1368SOL     OW 4481   1.254   3.721   2.543 -0.4743 -0.0438 -0.1471
 1368SOL    HW1 4482   1.294   3.808   2.542 -0.3719 -0.0886  0.1366
 1368SOL    HW2 4483   1.316   3.667   2.591 -0.7836 -0.1606  0.1230
 1369SOL     OW 4484   5.276   4.769   3.490  0.2893  0.0984 -0.3798
 1369SOL    HW1 4485   5.202   4.708   3.495  0.1956  0.3143  1.2557
 1369SOL    HW2 4486   5.241   4.851   3.523  1.1442  0.3165 -0.0027
 1370SOL     OW 4487   5.334   5.479   4.314  0.4624  0.7564 -0.2640
 1370SOL    HW1 4488   5.325   5.420   4.240  0.8645  0.4780 -0.0974
 1370SOL    HW2 4489   5.420   5.519   4.303 -0.0633  1.7951 -0.7141
 1371SOL     OW 4490   1.300   5.145   4.967  0.1383 -0.3091  0.3375
 1371SOL    HW1 4491   1.337   5.169   4.882  0.0144 -0.9519  0.0916
 1371SOL    HW2 4492   1.216   5.192   4.971  0.2688 -0.0664  0.2187
 1372SOL     OW 4493   4.007   2.454   2.491  0.6584 -0.6004  0.1327
 1372SOL    HW1 4494   4.096   2.423   2.508  0.8848  0.6040  1.2937
 1372SOL    HW2 4495   3.957   2.430   2.569  1.0948  2.7190  1.6155
 1373SOL     OW 4496   0.481   3.159   5.233  0.2237 -0.3785 -0.3440
 1373SOL    HW1 4497   0.415   3.106   5.279  1.3104 -0.6076  0.9997
 1373SOL    HW2 4498   0.440   3.246   5.225 -0.1385 -0.4344  0.7414
 1374SOL     OW 4499   5.844   4.419   1.934  0.1381  0.2240 -0.5527
 1374SOL    HW1 4500   5.900   4.469   1.992  0.5440 -0.1646 -0.6072
 1374SOL    HW2 4501   5.766   4.473   1.924  0.2531  0.5004 -0.0092
 1375SOL     OW 4502   2.663   4.571   5.863  0.1003  0.1374 -0.7460
 1375SOL    HW1 4503   2.691   4.557   5.772  0.8011 -1.0833 -0.3515
 1375SOL    HW2 4504   2.712   4.648   5.891  1.7252 -0.8777 -0.6646
 1376SOL     OW 4505   4.912   3.173   5.176 -0.2015 -0.8302 -0.1144
 1376SOL    HW1 4506   4.981   3.213   5.229  0.5451  1.3437 -2.4916
 1376SOL    HW2 4507   4.830   3.202   5.217  0.3526  0.5397  0.0810
 1377SOL     OW 4508   6.006   3.678   6.010 -0.3780 -0.0255 -0.1926
 1377SOL    HW1 4509   6.050   3.736   5.948  0.1465  1.4365  1.4731
 1377SOL    HW2 4510   5.920   3.716   6.024 -0.3314 -0.0853  0.2994
 1378SOL     OW 4511   3.706   3.705   2.359 -0.1649  0.5133 -0.4809
 1378SOL    HW1 4512   3.720   3.650   2.436 -0.9489  1.6112  0.4927
 1378SOL    HW2 4513   3.616   3.685   2.332  0.3463 -0.3996 -1.5830
 1379SOL     OW 4514   0.074   1.589   2.108  0.4590 -0.4541 -0.2894
 1379SOL    HW1 4515   0.095   1.580   2.015  0.0221 -0.6703 -0.3735
 1379SOL    HW2 4516   0.068   1.499   2.140  3.3907 -0.3998  0.6264
 1380SOL     OW 4517   3.895   4.553   1.018  0.0055 -0.9440 -0.0886
 1380SOL    HW1 4518   3.932   4.502   0.947  0.8811  0.8995 -1.0036
 1380SOL    HW2 4519   3.970   4.582   1.070 -0.2245  1.2088 -0.8504
 1381SOL     OW 4520   5.576   3.603   3.456 -0.2648  0.1117  0.3224
 1381SOL    HW1 4521   5.654   3.651   3.483 -0.7981  0.0904  2.0067
 1381SOL    HW2 4522   5.570   3.530   3.517 -0.6018 -0.9518 -0.9359
 1382SOL     OW 4523   5.305   5.773   0.202  0.4860 -0.4347  0.7511
 1382SOL    HW1 4524   5.223   5.762   0.250  1.0060  0.2904  1.8432
 1382SOL    HW2 4525   5.278   5.778   0.110 -0.7896  0.7596  1.1596
 1383SOL     OW 4526   2.857   3.390   3.110 -0.0581  0.6248  0.3858
 1383SOL    HW1 4527   2.889   3.474   3.076  1.0498  0.2509  0.4636
 1383SOL    HW2 4528   2.814   3.349   3.034 -0.7912  1.3444  0.4051
 1384SOL     OW 4529   6.603   5.063   0.758  0.1276 -0.0962 -0.0911
 1384SOL    HW1 4530   6.526   5.081   0.813 -0.3698  2.4895 -1.4850
 1384SOL    HW2 4531   6.612   5.140   0.703  1.0897 -2.1650 -3.1064
 1385SOL     OW 4532   6.697   4.156   6.683 -0.3097 -0.8951  0.9280
 1385SOL    HW1 4533   6.733   4.079   6.639 -0.9822 -1.6353  1.6374
 1385SOL    HW2 4534   6.702   4.136   6.777 -1.6679 -0.6381  1.0889
 1386SOL     OW 4535   1.189   3.775   5.242  0.0691  0.0511 -0.0999
 1386SOL    HW1 4536   1.195   3.705   5.306  0.1886 -0.6644 -0.8802
 1386SOL    HW2 4537   1.111   3.754   5.190  0.5877  0.0380 -0.8782
 1387SOL     OW 4538   4.396   3.615   3.541 -0.0452 -0.3065  0.1694
 1387SOL    HW1 4539   4.475   3.607   3.487  0.8385  0.4209  1.2826
 1387SOL    HW2 4540   4.329   3.646   3.481  1.0306  0.9535 -0.4525
 1388SOL     OW 4541   2.265   5.675   0.523  0.8235  0.1458 -0.1356
 1388SOL    HW1 4542   2.284   5.669   0.429  1.6218 -0.4699  0.0452
 1388SOL    HW2 4543   2.298   5.761   0.548  2.2344 -0.3751 -0.0971
 1389SOL     OW 4544   3.143   6.462   3.190  0.6005 -0.0719  0.4740
 1389SOL    HW1 4545   3.212   6.500   3.136  1.9310 -1.1389  1.3497
 1389SOL    HW2 4546   3.083   6.421   3.127  0.9311  0.5875 -0.2829
 1390SOL     OW 4547   3.884   4.082   6.342 -0.1608 -0.2899 -0.2044
 1390SOL    HW1 4548   3.893   3.992   6.372 -0.7138  0.4602  2.5207
 1390SOL    HW2 4549   3.844   4.128   6.416  1.4103  2.4997 -0.9174
 1391SOL     OW 4550   3.046   6.151   5.487  0.0039 -0.0062 -0.2755
 1391SOL    HW1 4551   3.115   6.200   5.532 -0.5625  0.5335  0.0190
 1391SOL    HW2 4552   2.989   6.219   5.450  0.3638 -0.4410 -1.6649
 1392SOL     OW 4553   6.435   0.069   4.556  0.2624  0.5753 -0.3481
 1392SOL    HW1 4554   6.468   0.052   4.644  0.5704 -0.3993 -0.6319
 1392SOL    HW2 4555   6.504   0.035   4.498 -0.9216 -0.9461 -0.9508
 1393SOL     OW 4556   1.745   1.031   6.818  0.3859  0.7248  0.6041
 1393SOL    HW1 4557   1.758   0.983   6.900 -0.4900  1.1054  0.9869
 1393SOL    HW2 4558   1.820   1.089   6.811  0.6667  0.4056  0.9285
 1394SOL     OW 4559   4.322   4.014   0.282  0.0930 -0.2958  0.1966
 1394SOL    HW1 4560   4.315   4.099   0.239  0.8948 -0.0161  0.6145
 1394SOL    HW2 4561   4.231   3.982   0.286 -0.3585  1.0138  1.0000
 1395SOL     OW 4562   4.580   4.398   6.401  0.4151 -0.3991 -0.4009
 1395SOL    HW1 4563   4.650   4.363   6.345 -0.5768  1.0605 -2.7166
 1395SOL    HW2 4564   4.517   4.436   6.339 -2.3699 -1.4736  1.5725
 1396SOL     OW 4565   3.011   5.959   4.332 -0.3254 -0.6906 -0.3903
 1396SOL    HW1 4566   2.957   5.892   4.291 -0.2952 -0.6935 -0.4251
 1396SOL    HW2 4567   3.100   5.927   4.323 -0.3333 -0.7845 -0.1481
 1397SOL     OW 4568   2.048   2.008   0.023  0.3829 -0.1257  0.3093
 1397SOL    HW1 4569   2.072   1.976  -0.064  0.9656 -1.7453  1.0368
 1397SOL    HW2 4570   1.993   1.940   0.060 -1.7145  1.5182  0.4259
 1398SOL     OW 4571   4.628   3.499   0.818 -0.7114 -0.5893  0.2312
 1398SOL    HW1 4572   4.657   3.461   0.736 -1.4451  0.0854 -0.3524
 1398SOL    HW2 4573   4.660   3.438   0.885  0.6068 -0.7199 -0.4761
 1399SOL     OW 4574   0.573   4.317   5.931 -0.0652 -0.2298 -0.9583
 1399SOL    HW1 4575   0.573   4.387   5.996  0.0653 -1.2858  0.2266
 1399SOL    HW2 4576   0.661   4.279   5.938 -0.2746 -0.7778 -1.2824
 1400SOL     OW 4577   0.537   5.292   5.244 -0.2780  0.7016 -0.5255
 1400SOL    HW1 4578   0.503   5.239   5.316  1.7418 -0.3057 -0.2238
 1400SOL    HW2 4579   0.498   5.255   5.165 -0.2329 -0.1324 -0.1654
 1401SOL     OW 4580   5.197   3.116   0.052 -0.3731 -0.1538  0.3363
 1401SOL    HW1 4581   5.189   3.108   0.147 -1.3726  0.5372  0.3203
 1401SOL    HW2 4582   5.112   3.089   0.019  0.0162 -0.5297 -0.3859
 1402SOL     OW 4583   4.088   1.125   1.517 -0.0870 -0.4702 -0.5221
 1402SOL    HW1 4584   4.128   1.074   1.587 -0.2683 -1.0738 -0.8481
 1402SOL    HW2 4585   4.007   1.079   1.496  0.1752 -0.5504 -1.4243
 1403SOL     OW 4586   1.165   1.427   3.070 -0.0891 -0.5273  0.1878
 1403SOL    HW1 4587   1.153   1.501   3.130 -0.3499  0.6223 -1.2145
 1403SOL    HW2 4588   1.079   1.385   3.067 -0.0897 -0.5560  0.5778
 1404SOL     OW 4589   3.715   6.127   0.525 -0.3756 -0.1376 -0.3743
 1404SOL    HW1 4590   3.679   6.216   0.515  0.3852  0.3299  0.7575
 1404SOL    HW2 4591   3.759   6.109   0.442 -2.5199 -0.4339 -1.5222
 1405SOL     OW 4592   5.682   4.552   4.622  0.6248  0.0399 -0.1241
 1405SOL    HW1 4593   5.755   4.593   4.576  0.8180 -0.4448 -0.2498
 1405SOL    HW2 4594   5.722   4.501   4.692  0.5934 -2.0730 -1.5737
 1406SOL     OW 4595   0.886   2.073   5.936  0.2411  0.0239 -0.1869
 1406SOL    HW1 4596   0.967   2.114   5.904  0.9051 -1.2131 -0.1471
 1406SOL    HW2 4597   0.908   1.980   5.943 -1.4460 -0.4680 -0.9790
 1407SOL     OW 4598   6.829   6.734   1.733  0.1938  0.8947 -0.5838
 1407SOL    HW1 4599   6.846   6.827   1.720  2.1298  0.6200 -0.3690
 1407SOL    HW2 4600   6.914   6.698   1.761 -0.8571 -0.6641  0.8086
 1408SOL     OW 4601   4.115   0.931   1.709  0.2081 -0.1388  0.1668
 1408SOL    HW1 4602   4.134   0.941   1.803  2.9269  0.1956 -0.3484
 1408SOL    HW2 4603   4.156   0.847   1.686  0.0545  0.0616 -0.8585
 1409SOL     OW 4604   6.033   6.546   5.693  0.4800  0.2439 -0.2547
 1409SOL    HW1 4605   5.973   6.483   5.653 -0.4256  1.5275 -0.9974
 1409SOL    HW2 4606   6.108   6.548   5.634 -0.1468  0.9384 -1.0534
 1410SOL     OW 4607   0.384   0.653   4.526  0.1165 -0.1681 -0.0100
 1410SOL    HW1 4608   0.382   0.748   4.534 -0.2796  0.0068 -1.7908
 1410SOL    HW2 4609   0.383   0.621   4.616 -1.1008  1.4810  0.6024
 1411SOL     OW 4610   4.054   1.513   3.376 -0.4214 -0.0131 -0.3081
 1411SOL    HW1 4611   3.991   1.497   3.307  0.5105  0.3472 -1.2727
 1411SOL    HW2 4612   4.001   1.529   3.454 -1.4803 -2.3347 -0.4620
 1412SOL     OW 4613   2.625   1.019   3.263  0.0365 -0.2667  0.1777
 1412SOL    HW1 4614   2.711   1.057   3.282  0.7016 -1.5499 -0.1631
 1412SOL    HW2 4615   2.567   1.057   3.330  0.3464  2.3244 -0.9092
 1413SOL     OW 4616   3.754   3.651   3.497  0.8957 -0.3387  0.1614
 1413SOL    HW1 4617   3.695   3.668   3.571  0.4571 -2.1289  0.2739
 1413SOL    HW2 4618   3.832   3.703   3.515 -1.0691  3.2180 -0.6480
 1414SOL     OW 4619   1.615   3.371   1.934  0.2002 -0.0562  0.1161
 1414SOL    HW1 4620   1.532   3.325   1.921  0.5729 -0.9097  0.6277
 1414SOL    HW2 4621   1.616   3.439   1.867 -0.1434 -1.1263 -1.0142
 1415SOL     OW 4622   6.007   5.687   6.627 -0.1037 -0.4912  0.1829
 1415SOL    HW1 4623   5.996   5.738   6.547  0.6927 -1.7730 -0.7927
 1415SOL    HW2 4624   6.056   5.745   6.685 -0.2779  0.2935 -0.4234
 1416SOL     OW 4625   0.830   3.613   0.101 -0.2957 -0.5474  0.1693
 1416SOL    HW1 4626   0.753   3.599   0.047 -0.2978  0.1293 -0.0159
 1416SOL    HW2 4627   0.845   3.707   0.098  0.6967 -0.6989 -0.0191
 1417SOL     OW 4628   4.824   4.864   4.880 -0.1476 -0.0001 -0.7166
 1417SOL    HW1 4629   4.814   4.949   4.836  0.8580 -0.5376 -2.0510
 1417SOL    HW2 4630   4.824   4.800   4.808 -0.6137 -1.1183  0.2459
 1418SOL     OW 4631   3.950   4.897   1.064 -0.3869  0.2849  0.2886
 1418SOL    HW1 4632   3.993   4.948   0.995 -0.3250  1.0857  0.8969
 1418SOL    HW2 4633   4.010   4.825   1.082 -0.3464  0.1357 -0.4056
 1419SOL     OW 4634   4.751   1.581   6.134  0.3160  0.3444 -0.2852
 1419SOL    HW1 4635   4.756   1.539   6.048  0.7257  0.1557 -0.1733
 1419SOL    HW2 4636   4.795   1.665   6.121 -0.7703  0.8802 -0.5863
 1420SOL     OW 4637   1.239   3.588   0.511  0.1627  0.4548 -0.4152
 1420SOL    HW1 4638   1.229   3.597   0.417  0.9005  0.5248 -0.4940
 1420SOL    HW2 4639   1.274   3.499   0.523  1.4942  0.9678 -0.3349
 1421SOL     OW 4640   5.516   5.296   4.741  0.1307 -0.0279 -0.1514
 1421SOL    HW1 4641   5.529   5.383   4.779 -0.1049  0.5078 -1.2882
 1421SOL    HW2 4642   5.473   5.312   4.658  0.7082 -1.1866 -0.6881
 1422SOL     OW 4643   3.406   2.988   5.059 -0.3040  0.4047  0.7228
 1422SOL    HW1 4644   3.470   2.938   5.110 -0.9857  1.2847  2.5744
 1422SOL    HW2 4645   3.452   3.069   5.037 -0.6821  0.9850  1.9484
 1423SOL     OW 4646   5.564   0.994   1.946  0.3490  0.0832 -0.4085
 1423SOL    HW1 4647   5.580   1.083   1.915  0.2173  0.6668  1.1085
 1423SOL    HW2 4648   5.565   0.940   1.867 -1.4759  1.6919 -1.6064
 1424SOL     OW 4649   0.784   1.701   3.047 -0.5618 -0.3598  0.0246
 1424SOL    HW1 4650   0.829   1.714   3.130 -1.7441 -0.2099  0.6610
 1424SOL    HW2 4651   0.732   1.622   3.060 -0.3015 -0.6793 -0.7896
 1425SOL     OW 4652   5.417   5.586   1.415 -0.1735 -0.0592 -0.4725
 1425SOL    HW1 4653   5.431   5.612   1.323  0.1298  0.6156 -0.2409
 1425SOL    HW2 4654   5.489   5.526   1.433 -0.8885 -1.1041 -1.0162
 1426SOL     OW 4655   2.846   4.173   2.594 -0.0699 -0.1106  0.1663
 1426SOL    HW1 4656   2.931   4.200   2.628  1.5944  0.5720 -3.9200
 1426SOL    HW2 4657   2.804   4.254   2.565 -2.0610 -0.4710  1.8332
 1427SOL     OW 4658   1.028   2.475   6.491 -0.7718  0.3407  0.4500
 1427SOL    HW1 4659   0.985   2.462   6.406 -0.9695 -0.2112  0.6293
 1427SOL    HW2 4660   1.062   2.564   6.487  1.5778 -0.5246 -1.2596
 1428SOL     OW 4661   2.432   4.903   1.175 -0.5176 -0.4075  0.2939
 1428SOL    HW1 4662   2.384   4.825   1.149 -0.4192 -0.4297  0.1812
 1428SOL    HW2 4663   2.523   4.882   1.158 -0.4861 -0.2878  0.3155
 1429SOL     OW 4664   5.304   5.027   5.197 -0.0799  0.1752  0.0777
 1429SOL    HW1 4665   5.399   5.020   5.191  0.1468  1.8649  1.0997
 1429SOL    HW2 4666   5.288   5.056   5.287 -1.4164  1.9260 -0.6733
 1430SOL     OW 4667   3.569   5.397   0.193  0.0911 -0.6437  0.4202
 1430SOL    HW1 4668   3.484   5.427   0.227 -0.9143 -1.4710 -1.2620
 1430SOL    HW2 4669   3.549   5.318   0.143  1.7258 -0.3487 -0.7933
 1431SOL     OW 4670   6.681   1.947   1.364 -0.1607 -0.4723 -0.0321
 1431SOL    HW1 4671   6.756   1.897   1.332  0.9986  1.1937 -0.0494
 1431SOL    HW2 4672   6.683   2.029   1.314  0.5471  1.3922  2.7818
 1432SOL     OW 4673   2.161   6.330   2.406  0.0078  0.2591  0.0625
 1432SOL    HW1 4674   2.150   6.366   2.318  0.3062 -0.6375 -0.3593
 1432SOL    HW2 4675   2.208   6.397   2.455 -2.7855  2.0793  0.4500
 1433SOL     OW 4676   2.371   5.424   3.125 -0.1337  0.0029  0.1816
 1433SOL    HW1 4677   2.334   5.482   3.057  0.6625 -0.1580 -0.3967
 1433SOL    HW2 4678   2.362   5.336   3.088  0.7526 -0.0441  0.0620
 1434SOL     OW 4679   6.436   0.833   3.878  0.0134 -0.0135 -0.3796
 1434SOL    HW1 4680   6.423   0.741   3.902 -1.0597  0.4326  0.9020
 1434SOL    HW2 4681   6.513   0.860   3.929  1.0252 -0.4687 -1.6166
 1435SOL     OW 4682   0.026   3.031   3.689 -0.4776  0.6231 -0.4433
 1435SOL    HW1 4683   0.079   3.104   3.721 -0.1098 -0.4766  1.7063
 1435SOL    HW2 4684   0.013   3.049   3.596  1.6271  2.1788 -0.5235
 1436SOL     OW 4685   1.275   2.292   5.168  0.1489  0.1399  0.3101
 1436SOL    HW1 4686   1.219   2.357   5.126 -0.6353  0.1918  1.3995
 1436SOL    HW2 4687   1.216   2.239   5.222  1.1993  0.6371  2.0387
 1437SOL     OW 4688   3.209   2.716   2.361 -0.0642 -0.3306 -0.3058
 1437SOL    HW1 4689   3.246   2.723   2.273 -0.9923 -0.1160 -0.6844
 1437SOL    HW2 4690   3.198   2.807   2.389 -1.0331 -0.3760 -0.5144
 1438SOL     OW 4691   6.767   1.512   0.793 -0.3985 -0.0959  0.3117
 1438SOL    HW1 4692   6.712   1.492   0.717  0.7097  0.8505 -0.7864
 1438SOL    HW2 4693   6.841   1.452   0.785 -0.5505 -0.3876  0.9906
 1439SOL     OW 4694   6.061   4.740   3.659  0.1309 -0.2103  0.2884
 1439SOL    HW1 4695   6.016   4.674   3.605  0.7517  0.0803 -0.6039
 1439SOL    HW2 4696   6.153   4.730   3.636  0.2570  0.7872  0.3526
 1440SOL     OW 4697   4.777   4.488   4.044  0.8049 -0.3352  0.2441
 1440SOL    HW1 4698   4.852   4.429   4.053 -0.1078 -1.4035  1.0836
 1440SOL    HW2 4699   4.712   4.454   4.105  0.0581  1.2710  0.3979
 1441SOL     OW 4700   5.787   1.448   2.426  0.0591 -0.0035 -0.1581
 1441SOL    HW1 4701   5.709   1.401   2.397 -0.5455  0.5113  0.5792
 1441SOL    HW2 4702   5.753   1.520   2.479  0.9847  1.0681 -0.9884
 1442SOL     OW 4703   6.304   6.745   3.628 -0.5699 -0.8242  0.0619
 1442SOL    HW1 4704   6.342   6.670   3.582  0.5823  0.2084 -0.7453
 1442SOL    HW2 4705   6.378   6.804   3.642 -1.7581  1.0053 -1.0355
 1443SOL     OW 4706   6.131   5.570   3.413 -0.0243 -0.8105  0.7866
 1443SOL    HW1 4707   6.052   5.517   3.403 -0.0956 -0.4570 -0.8439
 1443SOL    HW2 4708   6.101   5.661   3.401  0.6731 -0.7030 -0.2830
 1444SOL     OW 4709   3.567   0.542   2.467 -0.2356  0.9197 -0.5823
 1444SOL    HW1 4710   3.652   0.541   2.422 -0.1489  0.3524 -0.4273
 1444SOL    HW2 4711   3.502   0.543   2.397 -0.1210 -1.0190 -0.7917
 1445SOL     OW 4712   5.999   4.425   3.686  0.7295 -0.7382 -0.2370
 1445SOL    HW1 4713   6.026   4.506   3.731  0.2398 -2.0615  2.6458
 1445SOL    HW2 4714   5.904   4.432   3.679  0.5541 -1.4927  1.0532
 1446SOL     OW 4715   5.345   5.627   6.277 -0.0259 -0.6232 -0.1017
 1446SOL    HW1 4716   5.338   5.592   6.366  1.4834  0.0555  0.3278
 1446SOL    HW2 4717   5.436   5.612   6.252 -0.1440  0.1820 -1.1045
 1447SOL     OW 4718   1.253   4.189   1.308  0.4866 -0.0528 -0.3129
 1447SOL    HW1 4719   1.320   4.230   1.254  2.0056 -2.1564 -0.1765
 1447SOL    HW2 4720   1.303   4.144   1.377 -1.1976 -0.2711  0.8309
 1448SOL     OW 4721   4.098   0.276   1.358  0.0842 -0.1418 -0.2207
 1448SOL    HW1 4722   4.191   0.289   1.337  0.2038 -1.7436 -0.8046
 1448SOL    HW2 4723   4.069   0.361   1.392  1.8891  0.2366  0.4789
 1449SOL     OW 4724   3.833   1.095   3.852 -0.2798 -0.0384  0.0814
 1449SOL    HW1 4725   3.754   1.074   3.900 -0.2627  0.7839  0.4688
 1449SOL    HW2 4726   3.900   1.037   3.890 -0.4200  0.1180  0.5663
 1450SOL     OW 4727   4.556   0.603   3.848  0.0153 -0.2463  0.0581
 1450SOL    HW1 4728   4.470   0.574   3.879  0.1135 -0.2918  0.2893
 1450SOL    HW2 4729   4.568   0.557   3.765  0.4038 -1.3030  0.6803
 1451SOL     OW 4730   6.563   0.433   1.763  0.0620  0.0639  0.0907
 1451SOL    HW1 4731   6.519   0.515   1.785  1.4926  1.1652 -0.9425
 1451SOL    HW2 4732   6.618   0.414   1.839  1.2036  1.1550 -0.4233
 1452SOL     OW 4733   5.062   3.735   5.031  0.3674  0.2235 -0.5167
 1452SOL    HW1 4734   5.032   3.794   5.100 -0.8332  0.7781 -1.4758
 1452SOL    HW2 4735   5.125   3.787   4.980  1.9929 -0.4912  0.6713
 1453SOL     OW 4736   5.200   3.798   2.970 -0.0005 -0.0773 -0.4528
 1453SOL    HW1 4737   5.285   3.793   3.014 -0.9654 -0.7767  1.4238
 1453SOL    HW2 4738   5.175   3.890   2.977  1.2070  0.4631 -2.3402
 1454SOL     OW 4739   4.584   5.360   1.026 -0.1095  0.3911  0.3109
 1454SOL    HW1 4740   4.545   5.286   0.980 -0.3302  0.7636 -0.1037
 1454SOL    HW2 4741   4.541   5.437   0.990 -0.8710  0.6641  1.7072
 1455SOL     OW 4742   5.662   4.465   0.611 -0.3660  0.1312 -0.0507
 1455SOL    HW1 4743   5.636   4.510   0.531 -1.8298 -0.3176  0.1281
 1455SOL    HW2 4744   5.579   4.430   0.647  0.4191 -0.7820  0.9663
 1456SOL     OW 4745   4.619   6.266   4.127  0.2122 -0.5344 -0.0290
 1456SOL    HW1 4746   4.667   6.348   4.141  1.8195 -1.3874 -0.4049
 1456SOL    HW2 4747   4.552   6.267   4.195 -0.4863  1.5743 -0.6661
 1457SOL     OW 4748   2.023   2.277   6.124  0.8101 -0.0685  0.1069
 1457SOL    HW1 4749   1.967   2.223   6.067  0.8971 -1.3298  1.1708
 1457SOL    HW2 4750   1.970   2.354   6.144 -0.4643 -1.1098  0.8671
 1458SOL     OW 4751   4.310   0.492   1.992 -0.2064  0.1806 -0.6566
 1458SOL    HW1 4752   4.361   0.560   2.037  1.9379 -1.9685  0.3870
 1458SOL    HW2 4753   4.285   0.532   1.909  1.5396  2.0285 -0.3754
 1459SOL     OW 4754   1.813   0.833   2.785 -0.0958 -0.3035  0.0839
 1459SOL    HW1 4755   1.824   0.916   2.739 -1.3614  0.2801  0.7688
 1459SOL    HW2 4756   1.888   0.827   2.843  1.3577 -0.9001 -1.7663
 1460SOL     OW 4757   4.456   0.637   0.792 -0.3248 -0.3417 -0.0109
 1460SOL    HW1 4758   4.499   0.647   0.877  1.1847 -2.4949 -0.4304
 1460SOL    HW2 4759   4.527   0.614   0.732 -1.5444 -0.1245 -1.5804
 1461SOL     OW 4760   6.422   3.324   2.456  0.3992  0.2952  0.2541
 1461SOL    HW1 4761   6.330   3.303   2.475  0.1829 -0.1036 -1.1069
 1461SOL    HW2 4762   6.450   3.255   2.396  1.5320  0.5393  0.4898
 1462SOL     OW 4763   6.804   6.604   4.432 -0.3397  0.1271 -0.3270
 1462SOL    HW1 4764   6.896   6.594   4.408 -0.0623 -0.0727  0.7877
 1462SOL    HW2 4765   6.776   6.516   4.458 -0.8682  0.1770 -0.7035
 1463SOL     OW 4766   6.671   1.136   1.366  0.1366 -0.6992  0.1387
 1463SOL    HW1 4767   6.621   1.068   1.410 -0.8226  0.9902  1.7919
 1463SOL    HW2 4768   6.721   1.178   1.436  1.2198 -0.0984 -0.9513
 1464SOL     OW 4769   1.662   5.715   2.679  0.5246  0.0007  0.2928
 1464SOL    HW1 4770   1.707   5.798   2.662  0.0837  0.4308  1.1767
 1464SOL    HW2 4771   1.575   5.740   2.707  0.1246 -0.7989 -0.1959
 1465SOL     OW 4772   3.772   3.220   0.681 -0.2855  0.6966  0.0735
 1465SOL    HW1 4773   3.852   3.238   0.633  0.3615 -0.7583  0.5650
 1465SOL    HW2 4774   3.727   3.153   0.630 -0.6422  0.7064  0.3672
 1466SOL     OW 4775   1.279   4.900   5.437 -0.2469  0.2703  0.1917
 1466SOL    HW1 4776   1.313   4.813   5.418 -2.9595 -1.2682  1.6457
 1466SOL    HW2 4777   1.220   4.919   5.365  0.6199  1.1235 -0.3141
 1467SOL     OW 4778   4.716   6.521   4.154  0.5858 -0.4172 -0.2056
 1467SOL    HW1 4779   4.722   6.587   4.223  0.3170  0.5153 -1.0545
 1467SOL    HW2 4780   4.795   6.534   4.102  0.6436 -0.9261 -0.2467
 1468SOL     OW 4781   6.167   3.980   0.266 -0.2587 -0.0316  0.3525
 1468SOL    HW1 4782   6.152   4.032   0.187 -0.4690 -0.9285 -0.2146
 1468SOL    HW2 4783   6.230   4.031   0.317 -0.3863  0.7253 -0.2341
 1469SOL     OW 4784   4.632   1.789   4.297  0.0247 -0.0892  0.2350
 1469SOL    HW1 4785   4.574   1.845   4.245 -1.0753 -0.1662  1.3266
 1469SOL    HW2 4786   4.603   1.700   4.277 -0.8925 -0.0967  1.4781
 1470SOL     OW 4787   4.648   5.975   3.174 -0.4039  0.0874  0.2640
 1470SOL    HW1 4788   4.578   5.990   3.238 -0.2055 -1.4721  0.8900
 1470SOL    HW2 4789   4.711   5.919   3.219  1.6718  2.0350 -0.0424
 1471SOL     OW 4790   4.535   3.043   5.441  0.6361 -0.2907 -0.1831
 1471SOL    HW1 4791   4.441   3.060   5.449  1.2735  3.4904  1.8823
 1471SOL    HW2 4792   4.568   3.116   5.389  2.8059  0.7507  2.3826
 1472SOL     OW 4793   0.020   3.656   1.102  0.0504 -0.2193  0.1402
 1472SOL    HW1 4794   0.038   3.724   1.037  0.1933  0.3263  0.7447
 1472SOL    HW2 4795  -0.033   3.591   1.055  1.1378 -0.4196 -0.8511
 1473SOL     OW 4796   1.552   4.257   0.498  0.2151 -0.3629  0.3819
 1473SOL    HW1 4797   1.549   4.220   0.587  0.7970 -1.9193 -0.2192
 1473SOL    HW2 4798   1.640   4.237   0.467 -0.1856 -0.3795 -0.7838
 1474SOL     OW 4799   4.128   1.797   0.268 -0.3973 -0.5795 -0.3346
 1474SOL    HW1 4800   4.217   1.792   0.303  0.4214 -0.7026 -2.3068
 1474SOL    HW2 4801   4.091   1.710   0.285  0.5685 -1.1857 -1.2507
 1475SOL     OW 4802   2.894   1.299   3.958 -0.3572 -0.7628 -0.1714
 1475SOL    HW1 4803   2.989   1.300   3.973 -0.3602 -0.8238 -0.1471
 1475SOL    HW2 4804   2.857   1.347   4.032 -0.3628 -0.9523 -0.0499
 1476SOL     OW 4805   0.450   0.907   5.490 -0.2222  0.3811 -0.3274
 1476SOL    HW1 4806   0.519   0.889   5.554 -0.5011  0.7724  0.0805
 1476SOL    HW2 4807   0.375   0.937   5.542 -0.7483 -0.1581 -0.7531
 1477SOL     OW 4808   1.655   4.467   6.046 -0.3531 -0.0072  0.4962
 1477SOL    HW1 4809   1.586   4.401   6.055 -0.2250 -0.3262 -0.7264
 1477SOL    HW2 4810   1.636   4.510   5.963  0.4881  0.4136  0.5173
 1478SOL     OW 4811   0.550   0.018   1.727  0.0369 -0.1668  0.7902
 1478SOL    HW1 4812   0.591  -0.040   1.662  3.2267  1.5601  1.0721
 1478SOL    HW2 4813   0.560   0.106   1.690 -2.6279  0.4727  1.4237
 1479SOL     OW 4814   2.524   0.796   6.345 -0.6476 -0.0735  0.1160
 1479SOL    HW1 4815   2.550   0.761   6.259 -2.6722 -1.6017  0.0480
 1479SOL    HW2 4816   2.489   0.720   6.392 -0.0958  0.8454  2.1161
 1480SOL     OW 4817   0.829   4.714   3.857  0.0083 -0.5601  0.4122
 1480SOL    HW1 4818   0.740   4.740   3.830 -0.1768 -1.1814  0.4027
 1480SOL    HW2 4819   0.863   4.791   3.903 -0.0586  0.1403 -0.6771
 1481SOL     OW 4820   3.558   6.827   0.410 -0.4187  0.1730 -0.4238
 1481SOL    HW1 4821   3.520   6.788   0.331 -1.1672  1.0318 -0.4990
 1481SOL    HW2 4822   3.530   6.918   0.408 -3.2908 -0.4690  2.4907
 1482SOL     OW 4823   3.846   4.329   2.454 -0.0101  0.4204  0.3324
 1482SOL    HW1 4824   3.848   4.328   2.358 -0.7476 -4.2098  0.1267
 1482SOL    HW2 4825   3.754   4.346   2.476 -0.3206 -0.8196  0.0596
 1483SOL     OW 4826   4.881   2.015   4.387 -0.4859  0.5870 -0.6304
 1483SOL    HW1 4827   4.973   1.990   4.396 -0.5613  0.7496  0.7682
 1483SOL    HW2 4828   4.836   1.935   4.360  0.1724  0.7010 -2.1516
 1484SOL     OW 4829   2.864   4.351   1.311 -0.1112  0.5943 -0.2114
 1484SOL    HW1 4830   2.823   4.424   1.357 -1.0251  0.6026 -0.9948
 1484SOL    HW2 4831   2.956   4.354   1.337 -0.3297  1.4310  0.5119
 1485SOL     OW 4832   1.217   1.946   6.787 -0.4546 -0.0072  0.3385
 1485SOL    HW1 4833   1.305   1.917   6.811 -1.4006 -1.2289  2.6683
 1485SOL    HW2 4834   1.214   2.038   6.811 -0.3253 -0.3981  1.9132
 1486SOL     OW 4835   4.200   0.552   5.738 -0.3449  1.3222  0.0190
 1486SOL    HW1 4836   4.172   0.590   5.821 -0.0624 -1.5606  1.5470
 1486SOL    HW2 4837   4.265   0.486   5.762 -1.0356 -0.3610 -2.3495
 1487SOL     OW 4838   0.207   5.726   4.070 -0.2239  0.3255 -0.0715
 1487SOL    HW1 4839   0.160   5.721   3.987  1.6043  0.0235 -1.1362
 1487SOL    HW2 4840   0.289   5.770   4.048  0.6945 -0.6056  1.3822
 1488SOL     OW 4841   4.682   1.954   4.954 -0.2493  0.1490 -0.0491
 1488SOL    HW1 4842   4.639   1.996   5.028  0.6116 -0.5354  0.8619
 1488SOL    HW2 4843   4.632   1.875   4.938 -1.2027  0.9159 -1.0540
 1489SOL     OW 4844   6.739   0.918   1.842  0.6953  0.0838 -0.1350
 1489SOL    HW1 4845   6.693   0.958   1.916  0.1532  0.9373 -0.9259
 1489SOL    HW2 4846   6.743   0.825   1.865  1.1746  0.4284  1.2952
 1490SOL     OW 4847   1.534   2.859   0.041  0.1927  0.2267 -0.5104
 1490SOL    HW1 4848   1.471   2.869  -0.031  1.6577  0.1655 -1.8642
 1490SOL    HW2 4849   1.608   2.914   0.015  1.4098 -1.0264  0.1619
 1491SOL     OW 4850   5.514   3.663   6.143  0.9304  0.4761  0.0351
 1491SOL    HW1 4851   5.532   3.591   6.204  1.4245  0.7583  0.2260
 1491SOL    HW2 4852   5.443   3.630   6.088  1.6127 -0.4290 -0.3278
 1492SOL     OW 4853   4.653   0.975   0.414 -0.3965 -0.0272  0.3478
 1492SOL    HW1 4854   4.678   1.013   0.498  0.1508  0.8506 -0.1997
 1492SOL    HW2 4855   4.592   0.905   0.437 -0.6614  0.5371  1.4372
 1493SOL     OW 4856   5.646   3.344   4.735 -0.1983 -0.0236 -0.1869
 1493SOL    HW1 4857   5.609   3.402   4.668  0.4614  0.5544 -0.0590
 1493SOL    HW2 4858   5.605   3.373   4.817  0.8829  0.9705  0.0393
 1494SOL     OW 4859   6.120   6.441   1.071  0.7121  0.4233 -0.0477
 1494SOL    HW1 4860   6.201   6.461   1.024  0.1854  1.9526 -0.3700
 1494SOL    HW2 4861   6.143   6.450   1.163  1.1869 -0.3465 -0.0782
 1495SOL     OW 4862   6.220   1.483   4.795 -0.3338 -0.7982  0.4908
 1495SOL    HW1 4863   6.243   1.508   4.884  0.3166 -2.1716  0.7418
 1495SOL    HW2 4864   6.165   1.554   4.763  1.3639  0.8940  1.1440
 1496SOL     OW 4865   2.463   3.293   2.730 -0.2519  0.3660 -0.1294
 1496SOL    HW1 4866   2.387   3.234   2.726 -0.6936  0.9488 -0.5320
 1496SOL    HW2 4867   2.530   3.249   2.678 -0.6571  0.3163 -0.6290
 1497SOL     OW 4868   5.636   4.061   2.504  0.0044 -0.3323  0.3080
 1497SOL    HW1 4869   5.572   4.130   2.487  0.2367  0.4836  2.4427
 1497SOL    HW2 4870   5.719   4.107   2.516  0.2441 -0.9929  1.3510
 1498SOL     OW 4871   1.129   2.607   4.283  0.1562  0.0190  0.4360
 1498SOL    HW1 4872   1.056   2.612   4.221  1.8888 -0.3654 -1.7833
 1498SOL    HW2 4873   1.088   2.587   4.367 -2.4835  2.2277 -0.1734
 1499SOL     OW 4874   0.370   4.202   5.764  0.9787 -0.3772  0.0730
 1499SOL    HW1 4875   0.376   4.248   5.681  0.5831 -1.3149 -0.4906
 1499SOL    HW2 4876   0.439   4.240   5.818  0.2837  1.2830 -0.1511
 1500SOL     OW 4877   1.484   6.543   3.644 -0.0214  0.3004  0.2922
 1500SOL    HW1 4878   1.466   6.603   3.717  1.7033 -0.2365  1.2264
 1500SOL    HW2 4879   1.580   6.534   3.644 -0.1857 -1.9092 -0.2670
 1501SOL     OW 4880   5.217   0.738   0.919  0.2072  0.3148  0.3030
 1501SOL    HW1 4881   5.296   0.748   0.865  0.4313 -1.0530  0.3421
 1501SOL    HW2 4882   5.145   0.737   0.857  0.3219  0.3816  0.1685
 1502SOL     OW 4883   3.546   1.669   0.687 -0.2069 -1.0520  0.2088
 1502SOL    HW1 4884   3.569   1.577   0.697  0.0790 -1.0570 -0.4816
 1502SOL    HW2 4885   3.616   1.717   0.733 -0.1947 -1.1692  0.3107
 1503SOL     OW 4886   3.533   6.296   0.045 -0.0687  0.2840  0.0545
 1503SOL    HW1 4887   3.533   6.221   0.104 -2.8069 -0.0297 -0.1873
 1503SOL    HW2 4888   3.524   6.372   0.103  0.5771  0.2593  0.1913
 1504SOL     OW 4889   3.620   3.768   5.187 -0.4583  0.3754 -0.3086
 1504SOL    HW1 4890   3.586   3.825   5.118 -1.5465 -0.3911 -0.4336
 1504SOL    HW2 4891   3.645   3.828   5.257  0.4957  1.1475 -1.2821
 1505SOL     OW 4892   6.774   5.168   4.119 -0.5627 -0.6376 -0.1095
 1505SOL    HW1 4893   6.846   5.219   4.155 -0.0818 -0.6813 -0.9683
 1505SOL    HW2 4894   6.697   5.225   4.127 -0.3814 -0.4852  0.5621
 1506SOL     OW 4895   5.054   4.964   5.145 -0.1849  0.0071 -0.5604
 1506SOL    HW1 4896   5.129   5.022   5.157 -0.0558 -0.0134 -1.2100
 1506SOL    HW2 4897   5.083   4.901   5.079 -0.0675 -1.2572  0.6483
 1507SOL     OW 4898   0.046   3.072   4.641  0.1418  0.0449 -0.2040
 1507SOL    HW1 4899  -0.039   3.096   4.604  0.0844  1.8295  0.9583
 1507SOL    HW2 4900   0.087   3.156   4.662  1.6357 -0.8246  0.4995
 1508SOL     OW 4901   1.780   6.191   2.804  0.4390 -0.0195 -0.1046
 1508SOL    HW1 4902   1.825   6.255   2.859 -0.4818  0.5697 -0.0257
 1508SOL    HW2 4903   1.812   6.209   2.716  1.1286 -0.2832  0.0836
 1509SOL     OW 4904   2.977   5.981   6.212  0.5415 -0.7899 -0.0379
 1509SOL    HW1 4905   3.011   5.895   6.239  0.2454 -0.9193 -0.0781
 1509SOL    HW2 4906   3.051   6.022   6.167  1.0000 -0.6225  0.8582
 1510SOL     OW 4907   0.272   1.782   1.112 -0.2093  0.1086  0.4250
 1510SOL    HW1 4908   0.292   1.856   1.169 -3.9882  0.3160  1.7727
 1510SOL    HW2 4909   0.248   1.822   1.028  2.0459  0.0154 -0.3275
 1511SOL     OW 4910   0.967   5.988   2.049  0.2242  0.3041 -0.1258
 1511SOL    HW1 4911   1.046   5.945   2.018  0.6405  0.5179  0.6086
 1511SOL    HW2 4912   0.970   5.977   2.144 -1.1459 -0.5768 -0.1527
 1512SOL     OW 4913   5.847   3.437   5.255 -0.3059 -0.3137  0.1111
 1512SOL    HW1 4914   5.831   3.342   5.253 -0.6176 -0.2892  0.9082
 1512SOL    HW2 4915   5.931   3.446   5.299 -0.0690 -0.2361 -0.3519
 1513SOL     OW 4916   1.580   1.380   4.670  0.2778 -0.4729  0.2219
 1513SOL    HW1 4917   1.530   1.455   4.702 -2.8077 -1.8497 -0.9721
 1513SOL    HW2 4918   1.602   1.402   4.580  0.0229 -0.7040  0.1028
 1514SOL     OW 4919   3.542   5.091   3.595 -0.3529  0.2481 -0.9232
 1514SOL    HW1 4920   3.631   5.122   3.578  0.0184  0.8067  1.6700
 1514SOL    HW2 4921   3.548   4.996   3.588  1.3696 -0.0427  2.4279
 1515SOL     OW 4922   2.222   0.289   5.960  0.2980  0.0983  0.4092
 1515SOL    HW1 4923   2.145   0.238   5.988  0.4936 -0.2800  0.2714
 1515SOL    HW2 4924   2.187   0.359   5.906  0.0547 -0.1071  0.3007
 1516SOL     OW 4925   5.833   5.113   1.240 -0.2093 -0.2412 -0.1316
 1516SOL    HW1 4926   5.810   5.206   1.237  1.3616  0.1775 -0.9033
 1516SOL    HW2 4927   5.848   5.090   1.148 -2.7281 -1.8997 -0.2201
 1517SOL     OW 4928   1.252   4.627   6.031  0.5350  0.5179  0.5040
 1517SOL    HW1 4929   1.307   4.611   6.108  0.4585 -1.1127  0.2697
 1517SOL    HW2 4930   1.284   4.564   5.966  0.5508  1.8208 -0.7929
 1518SOL     OW 4931   0.121   0.149   5.381 -0.2935 -0.1497 -0.6546
 1518SOL    HW1 4932   0.075   0.066   5.374 -2.1805  0.9029 -1.6314
 1518SOL    HW2 4933   0.087   0.201   5.308 -0.8813  2.2510  1.1967
 1519SOL     OW 4934   4.631   5.885   0.003 -0.1817  0.2501  0.0651
 1519SOL    HW1 4935   4.558   5.936   0.038 -0.2855  1.0598 -1.2669
 1519SOL    HW2 4936   4.656   5.931  -0.077 -0.3729 -1.8644 -1.2951
 1520SOL     OW 4937   4.277   0.347   6.045 -0.1946  0.7315  0.5379
 1520SOL    HW1 4938   4.254   0.440   6.040  0.3255  0.8988  1.1718
 1520SOL    HW2 4939   4.192   0.301   6.043 -0.4107  1.1100 -1.5545
 1521SOL     OW 4940   4.063   2.094   4.031 -0.2230 -0.2974 -0.3891
 1521SOL    HW1 4941   3.986   2.150   4.043 -0.6293 -0.5351 -1.7983
 1521SOL    HW2 4942   4.137   2.153   4.045 -0.6165 -0.1811  1.5292
 1522SOL     OW 4943   4.440   6.760   6.128  0.1780 -0.3519 -0.4984
 1522SOL    HW1 4944   4.474   6.828   6.186 -1.6633 -0.6321  1.0208
 1522SOL    HW2 4945   4.405   6.808   6.052  0.0146  0.2823 -0.0258
 1523SOL     OW 4946   6.711   0.301   1.970 -0.0959 -0.2470 -0.3592
 1523SOL    HW1 4947   6.788   0.244   1.976 -0.7811 -1.2767 -0.9928
 1523SOL    HW2 4948   6.681   0.309   2.061  0.5466 -0.1222 -0.1502
 1524SOL     OW 4949   0.253   6.204   1.895 -0.3117 -0.3905  0.3474
 1524SOL    HW1 4950   0.161   6.226   1.908  0.0789  1.5146  0.1932
 1524SOL    HW2 4951   0.299   6.247   1.967  0.7102  1.0531 -1.0882
 1525SOL     OW 4952   6.032   4.908   0.013 -0.6379 -0.1209  0.0333
 1525SOL    HW1 4953   6.011   4.957   0.093 -1.6261  0.2796 -0.4465
 1525SOL    HW2 4954   6.124   4.925  -0.003 -0.2812 -0.6526  1.3912
 1526SOL     OW 4955   3.842   3.720   4.326 -0.0776 -0.3927 -0.1684
 1526SOL    HW1 4956   3.748   3.720   4.340 -0.1120  0.1597 -0.3694
 1526SOL    HW2 4957   3.872   3.636   4.360 -0.9116 -1.4987 -2.0173
 1527SOL     OW 4958   6.813   1.255   3.504 -0.5696 -0.5447  0.1305
 1527SOL    HW1 4959   6.805   1.343   3.543  0.9785 -0.3439  0.0753
 1527SOL    HW2 4960   6.751   1.202   3.553 -1.8830  0.6728 -0.1468
 1528SOL     OW 4961   0.465   2.458   4.015 -0.5445 -0.5455 -0.5242
 1528SOL    HW1 4962   0.420   2.537   4.042 -0.3430 -0.5651 -0.1190
 1528SOL    HW2 4963   0.466   2.403   4.094  0.4690 -0.4112 -0.4307
 1529SOL     OW 4964   0.469   6.056   0.974 -0.2644  0.4819  0.2887
 1529SOL    HW1 4965   0.376   6.035   0.990 -0.0752 -0.6564 -0.0238
 1529SOL    HW2 4966   0.502   6.079   1.061 -0.4017 -0.9781  0.7638
 1530SOL     OW 4967   2.870   6.697   3.644  0.6846 -0.4905 -0.6591
 1530SOL    HW1 4968   2.904   6.638   3.577  1.3170  0.9261 -1.6667
 1530SOL    HW2 4969   2.775   6.692   3.635  0.7196 -1.5373 -0.5429
 1531SOL     OW 4970   0.954   0.171   5.013 -0.6019  0.0520  0.7014
 1531SOL    HW1 4971   0.945   0.085   5.053  0.3764  1.4798  4.4159
 1531SOL    HW2 4972   1.040   0.202   5.043 -0.3684  1.8667 -1.5686
 1532SOL     OW 4973   1.323   3.124   5.831 -0.0282 -0.2392 -0.2108
 1532SOL    HW1 4974   1.229   3.105   5.825 -0.0464 -0.5189  0.7143
 1532SOL    HW2 4975   1.356   3.060   5.894  0.5428  0.6716  0.4465
 1533SOL     OW 4976   5.988   5.359   0.662 -0.0822  0.6364  0.1048
 1533SOL    HW1 4977   5.987   5.381   0.755 -2.0998  2.3446 -0.2598
 1533SOL    HW2 4978   6.030   5.434   0.620 -0.1125  0.3389 -0.4717
 1534SOL     OW 4979   0.631   5.581   4.463 -0.7259 -0.4225  0.0433
 1534SOL    HW1 4980   0.711   5.591   4.413 -1.1175 -0.7083 -0.6461
 1534SOL    HW2 4981   0.638   5.494   4.502 -0.3730 -0.1585  0.5968
 1535SOL     OW 4982   5.979   2.423   4.259  0.3683  0.1683 -0.2386
 1535SOL    HW1 4983   6.037   2.368   4.207  0.1843  0.6133 -0.9370
 1535SOL    HW2 4984   6.037   2.469   4.320  0.6654  0.1135 -0.4809
 1536SOL     OW 4985   3.091   0.383   3.718 -0.3622 -0.6573  0.2009
 1536SOL    HW1 4986   3.186   0.383   3.735  0.0646 -0.7146 -1.9185
 1536SOL    HW2 4987   3.074   0.300   3.675 -1.0589  0.0304 -0.9173
 1537SOL     OW 4988   1.565   6.822   0.634 -0.3679  0.3701  0.1395
 1537SOL    HW1 4989   1.628   6.766   0.589 -0.9720 -0.2523  0.0422
 1537SOL    HW2 4990   1.614   6.861   0.707  0.4265  0.8185 -0.6115
 1538SOL     OW 4991   0.941   6.668   1.359  0.2458 -0.5956  0.0570
 1538SOL    HW1 4992   0.850   6.649   1.336  0.2994 -0.9409  0.1172
 1538SOL    HW2 4993   0.941   6.759   1.386  0.1128 -0.2822 -0.9709
 1539SOL     OW 4994   2.015   3.399   3.756 -0.7687 -0.3681 -0.0058
 1539SOL    HW1 4995   1.950   3.462   3.725 -0.0590  0.3292 -0.1060
 1539SOL    HW2 4996   1.973   3.358   3.832 -0.9052  0.8754  0.6330
 1540SOL     OW 4997   0.233   3.219   5.605 -0.1625  0.1713  0.1352
 1540SOL    HW1 4998   0.286   3.157   5.654  2.5641  1.7360 -0.6186
 1540SOL    HW2 4999   0.263   3.305   5.635 -0.9110  1.1434 -1.7256
 1541SOL     OW 5000   3.729   6.394   3.881  0.0072  0.3576  0.0954
 1541SOL    HW1 5001   3.648   6.445   3.889 -0.0212  0.2334  0.6162
 1541SOL    HW2 5002   3.730   6.365   3.790 -1.0025 -0.4078  0.3110
 1542SOL     OW 5003   5.792   6.517   6.194  0.2631  0.0951 -0.0442
 1542SOL    HW1 5004   5.779   6.600   6.241  0.5602 -0.6787  1.4359
 1542SOL    HW2 5005   5.704   6.493   6.164  0.0913  0.6453 -0.0045
 1543SOL     OW 5006   1.560   1.028   4.563 -0.5125  0.0839 -0.4723
 1543SOL    HW1 5007   1.488   1.089   4.582 -0.6541 -0.2681  0.1528
 1543SOL    HW2 5008   1.560   1.019   4.468 -2.6750 -1.5668 -0.3805
 1544SOL     OW 5009   1.979   6.641   5.334  0.1647  0.4396  0.6201
 1544SOL    HW1 5010   2.025   6.722   5.312  0.2406  0.0768 -0.6494
 1544SOL    HW2 5011   1.960   6.648   5.427  3.1645  0.4558  1.3407
 1545SOL     OW 5012   0.038   4.042   6.106  0.4927  0.2461 -0.5408
 1545SOL    HW1 5013   0.098   4.097   6.055 -1.3536  1.8991 -1.0523
 1545SOL    HW2 5014  -0.036   4.026   6.047 -1.4201  1.6798  1.3294
 1546SOL     OW 5015   1.071   5.592   4.207  0.2032 -0.1289 -0.0849
 1546SOL    HW1 5016   0.981   5.623   4.197  0.3161  1.9825  3.4078
 1546SOL    HW2 5017   1.067   5.500   4.183 -2.1548  0.5502 -2.9065
 1547SOL     OW 5018   3.041   4.201   4.876  0.0662 -0.9292  0.1667
 1547SOL    HW1 5019   3.119   4.157   4.910  1.8216  2.4002  0.8468
 1547SOL    HW2 5020   3.073   4.256   4.805 -1.4793  1.1347  0.9570
 1548SOL     OW 5021   3.039   1.959   1.047 -0.3806 -0.5223 -0.3229
 1548SOL    HW1 5022   3.121   2.007   1.059  0.0116 -1.3292  0.3228
 1548SOL    HW2 5023   2.975   2.007   1.098 -0.5454  0.6597 -1.5916
 1549SOL     OW 5024   1.428   2.388   0.452 -0.2984 -0.8259  0.1365
 1549SOL    HW1 5025   1.511   2.389   0.501 -0.2886 -0.3045  0.1064
 1549SOL    HW2 5026   1.454   2.367   0.363 -0.2289 -0.9142  0.1763
 1550SOL     OW 5027   5.441   4.635   6.040  0.3016  0.1533 -0.6759
 1550SOL    HW1 5028   5.422   4.658   5.949  3.0796  2.4706 -0.8076
 1550SOL    HW2 5029   5.493   4.554   6.034 -0.4293 -0.3067 -1.0219
 1551SOL     OW 5030   4.115   6.200   0.396  0.0640  0.6228 -0.8144
 1551SOL    HW1 5031   4.062   6.233   0.324  1.8615 -0.9925 -3.0213
 1551SOL    HW2 5032   4.136   6.110   0.372  0.3749 -0.1523  1.9972
 1552SOL     OW 5033   3.964   5.647   4.407 -0.4963 -0.0706 -0.0335
 1552SOL    HW1 5034   3.930   5.594   4.335 -0.4141 -0.3962  0.1610
 1552SOL    HW2 5035   3.887   5.667   4.461 -0.6411  0.6208 -0.4907
 1553SOL     OW 5036   5.080   2.198   2.894 -0.4302  0.0021 -0.0074
 1553SOL    HW1 5037   5.090   2.114   2.938 -0.1526  0.4117  0.7355
 1553SOL    HW2 5038   5.165   2.216   2.856  0.2218  0.9855  1.7700
 1554SOL     OW 5039   0.631   4.326   3.069 -0.0696  0.0712  0.0914
 1554SOL    HW1 5040   0.664   4.386   3.003  0.5729  0.2195  0.5401
 1554SOL    HW2 5041   0.662   4.240   3.042 -0.6972 -0.0133 -0.3647
 1555SOL     OW 5042   0.457   6.487   1.511  0.3677  0.9030  0.1359
 1555SOL    HW1 5043   0.387   6.483   1.445  0.4543 -5.1610 -0.1700
 1555SOL    HW2 5044   0.413   6.474   1.594  0.8286  1.9579  0.5658
 1556SOL     OW 5045   1.821   0.337   5.463  0.1321  0.0808 -0.5801
 1556SOL    HW1 5046   1.866   0.299   5.539  0.5521 -0.4930 -1.1032
 1556SOL    HW2 5047   1.728   0.332   5.485  0.2577  0.0944 -0.0265
 1557SOL     OW 5048   2.583   3.026   4.628 -0.4303 -0.8213 -0.2376
 1557SOL    HW1 5049   2.537   3.077   4.562  1.1659 -0.3686 -1.0470
 1557SOL    HW2 5050   2.668   3.069   4.637  1.0424 -3.3607 -1.0237
 1558SOL     OW 5051   0.364   6.508   3.480 -0.2292  0.3084 -0.5079
 1558SOL    HW1 5052   0.439   6.493   3.537  0.0679  1.4593 -0.5709
 1558SOL    HW2 5053   0.392   6.479   3.394 -0.9423 -2.1782  0.0118
 1559SOL     OW 5054   2.570   2.140   3.812  0.1255 -0.8197 -0.0229
 1559SOL    HW1 5055   2.651   2.094   3.789 -0.0328 -2.4849  2.3420
 1559SOL    HW2 5056   2.504   2.101   3.755  0.1955 -2.9689  1.2136
 1560SOL     OW 5057   4.342   4.958   5.884 -0.0010  0.2511  0.0183
 1560SOL    HW1 5058   4.344   5.050   5.855  3.1961  0.4634  0.4726
 1560SOL    HW2 5059   4.389   4.959   5.967 -1.1908 -1.6400  0.7590
 1561SOL     OW 5060   1.209   3.338   4.242 -0.5138 -0.0448  0.6149
 1561SOL    HW1 5061   1.296   3.299   4.250 -0.8513 -0.8583  0.3910
 1561SOL    HW2 5062   1.224   3.418   4.190 -0.3388 -1.9076 -2.4705
 1562SOL     OW 5063   3.899   0.688   0.090  0.1196  0.5099  0.1142
 1562SOL    HW1 5064   3.970   0.704   0.028 -0.3524  0.6941 -0.3804
 1562SOL    HW2 5065   3.819   0.692   0.038 -0.4103  2.2638  0.9848
 1563SOL     OW 5066   3.507   5.580   5.376  0.0427 -0.2179 -0.2873
 1563SOL    HW1 5067   3.452   5.528   5.317 -0.0758 -0.9802  0.4722
 1563SOL    HW2 5068   3.538   5.517   5.441 -1.0100  0.8594  1.3162
 1564SOL     OW 5069   3.134   1.186   3.368  0.1688 -0.0074  0.2624
 1564SOL    HW1 5070   3.154   1.228   3.285 -1.0000  0.9129  0.4085
 1564SOL    HW2 5071   3.129   1.093   3.348 -1.0560  0.2849 -0.9296
 1565SOL     OW 5072   3.424   1.023   3.299  0.2633  0.4513 -0.3585
 1565SOL    HW1 5073   3.439   0.934   3.331 -0.5441  0.7618  0.9366
 1565SOL    HW2 5074   3.435   1.078   3.376  0.5527  1.4623 -1.1081
 1566SOL     OW 5075   5.494   3.461   1.117  0.3658  0.4969 -0.0247
 1566SOL    HW1 5076   5.484   3.555   1.133  0.1198  0.4537  0.0812
 1566SOL    HW2 5077   5.568   3.455   1.057  1.0191  0.6902  0.7495
 1567SOL     OW 5078   2.786   3.875   1.806  0.1083  0.0231  0.6024
 1567SOL    HW1 5079   2.713   3.908   1.859  0.8903 -1.9050  3.0947
 1567SOL    HW2 5080   2.864   3.911   1.849  0.7438  1.1980 -1.3903
 1568SOL     OW 5081   3.706   3.450   1.484 -0.6296  0.2341  0.4887
 1568SOL    HW1 5082   3.723   3.471   1.392  0.9693 -2.7754 -0.0616
 1568SOL    HW2 5083   3.614   3.420   1.485 -0.3443 -0.7548 -0.4184
 1569SOL     OW 5084   6.423   0.378   1.425 -0.2445  0.2473  0.2004
 1569SOL    HW1 5085   6.504   0.397   1.377  0.1195  0.5115  0.9020
 1569SOL    HW2 5086   6.353   0.401   1.364  0.1135 -3.5628 -1.9128
 1570SOL     OW 5087   6.451   3.938   1.334  0.0921  0.3465 -0.2695
 1570SOL    HW1 5088   6.357   3.951   1.324  0.1417  0.8087 -0.1394
 1570SOL    HW2 5089   6.481   4.013   1.384  0.3354 -0.4057  0.7535
 1571SOL     OW 5090   1.334   3.653   1.959  0.7698  0.6547  0.8264
 1571SOL    HW1 5091   1.346   3.628   1.867 -0.5195  0.0467  0.7991
 1571SOL    HW2 5092   1.327   3.749   1.956  1.2824  0.6851  0.3611
 1572SOL     OW 5093   1.552   0.976   3.510 -0.2864  0.1734  0.2283
 1572SOL    HW1 5094   1.466   1.010   3.489 -0.1769  0.0425 -0.4478
 1572SOL    HW2 5095   1.609   1.053   3.513  0.7144 -0.0366 -4.7438
 1573SOL     OW 5096   5.689   4.485   5.465  0.0279 -0.4815  0.3811
 1573SOL    HW1 5097   5.602   4.450   5.483  0.5255 -1.0290  1.8303
 1573SOL    HW2 5098   5.744   4.451   5.535  1.2243  0.6147  0.0128
 1574SOL     OW 5099   5.678   0.811   3.896  0.6714  0.2946 -0.0380
 1574SOL    HW1 5100   5.683   0.725   3.938  0.8566  0.0217 -0.6014
 1574SOL    HW2 5101   5.711   0.796   3.807  1.2423  1.0632  0.0332
 1575SOL     OW 5102   4.952   2.666   6.419 -0.6051 -0.1531 -0.4422
 1575SOL    HW1 5103   4.908   2.661   6.335  0.0333 -0.0048 -0.7883
 1575SOL    HW2 5104   4.880   2.674   6.483 -1.0648  0.9124 -1.0565
 1576SOL     OW 5105   5.834   0.171   4.805  0.4206  0.1380 -0.1954
 1576SOL    HW1 5106   5.846   0.201   4.895 -0.9551  2.5084 -0.7262
 1576SOL    HW2 5107   5.922   0.173   4.767  1.3313 -2.5629  1.4659
 1577SOL     OW 5108   5.124   4.331   5.145  0.3753  0.1544  0.0650
 1577SOL    HW1 5109   5.195   4.391   5.171 -0.8631  1.7049  0.0142
 1577SOL    HW2 5110   5.102   4.358   5.056 -0.5901 -0.0074  0.2486
 1578SOL     OW 5111   4.628   1.066   0.666 -0.3962  0.1595  0.4499
 1578SOL    HW1 5112   4.663   1.030   0.747 -0.9776 -0.6056  0.3744
 1578SOL    HW2 5113   4.536   1.084   0.685 -0.6519 -0.4317 -0.1469
 1579SOL     OW 5114   5.881   0.944   2.142  0.3100 -0.2088  0.2085
 1579SOL    HW1 5115   5.966   0.909   2.171  0.5327  0.3231  0.2049
 1579SOL    HW2 5116   5.866   0.903   2.057  0.7419 -0.0220  0.0380
 1580SOL     OW 5117   3.147   4.528   3.902 -0.0260 -0.2976  0.5285
 1580SOL    HW1 5118   3.206   4.465   3.862  0.5890  0.6685 -0.1428
 1580SOL    HW2 5119   3.062   4.512   3.861  0.4891  0.3707 -0.8704
 1581SOL     OW 5120   0.767   2.855   5.678  0.2854  0.4478 -0.3923
 1581SOL    HW1 5121   0.795   2.764   5.686  1.6800  0.5661 -2.8607
 1581SOL    HW2 5122   0.694   2.852   5.615 -1.1313  0.8495  1.1631
 1582SOL     OW 5123   0.658   4.165   5.097  0.3574 -0.2324 -0.2183
 1582SOL    HW1 5124   0.718   4.186   5.026  0.2189 -0.2258 -0.3350
 1582SOL    HW2 5125   0.580   4.131   5.053  0.4927 -0.7818 -0.0449
 1583SOL     OW 5126   2.245   6.518   1.692 -0.4414 -0.6920 -0.1683
 1583SOL    HW1 5127   2.198   6.517   1.608 -0.4294  0.9215 -0.2319
 1583SOL    HW2 5128   2.318   6.458   1.679  0.2730  0.4377 -1.7658
 1584SOL     OW 5129   0.811   1.337   1.278  0.0976 -0.2225 -0.3707
 1584SOL    HW1 5130   0.850   1.325   1.364  1.3388 -2.0757 -1.1254
 1584SOL    HW2 5131   0.759   1.417   1.286  0.8454  0.1099  1.8338
 1585SOL     OW 5132   3.611   2.589   3.291 -0.4492  0.0762  0.5347
 1585SOL    HW1 5133   3.698   2.573   3.329  0.0612 -0.4613 -0.7942
 1585SOL    HW2 5134   3.568   2.503   3.294 -0.6990  0.2039  0.6046
 1586SOL     OW 5135   3.142   3.881   1.630 -0.3455  0.2856 -0.1064
 1586SOL    HW1 5136   3.131   3.818   1.559 -0.9784  0.5816 -0.2762
 1586SOL    HW2 5137   3.130   3.830   1.710 -0.3924  0.1013 -0.2301
 1587SOL     OW 5138   3.120   6.825   1.408 -0.0619  0.5932 -0.5100
 1587SOL    HW1 5139   3.084   6.820   1.497  0.2039  0.8944 -0.3877
 1587SOL    HW2 5140   3.188   6.892   1.413 -0.9172  1.5387 -1.2463
 1588SOL     OW 5141   5.541   2.202   1.590 -0.4242 -0.8108 -0.5703
 1588SOL    HW1 5142   5.591   2.283   1.599  0.5570 -1.1629 -2.2638
 1588SOL    HW2 5143   5.482   2.219   1.517 -2.9791 -0.3640  1.4764
 1589SOL     OW 5144   4.306   5.922   1.566  0.8389  0.1163  0.0780
 1589SOL    HW1 5145   4.236   5.976   1.604  0.5505 -0.3417  0.2037
 1589SOL    HW2 5146   4.275   5.832   1.575  1.3124 -0.0735 -0.1433
 1590SOL     OW 5147   3.052   6.222   3.660  0.3102  0.1577 -0.0467
 1590SOL    HW1 5148   3.083   6.295   3.714  1.1143 -0.2092  0.0040
 1590SOL    HW2 5149   3.129   6.167   3.648  0.5386  0.8940 -2.6449
 1591SOL     OW 5150   5.012   0.793   2.345 -0.0166  0.2306  0.0482
 1591SOL    HW1 5151   4.967   0.732   2.287  1.2298  1.0569 -1.8842
 1591SOL    HW2 5152   4.942   0.848   2.380 -0.9060 -0.8960  0.1072
 1592SOL     OW 5153   0.889   6.306   5.851  0.1695  0.5914  0.1716
 1592SOL    HW1 5154   0.879   6.214   5.875  0.9368  0.5269  0.2692
 1592SOL    HW2 5155   0.811   6.325   5.799 -0.4418  0.1429  0.9098
 1593SOL     OW 5156   2.165   0.312   0.418 -0.4538 -0.3867 -0.0861
 1593SOL    HW1 5157   2.195   0.233   0.464  1.7870  0.4105 -0.0613
 1593SOL    HW2 5158   2.197   0.300   0.328  0.4556  0.7261  0.0688
 1594SOL     OW 5159   4.978   1.624   2.929  0.5924 -0.2398  0.3990
 1594SOL    HW1 5160   5.052   1.607   2.988 -0.0092 -1.6699  0.8076
 1594SOL    HW2 5161   4.952   1.536   2.900 -2.1885 -0.0015  1.8353
 1595SOL     OW 5162   3.573   1.353   4.816  0.1633  0.6213 -0.1347
 1595SOL    HW1 5163   3.587   1.448   4.819 -0.7215  0.7722 -0.4199
 1595SOL    HW2 5164   3.641   1.321   4.756  0.5014  1.0624  0.0026
 1596SOL     OW 5165   6.045   2.393   2.888  0.3773  0.1117 -0.1618
 1596SOL    HW1 5166   6.039   2.483   2.856  1.8558  0.2066 -0.2602
 1596SOL    HW2 5167   6.096   2.401   2.969 -0.3391 -0.5335  0.3615
 1597SOL     OW 5168   2.289   1.504   0.786 -0.3263 -0.4648 -0.0456
 1597SOL    HW1 5169   2.276   1.413   0.759 -1.8713 -0.4479  0.5290
 1597SOL    HW2 5170   2.205   1.530   0.823  0.5049  0.7630  1.0800
 1598SOL     OW 5171   1.541   6.747   5.368 -0.1834 -0.4314 -0.0428
 1598SOL    HW1 5172   1.601   6.715   5.436  0.3344  2.0426  0.7792
 1598SOL    HW2 5173   1.468   6.786   5.417 -1.6923 -1.9097 -1.0106
 1599SOL     OW 5174   2.250   0.666   3.697 -0.0075  0.5691  0.5092
 1599SOL    HW1 5175   2.315   0.685   3.765 -0.5168 -0.6718  1.4016
 1599SOL    HW2 5176   2.171   0.711   3.727  0.1522  1.2294 -0.0413
 1600SOL     OW 5177   0.968   5.044   1.472 -0.0789  0.3894 -0.3748
 1600SOL    HW1 5178   0.933   4.965   1.514  1.2077 -0.2911 -0.5277
 1600SOL    HW2 5179   1.007   5.093   1.543 -0.5698  0.7341 -0.3353
 1601SOL     OW 5180   5.222   6.314   5.718  0.3211  0.2486  0.0780
 1601SOL    HW1 5181   5.279   6.290   5.791  0.8959 -2.8297 -1.2337
 1601SOL    HW2 5182   5.283   6.336   5.647 -0.1578  0.0255 -0.4087
 1602SOL     OW 5183   4.412   3.756   5.571 -0.3921  0.3748 -0.2657
 1602SOL    HW1 5184   4.352   3.705   5.516  0.4066  0.5360 -1.3284
 1602SOL    HW2 5185   4.447   3.823   5.511  3.0811 -1.4844 -0.5400
 1603SOL     OW 5186   5.431   5.260   6.237  0.3620  0.2530  0.2423
 1603SOL    HW1 5187   5.438   5.288   6.145  0.9609  0.8202  0.4502
 1603SOL    HW2 5188   5.461   5.336   6.286 -0.4178  0.1254  0.9329
 1604SOL     OW 5189   1.925   3.346   0.756  0.3316 -0.0124 -0.1234
 1604SOL    HW1 5190   1.914   3.276   0.821 -1.5084  1.2420  1.0326
 1604SOL    HW2 5191   1.992   3.403   0.793 -2.0342  1.7440  1.8183
 1605SOL     OW 5192   3.255   5.434   0.263  0.2906  0.1291 -0.0644
 1605SOL    HW1 5193   3.199   5.370   0.306 -0.9858  0.9724 -0.4066
 1605SOL    HW2 5194   3.259   5.509   0.323 -2.7425  1.9461 -1.8776
 1606SOL     OW 5195   1.149   6.192   2.930 -0.1668 -0.0198 -0.5789
 1606SOL    HW1 5196   1.066   6.220   2.968 -0.7251 -1.4998 -0.6132
 1606SOL    HW2 5197   1.211   6.262   2.950 -0.6682 -0.2824  2.2503
 1607SOL     OW 5198   1.709   1.174   4.770  0.3315 -0.2347 -0.5411
 1607SOL    HW1 5199   1.693   1.140   4.682 -0.0512 -0.1399 -0.5065
 1607SOL    HW2 5200   1.682   1.265   4.766  1.5641  0.1422 -0.6985
 1608SOL     OW 5201   6.000   3.927   0.535 -0.3604  0.4912 -0.1153
 1608SOL    HW1 5202   6.054   3.997   0.572  1.2509 -0.4460 -0.6143
 1608SOL    HW2 5203   6.062   3.864   0.500 -1.6735 -1.9811  1.6466
 1609SOL     OW 5204   6.251   2.297   0.395 -0.0928 -0.3118 -0.0780
 1609SOL    HW1 5205   6.209   2.335   0.473  1.0688 -0.4700  0.6509
 1609SOL    HW2 5206   6.229   2.357   0.324  1.5498  1.7234  1.0148
 1610SOL     OW 5207   4.520   4.232   2.695  0.3115 -0.2408 -0.5193
 1610SOL    HW1 5208   4.457   4.218   2.624  0.9028  0.3040 -1.1624
 1610SOL    HW2 5209   4.604   4.241   2.651  0.7388 -0.2363  0.2832
 1611SOL     OW 5210   2.172   6.310   4.874 -0.4878 -0.4285 -0.6583
 1611SOL    HW1 5211   2.174   6.399   4.909  0.3391  0.8141 -3.5139
 1611SOL    HW2 5212   2.084   6.278   4.894 -0.0842  0.0904  2.3879
 1612SOL     OW 5213   1.845   2.964   1.382  0.0867  0.1849 -0.2056
 1612SOL    HW1 5214   1.753   2.982   1.362 -0.1080 -0.4818  0.0877
 1612SOL    HW2 5215   1.843   2.912   1.462  0.8149  1.8019  0.9051
 1613SOL     OW 5216   0.044   2.208   1.837  0.0951  0.3264  0.0039
 1613SOL    HW1 5217   0.081   2.248   1.915  1.0499 -0.0588 -0.2282
 1613SOL    HW2 5218   0.031   2.116   1.861  2.8888 -0.4360 -1.0516
 1614SOL     OW 5219   5.362   3.394   6.455 -0.3891  0.2354  0.4587
 1614SOL    HW1 5220   5.337   3.317   6.505  0.5656 -0.8019 -0.6117
 1614SOL    HW2 5221   5.411   3.448   6.517 -0.6073 -0.2528  1.0677
 1615SOL     OW 5222   1.315   4.449   2.448 -0.9844  0.5585  0.6837
 1615SOL    HW1 5223   1.368   4.448   2.528 -0.9130  1.5180  0.6599
 1615SOL    HW2 5224   1.370   4.493   2.383 -1.5390  0.9380  0.4635
 1616SOL     OW 5225   2.032   0.534   2.572  0.5612  0.2114  0.4294
 1616SOL    HW1 5226   1.984   0.541   2.655  1.4600 -0.6761  1.0446
 1616SOL    HW2 5227   2.006   0.612   2.523 -2.5062 -0.8448  0.1649
 1617SOL     OW 5228   1.304   3.397   3.794 -0.6924  0.3566  0.1837
 1617SOL    HW1 5229   1.383   3.369   3.748 -0.9054 -0.1440  0.1138
 1617SOL    HW2 5230   1.277   3.477   3.749 -0.5682  0.1928 -0.1868
 1618SOL     OW 5231   1.089   5.592   6.450 -0.4309 -0.0451 -0.0290
 1618SOL    HW1 5232   1.019   5.613   6.388 -2.2150 -1.8885  1.2300
 1618SOL    HW2 5233   1.086   5.497   6.457 -0.7277  0.1122  3.3257
 1619SOL     OW 5234   0.886   3.324   1.217  0.1295  0.2749 -0.1889
 1619SOL    HW1 5235   0.923   3.412   1.213  0.6713  0.1206  1.1152
 1619SOL    HW2 5236   0.866   3.303   1.125  1.3093  1.1934 -0.6873
 1620SOL     OW 5237   4.535   2.826   3.731  0.6390  0.4437 -0.8572
 1620SOL    HW1 5238   4.490   2.902   3.768  0.8038  0.2130 -0.1560
 1620SOL    HW2 5239   4.478   2.796   3.660 -1.4696 -1.1253  1.3413
 1621SOL     OW 5240   6.303   6.528   5.987  0.4494 -1.0798  0.3105
 1621SOL    HW1 5241   6.348   6.545   5.905  1.2741 -0.6801  0.8319
 1621SOL    HW2 5242   6.236   6.596   5.992 -0.1930 -1.6390 -0.4377
 1622SOL     OW 5243   5.895   0.369   5.331 -0.5115 -0.0332 -0.2118
 1622SOL    HW1 5244   5.861   0.457   5.345  0.0811  0.5612 -2.2264
 1622SOL    HW2 5245   5.990   0.380   5.331 -0.3563 -1.0444  1.5758
 1623SOL     OW 5246   3.986   5.843   1.431  0.3414 -0.5000  0.3983
 1623SOL    HW1 5247   3.981   5.775   1.364 -0.5716 -1.1874  1.1416
 1623SOL    HW2 5248   3.974   5.797   1.513  1.6214  0.3049  1.0788
 1624SOL     OW 5249   6.621   6.080   5.698 -0.8936 -0.5319  0.1226
 1624SOL    HW1 5250   6.712   6.051   5.687 -1.1649 -1.4066  0.0820
 1624SOL    HW2 5251   6.613   6.096   5.792 -0.2471  1.1608 -0.0828
 1625SOL     OW 5252   5.030   1.319   4.708 -0.3060  0.2054  0.5150
 1625SOL    HW1 5253   5.087   1.365   4.769  0.0264 -0.2300  0.5334
 1625SOL    HW2 5254   5.085   1.251   4.669  0.1784  1.8904 -2.0007
 1626SOL     OW 5255   3.959   2.174   6.758  0.2149  0.5046 -0.1058
 1626SOL    HW1 5256   3.925   2.188   6.670 -0.4978 -0.0702  0.0687
 1626SOL    HW2 5257   3.971   2.263   6.793 -0.4185  0.7286 -0.4350
 1627SOL     OW 5258   6.624   5.924   4.158 -0.1687 -0.3247 -0.0820
 1627SOL    HW1 5259   6.568   5.987   4.203  1.0280 -1.2350  2.8658
 1627SOL    HW2 5260   6.697   5.976   4.125  0.9698 -0.1004  2.5898
 1628SOL     OW 5261   4.294   5.237   3.047  0.5870 -0.4130  0.3678
 1628SOL    HW1 5262   4.338   5.165   3.093 -1.2322 -0.8780  1.5069
 1628SOL    HW2 5263   4.219   5.259   3.103 -0.1614  0.8770 -1.0567
 1629SOL     OW 5264   2.809   4.483   4.643  0.1463 -0.7609 -0.2452
 1629SOL    HW1 5265   2.780   4.473   4.734 -2.9882 -1.1131 -1.1512
 1629SOL    HW2 5266   2.829   4.394   4.614  0.6552 -0.7092 -0.0614
 1630SOL     OW 5267   6.780   0.394   2.967  0.4364  0.2330 -0.3106
 1630SOL    HW1 5268   6.774   0.449   3.045  1.1597 -1.5055  1.0568
 1630SOL    HW2 5269   6.853   0.430   2.917  0.0261  1.3159 -0.1581
 1631SOL     OW 5270   5.160   6.304   1.165 -0.5944 -0.1200 -0.3130
 1631SOL    HW1 5271   5.080   6.259   1.193  0.5037 -1.2353  1.1700
 1631SOL    HW2 5272   5.190   6.351   1.243  0.9586 -0.8996 -0.4033
 1632SOL     OW 5273   1.119   3.782   5.941 -0.1397  0.0114  0.0075
 1632SOL    HW1 5274   1.084   3.696   5.962  0.6590 -0.5622 -0.9445
 1632SOL    HW2 5275   1.047   3.829   5.899  0.2714 -1.2652 -2.2365
 1633SOL     OW 5276   6.799   1.472   2.827 -0.6017 -0.4875 -0.0744
 1633SOL    HW1 5277   6.762   1.559   2.813 -2.3947 -0.4598  3.7768
 1633SOL    HW2 5278   6.748   1.415   2.769 -2.2138  0.5003  0.3104
 1634SOL     OW 5279   2.523   2.763   3.776 -0.5443 -0.0890  0.0542
 1634SOL    HW1 5280   2.565   2.716   3.848 -2.8388 -1.7923  0.4008
 1634SOL    HW2 5281   2.475   2.695   3.728 -1.8841  1.5206 -0.9978
 1635SOL     OW 5282   2.012   4.015   2.954 -0.4041 -0.5038 -0.1134
 1635SOL    HW1 5283   2.008   3.924   2.925  1.9276 -1.2437  1.5621
 1635SOL    HW2 5284   2.025   4.008   3.049 -1.0988  1.6149  0.1753
 1636SOL     OW 5285   6.305   2.850   4.572  0.8687 -0.4504  0.1405
 1636SOL    HW1 5286   6.364   2.916   4.608  0.8016 -1.5815  2.4947
 1636SOL    HW2 5287   6.220   2.870   4.610  0.5294 -1.0510 -0.2812
 1637SOL     OW 5288   1.636   4.792   0.795  0.6601  0.6853 -0.2789
 1637SOL    HW1 5289   1.567   4.848   0.829 -0.5743 -0.4255 -0.8524
 1637SOL    HW2 5290   1.710   4.807   0.853 -0.6201  0.6044  1.4654
 1638SOL     OW 5291   0.968   0.914   0.264 -0.2715  0.1161 -0.3689
 1638SOL    HW1 5292   0.990   0.893   0.173  1.1405  1.1613 -0.3047
 1638SOL    HW2 5293   1.032   0.866   0.316 -0.4344  0.3128  0.0199
 1639SOL     OW 5294   5.877   5.821   4.315 -0.0560 -0.9614  0.5925
 1639SOL    HW1 5295   5.960   5.802   4.357  0.0859 -1.2562  0.1873
 1639SOL    HW2 5296   5.819   5.847   4.386  0.9061  1.1350  0.6857
 1640SOL     OW 5297   6.661   3.335   3.520 -0.4962  0.0143  0.0419
 1640SOL    HW1 5298   6.738   3.374   3.562 -0.7650  0.0771  0.4865
 1640SOL    HW2 5299   6.693   3.254   3.481  0.2424  0.9961 -1.5241
 1641SOL     OW 5300   4.106   3.251   3.382 -0.0757  0.1993  0.4884
 1641SOL    HW1 5301   4.093   3.337   3.421  1.8495  1.0310 -0.5665
 1641SOL    HW2 5302   4.037   3.243   3.316  1.0032  1.9157 -0.9239
 1642SOL     OW 5303   6.766   1.995   3.374  0.1031 -0.3216 -0.4118
 1642SOL    HW1 5304   6.695   1.932   3.383 -0.1024  0.0581  0.6363
 1642SOL    HW2 5305   6.790   1.990   3.281 -0.2411 -1.5754 -0.4544
 1643SOL     OW 5306   0.831   6.488   0.494  0.5599 -0.2751 -1.1081
 1643SOL    HW1 5307   0.801   6.574   0.521  2.4633 -0.5763  2.7048
 1643SOL    HW2 5308   0.769   6.427   0.534  1.7005 -0.6770  0.1511
 1644SOL     OW 5309   0.833   5.122   4.306 -0.1239  0.2033 -0.3849
 1644SOL    HW1 5310   0.912   5.157   4.346 -1.1734  0.7059  1.3728
 1644SOL    HW2 5311   0.838   5.149   4.215  0.8816  1.7991  0.0976
 1645SOL     OW 5312   3.923   6.734   0.422 -0.1734 -0.5347 -0.3149
 1645SOL    HW1 5313   3.900   6.673   0.352  1.8497 -1.2372 -0.4155
 1645SOL    HW2 5314   3.864   6.711   0.494 -1.3784 -0.6849 -1.3166
 1646SOL     OW 5315   6.811   3.778   2.735  0.4400  0.1502  0.0374
 1646SOL    HW1 5316   6.879   3.845   2.736  0.2587  0.4245  3.0916
 1646SOL    HW2 5317   6.740   3.816   2.682  1.2680  1.3468 -0.2489
 1647SOL     OW 5318   5.086   1.619   3.459  0.2422  0.4883  0.5118
 1647SOL    HW1 5319   5.068   1.566   3.537  0.8685 -0.4782  0.0174
 1647SOL    HW2 5320   5.038   1.574   3.389  2.2956 -0.5893 -0.2990
 1648SOL     OW 5321   6.764   4.274   2.836  0.1904  0.7093 -0.4796
 1648SOL    HW1 5322   6.776   4.258   2.930 -0.3213 -2.1144 -0.8290
 1648SOL    HW2 5323   6.748   4.188   2.798  2.0867  1.5108 -3.4488
 1649SOL     OW 5324   3.124   1.368   5.303 -0.0649 -0.7094  0.6711
 1649SOL    HW1 5325   3.151   1.290   5.256  1.3606  0.4304 -0.5027
 1649SOL    HW2 5326   3.055   1.406   5.249 -0.7621 -1.1500  1.2440
 1650SOL     OW 5327   5.774   0.215   6.264  0.1145  0.3058 -0.4651
 1650SOL    HW1 5328   5.824   0.149   6.312 -1.8544  0.3859  1.8737
 1650SOL    HW2 5329   5.764   0.178   6.176 -0.6355 -2.4123  0.6678
 1651SOL     OW 5330   1.418   2.491   2.984 -0.4516  0.1462 -0.2321
 1651SOL    HW1 5331   1.437   2.491   2.890  0.8136 -1.6438 -0.0305
 1651SOL    HW2 5332   1.473   2.560   3.020  1.8223 -1.4385 -0.4093
 1652SOL     OW 5333   5.403   2.566   2.684 -0.1365  0.1281 -0.4556
 1652SOL    HW1 5334   5.341   2.596   2.617  0.5712 -0.5255 -1.4170
 1652SOL    HW2 5335   5.367   2.601   2.766 -1.3334  0.4533 -1.0865
 1653SOL     OW 5336   0.341   4.043   0.825 -0.1802  0.6063 -0.5554
 1653SOL    HW1 5337   0.303   4.058   0.911 -1.4169  1.4353 -1.2187
 1653SOL    HW2 5338   0.323   4.124   0.776 -1.0650 -0.4968 -2.1496
 1654SOL     OW 5339   4.906   1.016   4.771  0.3053  0.7622 -0.4285
 1654SOL    HW1 5340   4.913   1.007   4.676  0.3765 -2.7923 -0.1968
 1654SOL    HW2 5341   4.990   0.986   4.804  0.0684  1.4106  0.7936
 1655SOL     OW 5342   5.931   3.446   0.756 -0.2448  0.4222  0.0166
 1655SOL    HW1 5343   5.940   3.449   0.851 -1.2457  0.9716  0.1080
 1655SOL    HW2 5344   6.011   3.488   0.723 -1.1633  2.8886  0.7025
 1656SOL     OW 5345   6.439   0.394   4.514  0.3945  0.4918 -0.4391
 1656SOL    HW1 5346   6.421   0.381   4.607  0.3337  0.8207 -0.4038
 1656SOL    HW2 5347   6.374   0.458   4.486  0.7713  0.8198 -0.5753
 1657SOL     OW 5348   5.577   5.427   3.673 -0.1475 -0.1978 -0.7536
 1657SOL    HW1 5349   5.615   5.468   3.596 -2.7332  1.2402 -1.3761
 1657SOL    HW2 5350   5.570   5.497   3.738  2.9110 -1.5731  1.3417
 1658SOL     OW 5351   1.996   1.028   0.786  0.6416 -0.6486  1.0464
 1658SOL    HW1 5352   2.001   0.989   0.699  1.4214  1.1574  0.2227
 1658SOL    HW2 5353   1.904   1.049   0.798  0.5699 -0.6705  0.5470
 1659SOL     OW 5354   6.237   1.994   1.375  0.0728  0.0839 -0.1859
 1659SOL    HW1 5355   6.141   1.997   1.381 -0.1642 -3.1486 -0.3326
 1659SOL    HW2 5356   6.266   1.972   1.464  0.5027 -0.5193 -0.4622
 1660SOL     OW 5357   1.882   3.921   1.739  0.5934 -0.4448  0.1845
 1660SOL    HW1 5358   1.857   3.981   1.810 -0.2926 -0.7899  0.1856
 1660SOL    HW2 5359   1.813   3.854   1.740  0.7137 -0.5969 -0.8302
 1661SOL     OW 5360   1.500   1.305   1.328 -0.1019  0.3614  0.4995
 1661SOL    HW1 5361   1.410   1.273   1.338  0.6865 -2.4689 -0.6608
 1661SOL    HW2 5362   1.500   1.351   1.244 -0.3562 -0.0388  0.2804
 1662SOL     OW 5363   0.993   0.514   2.485  0.9716  0.1884 -0.1553
 1662SOL    HW1 5364   0.997   0.433   2.435  1.0712  0.7568 -1.0984
 1662SOL    HW2 5365   0.999   0.583   2.419 -1.0525  0.9867  0.4059
 1663SOL     OW 5366   5.592   3.093   6.336  0.3405 -0.7609  0.5785
 1663SOL    HW1 5367   5.577   3.180   6.374 -0.4928 -0.5885 -0.1301
 1663SOL    HW2 5368   5.685   3.077   6.350 -0.0353 -1.0826  3.4994
 1664SOL     OW 5369   1.202   4.421   0.575 -0.1649 -0.1632  0.3737
 1664SOL    HW1 5370   1.200   4.342   0.629  0.7395 -1.2484 -1.1033
 1664SOL    HW2 5371   1.133   4.477   0.611  0.4219 -0.7999  2.6444
 1665SOL     OW 5372   4.577   5.646   2.644  0.3823 -0.2890 -0.0733
 1665SOL    HW1 5373   4.526   5.648   2.725 -1.3846 -0.7200 -1.1209
 1665SOL    HW2 5374   4.662   5.609   2.669 -0.0610 -0.2292  1.5961
 1666SOL     OW 5375   2.056   4.050   4.920 -0.4756  0.6335 -0.3884
 1666SOL    HW1 5376   2.030   4.116   4.855 -0.0311  0.7060 -0.4941
 1666SOL    HW2 5377   2.011   4.077   5.001  0.0891  1.3503 -0.3049
 1667SOL     OW 5378   6.529   0.084   3.644 -0.0730  0.3618  0.0690
 1667SOL    HW1 5379   6.611   0.070   3.692  0.3524 -0.9777 -0.9932
 1667SOL    HW2 5380   6.557   0.112   3.557 -0.7992  1.0734  0.0490
 1668SOL     OW 5381   4.461   2.217   0.115 -0.5265  0.4927  0.1178
 1668SOL    HW1 5382   4.529   2.170   0.162 -0.6193  0.7245  0.4872
 1668SOL    HW2 5383   4.440   2.161   0.040 -0.5855 -0.0183  0.5084
 1669SOL     OW 5384   6.840   6.189   1.214 -0.0396  0.2376  0.0195
 1669SOL    HW1 5385   6.885   6.182   1.130  2.1276  1.6405  0.9922
 1669SOL    HW2 5386   6.909   6.180   1.279 -1.7244 -1.3607  1.7295
 1670SOL     OW 5387   3.334   4.776   0.571 -0.0873  0.3741 -0.4150
 1670SOL    HW1 5388   3.327   4.860   0.616 -0.3551 -0.7643  1.8031
 1670SOL    HW2 5389   3.271   4.783   0.498 -1.2866  1.5259  0.6648
 1671SOL     OW 5390   6.082   1.699   4.096  0.3746 -0.5247 -0.1813
 1671SOL    HW1 5391   6.119   1.782   4.067  0.5140 -0.8664 -0.9934
 1671SOL    HW2 5392   6.143   1.632   4.065  0.4507 -0.9199  0.7698
 1672SOL     OW 5393   0.387   3.451   5.759  0.0695 -0.3761 -0.5588
 1672SOL    HW1 5394   0.347   3.493   5.835 -2.5969 -1.0631 -1.4870
 1672SOL    HW2 5395   0.392   3.358   5.783 -1.7185 -0.7681 -1.5011
 1673SOL     OW 5396   1.970   5.917   4.049 -0.0506  0.4147  0.1446
 1673SOL    HW1 5397   1.958   5.840   4.104 -0.4135  0.5696  0.2822
 1673SOL    HW2 5398   2.044   5.895   3.992 -0.1084 -0.0043  0.2349
 1674SOL     OW 5399   0.737   2.670   3.920  0.3888  0.3123  0.1446
 1674SOL    HW1 5400   0.663   2.698   3.974  0.4509 -0.2205  0.5104
 1674SOL    HW2 5401   0.731   2.724   3.841 -0.2206  0.4742  0.2992
 1675SOL     OW 5402   0.784   2.476   1.324 -0.0145  0.0219 -0.1035
 1675SOL    HW1 5403   0.714   2.414   1.301 -0.3921  0.9532 -1.5707
 1675SOL    HW2 5404   0.841   2.477   1.248  0.3168  1.0430  0.1445
 1676SOL     OW 5405   6.025   1.880   5.791  1.2607  0.3745 -0.4938
 1676SOL    HW1 5406   6.046   1.955   5.735  3.0618 -0.4872 -1.0480
 1676SOL    HW2 5407   5.941   1.849   5.758  0.7197  1.8214 -0.5751
 1677SOL     OW 5408   3.371   5.344   0.519  0.5303 -0.8060 -0.0030
 1677SOL    HW1 5409   3.354   5.437   0.504  3.0980 -0.3752 -0.5753
 1677SOL    HW2 5410   3.289   5.301   0.496 -0.8855  1.3235  0.7484
 1678SOL     OW 5411   1.737   2.453   6.150  0.1796  0.4279 -0.0180
 1678SOL    HW1 5412   1.740   2.423   6.059  1.4451  0.0565  0.1372
 1678SOL    HW2 5413   1.644   2.468   6.167 -0.3494 -1.8023 -0.6261
 1679SOL     OW 5414   5.184   6.796   5.748  0.7794 -0.4188  0.4633
 1679SOL    HW1 5415   5.104   6.816   5.795  0.5068  0.1403 -0.2210
 1679SOL    HW2 5416   5.253   6.801   5.814  0.3436 -0.1769  0.9037
 1680SOL     OW 5417   2.338   5.249   5.392  0.0460 -0.4311 -0.3675
 1680SOL    HW1 5418   2.355   5.331   5.346 -0.2464 -0.8835 -1.3045
 1680SOL    HW2 5419   2.424   5.209   5.403  0.2732  0.2957  0.6997
 1681SOL     OW 5420   2.741   0.374   5.694  0.4564 -0.2462  0.6072
 1681SOL    HW1 5421   2.745   0.431   5.770  1.1653 -0.0391  0.4191
 1681SOL    HW2 5422   2.714   0.289   5.729  0.0694  0.0298  0.9834
 1682SOL     OW 5423   4.201   0.207   5.334 -0.0006 -0.1589 -0.2688
 1682SOL    HW1 5424   4.182   0.295   5.367  0.3195  0.2793 -1.2218
 1682SOL    HW2 5425   4.117   0.160   5.343 -0.0868  0.1228  0.5591
 1683SOL     OW 5426   1.273   2.468   6.751 -0.4546 -0.0259 -0.1056
 1683SOL    HW1 5427   1.223   2.445   6.673 -0.2808 -1.7607  0.2429
 1683SOL    HW2 5428   1.315   2.551   6.730 -0.7885 -0.2248 -1.6676
 1684SOL     OW 5429   1.222   6.560   2.324  0.1622 -0.7580 -0.2260
 1684SOL    HW1 5430   1.278   6.629   2.290 -1.9696  0.4902 -1.4257
 1684SOL    HW2 5431   1.262   6.479   2.294  1.5760  0.0461 -0.5925
 1685SOL     OW 5432   5.241   4.995   4.510 -0.4574 -0.5074  0.0753
 1685SOL    HW1 5433   5.187   5.031   4.581 -0.2196  0.5356 -0.2665
 1685SOL    HW2 5434   5.185   4.998   4.433  0.0573  0.5322 -0.2714
 1686SOL     OW 5435   1.862   4.444   6.702  0.0683 -0.1735  0.4231
 1686SOL    HW1 5436   1.774   4.456   6.666  0.3118 -0.2195 -0.2137
 1686SOL    HW2 5437   1.848   4.410   6.790 -0.5612 -1.1791 -0.0364
 1687SOL     OW 5438   5.229   5.453   3.118  0.2803 -0.0756  0.1151
 1687SOL    HW1 5439   5.319   5.426   3.136 -0.1009 -1.4597  0.0943
 1687SOL    HW2 5440   5.181   5.434   3.198 -0.0495  0.3948  0.0339
 1688SOL     OW 5441   0.542   2.592   2.713  0.2544  0.4231  0.4255
 1688SOL    HW1 5442   0.594   2.655   2.663  2.4355  0.0115  2.0318
 1688SOL    HW2 5443   0.604   2.522   2.733 -1.5089 -1.1141  0.6841
 1689SOL     OW 5444   1.549   5.969   2.049  0.3016 -0.1373 -0.3177
 1689SOL    HW1 5445   1.619   6.023   2.012  0.7428 -1.8970 -2.2530
 1689SOL    HW2 5446   1.512   5.922   1.974 -1.7688 -0.6110  0.9114
 1690SOL     OW 5447   3.267   3.804   6.825  0.1620 -0.7706 -0.0308
 1690SOL    HW1 5448   3.241   3.889   6.791  0.3461 -0.5880  0.2833
 1690SOL    HW2 5449   3.307   3.823   6.910 -1.6102 -1.3456  0.9733
 1691SOL     OW 5450   3.419   4.634   1.830  0.6550 -0.4388 -0.6930
 1691SOL    HW1 5451   3.509   4.637   1.796  1.2118  3.0713  0.6981
 1691SOL    HW2 5452   3.417   4.554   1.883  2.4029 -1.4528 -2.0207
 1692SOL     OW 5453   5.345   6.284   1.534 -0.5081 -0.0211  0.1714
 1692SOL    HW1 5454   5.286   6.239   1.594 -1.5707  0.7432 -0.2722
 1692SOL    HW2 5455   5.360   6.221   1.464  0.6220 -0.8649  1.1178
 1693SOL     OW 5456   1.930   6.721   0.852 -0.0235  0.2092 -0.0007
 1693SOL    HW1 5457   1.839   6.751   0.847 -0.4265 -0.5974  1.7798
 1693SOL    HW2 5458   1.925   6.637   0.896  1.4296 -0.8958 -1.8168
 1694SOL     OW 5459   6.505   6.570   2.349 -0.1210  0.2929 -0.0639
 1694SOL    HW1 5460   6.413   6.544   2.338  0.0457 -0.1672 -0.4061
 1694SOL    HW2 5461   6.518   6.638   2.282  0.6867 -1.9871 -2.3760
 1695SOL     OW 5462   2.532   2.224   3.490  0.5733 -0.8622  0.4709
 1695SOL    HW1 5463   2.498   2.284   3.424  1.4052 -0.4572  0.3915
 1695SOL    HW2 5464   2.617   2.261   3.514  0.3747 -1.1167  1.6258
 1696SOL     OW 5465   3.282   6.545   2.986  0.0341  0.4758  0.3866
 1696SOL    HW1 5466   3.271   6.635   2.953  1.9017  0.6894  0.2228
 1696SOL    HW2 5467   3.320   6.497   2.912  0.7774  0.0266  1.0412
 1697SOL     OW 5468   2.717   4.098   1.515 -0.1343  0.1714 -0.4269
 1697SOL    HW1 5469   2.794   4.155   1.519 -0.2982  0.3260  0.7556
 1697SOL    HW2 5470   2.728   4.038   1.588 -1.9387  1.2324  0.8044
 1698SOL     OW 5471   4.286   5.663   1.663 -0.4901  0.1944  0.0893
 1698SOL    HW1 5472   4.344   5.640   1.590 -0.2037 -0.5320  0.5330
 1698SOL    HW2 5473   4.316   5.609   1.736 -1.2074  0.4066  0.5593
 1699SOL     OW 5474   4.862   6.077   0.817 -0.2735  0.9057 -0.4103
 1699SOL    HW1 5475   4.864   6.171   0.835 -1.4564  0.7526  0.6581
 1699SOL    HW2 5476   4.788   6.066   0.757  0.0283  0.6819 -0.7461
 1700SOL     OW 5477   5.056   2.689   4.529 -0.0809 -0.1571  0.3191
 1700SOL    HW1 5478   4.963   2.697   4.551  0.1201  1.8241  0.6165
 1700SOL    HW2 5479   5.060   2.615   4.469 -1.8322 -0.3729  0.4133
 1701SOL     OW 5480   1.739   5.280   2.830 -0.1015  0.2478 -0.1617
 1701SOL    HW1 5481   1.757   5.188   2.846 -0.0362  0.3733  0.5281
 1701SOL    HW2 5482   1.643   5.285   2.826 -0.1582  0.3162  0.9387
 1702SOL     OW 5483   1.414   6.640   6.296  0.4077 -0.7127  0.1985
 1702SOL    HW1 5484   1.398   6.718   6.350 -1.5408 -0.6534 -0.4048
 1702SOL    HW2 5485   1.462   6.673   6.221  2.8519 -0.7400  1.6297
 1703SOL     OW 5486   4.728   3.809   2.721  0.1754  0.0576 -0.1042
 1703SOL    HW1 5487   4.766   3.800   2.634  1.8740  2.4122  0.2895
 1703SOL    HW2 5488   4.636   3.786   2.710  0.4247 -0.0527 -2.4444
 1704SOL     OW 5489   1.257   2.873   0.471 -0.0964  0.0384  0.3639
 1704SOL    HW1 5490   1.330   2.822   0.505 -0.8505 -0.5365  1.1884
 1704SOL    HW2 5491   1.244   2.943   0.536 -0.2643  0.1429  0.2177
 1705SOL     OW 5492   3.999   6.110   1.390 -0.7300  0.2711 -0.1614
 1705SOL    HW1 5493   3.996   6.018   1.419 -0.6390 -0.5529 -2.5427
 1705SOL    HW2 5494   3.921   6.150   1.429 -1.3178 -1.0753  0.0981
 1706SOL     OW 5495   3.864   6.201   2.311  0.4955  0.0751  0.0558
 1706SOL    HW1 5496   3.944   6.245   2.283 -0.0835  0.9110 -0.3047
 1706SOL    HW2 5497   3.833   6.252   2.386  0.6891 -0.6844  0.6706
 1707SOL     OW 5498   3.627   1.084   2.595  0.0403 -0.1929 -0.1720
 1707SOL    HW1 5499   3.694   1.016   2.590  1.3457  1.0027  0.4946
 1707SOL    HW2 5500   3.630   1.114   2.686 -0.0762  1.1797 -0.5995
 1708SOL     OW 5501   4.555   2.339   3.189 -0.7440 -0.1307  0.9490
 1708SOL    HW1 5502   4.647   2.342   3.213 -0.9349  0.7007  1.6056
 1708SOL    HW2 5503   4.543   2.252   3.150  0.4343 -0.0158  0.3167
 1709SOL     OW 5504   0.737   6.814   3.813 -0.2218  0.3273  0.0137
 1709SOL    HW1 5505   0.668   6.856   3.762 -0.5961 -0.8263 -0.4835
 1709SOL    HW2 5506   0.764   6.739   3.760  0.0972 -0.3253  1.0528
 1710SOL     OW 5507   1.336   6.720   0.149  0.2066  0.4348 -0.4661
 1710SOL    HW1 5508   1.319   6.753   0.061  0.7749  1.2390 -0.2810
 1710SOL    HW2 5509   1.402   6.779   0.185 -0.7784  0.7612  0.8886
 1711SOL     OW 5510   2.094   4.356   3.633 -0.0817  0.1831 -0.1565
 1711SOL    HW1 5511   2.104   4.320   3.721 -0.1126  1.0828  0.2182
 1711SOL    HW2 5512   2.140   4.440   3.636  1.1210 -0.3947 -1.3845
 1712SOL     OW 5513   4.140   2.629   0.470  0.1103  0.2612 -0.0641
 1712SOL    HW1 5514   4.217   2.673   0.508  1.0711 -0.9069 -0.6031
 1712SOL    HW2 5515   4.155   2.634   0.375 -0.2247 -0.4227 -0.1540
 1713SOL     OW 5516   6.691   4.250   3.911  0.8259 -0.3173 -0.0774
 1713SOL    HW1 5517   6.753   4.206   3.969  1.0901  0.3964  0.1943
 1713SOL    HW2 5518   6.747   4.292   3.845  0.8293  2.1066  1.3601
 1714SOL     OW 5519   2.471   2.530   2.253 -0.0360  0.6740  0.0183
 1714SOL    HW1 5520   2.513   2.451   2.220 -2.9285 -0.4907 -1.2267
 1714SOL    HW2 5521   2.493   2.598   2.190  0.8115  0.3645 -0.0248
 1715SOL     OW 5522   3.062   1.314   6.170 -0.1688 -0.6590 -0.0474
 1715SOL    HW1 5523   3.156   1.331   6.163 -0.3502  0.1122 -0.7588
 1715SOL    HW2 5524   3.030   1.321   6.080 -0.8561 -1.2715  0.1392
 1716SOL     OW 5525   0.703   6.685   1.588 -0.0150 -0.4433  0.3371
 1716SOL    HW1 5526   0.778   6.637   1.621  1.2843  0.4688 -1.1518
 1716SOL    HW2 5527   0.632   6.621   1.583  1.6924 -2.3037 -1.7740
 1717SOL     OW 5528   4.200   2.387   1.730 -0.2940  0.1273  0.3458
 1717SOL    HW1 5529   4.196   2.299   1.692 -0.6354  0.8217 -1.3210
 1717SOL    HW2 5530   4.239   2.374   1.816  1.4081 -1.4429 -0.5882
 1718SOL     OW 5531   6.260   1.218   1.161 -0.0368 -0.1625  0.4921
 1718SOL    HW1 5532   6.352   1.235   1.144  0.3369 -1.0069  1.5894
 1718SOL    HW2 5533   6.229   1.297   1.206 -0.4045  1.0056 -1.6905
 1719SOL     OW 5534   4.735   3.833   3.187  0.4536  0.4678  0.2103
 1719SOL    HW1 5535   4.735   3.784   3.105 -1.1650  1.1342 -0.2257
 1719SOL    HW2 5536   4.771   3.771   3.251  0.3086 -0.6008 -0.6935
 1720SOL     OW 5537   6.337   3.020   1.178 -0.0858  0.2053  0.2565
 1720SOL    HW1 5538   6.313   3.012   1.086  0.0179  0.0132  0.2464
 1720SOL    HW2 5539   6.254   3.034   1.223 -0.1644  0.0347  0.1646
 1721SOL     OW 5540   2.197   5.806   1.747 -0.1141  0.2608 -0.2725
 1721SOL    HW1 5541   2.207   5.868   1.675  0.6472 -0.7325 -1.0409
 1721SOL    HW2 5542   2.286   5.775   1.765  0.2793  2.8171  3.2672
 1722SOL     OW 5543   4.220   5.424   5.628 -0.2558 -0.4881  0.3413
 1722SOL    HW1 5544   4.271   5.474   5.564  0.6675 -0.9592  0.6958
 1722SOL    HW2 5545   4.158   5.488   5.663  2.2387  1.0515  2.3025
 1723SOL     OW 5546   2.276   3.216   5.723  0.4503  0.6396 -0.3241
 1723SOL    HW1 5547   2.255   3.286   5.661 -0.3583 -0.6338 -1.5554
 1723SOL    HW2 5548   2.342   3.163   5.679  0.8167  0.4287  0.4576
 1724SOL     OW 5549   0.757   4.014   0.552  0.4409 -0.2390  0.5985
 1724SOL    HW1 5550   0.700   4.014   0.629  0.4348 -1.0216  0.5982
 1724SOL    HW2 5551   0.756   3.924   0.520  1.5315 -0.2343  0.4933
 1725SOL     OW 5552   4.247   3.637   5.387 -0.2632  0.0000 -0.2315
 1725SOL    HW1 5553   4.172   3.579   5.375 -1.8491  1.8627  0.1598
 1725SOL    HW2 5554   4.284   3.647   5.299 -1.5382  0.3926 -0.7452
 1726SOL     OW 5555   2.364   4.535   5.174  0.3115  0.4269 -0.3101
 1726SOL    HW1 5556   2.377   4.562   5.265 -0.0871 -1.5685  0.3947
 1726SOL    HW2 5557   2.332   4.445   5.180  1.9915 -0.4106 -2.4560
 1727SOL     OW 5558   5.861   2.553   2.603  0.1395 -0.1045  0.2917
 1727SOL    HW1 5559   5.881   2.549   2.509  0.1324  0.8803  0.2427
 1727SOL    HW2 5560   5.846   2.462   2.627 -1.1108 -0.2701 -0.9385
 1728SOL     OW 5561   1.159   5.450   4.918 -0.4095  0.4676  0.2037
 1728SOL    HW1 5562   1.177   5.427   4.827  0.0483  0.1691  0.3656
 1728SOL    HW2 5563   1.125   5.369   4.957  2.1224 -0.2678  1.0239
 1729SOL     OW 5564   5.343   1.329   1.395  0.5357  0.3237  0.2583
 1729SOL    HW1 5565   5.336   1.407   1.450  1.1646  0.5874 -0.0190
 1729SOL    HW2 5566   5.419   1.282   1.430  1.0564  0.5861 -0.4819
 1730SOL     OW 5567   0.577   5.605   5.653  0.1164  0.2307  0.8067
 1730SOL    HW1 5568   0.669   5.587   5.671  0.6744  2.3783  0.4351
 1730SOL    HW2 5569   0.568   5.589   5.559  0.5693  1.6059  0.5072
 1731SOL     OW 5570   6.342   4.725   6.806  0.2672  0.1855 -0.2092
 1731SOL    HW1 5571   6.256   4.683   6.804 -0.0711  0.4482  3.0812
 1731SOL    HW2 5572   6.322   4.818   6.812  0.7384  0.2271  0.8483
 1732SOL     OW 5573   6.300   6.282   1.464  0.1606  0.3015  0.1348
 1732SOL    HW1 5574   6.294   6.230   1.545 -1.0979 -1.2764 -0.8937
 1732SOL    HW2 5575   6.290   6.217   1.394  0.7523  1.6900 -1.2840
 1733SOL     OW 5576   1.662   3.303   3.109 -0.2047  0.3398 -0.5317
 1733SOL    HW1 5577   1.617   3.383   3.134 -0.9880  0.7200 -2.9650
 1733SOL    HW2 5578   1.727   3.330   3.045 -0.8952 -1.0065 -1.8663
 1734SOL     OW 5579   1.704   2.078   6.005 -0.2684 -0.4069  0.2682
 1734SOL    HW1 5580   1.614   2.071   5.974 -0.8666 -1.8303  2.1718
 1734SOL    HW2 5581   1.696   2.102   6.097  1.3143 -0.2283  0.3864
 1735SOL     OW 5582   4.351   2.431   0.247 -0.4388  0.0557  0.4608
 1735SOL    HW1 5583   4.263   2.452   0.216 -0.7488  0.0796  1.3277
 1735SOL    HW2 5584   4.375   2.351   0.200 -1.4132 -0.6399  1.1136
 1736SOL     OW 5585   4.549   6.214   4.672 -0.2349  0.3285  0.0951
 1736SOL    HW1 5586   4.600   6.266   4.733 -1.0792  2.7159 -1.0764
 1736SOL    HW2 5587   4.505   6.279   4.616 -1.9497 -1.6489 -1.0267
 1737SOL     OW 5588   6.336   6.226   0.328 -0.2873  0.1456  0.0646
 1737SOL    HW1 5589   6.331   6.314   0.290 -0.7691 -0.6185 -1.7410
 1737SOL    HW2 5590   6.247   6.192   0.321 -0.4552  0.0097  2.1178
 1738SOL     OW 5591   5.679   1.951   4.050 -0.1810  0.1677 -0.3220
 1738SOL    HW1 5592   5.683   1.856   4.057 -0.9195  0.1959  0.6194
 1738SOL    HW2 5593   5.735   1.972   3.974 -0.2755 -1.0292 -0.7400
 1739SOL     OW 5594   5.518   4.352   4.725  0.0999  0.1433  0.4662
 1739SOL    HW1 5595   5.498   4.375   4.816 -3.5662 -1.4377  0.2669
 1739SOL    HW2 5596   5.550   4.261   4.729 -2.3995 -0.8397  0.1554
 1740SOL     OW 5597   2.988   4.348   0.064  0.1487  0.1650 -0.0567
 1740SOL    HW1 5598   2.931   4.288   0.112 -0.5205  1.7391  1.2135
 1740SOL    HW2 5599   3.061   4.366   0.124  1.5957 -1.1246 -1.3188
 1741SOL     OW 5600   3.943   4.023   5.965 -0.0438 -0.4068  0.0365
 1741SOL    HW1 5601   3.863   4.052   5.922  0.4858 -0.5646 -1.0922
 1741SOL    HW2 5602   3.914   3.960   6.031 -0.8484 -0.4034 -0.3102
 1742SOL     OW 5603   5.147   1.014   4.891  0.2494 -0.2761  0.3999
 1742SOL    HW1 5604   5.102   1.053   4.966 -1.4929  1.4352 -1.4408
 1742SOL    HW2 5605   5.162   0.923   4.918 -3.7466 -0.8146  1.4562
 1743SOL     OW 5606   4.601   1.025   6.308  0.5940  0.0454  0.1043
 1743SOL    HW1 5607   4.693   1.052   6.314  0.8540 -0.9775  0.9844
 1743SOL    HW2 5608   4.554   1.088   6.363  0.8859  0.0659  0.3329
 1744SOL     OW 5609   0.430   0.816   0.164  0.5160 -0.1854  0.8695
 1744SOL    HW1 5610   0.514   0.806   0.119  0.6631 -0.7771  1.2581
 1744SOL    HW2 5611   0.394   0.728   0.167 -0.8556  0.2805 -0.6680
 1745SOL     OW 5612   6.213   5.375   4.718 -0.5288 -0.1471 -0.5632
 1745SOL    HW1 5613   6.133   5.378   4.771 -0.5638  0.6292 -0.6450
 1745SOL    HW2 5614   6.210   5.456   4.666 -2.0265 -2.2269 -4.0454
 1746SOL     OW 5615   6.026   3.544   4.341 -0.3992  0.3971  0.3109
 1746SOL    HW1 5616   6.042   3.599   4.264 -2.5061  0.3758 -0.2013
 1746SOL    HW2 5617   5.931   3.546   4.352 -0.2938 -1.1375  1.7879
 1747SOL     OW 5618   2.433   6.318   6.713  0.4970  0.1935 -0.5987
 1747SOL    HW1 5619   2.414   6.355   6.799 -1.0865  0.7977 -1.1817
 1747SOL    HW2 5620   2.460   6.228   6.731  0.9707  0.5553  0.5771
 1748SOL     OW 5621   0.179   2.271   1.605 -0.3035 -0.5643 -0.3692
 1748SOL    HW1 5622   0.118   2.255   1.532 -1.8560  0.1876  0.7090
 1748SOL    HW2 5623   0.130   2.245   1.683  1.0509 -0.6358  0.4786
 1749SOL     OW 5624   6.395   0.790   1.557 -0.3774 -0.6160  0.2221
 1749SOL    HW1 5625   6.363   0.700   1.559  1.8959 -1.5314  2.7940
 1749SOL    HW2 5626   6.400   0.812   1.464  0.8486 -3.9265 -0.6429
 1750SOL     OW 5627   6.817   5.600   5.503  0.0561 -0.5150  0.4788
 1750SOL    HW1 5628   6.821   5.517   5.550 -0.3455 -0.2021  1.0786
 1750SOL    HW2 5629   6.903   5.610   5.464  0.2694 -0.9656  0.8305
 1751SOL     OW 5630   0.605   3.996   0.166 -0.1294 -0.1024  0.0899
 1751SOL    HW1 5631   0.592   3.902   0.174 -2.5532  0.2033  0.3403
 1751SOL    HW2 5632   0.581   4.031   0.251  2.0652  0.6829  0.4552
 1752SOL     OW 5633   2.341   0.131   4.561 -0.1138  0.0297  0.0904
 1752SOL    HW1 5634   2.279   0.194   4.596  0.7823  1.3779 -0.6607
 1752SOL    HW2 5635   2.312   0.115   4.472  0.8455  1.0235 -0.4203
 1753SOL     OW 5636   6.477   2.150   3.005  0.7897 -0.4744 -0.2522
 1753SOL    HW1 5637   6.556   2.151   2.951 -0.2415  0.7538 -1.8350
 1753SOL    HW2 5638   6.470   2.240   3.038 -0.5356 -0.2700 -1.0597
 1754SOL     OW 5639   3.690   3.538   2.574 -0.0947 -0.5161 -0.3032
 1754SOL    HW1 5640   3.752   3.476   2.614 -1.2343 -0.5759  1.4971
 1754SOL    HW2 5641   3.617   3.542   2.636 -1.3362  0.5070 -1.7540
 1755SOL     OW 5642   5.556   0.460   3.353 -0.4223  0.0025  0.0158
 1755SOL    HW1 5643   5.647   0.441   3.327 -0.5036 -0.3524 -0.0196
 1755SOL    HW2 5644   5.531   0.384   3.406 -0.2426  0.7296  1.1835
 1756SOL     OW 5645   4.782   6.126   5.606  0.1315 -0.6303  0.4485
 1756SOL    HW1 5646   4.794   6.133   5.511 -1.5038 -0.2764  0.2423
 1756SOL    HW2 5647   4.789   6.032   5.625  0.6218 -0.6859  0.0174
 1757SOL     OW 5648   2.649   5.454   5.257 -0.5153 -0.0555  0.3283
 1757SOL    HW1 5649   2.583   5.477   5.192  0.1233 -0.6911 -0.5716
 1757SOL    HW2 5650   2.623   5.502   5.336 -0.7863  1.4517 -0.6473
 1758SOL     OW 5651   2.464   6.062   0.454 -0.4011  0.1983 -0.4368
 1758SOL    HW1 5652   2.483   6.009   0.377 -0.6504  0.4641 -0.6883
 1758SOL    HW2 5653   2.428   6.143   0.418 -1.2371  0.0265 -0.0165
 1759SOL     OW 5654   4.262   3.251   2.572  0.2138  0.3705 -0.9142
 1759SOL    HW1 5655   4.304   3.335   2.587  1.1022 -0.3194  0.7728
 1759SOL    HW2 5656   4.334   3.190   2.554  0.2707 -1.0525  3.0757
 1760SOL     OW 5657   4.965   6.313   2.525  0.2798  0.3480 -0.0692
 1760SOL    HW1 5658   5.048   6.268   2.544 -1.0455 -1.4089  1.9791
 1760SOL    HW2 5659   4.916   6.252   2.470  0.3173  1.4286 -1.3692
 1761SOL     OW 5660   0.515   1.200   0.334  0.3499 -0.3365 -0.0151
 1761SOL    HW1 5661   0.450   1.142   0.374 -0.9784 -1.7368 -3.7697
 1761SOL    HW2 5662   0.582   1.140   0.300 -0.0989  0.4086 -2.3749
 1762SOL     OW 5663   4.140   2.869   5.896 -0.0292  0.2508 -0.7856
 1762SOL    HW1 5664   4.049   2.841   5.886  0.3664 -1.8127  0.7913
 1762SOL    HW2 5665   4.145   2.901   5.986  1.0926 -0.9367 -0.4061
 1763SOL     OW 5666   1.883   0.236   0.619 -0.3803  0.2843  0.0514
 1763SOL    HW1 5667   1.876   0.276   0.532  1.5427  0.6398  0.0164
 1763SOL    HW2 5668   1.912   0.147   0.603 -0.3125  0.2554  0.3199
 1764SOL     OW 5669   5.897   3.947   6.166 -0.2020  0.1017  0.2078
 1764SOL    HW1 5670   5.960   3.970   6.098 -0.5703  0.3272 -0.0585
 1764SOL    HW2 5671   5.812   3.965   6.127 -0.4143  0.2104  0.7188
 1765SOL     OW 5672   4.569   2.737   5.434 -0.5429  0.0354  0.1156
 1765SOL    HW1 5673   4.572   2.833   5.436 -1.0994  0.0523  1.0346
 1765SOL    HW2 5674   4.535   2.716   5.347  1.9762  0.5562 -1.0747
 1766SOL     OW 5675   3.954   6.425   0.613  0.9664  0.2697  0.0117
 1766SOL    HW1 5676   3.884   6.453   0.554  0.0403 -2.3184 -0.2630
 1766SOL    HW2 5677   3.949   6.485   0.687 -1.1298  0.5249 -0.2904
 1767SOL     OW 5678   2.674   1.159   1.955 -0.2925 -0.3939 -0.4651
 1767SOL    HW1 5679   2.730   1.183   1.880 -1.4512 -0.8595 -1.5227
 1767SOL    HW2 5680   2.646   1.242   1.992  1.2988 -0.1474  0.2600
 1768SOL     OW 5681   6.214   6.427   6.676 -0.0361  0.0389 -0.4091
 1768SOL    HW1 5682   6.125   6.444   6.708  0.0569 -0.1607 -0.0365
 1768SOL    HW2 5683   6.202   6.386   6.590 -0.3252 -0.6769 -0.0366
 1769SOL     OW 5684   2.765   4.231   4.270 -0.1587  0.2307 -0.0500
 1769SOL    HW1 5685   2.830   4.162   4.255 -0.1668 -0.5372  2.8534
 1769SOL    HW2 5686   2.798   4.306   4.220 -1.0197 -2.1399 -4.7542
 1770SOL     OW 5687   3.650   1.840   2.644 -0.2832  0.2084 -0.0879
 1770SOL    HW1 5688   3.578   1.777   2.650 -0.8128  0.8385  0.4152
 1770SOL    HW2 5689   3.661   1.855   2.550  1.8866 -2.8689 -0.4614
 1771SOL     OW 5690   5.869   5.027   3.013 -0.4574  0.5610 -0.2548
 1771SOL    HW1 5691   5.916   5.095   2.964  0.5534  1.4803  1.9012
 1771SOL    HW2 5692   5.779   5.058   3.015 -0.1721  1.4085 -0.0533
 1772SOL     OW 5693   2.482   0.032   5.049 -0.6034  0.0520  0.1206
 1772SOL    HW1 5694   2.453   0.049   4.959 -1.5924  0.8719  0.5671
 1772SOL    HW2 5695   2.445  -0.054   5.071  1.1219 -0.9874 -0.8251
 1773SOL     OW 5696   3.640   2.503   4.819  0.2963  0.3318  0.3517
 1773SOL    HW1 5697   3.714   2.448   4.841 -0.1308 -0.8135 -0.9563
 1773SOL    HW2 5698   3.576   2.487   4.888  0.0300 -1.1355 -0.2099
 1774SOL     OW 5699   5.749   4.312   0.848 -0.2778  0.1866 -0.7749
 1774SOL    HW1 5700   5.790   4.243   0.796  0.1856  0.3066 -0.5814
 1774SOL    HW2 5701   5.770   4.393   0.801 -1.1868  0.1635 -1.2319
 1775SOL     OW 5702   0.374   5.557   1.802  0.1306 -0.3322  0.2326
 1775SOL    HW1 5703   0.311   5.610   1.850 -0.8101 -1.2983  0.1063
 1775SOL    HW2 5704   0.445   5.541   1.865 -0.2446 -0.1066  0.7195
 1776SOL     OW 5705   2.528   1.427   4.576 -0.1714 -0.5448  0.3622
 1776SOL    HW1 5706   2.500   1.403   4.487  1.8488  2.7128 -1.3121
 1776SOL    HW2 5707   2.545   1.343   4.618  1.3340 -2.2505 -3.2248
 1777SOL     OW 5708   1.272   0.355   0.753  0.0998  0.1649 -0.2892
 1777SOL    HW1 5709   1.349   0.321   0.799  0.4712  0.8493 -0.3808
 1777SOL    HW2 5710   1.299   0.443   0.725  0.4924 -0.7923 -3.2149
 1778SOL     OW 5711   1.690   0.359   2.334  0.1369  0.7738  0.1795
 1778SOL    HW1 5712   1.740   0.331   2.411 -0.2385  2.4445  1.0894
 1778SOL    HW2 5713   1.709   0.453   2.326 -0.3075  0.7657 -1.4204
 1779SOL     OW 5714   3.979   3.092   3.707 -0.1577  0.4085  0.0136
 1779SOL    HW1 5715   4.021   3.176   3.728 -0.5042  0.7435 -0.6216
 1779SOL    HW2 5716   3.943   3.104   3.619  0.9747 -0.8541 -0.6590
 1780SOL     OW 5717   5.789   2.800   0.699 -0.1659  0.2314  0.5362
 1780SOL    HW1 5718   5.746   2.867   0.646  0.0847  0.2444  0.3497
 1780SOL    HW2 5719   5.724   2.777   0.765 -0.2445  0.6780  0.6167
 1781SOL     OW 5720   6.209   0.978   4.028 -0.0947 -0.0608 -0.0024
 1781SOL    HW1 5721   6.284   0.945   3.978 -0.5245 -0.3146 -0.4982
 1781SOL    HW2 5722   6.134   0.961   3.971 -0.5839 -0.2351  0.6846
 1782SOL     OW 5723   3.917   1.327   0.671  0.1305 -0.0468  0.1665
 1782SOL    HW1 5724   3.968   1.340   0.591 -2.3653  1.2489 -1.3339
 1782SOL    HW2 5725   3.913   1.414   0.711 -1.2636 -0.0058 -0.0231
 1783SOL     OW 5726   4.893   5.532   1.221  0.2866 -0.3917  0.0775
 1783SOL    HW1 5727   4.904   5.614   1.172 -1.2910 -1.0870 -1.5499
 1783SOL    HW2 5728   4.798   5.520   1.227  0.4839 -2.1131  0.2562
 1784SOL     OW 5729   3.505   0.762   5.072  0.8677 -0.1517 -0.0884
 1784SOL    HW1 5730   3.494   0.856   5.086  1.4124 -0.0290 -0.4323
 1784SOL    HW2 5731   3.520   0.726   5.160  4.0893  0.5870 -0.2029
 1785SOL     OW 5732   2.061   3.036   5.800 -1.0496 -0.0594  0.3200
 1785SOL    HW1 5733   2.134   3.067   5.747 -0.3275 -3.3536 -0.8416
 1785SOL    HW2 5734   2.008   3.114   5.816  1.6799  2.1084 -0.4057
 1786SOL     OW 5735   3.420   0.539   2.959 -0.1470  0.5657 -0.2075
 1786SOL    HW1 5736   3.391   0.577   2.876  0.1406  0.2221 -0.4658
 1786SOL    HW2 5737   3.434   0.447   2.941 -2.0229  0.0417  0.7231
 1787SOL     OW 5738   0.259   5.776   4.923  0.1046 -0.7712  0.4050
 1787SOL    HW1 5739   0.277   5.683   4.938  2.6833 -0.5026 -0.4456
 1787SOL    HW2 5740   0.333   5.821   4.965  0.4916  0.6878 -1.6900
 1788SOL     OW 5741   3.566   4.687   1.582 -0.3502 -0.1029 -0.0839
 1788SOL    HW1 5742   3.499   4.706   1.517  0.7930  1.4273 -0.8864
 1788SOL    HW2 5743   3.618   4.767   1.586  1.1218 -1.0682  0.8727
 1789SOL     OW 5744   3.608   0.937   1.639  0.0565  0.2438 -0.2415
 1789SOL    HW1 5745   3.695   0.962   1.667 -0.1083 -1.0361  1.5639
 1789SOL    HW2 5746   3.589   0.995   1.565  1.2110  2.6389  1.2187
 1790SOL     OW 5747   6.437   2.556   3.379  0.2701 -0.2861  0.3204
 1790SOL    HW1 5748   6.514   2.585   3.428  1.0372 -2.1270  0.3112
 1790SOL    HW2 5749   6.436   2.461   3.391 -1.4403 -0.4104 -0.5130
 1791SOL     OW 5750   5.863   6.771   5.808  0.2549  0.2570  0.2242
 1791SOL    HW1 5751   5.933   6.718   5.770  0.5444  1.7264 -1.4636
 1791SOL    HW2 5752   5.782   6.725   5.785  0.5371  0.0865 -0.4402
 1792SOL     OW 5753   0.085   4.172   4.694 -0.0226 -0.2049  0.0598
 1792SOL    HW1 5754   0.168   4.210   4.722  0.0463  0.3551 -0.8682
 1792SOL    HW2 5755   0.108   4.114   4.621 -0.5971  1.0647 -1.1734
 1793SOL     OW 5756   1.038   2.213   1.472 -0.2162  0.5923 -0.3440
 1793SOL    HW1 5757   1.104   2.263   1.426 -1.0444  1.0302 -1.0901
 1793SOL    HW2 5758   0.976   2.278   1.505  0.1537  0.2608  1.0870
 1794SOL     OW 5759   1.177   3.979   3.649 -0.5262  0.4620  0.0241
 1794SOL    HW1 5760   1.114   3.908   3.658 -1.5048  1.2534 -0.3247
 1794SOL    HW2 5761   1.163   4.034   3.726 -1.0744  1.2420 -0.6102
 1795SOL     OW 5762   1.835   0.230   0.318 -0.1921  0.2256  0.0778
 1795SOL    HW1 5763   1.850   0.309   0.266 -0.6897 -0.0576 -0.5123
 1795SOL    HW2 5764   1.746   0.203   0.295  0.3924 -1.1873 -0.6711
 1796SOL     OW 5765   5.252   4.388   3.830 -0.6009 -0.7252  0.0908
 1796SOL    HW1 5766   5.242   4.428   3.744  2.0472 -2.3040 -1.0641
 1796SOL    HW2 5767   5.298   4.454   3.882 -1.5068 -0.0763  0.0983
 1797SOL     OW 5768   1.566   4.640   2.558 -0.1425 -0.1256 -0.8136
 1797SOL    HW1 5769   1.650   4.669   2.594  0.1177 -0.5716 -1.0532
 1797SOL    HW2 5770   1.533   4.577   2.622 -1.0504  1.2173  0.0666
 1798SOL     OW 5771   5.970   2.667   4.461 -0.3644 -0.2169 -0.8128
 1798SOL    HW1 5772   5.908   2.740   4.467 -0.7654 -0.6344  0.3646
 1798SOL    HW2 5773   5.931   2.598   4.515  1.0861 -0.5054 -0.0748
 1799SOL     OW 5774   0.475   1.517   5.690 -0.0888  0.4651  0.0374
 1799SOL    HW1 5775   0.431   1.572   5.755 -3.5913 -1.1780 -0.7200
 1799SOL    HW2 5776   0.560   1.496   5.730 -1.3370  0.9921  3.2728
 1800SOL     OW 5777   4.001   6.449   4.751  0.1480 -0.6062 -0.2431
 1800SOL    HW1 5778   4.093   6.424   4.740  0.0526 -0.4655 -1.4087
 1800SOL    HW2 5779   4.004   6.544   4.760  0.2966 -0.7613  1.9346
 1801SOL     OW 5780   1.781   5.854   0.647  0.3425 -0.0196 -0.2823
 1801SOL    HW1 5781   1.834   5.800   0.588  0.9225 -0.5541  0.6868
 1801SOL    HW2 5782   1.817   5.942   0.638 -0.3108  0.1407 -1.5362
 1802SOL     OW 5783   4.696   5.447   2.171 -0.3322 -0.4194 -0.2473
 1802SOL    HW1 5784   4.771   5.481   2.220  0.4420 -1.2493 -0.8183
 1802SOL    HW2 5785   4.651   5.524   2.139 -0.9445  0.1588  1.8811
 1803SOL     OW 5786   6.580   5.607   0.167  0.3584  0.8988  0.0656
 1803SOL    HW1 5787   6.606   5.642   0.252 -0.7286 -1.0823  1.2837
 1803SOL    HW2 5788   6.496   5.649   0.149 -0.5093 -0.3371  1.0898
 1804SOL     OW 5789   6.238   3.485   3.769  0.5697  0.3158 -0.1571
 1804SOL    HW1 5790   6.227   3.578   3.748  1.6897  0.1117 -1.8161
 1804SOL    HW2 5791   6.323   3.461   3.732 -0.6701 -1.9193 -1.7978
 1805SOL     OW 5792   6.701   5.425   0.654  0.1658  0.0174 -0.1888
 1805SOL    HW1 5793   6.689   5.421   0.748  1.2442  0.8120 -0.0018
 1805SOL    HW2 5794   6.796   5.417   0.641  0.2434  1.8711 -1.0630
 1806SOL     OW 5795   1.011   0.592   4.445 -0.1659  0.8965 -0.0103
 1806SOL    HW1 5796   0.993   0.583   4.539 -0.7959 -0.8189 -0.2690
 1806SOL    HW2 5797   1.051   0.509   4.420 -0.0392  1.3160 -1.2743
 1807SOL     OW 5798   2.989   0.279   4.331 -0.7612  0.2530 -0.0160
 1807SOL    HW1 5799   2.957   0.295   4.242 -0.8708  2.2038  0.3470
 1807SOL    HW2 5800   3.027   0.362   4.359 -3.0819  0.5235  2.7260
 1808SOL     OW 5801   2.930   4.419   4.128  0.3665  0.0575  0.2154
 1808SOL    HW1 5802   2.953   4.508   4.156 -0.3121 -0.3237  2.1477
 1808SOL    HW2 5803   3.006   4.366   4.153 -0.0100 -0.1934  0.8654
 1809SOL     OW 5804   0.390   5.362   0.369 -0.5257  0.6302  0.0506
 1809SOL    HW1 5805   0.342   5.279   0.372  0.6479 -0.0992 -0.4567
 1809SOL    HW2 5806   0.451   5.357   0.443 -0.3607  0.9877 -0.0597
 1810SOL     OW 5807   6.031   1.455   0.532  0.4900 -0.3665 -0.1989
 1810SOL    HW1 5808   6.065   1.469   0.621  0.4864 -0.9737 -0.0936
 1810SOL    HW2 5809   6.105   1.475   0.475 -0.0910  2.1042 -0.2090
 1811SOL     OW 5810   2.760   4.199   0.213 -0.2909 -0.4764  0.3234
 1811SOL    HW1 5811   2.683   4.156   0.247  0.1436 -0.8336  0.8678
 1811SOL    HW2 5812   2.793   4.252   0.286  0.2971 -0.7667  0.2733
 1812SOL     OW 5813   4.586   6.175   3.781  0.1993  0.1702 -0.0175
 1812SOL    HW1 5814   4.491   6.170   3.786  0.3137 -1.2299  1.2995
 1812SOL    HW2 5815   4.606   6.171   3.687 -0.8686 -4.9322 -0.3231
 1813SOL     OW 5816   5.946   2.966   2.677  0.2464  0.0878  0.3796
 1813SOL    HW1 5817   5.862   2.995   2.640  0.4721  1.4641  0.9125
 1813SOL    HW2 5818   6.012   3.005   2.619  0.5430 -0.3477  0.4200
 1814SOL     OW 5819   5.554   2.575   1.958  0.5652 -0.1639 -0.0562
 1814SOL    HW1 5820   5.470   2.600   1.998  0.3901  0.2345 -0.6565
 1814SOL    HW2 5821   5.567   2.639   1.888  0.7712 -0.9739 -0.7739
 1815SOL     OW 5822   6.164   0.398   0.841  0.0583  0.3963 -0.1314
 1815SOL    HW1 5823   6.080   0.360   0.814 -0.0003  2.0540 -2.6398
 1815SOL    HW2 5824   6.140   0.476   0.891  0.1593 -0.4015  1.2014
 1816SOL     OW 5825   1.168   5.221   1.601  0.6933  0.6079  0.0266
 1816SOL    HW1 5826   1.194   5.277   1.527  0.7614  0.8370  0.2223
 1816SOL    HW2 5827   1.201   5.134   1.578  0.4626  0.6204 -0.3467
 1817SOL     OW 5828   3.010   3.167   5.920 -0.5130 -0.0008  0.4901
 1817SOL    HW1 5829   2.944   3.146   5.854 -1.5828  0.6441  1.3034
 1817SOL    HW2 5830   2.985   3.112   5.995  0.8909 -0.9917  0.2726
 1818SOL     OW 5831   2.884   0.544   3.735 -0.1057 -0.2627  0.3960
 1818SOL    HW1 5832   2.937   0.464   3.728 -0.3262 -0.6496  2.4344
 1818SOL    HW2 5833   2.902   0.576   3.823 -2.3625  0.2367  0.7371
 1819SOL     OW 5834   5.340   2.056   1.716  0.5036 -0.5837 -0.6555
 1819SOL    HW1 5835   5.433   2.079   1.718  0.5441 -0.7282  1.0813
 1819SOL    HW2 5836   5.308   2.077   1.804 -1.7219  1.8189 -1.8880
 1820SOL     OW 5837   4.720   0.192   3.072 -0.8765  0.2361 -0.1259
 1820SOL    HW1 5838   4.796   0.148   3.111 -0.1446  0.8558 -0.8134
 1820SOL    HW2 5839   4.731   0.284   3.096 -2.4538  0.0654  1.3972
 1821SOL     OW 5840   6.714   5.921   3.257  0.5493  0.3025  0.1734
 1821SOL    HW1 5841   6.694   5.964   3.174  0.0766 -0.2939 -0.0214
 1821SOL    HW2 5842   6.743   5.993   3.314  1.4826  0.6321 -0.6863
 1822SOL     OW 5843   4.053   0.483   3.315  0.1341  0.4869  0.5855
 1822SOL    HW1 5844   4.136   0.521   3.286  0.3913  0.7596  1.6384
 1822SOL    HW2 5845   4.077   0.395   3.345  0.0074  0.4885  0.6904
 1823SOL     OW 5846   6.846   1.538   6.780  0.5063 -0.0627  0.0640
 1823SOL    HW1 5847   6.911   1.556   6.847 -0.1624  0.4383  0.5870
 1823SOL    HW2 5848   6.858   1.445   6.760  0.2272 -0.4170  1.4249
 1824SOL     OW 5849   1.329   6.520   1.017 -0.3808  0.1733 -0.2152
 1824SOL    HW1 5850   1.297   6.446   1.068 -0.1983  0.8470  0.9121
 1824SOL    HW2 5851   1.290   6.508   0.930  0.1815 -1.5995 -0.2680
 1825SOL     OW 5852   5.873   4.062   6.461  0.2558  0.3520 -0.3501
 1825SOL    HW1 5853   5.963   4.093   6.472  0.8095 -1.2965  0.0708
 1825SOL    HW2 5854   5.873   4.022   6.374 -0.0404  0.2680 -0.3108
 1826SOL     OW 5855   0.425   2.705   6.752 -0.5816 -0.0229 -0.3718
 1826SOL    HW1 5856   0.509   2.750   6.753  0.0545 -1.1368 -1.3079
 1826SOL    HW2 5857   0.440   2.623   6.798 -1.2338 -0.1180 -0.3146
 1827SOL     OW 5858   3.085   6.492   1.163 -0.0601  0.1126  0.0712
 1827SOL    HW1 5859   3.150   6.427   1.138 -0.3343  0.1345 -0.7596
 1827SOL    HW2 5860   3.044   6.517   1.080 -1.6710 -0.4875  0.6484
 1828SOL     OW 5861   2.948   2.632   3.861 -0.4570 -0.0866 -0.3429
 1828SOL    HW1 5862   2.995   2.627   3.777 -0.8489 -0.8705 -0.5233
 1828SOL    HW2 5863   2.993   2.701   3.909  1.3288 -1.2600 -0.2428
 1829SOL     OW 5864   5.990   5.098   0.746 -0.2153 -0.1210 -0.4432
 1829SOL    HW1 5865   6.043   5.037   0.696 -1.1793 -0.7099 -0.7702
 1829SOL    HW2 5866   6.011   5.184   0.709 -0.1993 -0.4470 -1.2083
 1830SOL     OW 5867   3.336   4.322   2.500 -0.1872  0.0934 -0.0618
 1830SOL    HW1 5868   3.315   4.367   2.418 -1.3761  0.6009  0.4960
 1830SOL    HW2 5869   3.251   4.293   2.534  0.0131  1.7830  2.0646
 1831SOL     OW 5870   3.032   0.379   0.904 -0.9293  0.3835  0.0911
 1831SOL    HW1 5871   2.995   0.437   0.971 -1.0405  0.0611  0.3107
 1831SOL    HW2 5872   3.060   0.438   0.834 -1.5726  0.6629  0.0578
 1832SOL     OW 5873   2.635   0.532   3.878 -0.4802 -0.1409 -0.1410
 1832SOL    HW1 5874   2.654   0.456   3.934 -1.4801  0.4787  1.0836
 1832SOL    HW2 5875   2.712   0.540   3.822  0.6395 -0.6983  1.2526
 1833SOL     OW 5876   4.686   2.706   1.477 -0.1734 -0.0208  0.1572
 1833SOL    HW1 5877   4.781   2.705   1.469  0.0824  0.0509  2.6066
 1833SOL    HW2 5878   4.663   2.799   1.480  0.0012 -0.0127  2.2931
 1834SOL     OW 5879   0.634   1.459   0.295 -0.2216 -0.1568 -0.1658
 1834SOL    HW1 5880   0.723   1.436   0.325 -0.2683  1.4690  1.3731
 1834SOL    HW2 5881   0.584   1.379   0.307  0.7352 -0.7188  0.2264
 1835SOL     OW 5882   2.746   5.124   6.146 -0.2307  0.5090  0.4041
 1835SOL    HW1 5883   2.702   5.161   6.070  1.0191  0.1347 -0.5240
 1835SOL    HW2 5884   2.749   5.197   6.209  0.3119  1.3734 -0.5899
 1836SOL     OW 5885   1.301   6.060   4.699  0.0843  0.5012 -0.1236
 1836SOL    HW1 5886   1.339   6.088   4.783  1.8408 -1.4427 -0.1942
 1836SOL    HW2 5887   1.269   6.141   4.660  2.3733  2.0254  0.8818
 1837SOL     OW 5888   2.028   0.581   0.843  0.0792 -0.1353 -0.1840
 1837SOL    HW1 5889   2.020   0.488   0.822  2.5143 -0.8850  1.7142
 1837SOL    HW2 5890   1.963   0.597   0.910  0.6969 -0.9072  0.6190
 1838SOL     OW 5891   2.346   3.650   1.022  0.4424  0.5161 -0.0208
 1838SOL    HW1 5892   2.412   3.657   1.092  0.7254 -1.1236 -0.0899
 1838SOL    HW2 5893   2.395   3.621   0.946 -0.3431 -0.7202 -0.0728
 1839SOL     OW 5894   0.304   0.511   4.801 -0.2762  0.0314  0.3467
 1839SOL    HW1 5895   0.277   0.420   4.794 -0.0497 -0.0724  0.8089
 1839SOL    HW2 5896   0.264   0.542   4.882 -1.6520  0.7983 -0.5802
 1840SOL     OW 5897   4.685   1.415   2.904 -0.6325 -0.0110 -0.2012
 1840SOL    HW1 5898   4.648   1.432   2.817 -1.8177  0.6981  0.4094
 1840SOL    HW2 5899   4.769   1.373   2.887 -0.9277 -0.0518 -1.6848
 1841SOL     OW 5900   1.616   5.475   6.297 -0.5306  0.2206 -0.1821
 1841SOL    HW1 5901   1.635   5.523   6.378  0.2753  0.7189 -0.6496
 1841SOL    HW2 5902   1.702   5.465   6.255 -0.8479 -0.6143 -0.6615
 1842SOL     OW 5903   0.367   1.398   0.162  0.2920  0.5489 -0.2558
 1842SOL    HW1 5904   0.407   1.335   0.222  1.0093 -0.0345 -1.3143
 1842SOL    HW2 5905   0.343   1.347   0.085  0.6872  1.5186 -1.0502
 1843SOL     OW 5906   4.651   2.121   4.485 -0.3148  0.5243 -0.5198
 1843SOL    HW1 5907   4.623   2.117   4.394 -3.5250 -1.9896  0.3668
 1843SOL    HW2 5908   4.722   2.057   4.491 -1.4091 -0.7961 -0.9810
 1844SOL     OW 5909   4.485   0.002   6.674  0.4256  0.0476 -0.2585
 1844SOL    HW1 5910   4.494  -0.062   6.744 -1.4143 -1.7627 -1.5528
 1844SOL    HW2 5911   4.548  -0.026   6.607 -0.3389 -0.4354 -0.8010
 1845SOL     OW 5912   4.898   6.557   3.418  0.8408 -0.7443 -0.3577
 1845SOL    HW1 5913   4.961   6.622   3.452  0.5964 -1.1707  0.9806
 1845SOL    HW2 5914   4.951   6.501   3.361  1.4038 -0.3368 -0.2534
 1846SOL     OW 5915   1.198   6.164   4.355 -0.0195  0.4777  0.0528
 1846SOL    HW1 5916   1.253   6.086   4.345 -0.1872  0.3904 -0.1965
 1846SOL    HW2 5917   1.138   6.161   4.280 -1.9000 -0.6851  1.5148
 1847SOL     OW 5918   4.692   6.588   6.142 -0.8863 -0.2289  0.5539
 1847SOL    HW1 5919   4.683   6.678   6.112  1.3542 -0.4397 -1.0183
 1847SOL    HW2 5920   4.741   6.595   6.224  1.8160 -0.0386 -0.9557
 1848SOL     OW 5921   4.203   4.406   0.475  0.2630  0.1681  0.3592
 1848SOL    HW1 5922   4.208   4.488   0.425 -2.4802 -0.4125 -1.0636
 1848SOL    HW2 5923   4.247   4.426   0.558  1.0278  2.5768 -0.5360
 1849SOL     OW 5924   4.382   5.434   3.550  0.6005  0.2815 -0.7897
 1849SOL    HW1 5925   4.323   5.405   3.480 -0.1428 -0.7606  0.2228
 1849SOL    HW2 5926   4.464   5.387   3.532  0.8605  1.0422 -1.6911
 1850SOL     OW 5927   3.319   5.314   0.024 -0.3497 -0.1135  0.2933
 1850SOL    HW1 5928   3.242   5.299  -0.031 -0.6976  2.3307 -0.0189
 1850SOL    HW2 5929   3.283   5.347   0.107  0.2719 -1.8021  1.2821
 1851SOL     OW 5930   1.269   0.135   3.368 -0.0119  0.2982  0.0237
 1851SOL    HW1 5931   1.225   0.094   3.443 -0.3302 -0.9097 -0.7825
 1851SOL    HW2 5932   1.331   0.196   3.407 -0.3235 -0.1364  1.2622
 1852SOL     OW 5933   2.745   4.372   2.152 -0.4138 -0.3517  0.4025
 1852SOL    HW1 5934   2.693   4.432   2.205 -0.3000  0.7001 -0.6472
 1852SOL    HW2 5935   2.719   4.285   2.183 -2.2908  0.1530  0.3797
 1853SOL     OW 5936   6.225   5.699   0.983 -0.1037  0.1682 -0.1548
 1853SOL    HW1 5937   6.218   5.793   0.972 -0.2889  0.3469  1.2682
 1853SOL    HW2 5938   6.149   5.675   1.036  0.7096 -0.5372  0.7406
 1854SOL     OW 5939   2.029   2.692   1.571  0.3541  0.5240  0.0595
 1854SOL    HW1 5940   2.087   2.618   1.590  0.5151  0.7554  0.4716
 1854SOL    HW2 5941   2.048   2.713   1.479  0.9112  0.5844  0.1837
 1855SOL     OW 5942   2.397   1.864   5.225  0.1226  0.0638 -0.1764
 1855SOL    HW1 5943   2.311   1.901   5.206 -1.3298 -3.0778 -0.4245
 1855SOL    HW2 5944   2.438   1.851   5.140  0.0183 -0.1886 -0.1891
 1856SOL     OW 5945   1.708   0.979   6.012  0.1557 -0.0521 -0.9208
 1856SOL    HW1 5946   1.631   1.024   5.978  1.7599  1.8509 -2.3545
 1856SOL    HW2 5947   1.775   0.994   5.945  2.4354  0.4589  1.3024
 1857SOL     OW 5948   1.881   3.799   2.645 -0.5299  0.2421  0.1737
 1857SOL    HW1 5949   1.908   3.786   2.736  0.6672  0.9711 -0.0508
 1857SOL    HW2 5950   1.943   3.745   2.595 -1.5116 -0.5800 -0.2003
 1858SOL     OW 5951   2.712   5.511   3.713  0.4881  0.3021 -0.1682
 1858SOL    HW1 5952   2.748   5.487   3.627  1.6652  1.1317  0.0738
 1858SOL    HW2 5953   2.766   5.465   3.776 -0.9923 -1.1068  0.1474
 1859SOL     OW 5954   1.909   2.353   4.012 -0.6398 -0.5806 -0.5731
 1859SOL    HW1 5955   1.875   2.435   3.975 -1.5040 -0.1935  1.0020
 1859SOL    HW2 5956   1.996   2.376   4.045 -0.3489 -0.6362 -1.2848
 1860SOL     OW 5957   0.124   4.567   0.904  0.9136 -0.2721  0.2673
 1860SOL    HW1 5958   0.121   4.517   0.986  1.2040 -0.8178 -0.0430
 1860SOL    HW2 5959   0.134   4.658   0.931 -0.1160 -0.3210  0.8582
 1861SOL     OW 5960   3.002   1.043   6.548 -0.3066  0.2362  0.0952
 1861SOL    HW1 5961   2.935   1.090   6.498  0.9056  1.6779 -0.2220
 1861SOL    HW2 5962   3.034   0.975   6.489  1.7713  2.4999 -1.5709
 1862SOL     OW 5963   2.485   1.705   3.915 -0.2616 -0.2308  0.7386
 1862SOL    HW1 5964   2.425   1.779   3.909  0.6670  0.4267 -0.9497
 1862SOL    HW2 5965   2.571   1.742   3.898 -0.0105 -1.9744 -2.6902
 1863SOL     OW 5966   6.470   3.996   5.459  0.2556 -0.0025  0.6536
 1863SOL    HW1 5967   6.555   4.012   5.419  1.0368 -2.2027  1.3266
 1863SOL    HW2 5968   6.469   4.053   5.535  0.0488  1.8723 -0.6749
 1864SOL     OW 5969   1.692   0.053   0.875  0.1781  0.0873  0.8129
 1864SOL    HW1 5970   1.664  -0.023   0.925 -2.1454  0.2943 -0.0614
 1864SOL    HW2 5971   1.636   0.125   0.906 -0.4293  0.5018 -1.1363
 1865SOL     OW 5972   6.514   1.892   3.068  0.9428 -0.4889 -0.1635
 1865SOL    HW1 5973   6.609   1.888   3.074  0.9259  0.2293  0.8661
 1865SOL    HW2 5974   6.494   1.983   3.048  0.4664 -0.5526  0.0014
 1866SOL     OW 5975   3.065   3.853   4.303 -0.7758 -0.3703 -0.9144
 1866SOL    HW1 5976   3.067   3.850   4.398 -1.1968 -0.1448 -0.8960
 1866SOL    HW2 5977   3.155   3.835   4.276 -0.5055  0.2637 -0.4525
 1867SOL     OW 5978   4.800   6.176   6.828 -0.3753  0.3221  0.0675
 1867SOL    HW1 5979   4.754   6.141   6.752 -0.8723  0.6769  0.1975
 1867SOL    HW2 5980   4.801   6.105   6.891 -0.4966  0.2197 -0.0465
 1868SOL     OW 5981   4.202   3.045   0.951 -0.1387  0.4055 -0.4573
 1868SOL    HW1 5982   4.211   3.121   0.894  0.1085  1.2461  0.6638
 1868SOL    HW2 5983   4.110   3.047   0.980  0.0031  0.6025 -0.0061
 1869SOL     OW 5984   2.498   0.273   3.642 -0.8167 -0.0182  0.4702
 1869SOL    HW1 5985   2.571   0.225   3.678 -0.9797 -1.7109 -1.2611
 1869SOL    HW2 5986   2.538   0.349   3.599 -0.2909  0.0615  1.0842
 1870SOL     OW 5987   2.892   4.668   3.262 -0.0860 -0.7971 -0.2816
 1870SOL    HW1 5988   2.957   4.634   3.201  0.1832 -1.1880  0.2137
 1870SOL    HW2 5989   2.898   4.611   3.338  0.3302  0.3199  0.5453
 1871SOL     OW 5990   4.620   1.948   0.117  0.9633  0.4931 -0.3981
 1871SOL    HW1 5991   4.568   1.909   0.047  0.5269  0.4209 -0.0389
 1871SOL    HW2 5992   4.564   1.943   0.195  0.9991  1.6072 -0.2889
 1872SOL     OW 5993   0.191   4.089   6.355 -0.5537 -0.1741  0.0322
 1872SOL    HW1 5994   0.197   3.995   6.366 -1.3931 -0.0895  1.5824
 1872SOL    HW2 5995   0.237   4.108   6.273  1.7162 -1.6322  0.8976
 1873SOL     OW 5996   0.618   3.432   1.903 -0.4101 -0.0464  0.4027
 1873SOL    HW1 5997   0.714   3.425   1.901 -0.3883  0.0878  0.8104
 1873SOL    HW2 5998   0.601   3.515   1.947 -0.7081  0.3282 -0.4052
 1874SOL     OW 5999   0.971   2.385   4.986  0.1322 -0.9448  0.5292
 1874SOL    HW1 6000   1.012   2.470   5.004  2.6079 -2.0357  0.4261
 1874SOL    HW2 6001   0.912   2.402   4.913  0.5829  0.7046  0.5130
 1875SOL     OW 6002   0.298   2.020   1.293 -0.0443 -0.0407  0.4396
 1875SOL    HW1 6003   0.328   1.992   1.379 -0.4223 -0.1796  0.5250
 1875SOL    HW2 6004   0.240   2.095   1.310  0.6084  0.5231  0.2424
 1876SOL     OW 6005   2.906   1.817   3.122  0.4213 -0.1387  0.1655
 1876SOL    HW1 6006   2.914   1.900   3.076  0.8248 -1.0170 -1.3969
 1876SOL    HW2 6007   2.990   1.774   3.110 -0.2360 -1.3709 -0.2706
 1877SOL     OW 6008   3.964   2.644   5.345  0.1389  0.5077  0.3775
 1877SOL    HW1 6009   3.939   2.555   5.318  0.7139  0.7390 -0.9920
 1877SOL    HW2 6010   3.903   2.665   5.415 -1.4001 -0.1734 -0.6929
 1878SOL     OW 6011   3.386   6.194   1.673 -0.0424  0.4176  0.2466
 1878SOL    HW1 6012   3.298   6.231   1.668 -0.1927  0.3040  1.6316
 1878SOL    HW2 6013   3.387   6.146   1.755  1.1024 -0.1712 -0.0893
 1879SOL     OW 6014   2.656   5.703   2.800  0.6429 -0.4634  0.1590
 1879SOL    HW1 6015   2.750   5.682   2.793  0.4130 -1.5151 -0.0045
 1879SOL    HW2 6016   2.650   5.765   2.873  1.6864  1.1528 -1.0455
 1880SOL     OW 6017   1.254   2.474   3.963  0.1373  0.4112  0.2700
 1880SOL    HW1 6018   1.240   2.415   4.037  0.9077  1.0684  0.9644
 1880SOL    HW2 6019   1.195   2.442   3.895  0.1590 -0.8327  0.8067
 1881SOL     OW 6020   4.514   2.615   6.400 -0.2581 -0.2676 -0.2797
 1881SOL    HW1 6021   4.428   2.592   6.436  0.2432 -2.7073 -0.4824
 1881SOL    HW2 6022   4.542   2.690   6.453 -2.1106  0.0233  0.3783
 1882SOL     OW 6023   3.343   0.967   3.947  0.0392 -0.0114  0.5210
 1882SOL    HW1 6024   3.405   0.911   3.996 -0.4665 -1.0302  0.0249
 1882SOL    HW2 6025   3.323   0.917   3.868 -1.1171  0.4882  0.4849
 1883SOL     OW 6026   0.730   3.373   2.842 -0.4497 -0.1661 -0.1161
 1883SOL    HW1 6027   0.667   3.304   2.819 -1.2217  0.7940 -1.0044
 1883SOL    HW2 6028   0.775   3.392   2.760 -0.2087  0.3494  0.1320
 1884SOL     OW 6029   1.218   1.939   5.022 -0.4422  0.1353 -0.1757
 1884SOL    HW1 6030   1.155   1.890   4.970 -0.4555  0.1009 -0.1270
 1884SOL    HW2 6031   1.224   2.024   4.979  0.5144 -0.3268 -0.9812
 1885SOL     OW 6032   1.836   6.408   5.207  0.0609  0.7414 -0.0713
 1885SOL    HW1 6033   1.866   6.486   5.254 -1.2290  1.0852  0.2383
 1885SOL    HW2 6034   1.772   6.369   5.267 -0.3409  0.2331 -0.8282
 1886SOL     OW 6035   2.471   5.467   4.831 -0.2083 -0.6008 -0.4474
 1886SOL    HW1 6036   2.389   5.428   4.863 -0.8639  0.9572 -0.1562
 1886SOL    HW2 6037   2.521   5.486   4.910 -0.3617  0.1327 -0.5234
 1887SOL     OW 6038   5.590   3.198   3.597 -0.1355 -0.3902  1.0671
 1887SOL    HW1 6039   5.677   3.164   3.576 -0.2942 -0.7134  0.9098
 1887SOL    HW2 6040   5.606   3.272   3.655  0.5074  2.3034 -2.2211
 1888SOL     OW 6041   2.809   0.838   0.384  0.2346  0.6697  0.2648
 1888SOL    HW1 6042   2.718   0.848   0.357  0.9960  0.5961 -2.6268
 1888SOL    HW2 6043   2.857   0.902   0.331  2.0736 -0.5953  0.3253
 1889SOL     OW 6044   5.200   2.241   0.882  0.0134 -0.1646  0.7493
 1889SOL    HW1 6045   5.143   2.199   0.818 -1.8447  0.7283  1.7529
 1889SOL    HW2 6046   5.219   2.327   0.844 -0.6196  0.1481  1.1462
 1890SOL     OW 6047   6.628   5.771   0.369  0.0435  0.4905  0.0689
 1890SOL    HW1 6048   6.673   5.748   0.450  1.8826 -1.0605 -1.3242
 1890SOL    HW2 6049   6.683   5.838   0.329  0.1326 -0.0737 -0.7629
 1891SOL     OW 6050   0.128   1.603   1.482 -0.4055  0.0950  0.1510
 1891SOL    HW1 6051   0.223   1.608   1.485 -0.4517  1.2383  0.3691
 1891SOL    HW2 6052   0.099   1.641   1.565 -1.0382 -1.1694  0.5262
 1892SOL     OW 6053   3.443   6.826   6.197 -0.4434 -0.2729  0.3060
 1892SOL    HW1 6054   3.512   6.863   6.251 -0.7589  1.2439 -0.2763
 1892SOL    HW2 6055   3.451   6.871   6.113 -0.2361 -2.2659 -0.7990
 1893SOL     OW 6056   1.166   5.566   0.944 -0.4247 -0.1942 -0.0113
 1893SOL    HW1 6057   1.197   5.597   0.859  0.3820 -0.4169  0.1917
 1893SOL    HW2 6058   1.197   5.631   1.006 -1.5731  0.3142  0.0547
 1894SOL     OW 6059   5.094   2.507   3.895  0.0406 -0.2535 -0.1754
 1894SOL    HW1 6060   5.014   2.549   3.928  0.1920 -0.0603 -0.0548
 1894SOL    HW2 6061   5.125   2.566   3.826  0.0827 -0.3279 -0.2207
 1895SOL     OW 6062   3.378   0.924   5.889 -0.9296  0.2581 -0.2432
 1895SOL    HW1 6063   3.389   0.832   5.865 -2.1626 -0.1281  0.5896
 1895SOL    HW2 6064   3.462   0.948   5.929 -1.8608 -1.7312  3.2845
 1896SOL     OW 6065   6.269   2.979   1.717  0.5627  0.2893 -0.6033
 1896SOL    HW1 6066   6.225   2.905   1.675  0.1572  1.2992 -2.0329
 1896SOL    HW2 6067   6.199   3.041   1.737  1.0854  1.0598 -1.0917
 1897SOL     OW 6068   5.330   5.512   5.695  0.0172  0.2914  0.2361
 1897SOL    HW1 6069   5.347   5.596   5.739 -2.7926  1.0797  0.0006
 1897SOL    HW2 6070   5.275   5.535   5.620 -1.1819 -1.8109  0.4139
 1898SOL     OW 6071   3.520   0.826   3.672 -0.0630  0.0419 -0.0993
 1898SOL    HW1 6072   3.494   0.817   3.581 -1.0163  3.0883 -0.2449
 1898SOL    HW2 6073   3.615   0.832   3.670 -0.0638 -0.1168 -0.8912
 1899SOL     OW 6074   0.683   0.182   6.178 -0.4896 -0.2778  0.1270
 1899SOL    HW1 6075   0.693   0.217   6.267 -0.3191  2.8107 -0.9921
 1899SOL    HW2 6076   0.772   0.182   6.143 -0.8052  0.7778 -0.7513
 1900SOL     OW 6077   1.552   4.485   5.733 -0.4198  0.0341  0.6076
 1900SOL    HW1 6078   1.630   4.434   5.755  0.7781  2.0821  1.4216
 1900SOL    HW2 6079   1.581   4.577   5.741 -2.0014  0.8979 -2.3129
 1901SOL     OW 6080   0.522   0.017   2.228 -0.8203 -0.5009  0.5089
 1901SOL    HW1 6081   0.567   0.008   2.144  1.4341 -0.3377  1.6291
 1901SOL    HW2 6082   0.486  -0.070   2.245  0.1525 -0.9849  0.1485
 1902SOL     OW 6083   4.801   6.133   2.412 -0.0500  0.0201 -0.1996
 1902SOL    HW1 6084   4.769   6.044   2.422 -0.8758  0.2123 -0.9969
 1902SOL    HW2 6085   4.726   6.189   2.434  0.4755  0.5242  0.3602
 1903SOL     OW 6086   0.798   5.396   3.838  0.3375 -0.1047 -0.1165
 1903SOL    HW1 6087   0.893   5.392   3.834  0.3051 -2.4988  0.1083
 1903SOL    HW2 6088   0.772   5.442   3.759  1.6720  0.5308 -0.2039
 1904SOL     OW 6089   6.002   0.344   2.227  0.1747 -0.0694 -0.0243
 1904SOL    HW1 6090   6.014   0.292   2.307  4.0460 -1.3855 -1.2106
 1904SOL    HW2 6091   6.055   0.423   2.242  0.4575 -0.0592 -1.0455
 1905SOL     OW 6092   2.158   5.882   5.999  0.0733 -0.3154 -0.2674
 1905SOL    HW1 6093   2.104   5.958   5.977 -1.9388 -2.0367 -1.5414
 1905SOL    HW2 6094   2.106   5.806   5.974  1.9712 -2.1756  1.0357
 1906SOL     OW 6095   3.261   4.743   4.240 -0.2220  0.5813  0.2718
 1906SOL    HW1 6096   3.257   4.652   4.270 -0.6345  0.3228 -0.5144
 1906SOL    HW2 6097   3.346   4.775   4.269 -0.3610  0.1697  1.1661
 1907SOL     OW 6098   6.546   3.083   1.825 -0.1048  0.6815  0.0269
 1907SOL    HW1 6099   6.606   3.072   1.750  1.0959  0.2940  1.0135
 1907SOL    HW2 6100   6.506   2.997   1.836 -1.8853  1.2461 -1.4256
 1908SOL     OW 6101   0.172   2.240   0.545  0.3672  0.1059 -0.4974
 1908SOL    HW1 6102   0.205   2.151   0.557 -1.1943 -0.5610 -0.8169
 1908SOL    HW2 6103   0.235   2.296   0.590  3.0907 -0.8188 -2.7968
 1909SOL     OW 6104   3.182   2.505   6.526  0.4851  0.0853 -0.5406
 1909SOL    HW1 6105   3.135   2.539   6.450  0.8506  0.7268 -0.4905
 1909SOL    HW2 6106   3.220   2.423   6.496  0.5704  0.3027 -1.0401
 1910SOL     OW 6107   4.151   1.985   2.066 -0.5180  0.0884  0.0457
 1910SOL    HW1 6108   4.119   2.044   1.998 -1.2347  0.0128  0.3111
 1910SOL    HW2 6109   4.126   2.027   2.149 -1.4428 -0.7849  0.2370
 1911SOL     OW 6110   4.254   3.815   6.437  0.0869  0.0985 -0.3486
 1911SOL    HW1 6111   4.346   3.814   6.465  0.2645 -0.2113 -0.9262
 1911SOL    HW2 6112   4.248   3.892   6.380 -0.3309  0.8695  0.7044
 1912SOL     OW 6113   3.348   0.282   1.118 -0.0709  0.2683  0.3150
 1912SOL    HW1 6114   3.425   0.338   1.124  1.4727 -1.6747 -0.3494
 1912SOL    HW2 6115   3.355   0.224   1.194 -1.3306  0.5790  0.6914
 1913SOL     OW 6116   2.118   6.834   1.147 -0.0407 -0.3577  0.1675
 1913SOL    HW1 6117   2.180   6.854   1.218  0.0470 -0.3712  0.0939
 1913SOL    HW2 6118   2.033   6.859   1.183  0.1423  0.8398 -0.1840
 1914SOL     OW 6119   5.702   3.847   4.517  0.3916 -0.2855 -0.0727
 1914SOL    HW1 6120   5.789   3.883   4.499  0.6518 -1.2879 -0.9134
 1914SOL    HW2 6121   5.647   3.925   4.531  1.3263  0.3705  0.0772
 1915SOL     OW 6122   0.915   5.072   0.643 -0.0667  0.0606 -0.1842
 1915SOL    HW1 6123   0.989   5.081   0.583 -0.1525 -0.1935 -0.3309
 1915SOL    HW2 6124   0.926   4.986   0.682 -0.0477  0.1993  0.1195
 1916SOL     OW 6125   4.782   0.230   6.381  0.1087  0.7299 -0.3282
 1916SOL    HW1 6126   4.782   0.324   6.400 -0.5213  0.7974 -0.6652
 1916SOL    HW2 6127   4.840   0.221   6.306  0.5819  0.7807  0.0249
 1917SOL     OW 6128   3.728   4.909   1.207  0.6310 -0.0325  0.0426
 1917SOL    HW1 6129   3.816   4.897   1.173  0.8777 -2.1931  1.2761
 1917SOL    HW2 6130   3.688   4.823   1.203 -1.5305  0.9302 -0.6475
 1918SOL     OW 6131   5.401   0.375   3.099 -0.3725 -0.0264  0.0055
 1918SOL    HW1 6132   5.406   0.469   3.118  0.1164 -0.1186  0.3664
 1918SOL    HW2 6133   5.485   0.354   3.057 -0.6535 -0.2199 -0.4718
 1919SOL     OW 6134   6.718   2.135   2.843  0.5722 -0.2323  0.2452
 1919SOL    HW1 6135   6.740   2.221   2.807 -0.0656  0.6099  1.7683
 1919SOL    HW2 6136   6.694   2.082   2.767  0.5052  1.0704 -0.6699
 1920SOL     OW 6137   1.350   4.794   2.643 -0.0688 -0.0997 -0.0331
 1920SOL    HW1 6138   1.429   4.764   2.597 -0.0672 -0.2420  0.0643
 1920SOL    HW2 6139   1.297   4.715   2.655 -0.6551  0.1429 -0.9305
 1921SOL     OW 6140   5.142   5.355   1.206 -0.1255 -0.4528  0.0469
 1921SOL    HW1 6141   5.091   5.436   1.213  0.1913 -0.3371  1.1723
 1921SOL    HW2 6142   5.080   5.292   1.170 -0.3902  0.2716 -0.7970
 1922SOL     OW 6143   4.033   5.409   0.781 -0.0546  0.5973 -0.0067
 1922SOL    HW1 6144   4.097   5.387   0.714 -0.8227  0.7593 -0.8077
 1922SOL    HW2 6145   4.032   5.505   0.783  0.4988  0.5978  0.7661
 1923SOL     OW 6146   4.735   1.284   6.814  0.0594 -0.7102  0.4313
 1923SOL    HW1 6147   4.709   1.247   6.899 -0.5713 -0.7354  0.2334
 1923SOL    HW2 6148   4.770   1.209   6.766  2.4734 -0.3111  1.4249
 1924SOL     OW 6149   1.191   0.806   0.055  0.0971  0.5184  0.2536
 1924SOL    HW1 6150   1.205   0.788  -0.038 -3.2688  1.3817 -0.5292
 1924SOL    HW2 6151   1.154   0.726   0.091  0.9741  0.3387  0.8168
 1925SOL     OW 6152   1.437   3.582   2.645  0.6664  0.8426 -0.3529
 1925SOL    HW1 6153   1.530   3.595   2.628  0.9004 -0.6529 -0.3674
 1925SOL    HW2 6154   1.419   3.492   2.616 -0.2358  0.2622  1.7947
 1926SOL     OW 6155   4.899   5.731   0.101 -0.3514  0.4344  0.4164
 1926SOL    HW1 6156   4.868   5.809   0.055 -1.0137  0.1823  0.4165
 1926SOL    HW2 6157   4.823   5.672   0.102 -0.0614  0.0586  1.0034
 1927SOL     OW 6158   5.981   5.337   6.110  0.4158 -0.0829 -0.1396
 1927SOL    HW1 6159   5.914   5.349   6.042  0.5824  0.4417 -0.2115
 1927SOL    HW2 6160   6.055   5.390   6.080  0.4186  0.3118  0.5515
 1928SOL     OW 6161   5.980   2.155   4.538 -0.3481 -0.1977  0.1580
 1928SOL    HW1 6162   5.951   2.216   4.470 -0.9191  0.1808  0.7314
 1928SOL    HW2 6163   5.926   2.177   4.614  1.0388  0.1398  1.0886
 1929SOL     OW 6164   4.913   6.197   1.173  0.1690 -0.5078  0.5984
 1929SOL    HW1 6165   4.876   6.144   1.102 -0.4692  1.5465 -0.6948
 1929SOL    HW2 6166   4.838   6.217   1.229  0.0671  0.3890  0.1536
 1930SOL     OW 6167   6.179   0.321   5.037  0.8917  0.0493 -0.8608
 1930SOL    HW1 6168   6.134   0.402   5.062  1.2564  0.2734 -0.9265
 1930SOL    HW2 6169   6.139   0.254   5.092  1.4560  0.4810  0.1032
 1931SOL     OW 6170   2.042   0.463   6.295 -0.5401  1.0135  0.5414
 1931SOL    HW1 6171   2.025   0.399   6.364  1.0386  0.7180  0.6827
 1931SOL    HW2 6172   1.992   0.540   6.321 -2.4469 -0.1062  0.3918
 1932SOL     OW 6173   5.271   0.953   5.523 -0.0602  0.4121  0.4363
 1932SOL    HW1 6174   5.334   1.019   5.551  2.1262 -1.6608  0.7263
 1932SOL    HW2 6175   5.268   0.961   5.428  1.8582 -0.4138  0.2682
 1933SOL     OW 6176   3.537   6.074   0.878  0.1430  0.4666 -0.2990
 1933SOL    HW1 6177   3.613   6.131   0.879  1.4124 -1.1321  1.2398
 1933SOL    HW2 6178   3.573   5.985   0.881 -1.7527 -0.3499  0.3940
 1934SOL     OW 6179   6.494   1.844   6.238 -0.0871  0.0471 -0.1147
 1934SOL    HW1 6180   6.568   1.793   6.270 -1.8130 -1.7815  1.1488
 1934SOL    HW2 6181   6.504   1.930   6.278  1.7843  0.1297 -0.6736
 1935SOL     OW 6182   3.726   2.447   2.925  0.1700  0.2131  0.6636
 1935SOL    HW1 6183   3.656   2.425   2.987 -0.1694 -1.4363 -0.2371
 1935SOL    HW2 6184   3.806   2.415   2.967  0.0254 -0.3174  0.5396
 1936SOL     OW 6185   5.733   2.969   1.386 -0.4081  0.6904 -0.3519
 1936SOL    HW1 6186   5.781   2.891   1.361  0.6975  1.4376 -0.6406
 1936SOL    HW2 6187   5.642   2.951   1.361  0.0847  0.0784 -1.7774
 1937SOL     OW 6188   0.610   3.962   5.409 -0.1068 -0.6671 -0.1242
 1937SOL    HW1 6189   0.638   3.882   5.365 -0.1573 -2.6575  3.1507
 1937SOL    HW2 6190   0.515   3.953   5.415 -0.2913  0.4230 -1.0033
 1938SOL     OW 6191   2.766   0.312   0.774 -0.2200  0.3873 -0.0296
 1938SOL    HW1 6192   2.804   0.231   0.808  0.0752  0.6493  0.2667
 1938SOL    HW2 6193   2.839   0.374   0.771 -0.1423  0.2588 -1.5340
 1939SOL     OW 6194   3.464   2.649   5.372  0.3798 -0.1002 -0.2522
 1939SOL    HW1 6195   3.521   2.725   5.360 -0.5476  1.0561  2.0398
 1939SOL    HW2 6196   3.379   2.677   5.337 -0.3849  0.5872  1.9897
 1940SOL     OW 6197   0.065   1.017   4.390 -0.1823  0.4781 -0.2845
 1940SOL    HW1 6198  -0.024   1.037   4.421  0.1202  1.2693  0.0903
 1940SOL    HW2 6199   0.113   1.099   4.401  1.2402 -0.5476  1.7227
 1941SOL     OW 6200   0.255   6.393   4.809 -0.4081 -0.0230 -0.0359
 1941SOL    HW1 6201   0.240   6.487   4.822 -3.4156 -0.2972 -0.8406
 1941SOL    HW2 6202   0.168   6.354   4.815  0.6745 -2.6894 -0.4830
 1942SOL     OW 6203   6.589   5.842   1.106 -0.0314 -0.0866  0.0273
 1942SOL    HW1 6204   6.531   5.771   1.131  0.2558 -0.3095  0.0739
 1942SOL    HW2 6205   6.560   5.917   1.158 -0.3000 -0.1863  0.0187
 1943SOL     OW 6206   4.128   1.204   0.988 -0.0049 -0.5438  0.0128
 1943SOL    HW1 6207   4.135   1.109   0.992 -1.3660 -0.7610 -1.7410
 1943SOL    HW2 6208   4.056   1.226   1.047  0.4915 -0.5380  0.6359
 1944SOL     OW 6209   1.101   4.866   0.777 -0.1261 -0.4746 -0.7102
 1944SOL    HW1 6210   1.119   4.867   0.682 -0.5637 -1.5386 -0.8093
 1944SOL    HW2 6211   1.122   4.777   0.805 -1.1899 -0.5261 -0.0370
 1945SOL     OW 6212   2.795   4.765   0.780 -0.1338 -0.0839  0.2524
 1945SOL    HW1 6213   2.785   4.792   0.871  0.9950  2.9110 -0.4205
 1945SOL    HW2 6214   2.819   4.673   0.785 -1.7548 -0.4709  2.8598
 1946SOL     OW 6215   2.304   4.637   5.712  0.2654 -0.0888 -0.4609
 1946SOL    HW1 6216   2.386   4.627   5.761  0.4265 -0.0014 -0.7110
 1946SOL    HW2 6217   2.235   4.626   5.778  0.4514 -1.5943 -0.4866
 1947SOL     OW 6218   6.478   4.496   4.119  0.0460  0.3247 -0.1690
 1947SOL    HW1 6219   6.473   4.401   4.134 -1.7207  0.6046  1.2138
 1947SOL    HW2 6220   6.412   4.533   4.176  1.9142  2.5795  0.6841
 1948SOL     OW 6221   0.900   6.665   2.318 -0.1431  0.1670  0.0015
 1948SOL    HW1 6222   0.865   6.753   2.334  1.1932  0.8399 -0.6501
 1948SOL    HW2 6223   0.923   6.665   2.225 -2.3956 -1.7254 -0.6533
 1949SOL     OW 6224   4.337   4.255   0.782 -0.0469 -0.4918  0.3502
 1949SOL    HW1 6225   4.250   4.241   0.821  0.5432 -1.9650  1.2280
 1949SOL    HW2 6226   4.340   4.195   0.708 -0.4677  0.9777 -0.9231
 1950SOL     OW 6227   5.545   5.104   0.180 -0.0002  0.0639 -0.2431
 1950SOL    HW1 6228   5.571   5.110   0.088  1.6141  1.2378  0.2330
 1950SOL    HW2 6229   5.604   5.164   0.225 -1.5282  0.3969  1.4253
 1951SOL     OW 6230   6.738   6.438   3.432  0.1681 -0.2790 -0.0653
 1951SOL    HW1 6231   6.826   6.473   3.420 -0.4993  0.8825 -2.0276
 1951SOL    HW2 6232   6.735   6.361   3.376  0.0251 -0.5082  0.2530
 1952SOL     OW 6233   1.058   0.449   0.604  0.1280 -0.1992  0.2640
 1952SOL    HW1 6234   1.131   0.404   0.646  0.4676  2.1158  2.3897
 1952SOL    HW2 6235   1.008   0.486   0.677 -2.9053 -1.1712 -1.1243
 1953SOL     OW 6236   2.649   6.203   6.357 -0.4601 -0.0365  0.0277
 1953SOL    HW1 6237   2.558   6.233   6.359 -1.1509 -2.0014  0.5479
 1953SOL    HW2 6238   2.653   6.136   6.425  1.7936  1.0289  1.0228
 1954SOL     OW 6239   4.839   4.272   1.002  0.0918 -0.2004  0.3061
 1954SOL    HW1 6240   4.932   4.277   0.979  0.4444 -1.0370  1.4949
 1954SOL    HW2 6241   4.823   4.180   1.021 -1.0363 -0.0986 -0.0752
 1955SOL     OW 6242   5.965   1.247   0.800 -0.0353  0.2614  0.7977
 1955SOL    HW1 6243   5.883   1.210   0.767  0.4220  0.3953 -0.5061
 1955SOL    HW2 6244   5.991   1.188   0.871 -1.5476  0.5353  1.6247
 1956SOL     OW 6245   0.887   4.904   0.208 -0.3472 -0.1588  0.2978
 1956SOL    HW1 6246   0.981   4.921   0.203 -0.2000 -1.0570 -0.1614
 1956SOL    HW2 6247   0.848   4.991   0.211  0.5060  0.2289  0.7971
 1957SOL     OW 6248   2.874   5.959   3.884 -0.2255  0.1614 -0.0576
 1957SOL    HW1 6249   2.938   5.986   3.818 -0.2962 -0.6040 -0.4507
 1957SOL    HW2 6250   2.906   5.874   3.915 -0.0256  0.6443  1.1196
 1958SOL     OW 6251   5.282   0.217   1.440 -0.1263  0.5759  0.5936
 1958SOL    HW1 6252   5.222   0.262   1.500 -1.5502  0.3620 -0.6207
 1958SOL    HW2 6253   5.304   0.284   1.375 -0.9900 -0.0070 -0.3220
 1959SOL     OW 6254   2.927   3.105   3.751  0.1692 -0.0994 -0.8087
 1959SOL    HW1 6255   2.883   3.184   3.784  0.1839 -1.0035  1.5634
 1959SOL    HW2 6256   2.875   3.079   3.675 -1.4851  0.6676  0.0107
 1960SOL     OW 6257   6.796   1.083   0.416 -0.1464 -0.3418  0.5116
 1960SOL    HW1 6258   6.826   1.084   0.325  1.7086 -1.2531  1.0711
 1960SOL    HW2 6259   6.750   1.000   0.426 -0.3166 -0.2588  0.4272
 1961SOL     OW 6260   1.351   4.717   2.079  0.3623  0.6627 -0.1449
 1961SOL    HW1 6261   1.408   4.662   2.132  1.7519  1.7595 -0.4611
 1961SOL    HW2 6262   1.330   4.791   2.136 -1.3151 -0.0291  0.2013
 1962SOL     OW 6263   1.314   0.389   4.823 -0.3499 -0.3575  0.3564
 1962SOL    HW1 6264   1.389   0.382   4.883 -0.2336  0.4601  0.3123
 1962SOL    HW2 6265   1.250   0.442   4.871  0.1157  1.1298 -0.5897
 1963SOL     OW 6266   1.882   4.373   2.744  0.0780  0.1561  0.2850
 1963SOL    HW1 6267   1.926   4.295   2.710  0.6419  0.2290  0.8231
 1963SOL    HW2 6268   1.902   4.373   2.837  2.7836  2.6074 -0.1449
 1964SOL     OW 6269   6.192   6.298   5.292  0.1270 -0.1429  0.0454
 1964SOL    HW1 6270   6.182   6.279   5.385  1.3621  0.2978  0.2930
 1964SOL    HW2 6271   6.114   6.261   5.251 -0.0652 -1.0225  1.1540
 1965SOL     OW 6272   0.490   6.678   3.873  0.4888 -0.5968 -0.0212
 1965SOL    HW1 6273   0.575   6.722   3.879  0.3841 -0.1842 -1.1943
 1965SOL    HW2 6274   0.467   6.657   3.963  0.9338  1.0406  0.5112
 1966SOL     OW 6275   1.889   6.412   1.822 -0.5487 -1.3207  0.3695
 1966SOL    HW1 6276   1.910   6.497   1.783 -0.0299 -1.0065  1.2970
 1966SOL    HW2 6277   1.794   6.404   1.813 -0.4407 -1.2761 -0.9657
 1967SOL     OW 6278   2.959   4.073   4.198 -0.0200  0.2101 -0.2774
 1967SOL    HW1 6279   2.943   4.037   4.111  1.3612  0.5355 -0.6813
 1967SOL    HW2 6280   2.998   4.001   4.248 -0.0481  0.2724 -0.1636
 1968SOL     OW 6281   2.102   4.313   4.535  0.6694 -0.2892  0.2426
 1968SOL    HW1 6282   2.141   4.281   4.454 -0.6270 -1.5065  0.0355
 1968SOL    HW2 6283   2.175   4.323   4.596  1.5416 -0.2733 -0.7913
 1969SOL     OW 6284   4.121   2.965   5.587 -0.4788  0.3748 -0.0230
 1969SOL    HW1 6285   4.032   2.932   5.592 -0.3464 -0.0352 -0.3206
 1969SOL    HW2 6286   4.142   2.994   5.677 -1.4820  2.0161 -0.2790
 1970SOL     OW 6287   0.483   1.826   3.431 -0.4327 -0.0103 -0.4347
 1970SOL    HW1 6288   0.512   1.790   3.347  0.9065  1.1502 -0.5019
 1970SOL    HW2 6289   0.449   1.913   3.410  1.3120  0.9329  0.3489
 1971SOL     OW 6290   1.543   5.541   5.977  0.2506  0.5663  0.5525
 1971SOL    HW1 6291   1.541   5.449   6.004  1.3221  0.9325  2.0120
 1971SOL    HW2 6292   1.460   5.576   6.008 -0.1797  0.0908 -0.0411
 1972SOL     OW 6293   3.940   3.816   2.587 -0.1455 -0.3547  0.3733
 1972SOL    HW1 6294   3.953   3.815   2.682  1.5864  1.7872  0.2472
 1972SOL    HW2 6295   3.956   3.726   2.560 -0.7489 -1.0290  2.1117
 1973SOL     OW 6296   6.584   3.026   4.790  0.0550  0.0772 -0.3875
 1973SOL    HW1 6297   6.640   3.094   4.827 -1.7442  0.6944  1.4176
 1973SOL    HW2 6298   6.580   3.046   4.696 -0.7359  2.7754  0.1357
 1974SOL     OW 6299   2.125   6.419   4.287  0.3827 -0.3921  0.5020
 1974SOL    HW1 6300   2.112   6.443   4.379  0.4578 -0.5216  0.5480
 1974SOL    HW2 6301   2.182   6.342   4.291  1.9358  0.6766  0.2883
 1975SOL     OW 6302   2.851   3.269   6.406  0.5029  0.2153  0.2885
 1975SOL    HW1 6303   2.776   3.316   6.371  2.2291  2.4695 -0.6830
 1975SOL    HW2 6304   2.855   3.295   6.498  0.6668  0.9691  0.0791
 1976SOL     OW 6305   6.368   3.751   5.200  0.3450  0.0725  0.0180
 1976SOL    HW1 6306   6.408   3.800   5.129 -0.6733  0.1144 -0.5440
 1976SOL    HW2 6307   6.275   3.750   5.179 -0.1023  0.8302  1.7854
 1977SOL     OW 6308   2.898   1.836   4.971  0.4681 -0.1098  0.1082
 1977SOL    HW1 6309   2.842   1.778   5.020  1.8999 -1.9076 -0.2843
 1977SOL    HW2 6310   2.980   1.788   4.960  0.7877  0.8376 -2.5944
 1978SOL     OW 6311   3.059   6.509   0.221  0.2200 -0.3916  0.5481
 1978SOL    HW1 6312   3.032   6.600   0.213  0.1247 -0.5213 -0.6951
 1978SOL    HW2 6313   3.030   6.468   0.140  0.4963 -1.4739  0.9839
 1979SOL     OW 6314   6.441   0.632   3.574  0.0251 -0.9682  0.3562
 1979SOL    HW1 6315   6.356   0.590   3.559 -0.2673 -0.3488  0.2448
 1979SOL    HW2 6316   6.421   0.708   3.629  0.2028  0.3138 -1.2574
 1980SOL     OW 6317   1.325   1.725   2.471 -0.2783 -0.6720  0.2413
 1980SOL    HW1 6318   1.421   1.731   2.467 -0.1123 -1.7958  1.7252
 1980SOL    HW2 6319   1.305   1.643   2.424 -0.2405 -1.8419  2.1607
 1981SOL     OW 6320   2.862   0.181   6.164 -0.4085  0.4711 -0.5275
 1981SOL    HW1 6321   2.936   0.122   6.152 -0.1903  1.0062 -2.1110
 1981SOL    HW2 6322   2.806   0.137   6.228  1.0684 -0.1274  0.4178
 1982SOL     OW 6323   0.685   6.661   1.303 -0.5566  0.5560 -0.2418
 1982SOL    HW1 6324   0.609   6.686   1.251 -1.3103  1.7802  1.3383
 1982SOL    HW2 6325   0.667   6.699   1.390  1.8000  0.7629  0.2045
 1983SOL     OW 6326   4.030   4.258   4.691 -0.3531  0.2046 -0.6737
 1983SOL    HW1 6327   4.102   4.203   4.659 -0.7509  0.1140 -1.4364
 1983SOL    HW2 6328   3.961   4.246   4.626 -1.1969 -0.0104  0.2490
 1984SOL     OW 6329   2.830   3.043   5.755  0.2676  0.0089  0.2586
 1984SOL    HW1 6330   2.825   3.106   5.683 -1.8535 -2.3209 -1.8109
 1984SOL    HW2 6331   2.898   2.982   5.730  0.3467 -0.1519  0.8464
 1985SOL     OW 6332   1.360   1.697   3.335  0.1703 -0.2912  0.1106
 1985SOL    HW1 6333   1.278   1.655   3.311  0.4059 -0.0975 -1.1011
 1985SOL    HW2 6334   1.425   1.627   3.332  0.5864  0.1064 -2.0358
 1986SOL     OW 6335   6.184   2.037   3.646  0.1706 -0.9753  0.3087
 1986SOL    HW1 6336   6.177   2.042   3.551 -0.8415 -2.2630  0.2877
 1986SOL    HW2 6337   6.242   1.962   3.662  2.2131  0.6067  0.7152
 1987SOL     OW 6338   6.596   6.765   0.038  0.2096 -0.2798 -0.1103
 1987SOL    HW1 6339   6.618   6.818  -0.039 -0.5226  0.5301  0.2147
 1987SOL    HW2 6340   6.553   6.688   0.003  0.6421 -0.3224 -0.5553
 1988SOL     OW 6341   3.445   3.392   0.148  0.1344 -0.7522  0.4137
 1988SOL    HW1 6342   3.426   3.302   0.174 -1.5775 -0.1600  1.3317
 1988SOL    HW2 6343   3.379   3.445   0.192  1.6973  1.0859  0.6776
 1989SOL     OW 6344   4.125   4.496   4.660 -0.1611 -0.5954 -0.6632
 1989SOL    HW1 6345   4.080   4.415   4.685 -1.4017 -0.1307 -1.2629
 1989SOL    HW2 6346   4.061   4.542   4.604  0.1001  1.2779  0.4878
 1990SOL     OW 6347   3.933   3.271   6.225  0.5201 -0.1417  0.4674
 1990SOL    HW1 6348   3.978   3.310   6.300 -0.7044  3.3137 -0.4278
 1990SOL    HW2 6349   3.993   3.283   6.152  0.4561 -0.6682  0.3276
 1991SOL     OW 6350   5.732   4.863   1.707  0.3558 -0.2849  0.4113
 1991SOL    HW1 6351   5.740   4.943   1.655 -0.0571  0.8986  2.0787
 1991SOL    HW2 6352   5.672   4.886   1.777  0.4231 -2.0029  1.0760
 1992SOL     OW 6353   3.979   1.936   6.534 -0.4849  0.2179 -0.0795
 1992SOL    HW1 6354   4.030   2.011   6.567 -1.1886  1.0696 -0.8740
 1992SOL    HW2 6355   3.916   1.975   6.474  1.5152 -1.3533 -3.4640
 1993SOL     OW 6356   0.708   0.422   4.466 -0.2394 -0.2898 -0.2166
 1993SOL    HW1 6357   0.688   0.466   4.383 -2.8881  0.1017  0.5553
 1993SOL    HW2 6358   0.777   0.476   4.505 -1.6083  1.7687 -0.4745
 1994SOL     OW 6359   5.749   5.548   0.849 -0.2527 -0.2329  0.3510
 1994SOL    HW1 6360   5.733   5.456   0.872 -2.8060 -0.3007 -1.3224
 1994SOL    HW2 6361   5.662   5.588   0.845  0.6745  1.8723 -0.5293
 1995SOL     OW 6362   1.351   2.469   2.575  0.1686  0.2013  0.1874
 1995SOL    HW1 6363   1.283   2.446   2.638  1.0074  0.7247  1.3173
 1995SOL    HW2 6364   1.341   2.563   2.562 -1.4879 -0.2173 -2.3055
 1996SOL     OW 6365   5.117   2.752   0.120  0.1273  0.7292  0.3640
 1996SOL    HW1 6366   5.105   2.692   0.046 -0.1636  0.2131  0.8231
 1996SOL    HW2 6367   5.033   2.798   0.128  0.1215  0.7077  0.4343
 1997SOL     OW 6368   1.623   5.764   4.930  0.3425  0.5822  0.1074
 1997SOL    HW1 6369   1.634   5.759   4.835 -1.1222 -0.2985 -0.0417
 1997SOL    HW2 6370   1.530   5.783   4.942  0.4545  0.4002  1.3725
 1998SOL     OW 6371   2.805   3.243   5.579 -0.1616 -0.8735 -0.5136
 1998SOL    HW1 6372   2.766   3.212   5.498 -2.2051 -0.1201  0.1079
 1998SOL    HW2 6373   2.793   3.338   5.577 -1.4473 -0.9333  1.1765
 1999SOL     OW 6374   4.130   0.722   6.790  0.2329  0.2914 -0.0366
 1999SOL    HW1 6375   4.194   0.656   6.761  0.0490  1.0052 -2.1972
 1999SOL    HW2 6376   4.184   0.788   6.833  0.8257  0.2911 -0.7458
 2000SOL     OW 6377   3.928   0.251   5.435 -0.3761 -0.1265  0.2939
 2000SOL    HW1 6378   3.869   0.312   5.392  1.5206 -0.2034 -2.7045
 2000SOL    HW2 6379   3.894   0.164   5.413  0.0825 -0.1549 -0.3458
 2001SOL     OW 6380   6.460   1.237   0.814  0.1414  0.1646 -0.0875
 2001SOL    HW1 6381   6.532   1.212   0.756 -0.1334 -1.2821  0.1531
 2001SOL    HW2 6382   6.387   1.255   0.754  0.2677  0.0906 -0.2646
 2002SOL     OW 6383   5.483   2.227   3.742  0.3218 -0.3687  0.1153
 2002SOL    HW1 6384   5.407   2.272   3.778 -0.0168 -1.5715  0.9451
 2002SOL    HW2 6385   5.558   2.268   3.786  0.2029  0.9113 -0.8057
 2003SOL     OW 6386   4.230   3.565   6.271 -0.0862 -0.3519  0.0908
 2003SOL    HW1 6387   4.215   3.649   6.314 -1.1454 -0.2176 -0.5141
 2003SOL    HW2 6388   4.214   3.583   6.178  1.8490 -0.7034 -0.3577
 2004SOL     OW 6389   0.143   1.156   5.290  0.3410  0.2067 -0.0246
 2004SOL    HW1 6390   0.229   1.137   5.327  0.1763  1.6705  1.2086
 2004SOL    HW2 6391   0.163   1.202   5.208  0.7016 -1.3139 -0.8293
 2005SOL     OW 6392   2.707   5.921   6.143  0.4832  0.5546 -0.0661
 2005SOL    HW1 6393   2.712   5.826   6.155  0.4158  0.6354  0.6326
 2005SOL    HW2 6394   2.799   5.950   6.145  0.4816  0.5481  0.0763
 2006SOL     OW 6395   5.896   5.630   5.299 -0.4969 -0.1444 -0.1770
 2006SOL    HW1 6396   5.920   5.697   5.362 -0.0242 -1.0655  0.6532
 2006SOL    HW2 6397   5.803   5.647   5.280 -0.5087  0.4446  0.3883
 2007SOL     OW 6398   4.460   4.828   3.398  0.3603  0.0913 -0.1885
 2007SOL    HW1 6399   4.395   4.788   3.456  2.1537  0.0386  1.9080
 2007SOL    HW2 6400   4.479   4.760   3.333 -0.3996 -0.5168  0.2100
 2008SOL     OW 6401   4.575   6.766   1.585 -0.1948 -0.1189 -0.1536
 2008SOL    HW1 6402   4.508   6.698   1.579 -1.0782  0.7208  0.0640
 2008SOL    HW2 6403   4.576   6.806   1.498  0.3969 -0.4580 -0.3113
 2009SOL     OW 6404   0.920   6.235   1.399 -0.5402 -0.1024 -0.0428
 2009SOL    HW1 6405   0.827   6.254   1.396 -0.0878  2.2358 -0.9005
 2009SOL    HW2 6406   0.937   6.214   1.491 -1.9689 -1.0913  0.0303
 2010SOL     OW 6407   4.998   2.482   5.070  0.6909  0.4977  0.4915
 2010SOL    HW1 6408   4.983   2.575   5.053 -1.0873  0.3707  1.1681
 2010SOL    HW2 6409   5.008   2.443   4.983 -2.8309  0.7061 -0.1383
 2011SOL     OW 6410   3.396   0.034   3.055  0.1649  0.1458  0.0982
 2011SOL    HW1 6411   3.449   0.103   3.014 -1.3915  0.6150 -1.2516
 2011SOL    HW2 6412   3.311   0.075   3.070 -0.4280 -1.1342  0.3775
 2012SOL     OW 6413   0.425   3.018   1.801 -0.1922  0.1789  0.0362
 2012SOL    HW1 6414   0.342   3.066   1.799 -1.1132 -1.3620 -1.1992
 2012SOL    HW2 6415   0.402   2.933   1.840  1.0783  0.1659  0.7931
 2013SOL     OW 6416   4.786   4.976   0.357 -0.0608  0.0583 -0.3759
 2013SOL    HW1 6417   4.698   4.999   0.389  1.5947  2.2809  3.1985
 2013SOL    HW2 6418   4.811   5.049   0.301 -0.4571 -0.6201 -1.4694
 2014SOL     OW 6419   4.219   5.338   2.195 -0.3736  0.0656 -0.4401
 2014SOL    HW1 6420   4.131   5.355   2.163  0.0774  0.1143 -1.6965
 2014SOL    HW2 6421   4.248   5.421   2.231 -0.1507  0.5738 -1.7467
 2015SOL     OW 6422   0.443   0.109   4.563  0.8236  0.2799 -0.1844
 2015SOL    HW1 6423   0.485   0.175   4.618 -0.0602 -1.0695  2.2185
 2015SOL    HW2 6424   0.350   0.117   4.581  0.6417 -1.1722 -0.3479
 2016SOL     OW 6425   4.784   6.770   3.211  0.5721  0.4855  0.2788
 2016SOL    HW1 6426   4.815   6.758   3.301 -0.3327 -1.5275  0.3795
 2016SOL    HW2 6427   4.690   6.752   3.216  0.1309  2.2390 -0.7677
 2017SOL     OW 6428   6.427   4.931   3.926 -0.5564  0.8985 -0.1003
 2017SOL    HW1 6429   6.360   4.963   3.986 -1.3475 -2.2418  0.8912
 2017SOL    HW2 6430   6.504   4.918   3.981 -1.0316 -1.1769  0.1929
 2018SOL     OW 6431   2.673   2.081   0.036  0.0192 -0.3285 -0.0827
 2018SOL    HW1 6432   2.636   2.007   0.083 -0.2333 -0.7128 -0.8679
 2018SOL    HW2 6433   2.761   2.052   0.010  1.4529  1.0315  2.8611
 2019SOL     OW 6434   4.116   4.922   4.073  0.4906 -0.1623 -0.0692
 2019SOL    HW1 6435   4.049   4.890   4.012  0.3028 -2.4774  1.2481
 2019SOL    HW2 6436   4.199   4.895   4.033  0.4340 -0.5037  0.0381
 2020SOL     OW 6437   6.604   1.007   3.069  0.0672  0.0286  0.2702
 2020SOL    HW1 6438   6.671   0.994   3.137  0.6101  1.1897 -0.0146
 2020SOL    HW2 6439   6.522   1.008   3.118  0.4938  1.4390  1.0243
 2021SOL     OW 6440   3.808   4.543   2.707 -0.0521  0.8210 -0.4508
 2021SOL    HW1 6441   3.784   4.486   2.780 -1.1104  3.4962  1.4810
 2021SOL    HW2 6442   3.859   4.488   2.648  3.3235 -0.9400  3.5946
 2022SOL     OW 6443   3.406   4.649   2.212  0.1618  0.5835 -0.1842
 2022SOL    HW1 6444   3.497   4.641   2.184  0.3310  0.7238  0.3327
 2022SOL    HW2 6445   3.370   4.560   2.203  0.1816  0.6402 -0.9400
 2023SOL     OW 6446   1.777   6.173   5.858 -0.0407  0.2198  0.1292
 2023SOL    HW1 6447   1.699   6.150   5.808  0.4600  0.3263 -0.7139
 2023SOL    HW2 6448   1.779   6.269   5.856  0.9978  0.1909 -1.2645
 2024SOL     OW 6449   0.932   0.089   1.400 -0.6004 -0.3237  1.0351
 2024SOL    HW1 6450   0.904   0.093   1.491  0.1788  0.4805  1.2512
 2024SOL    HW2 6451   0.897   0.169   1.360  0.7782  0.3563  1.1468
 2025SOL     OW 6452   1.784   5.773   0.167  0.1113  0.1241 -0.4645
 2025SOL    HW1 6453   1.711   5.830   0.142  0.5791  1.1332  0.3940
 2025SOL    HW2 6454   1.778   5.699   0.107 -1.2597  0.4759 -0.7955
 2026SOL     OW 6455   5.075   1.980   5.991 -0.1339  0.6130  0.0652
 2026SOL    HW1 6456   5.076   2.070   5.957  0.6809 -0.2774 -2.5445
 2026SOL    HW2 6457   5.165   1.964   6.019  0.0529  0.2038 -0.7405
 2027SOL     OW 6458   2.252   3.323   3.663 -0.1581 -0.5609  0.6489
 2027SOL    HW1 6459   2.247   3.307   3.568  0.7739 -2.6633  0.9094
 2027SOL    HW2 6460   2.162   3.342   3.689 -0.9028 -2.5689 -0.2684
 2028SOL     OW 6461   5.581   4.577   0.032 -0.5753 -0.5396 -0.9257
 2028SOL    HW1 6462   5.526   4.525   0.090  0.9232  0.7331  1.8203
 2028SOL    HW2 6463   5.557   4.668   0.052  1.4432 -0.0157 -0.7243
 2029SOL     OW 6464   5.286   6.797   3.924  0.2692 -0.3167  0.1884
 2029SOL    HW1 6465   5.248   6.884   3.912  0.6114 -0.1361  0.3742
 2029SOL    HW2 6466   5.262   6.772   4.014 -1.9940 -1.5164 -0.6580
 2030SOL     OW 6467   0.125   2.757   6.217  0.6416  0.1409 -0.2011
 2030SOL    HW1 6468   0.073   2.819   6.269 -0.3428 -0.1469 -0.8249
 2030SOL    HW2 6469   0.061   2.711   6.164  0.9553 -3.3099  2.0867
 2031SOL     OW 6470   3.224   1.257   3.121  0.5521 -0.4436 -0.0644
 2031SOL    HW1 6471   3.202   1.341   3.080  0.5068 -0.7590 -0.6869
 2031SOL    HW2 6472   3.319   1.263   3.137  0.8100 -0.8265 -1.3935
 2032SOL     OW 6473   0.039   3.366   5.208  0.3460  0.0790 -0.3978
 2032SOL    HW1 6474  -0.031   3.329   5.261 -0.6960  1.3243 -0.8454
 2032SOL    HW2 6475   0.024   3.461   5.211  2.9307  0.5354  0.7379
 2033SOL     OW 6476   0.749   2.262   2.133  0.3772  0.6268  0.3214
 2033SOL    HW1 6477   0.654   2.261   2.121  0.4535 -0.4126 -0.2720
 2033SOL    HW2 6478   0.783   2.292   2.048  0.5906  0.9644  0.5219
 2034SOL     OW 6479   4.167   5.257   1.421 -0.1728  0.1296  0.2347
 2034SOL    HW1 6480   4.132   5.342   1.446 -0.1749  0.8905 -2.1135
 2034SOL    HW2 6481   4.100   5.217   1.366  0.4176 -0.7639  0.1253
 2035SOL     OW 6482   6.333   0.812   2.197 -0.1208  0.1783  0.4010
 2035SOL    HW1 6483   6.256   0.783   2.246  0.2297 -0.1007  0.7915
 2035SOL    HW2 6484   6.306   0.893   2.155 -1.1238 -0.6797 -0.6992
 2036SOL     OW 6485   4.184   4.373   2.840 -0.0914  0.0860  0.2421
 2036SOL    HW1 6486   4.160   4.387   2.749 -0.4476  2.7230  0.6677
 2036SOL    HW2 6487   4.107   4.399   2.890  0.1748 -1.0897  1.3371
 2037SOL     OW 6488   4.153   0.653   2.371  0.4705 -0.2280 -0.5209
 2037SOL    HW1 6489   4.150   0.581   2.434  0.8073  0.8925  0.8187
 2037SOL    HW2 6490   4.233   0.701   2.393 -0.5111  1.4102 -0.3974
 2038SOL     OW 6491   0.177   0.260   4.878  0.4967 -0.1203 -0.1443
 2038SOL    HW1 6492   0.091   0.300   4.872  1.4825  2.0372 -0.8131
 2038SOL    HW2 6493   0.171   0.199   4.952 -1.3274  0.6389  0.3692
 2039SOL     OW 6494   0.523   1.642   4.611  0.1612 -0.0480 -0.3099
 2039SOL    HW1 6495   0.504   1.646   4.704  0.0636  0.2035 -0.3386
 2039SOL    HW2 6496   0.597   1.582   4.603 -0.0239 -0.3034 -0.1024
 2040SOL     OW 6497   1.860   2.590   4.678  0.2010 -0.0145 -0.9247
 2040SOL    HW1 6498   1.842   2.496   4.675  0.4531 -0.0512 -1.6634
 2040SOL    HW2 6499   1.842   2.621   4.588  0.7946  0.5079 -0.8748
 2041SOL     OW 6500   5.373   2.560   0.384  0.1091  0.2148  0.1876
 2041SOL    HW1 6501   5.375   2.633   0.446  0.7288  0.3106  0.0622
 2041SOL    HW2 6502   5.280   2.550   0.361 -0.0741  0.4575  0.7958
 2042SOL     OW 6503   3.148   2.030   0.653 -0.1413 -0.4752 -0.2742
 2042SOL    HW1 6504   3.133   2.122   0.672  0.1283 -0.4639 -0.1219
 2042SOL    HW2 6505   3.242   2.022   0.641  0.0321 -0.9994  1.2065
 2043SOL     OW 6506   3.730   1.182   0.915  0.1822 -0.2694 -0.2467
 2043SOL    HW1 6507   3.672   1.251   0.882 -1.5925 -0.6606  1.8169
 2043SOL    HW2 6508   3.797   1.230   0.963  1.2307  0.1487 -2.0232
 2044SOL     OW 6509   5.447   0.273   0.864 -0.2143 -0.4432 -0.0559
 2044SOL    HW1 6510   5.382   0.339   0.837  0.2234 -0.2069 -0.5637
 2044SOL    HW2 6511   5.403   0.189   0.851 -0.3715 -0.2905 -0.5501
 2045SOL     OW 6512   0.532   5.024   4.616  0.5341 -0.0246  0.1619
 2045SOL    HW1 6513   0.533   5.045   4.709 -0.8680  1.0838 -0.0429
 2045SOL    HW2 6514   0.507   4.932   4.613 -1.5255  0.4521  0.8590
 2046SOL     OW 6515   2.632   5.814   1.932 -0.2387 -0.2474 -0.0013
 2046SOL    HW1 6516   2.576   5.799   2.008 -0.4739  1.1037  0.1148
 2046SOL    HW2 6517   2.664   5.904   1.943  0.6591 -0.4392 -0.8969
 2047SOL     OW 6518   6.516   2.131   1.752  0.2116  0.4167  0.3718
 2047SOL    HW1 6519   6.594   2.079   1.734 -0.1883 -1.3651  3.2307
 2047SOL    HW2 6520   6.547   2.202   1.809  0.5745  2.9926 -2.7303
 2048SOL     OW 6521   3.545   1.646   4.800  0.0937  0.4552  0.2750
 2048SOL    HW1 6522   3.596   1.722   4.773 -2.5147  2.2879  0.1588
 2048SOL    HW2 6523   3.513   1.668   4.887  0.7303 -1.3508  1.0190
 2049SOL     OW 6524   5.344   1.157   0.747  0.2093  0.3353  0.1729
 2049SOL    HW1 6525   5.360   1.240   0.793  0.5637  1.6067 -2.0899
 2049SOL    HW2 6526   5.249   1.152   0.739  0.2439  1.9713 -2.0234
 2050SOL     OW 6527   1.511   3.372   4.446  0.2132 -0.3136 -0.3356
 2050SOL    HW1 6528   1.501   3.317   4.368 -0.2433 -1.3315  0.4153
 2050SOL    HW2 6529   1.552   3.315   4.510 -0.8435  0.0157  0.6686
 2051SOL     OW 6530   2.888   1.071   2.557  0.5785 -0.0683 -0.5081
 2051SOL    HW1 6531   2.883   1.057   2.652 -0.0003 -0.9996 -0.6535
 2051SOL    HW2 6532   2.950   1.142   2.546 -0.0580  0.7024  0.6265
 2052SOL     OW 6533   4.038   0.980   1.171  0.3415 -0.7428  0.1566
 2052SOL    HW1 6534   3.962   1.037   1.177  0.0382 -0.9331 -1.4339
 2052SOL    HW2 6535   4.003   0.897   1.138  0.9538 -1.4725  1.2952
 2053SOL     OW 6536   1.207   3.554   5.428 -0.2451 -0.2714 -0.2765
 2053SOL    HW1 6537   1.175   3.516   5.510  0.3105 -1.3503 -0.5331
 2053SOL    HW2 6538   1.243   3.479   5.380  0.8689  0.5869 -0.8254
 2054SOL     OW 6539   3.747   2.650   0.009  0.1539 -1.1756 -0.1146
 2054SOL    HW1 6540   3.706   2.736   0.012  2.3092  0.1288 -2.8124
 2054SOL    HW2 6541   3.712   2.603   0.084 -0.4584  2.3499  2.0120
 2055SOL     OW 6542   3.378   5.037   2.291 -0.5681 -0.6807 -0.0129
 2055SOL    HW1 6543   3.449   4.987   2.333  0.6797  1.1145  0.1291
 2055SOL    HW2 6544   3.423   5.095   2.229 -1.8586  0.8862  0.4539
 2056SOL     OW 6545   0.509   4.404   2.186 -0.5964 -0.0352 -0.1209
 2056SOL    HW1 6546   0.435   4.342   2.185  0.8590 -1.9001  1.3276
 2056SOL    HW2 6547   0.534   4.410   2.278  2.5732 -1.4349 -0.7585
 2057SOL     OW 6548   5.845   0.347   3.285 -0.0158  0.1195  0.2220
 2057SOL    HW1 6549   5.892   0.430   3.292 -1.1950  0.9065 -0.8742
 2057SOL    HW2 6550   5.888   0.290   3.349  1.6962  1.1422  0.0343
 2058SOL     OW 6551   6.839   0.414   6.050  0.1784  0.2573  0.1720
 2058SOL    HW1 6552   6.769   0.349   6.041  1.2560 -0.9689  0.3624
 2058SOL    HW2 6553   6.808   0.473   6.119 -0.8188 -0.0474  0.0052
 2059SOL     OW 6554   3.489   3.255   2.815 -0.6410  0.5559  0.1650
 2059SOL    HW1 6555   3.506   3.178   2.868 -1.8919  0.7577  0.8879
 2059SOL    HW2 6556   3.561   3.315   2.836  1.8940 -1.3443 -2.4138
 2060SOL     OW 6557   0.521   0.455   0.946 -0.1983  0.0027  0.0701
 2060SOL    HW1 6558   0.469   0.423   0.873 -1.3973  1.8015  0.0609
 2060SOL    HW2 6559   0.456   0.480   1.013  0.7335  0.6297  0.7708
 2061SOL     OW 6560   4.737   1.658   1.631 -0.3131  0.5393  0.2338
 2061SOL    HW1 6561   4.671   1.694   1.691  1.5319 -0.0625  2.7601
 2061SOL    HW2 6562   4.686   1.606   1.568 -2.3377  1.0788  1.3397
 2062SOL     OW 6563   6.730   4.848   1.218  0.2491  0.1364 -0.5450
 2062SOL    HW1 6564   6.746   4.925   1.271  0.5277  0.9361 -1.7514
 2062SOL    HW2 6565   6.696   4.783   1.279  2.7240  0.2331  1.0685
 2063SOL     OW 6566   1.494   1.055   4.277  0.2609  0.1147 -0.0688
 2063SOL    HW1 6567   1.548   1.087   4.204  0.3806  1.4484  0.5812
 2063SOL    HW2 6568   1.411   1.103   4.269  0.0729 -0.1353  0.3446
 2064SOL     OW 6569   5.625   4.274   2.299  0.3385  0.1436 -0.2261
 2064SOL    HW1 6570   5.684   4.231   2.237 -0.5934 -0.0259 -1.0260
 2064SOL    HW2 6571   5.537   4.255   2.265 -0.2441 -0.5804  1.5477
 2065SOL     OW 6572   6.719   6.153   1.550  0.1350  0.1630 -0.0563
 2065SOL    HW1 6573   6.651   6.151   1.482 -1.1842  1.7546  1.1475
 2065SOL    HW2 6574   6.772   6.229   1.528 -1.0265  1.4272  1.2926
 2066SOL     OW 6575   2.974   0.207   5.326 -0.1606  0.0433  0.2085
 2066SOL    HW1 6576   2.999   0.250   5.408 -0.2528 -0.6869  0.6263
 2066SOL    HW2 6577   3.022   0.124   5.327 -0.6802 -0.2627 -0.1668
 2067SOL     OW 6578   4.389   2.402   4.406  0.0738 -0.2939  0.2781
 2067SOL    HW1 6579   4.410   2.407   4.499  0.0003  0.6501  0.2566
 2067SOL    HW2 6580   4.298   2.432   4.400 -0.6962 -2.4813  0.1437
 2068SOL     OW 6581   5.987   3.922   3.268  0.1160  0.0370 -0.1137
 2068SOL    HW1 6582   5.991   3.871   3.187  0.2118 -0.2409  0.0627
 2068SOL    HW2 6583   6.078   3.927   3.297 -0.0026 -0.5216  0.3762
 2069SOL     OW 6584   4.656   2.623   5.033 -0.6537 -0.3022  0.5099
 2069SOL    HW1 6585   4.699   2.584   4.957  0.0374 -0.7447  1.1250
 2069SOL    HW2 6586   4.582   2.565   5.052 -0.6975 -0.3099  0.3202
 2070SOL     OW 6587   2.516   3.188   4.417 -0.1516  0.0037 -0.4728
 2070SOL    HW1 6588   2.585   3.253   4.418  1.4071 -1.5864 -0.1495
 2070SOL    HW2 6589   2.484   3.188   4.327 -0.0248  1.0301 -0.5263
 2071SOL     OW 6590   3.383   4.761   0.964 -0.5643  0.2912  0.1117
 2071SOL    HW1 6591   3.363   4.809   0.884 -2.1956 -1.6377 -0.7112
 2071SOL    HW2 6592   3.383   4.828   1.032 -1.4068  1.6637 -1.1680
 2072SOL     OW 6593   0.927   3.468   0.346 -0.0845 -0.0694  0.4313
 2072SOL    HW1 6594   0.894   3.516   0.270 -0.2385  0.8999  1.0851
 2072SOL    HW2 6595   1.022   3.478   0.342  0.0499 -1.5467 -0.6024
 2073SOL     OW 6596   3.426   5.159   4.067 -0.0248 -0.3107  0.3644
 2073SOL    HW1 6597   3.451   5.240   4.111  0.6555 -1.1717  1.6289
 2073SOL    HW2 6598   3.451   5.172   3.976  1.3455  0.3911  0.8195
 2074SOL     OW 6599   5.745   0.433   0.973  0.2363  0.1903 -0.3342
 2074SOL    HW1 6600   5.702   0.423   1.058  0.0340 -0.1157 -0.4714
 2074SOL    HW2 6601   5.731   0.525   0.950  0.2963  0.2741 -0.0338
 2075SOL     OW 6602   1.948   2.649   5.758  0.6498  0.3715  0.0605
 2075SOL    HW1 6603   1.946   2.671   5.665  0.1712  0.1975  0.0314
 2075SOL    HW2 6604   1.858   2.624   5.780  0.6621  0.8294  0.6689
 2076SOL     OW 6605   4.110   6.572   1.067  0.1410 -0.2451  0.6503
 2076SOL    HW1 6606   4.022   6.601   1.046  1.0531  2.5026  0.1491
 2076SOL    HW2 6607   4.137   6.519   0.991 -0.3589  0.6415 -0.1606
 2077SOL     OW 6608   1.962   1.693   3.254 -0.0153 -1.1045  0.7362
 2077SOL    HW1 6609   2.025   1.764   3.269  0.4716 -1.1246 -0.9647
 2077SOL    HW2 6610   1.881   1.738   3.231  0.2970 -1.0802 -0.3545
 2078SOL     OW 6611   0.723   0.823   4.644  0.2126  0.1150  0.3841
 2078SOL    HW1 6612   0.713   0.769   4.565  1.8169  1.8588 -1.0952
 2078SOL    HW2 6613   0.647   0.799   4.698  0.0640 -2.5164 -0.7928
 2079SOL     OW 6614   4.383   4.522   6.248  0.2222 -0.6241 -0.2650
 2079SOL    HW1 6615   4.295   4.489   6.230  0.1297 -0.0515 -0.9313
 2079SOL    HW2 6616   4.368   4.611   6.279  0.4608 -1.1957  1.5742
 2080SOL     OW 6617   2.372   5.780   3.448  0.1514  0.4946 -0.4441
 2080SOL    HW1 6618   2.462   5.746   3.445  0.2364  0.7043 -0.3192
 2080SOL    HW2 6619   2.380   5.865   3.493  0.0090  0.8880 -1.1444
 2081SOL     OW 6620   0.658   1.851   2.630 -0.2315 -0.1721 -0.1522
 2081SOL    HW1 6621   0.741   1.804   2.621  0.2698 -0.1152  3.0879
 2081SOL    HW2 6622   0.682   1.943   2.631 -0.6142 -0.0462 -1.2884
 2082SOL     OW 6623   6.789   2.167   5.904  0.4848  0.3242  0.0495
 2082SOL    HW1 6624   6.780   2.122   5.988  1.1287  1.2163  0.6195
 2082SOL    HW2 6625   6.706   2.151   5.859 -0.6386  1.3455  1.6186
 2083SOL     OW 6626   5.458   5.919   2.345 -0.1250 -0.2065 -0.6318
 2083SOL    HW1 6627   5.408   5.987   2.302  0.4462  0.0626 -0.8730
 2083SOL    HW2 6628   5.394   5.850   2.364 -1.2573  1.3904  1.8421
 2084SOL     OW 6629   1.913   2.269   6.440 -0.1584 -0.0765  0.5511
 2084SOL    HW1 6630   1.860   2.232   6.369  1.4039  0.7645 -1.1321
 2084SOL    HW2 6631   1.877   2.357   6.453  0.7886  0.5180 -0.6340
 2085SOL     OW 6632   2.543   6.064   0.722  0.5616 -0.0686  0.3388
 2085SOL    HW1 6633   2.612   6.007   0.756  1.0909  0.8358  0.7869
 2085SOL    HW2 6634   2.554   6.061   0.627  1.8380  0.8185  0.4344
 2086SOL     OW 6635   3.179   6.249   5.171  0.2446 -0.2130 -0.0211
 2086SOL    HW1 6636   3.165   6.288   5.085 -2.2146 -0.1848  0.3429
 2086SOL    HW2 6637   3.105   6.279   5.224  0.0218 -2.6995  1.2196
 2087SOL     OW 6638   3.488   5.518   3.651 -0.2091 -0.4929 -0.3120
 2087SOL    HW1 6639   3.421   5.504   3.584  0.7721 -0.6975 -1.2840
 2087SOL    HW2 6640   3.545   5.585   3.613  0.4718 -0.7573  0.2307
 2088SOL     OW 6641   0.669   6.633   4.339  0.0614 -0.3987  0.1256
 2088SOL    HW1 6642   0.750   6.683   4.341 -0.9943  1.4018  0.1816
 2088SOL    HW2 6643   0.662   6.595   4.427  0.3438  0.2945  0.4521
 2089SOL     OW 6644   3.027   5.067   3.301 -0.1185 -0.5709 -0.7021
 2089SOL    HW1 6645   3.017   5.106   3.388 -0.8558 -0.6776 -0.7348
 2089SOL    HW2 6646   3.099   5.116   3.261 -0.6054  0.3272 -0.5038
 2090SOL     OW 6647   0.426   2.847   3.268 -0.6256  0.3981 -0.3191
 2090SOL    HW1 6648   0.364   2.918   3.283 -3.1957 -1.8261  0.4796
 2090SOL    HW2 6649   0.418   2.826   3.175 -1.8025 -0.4440 -0.0485
 2091SOL     OW 6650   2.499   1.755   0.929  0.3682  0.1838  0.7119
 2091SOL    HW1 6651   2.488   1.807   0.850  0.6232  0.9843  1.1826
 2091SOL    HW2 6652   2.503   1.820   1.000 -1.3987 -0.5672  1.5763
 2092SOL     OW 6653   0.053   5.369   4.489  0.3354  0.2057 -0.0455
 2092SOL    HW1 6654   0.039   5.274   4.492  0.1533  0.1358 -1.8573
 2092SOL    HW2 6655   0.054   5.396   4.581  1.2573 -1.6594  0.5461
 2093SOL     OW 6656   1.491   0.485   4.007 -0.2165 -0.0298 -0.0695
 2093SOL    HW1 6657   1.551   0.414   4.030 -0.8362 -0.0971  1.4514
 2093SOL    HW2 6658   1.408   0.460   4.047 -0.6448  1.1837 -0.1731
 2094SOL     OW 6659   2.664   3.965   6.660 -0.2289 -0.3678  0.2236
 2094SOL    HW1 6660   2.583   3.950   6.709 -0.4594 -1.3104 -0.4337
 2094SOL    HW2 6661   2.712   4.029   6.713  0.3455 -2.6503  2.6270
 2095SOL     OW 6662   4.527   6.065   5.151 -0.2300  0.3517  0.1855
 2095SOL    HW1 6663   4.534   6.014   5.071  0.1893  2.5448 -1.2623
 2095SOL    HW2 6664   4.553   6.005   5.221  2.8488 -0.7165 -1.6939
 2096SOL     OW 6665   2.496   4.780   0.413  0.2096  0.0171  0.5980
 2096SOL    HW1 6666   2.508   4.782   0.508 -0.4779  0.5355  0.6869
 2096SOL    HW2 6667   2.549   4.706   0.383  2.1082  1.0859  1.1433
 2097SOL     OW 6668   3.050   0.983   1.852 -0.1470  0.2842  0.0883
 2097SOL    HW1 6669   3.041   1.030   1.768  0.0080 -0.4373 -0.3441
 2097SOL    HW2 6670   3.091   0.900   1.828 -2.2369 -0.9327  0.5478
 2098SOL     OW 6671   5.070   3.147   1.814 -0.2918  0.4049 -0.9309
 2098SOL    HW1 6672   5.030   3.210   1.753  0.3554 -0.3225 -2.1535
 2098SOL    HW2 6673   5.038   3.062   1.783 -0.2770  0.0496  0.0175
 2099SOL     OW 6674   1.020   0.294   0.098  0.4111 -0.1691 -0.5210
 2099SOL    HW1 6675   1.115   0.279   0.106  0.2886 -2.6002 -2.3318
 2099SOL    HW2 6676   0.983   0.251   0.175  0.7262 -0.0969 -0.3254
 2100SOL     OW 6677   1.956   5.383   5.144 -0.1604 -0.2337 -0.3790
 2100SOL    HW1 6678   1.973   5.350   5.232 -0.7983 -0.0226 -0.1738
 2100SOL    HW2 6679   1.863   5.405   5.144 -0.4761 -1.4637 -1.5027
 2101SOL     OW 6680   6.580   0.635   5.268 -0.0330  0.0556 -0.1893
 2101SOL    HW1 6681   6.566   0.713   5.322  0.6311 -0.1302  0.2661
 2101SOL    HW2 6682   6.671   0.642   5.239  0.5124 -1.2776  1.0814
 2102SOL     OW 6683   6.518   1.295   5.191 -0.0384 -0.1393  0.3157
 2102SOL    HW1 6684   6.536   1.367   5.130  0.7620 -0.6213 -0.0255
 2102SOL    HW2 6685   6.436   1.320   5.234  0.6545  1.3822  0.8083
 2103SOL     OW 6686   6.801   3.301   2.273 -0.0998  0.5508 -0.2601
 2103SOL    HW1 6687   6.747   3.310   2.194 -0.4765  1.5329  0.0897
 2103SOL    HW2 6688   6.881   3.258   2.243 -0.7321 -0.1879 -0.9446
 2104SOL     OW 6689   3.473   1.570   2.857  0.2047  0.5931 -0.0839
 2104SOL    HW1 6690   3.477   1.665   2.871  1.1357  0.8613 -1.8700
 2104SOL    HW2 6691   3.461   1.560   2.762  1.1809 -1.0798 -0.0709
 2105SOL     OW 6692   1.197   5.603   3.428  0.2526 -0.2541  0.3900
 2105SOL    HW1 6693   1.175   5.582   3.337  0.9226 -1.8719  0.5565
 2105SOL    HW2 6694   1.115   5.633   3.466  0.0058  0.6617 -0.7857
 2106SOL     OW 6695   5.370   4.155   5.078 -0.2663 -0.3768  0.0494
 2106SOL    HW1 6696   5.296   4.102   5.108  1.0365 -2.3624 -0.0281
 2106SOL    HW2 6697   5.437   4.090   5.055  0.3533  1.1739 -3.0610
 2107SOL     OW 6698   1.826   4.269   0.531 -0.4303  0.0083 -0.2063
 2107SOL    HW1 6699   1.838   4.313   0.615  0.5403 -0.6851  0.0349
 2107SOL    HW2 6700   1.806   4.179   0.553  0.2252 -0.2708 -0.7142
 2108SOL     OW 6701   0.560   1.375   6.025 -0.4398 -0.3677  0.0117
 2108SOL    HW1 6702   0.616   1.398   5.951 -1.9804 -0.0918 -1.0983
 2108SOL    HW2 6703   0.588   1.287   6.049  0.4824 -0.2272 -0.5085
 2109SOL     OW 6704   5.040   5.922   5.271  0.2602 -0.5756 -0.4825
 2109SOL    HW1 6705   5.071   6.013   5.266  2.2313 -1.1321  0.6149
 2109SOL    HW2 6706   5.052   5.888   5.183  2.3682 -0.5874 -0.2390
 2110SOL     OW 6707   4.766   6.748   0.404  0.1498  0.0301 -0.2009
 2110SOL    HW1 6708   4.776   6.668   0.455  2.3208  0.1429 -0.3434
 2110SOL    HW2 6709   4.856   6.776   0.387 -0.5668  1.9759 -0.9806
 2111SOL     OW 6710   6.125   5.963   2.137  0.4678 -0.1912  0.8503
 2111SOL    HW1 6711   6.198   5.909   2.105 -0.7490 -0.4035 -1.8860
 2111SOL    HW2 6712   6.057   5.900   2.160 -0.3915  0.0733 -0.8489
 2112SOL     OW 6713   3.035   4.833   2.671  0.2056 -0.0213 -0.3474
 2112SOL    HW1 6714   3.083   4.877   2.741  1.0309 -0.1626 -0.8032
 2112SOL    HW2 6715   3.066   4.876   2.591 -0.3482 -0.1980 -0.6644
 2113SOL     OW 6716   3.114   2.659   4.524 -0.1301  0.0947 -0.1507
 2113SOL    HW1 6717   3.134   2.612   4.605 -0.3864 -0.3025 -0.3167
 2113SOL    HW2 6718   3.107   2.750   4.551  0.6241  0.0781  0.1330
 2114SOL     OW 6719   6.198   2.627   5.577  0.9518 -0.9644 -0.0781
 2114SOL    HW1 6720   6.205   2.649   5.484  2.2843 -1.4096 -0.0982
 2114SOL    HW2 6721   6.162   2.706   5.617 -1.2572 -1.3394 -1.1821
 2115SOL     OW 6722   1.819   4.597   4.830 -0.2167  0.2686  0.0499
 2115SOL    HW1 6723   1.828   4.597   4.926  0.2140  1.7036  0.0244
 2115SOL    HW2 6724   1.909   4.596   4.798 -0.3501  0.6924 -0.3395
 2116SOL     OW 6725   2.816   4.624   0.177  0.5885 -0.5531 -0.5190
 2116SOL    HW1 6726   2.895   4.595   0.132  0.7565 -2.9627  1.1220
 2116SOL    HW2 6727   2.744   4.593   0.123  0.7866 -0.7197 -0.6871
 2117SOL     OW 6728   4.411   1.671   1.924 -0.2895 -0.5422  0.0674
 2117SOL    HW1 6729   4.481   1.708   1.977 -0.3766  0.9828 -0.8278
 2117SOL    HW2 6730   4.437   1.580   1.908  1.5833  0.0466 -0.4005
 2118SOL     OW 6731   2.592   0.893   1.903  0.4553  0.4319  0.2798
 2118SOL    HW1 6732   2.564   0.902   1.812  0.1562 -1.0826  0.2129
 2118SOL    HW2 6733   2.626   0.980   1.925 -1.5033  1.4869 -0.5650
 2119SOL     OW 6734   3.547   5.447   3.364 -0.9653 -0.2148 -0.1067
 2119SOL    HW1 6735   3.488   5.376   3.339 -0.1137 -0.8446 -0.3460
 2119SOL    HW2 6736   3.634   5.407   3.367 -0.7485  0.2901  1.9515
 2120SOL     OW 6737   0.592   3.580   0.995 -0.2493 -0.2867  0.2054
 2120SOL    HW1 6738   0.581   3.648   1.062  1.4986  1.9967 -1.6257
 2120SOL    HW2 6739   0.558   3.620   0.915 -1.2872 -2.5180 -0.5442
 2121SOL     OW 6740   6.355   0.575   6.305  0.0898 -0.3324  0.3101
 2121SOL    HW1 6741   6.287   0.510   6.321  0.1775 -0.7668 -0.9222
 2121SOL    HW2 6742   6.425   0.526   6.262 -0.8030  0.9134 -2.9064
 2122SOL     OW 6743   1.627   0.298   5.904  0.6479 -0.2247 -0.4957
 2122SOL    HW1 6744   1.670   0.333   5.982  0.8515 -2.4940  0.5050
 2122SOL    HW2 6745   1.534   0.320   5.916  0.8125  0.2849 -0.1087
 2123SOL     OW 6746   4.603   3.950   5.448 -0.4187  0.6829  0.3374
 2123SOL    HW1 6747   4.649   3.949   5.532  0.6398  2.2399 -0.1861
 2123SOL    HW2 6748   4.544   4.025   5.453 -1.1588  0.1298  0.0874
 2124SOL     OW 6749   6.400   6.542   1.002 -0.8121 -0.3650 -0.0692
 2124SOL    HW1 6750   6.462   6.576   1.066  0.7942 -1.8490 -0.7619
 2124SOL    HW2 6751   6.420   6.590   0.921 -0.4896 -0.9000 -0.3128
 2125SOL     OW 6752   6.844   4.922   5.979  0.0502  0.1535 -0.3085
 2125SOL    HW1 6753   6.901   4.855   5.941  3.4222  2.0139  1.0841
 2125SOL    HW2 6754   6.890   5.004   5.964 -2.3410  1.8092  0.9051
 2126SOL     OW 6755   0.334   3.021   5.392 -0.2782 -0.3809  0.2151
 2126SOL    HW1 6756   0.351   2.959   5.464 -1.5379  0.2041  1.0512
 2126SOL    HW2 6757   0.245   3.052   5.408  0.3510  1.7295 -0.1181
 2127SOL     OW 6758   4.054   5.588   5.768 -0.0174 -0.0108 -0.0275
 2127SOL    HW1 6759   4.037   5.680   5.750 -1.2474 -0.1383  0.3793
 2127SOL    HW2 6760   4.095   5.588   5.855  3.0550  0.3659 -1.3757
 2128SOL     OW 6761   6.132   4.534   4.686 -0.1426 -0.4476  0.0006
 2128SOL    HW1 6762   6.127   4.629   4.682 -1.3075 -0.5506 -1.6975
 2128SOL    HW2 6763   6.138   4.515   4.780  3.2260  1.3752  0.3220
 2129SOL     OW 6764   5.467   3.945   0.847 -0.3910 -0.0251  0.1442
 2129SOL    HW1 6765   5.411   3.870   0.862  0.0010 -0.5276 -0.8080
 2129SOL    HW2 6766   5.553   3.907   0.828  0.6343  0.7367  2.7992
 2130SOL     OW 6767   4.361   2.429   6.773 -0.2944 -0.2442  0.0386
 2130SOL    HW1 6768   4.378   2.339   6.744 -1.6593 -1.1382  1.7811
 2130SOL    HW2 6769   4.274   2.424   6.814 -0.4184  1.8973  0.1201
 2131SOL     OW 6770   3.864   2.535   3.422 -0.1449  0.2005 -0.4268
 2131SOL    HW1 6771   3.899   2.573   3.503 -2.3271  0.9325  0.2541
 2131SOL    HW2 6772   3.941   2.517   3.368  1.3016  0.7301  1.3580
 2132SOL     OW 6773   5.592   0.298   4.804 -0.1900 -0.4430  0.0794
 2132SOL    HW1 6774   5.687   0.283   4.805 -0.4495 -2.2854  0.4516
 2132SOL    HW2 6775   5.561   0.248   4.728 -1.0347 -1.0978  0.8456
 2133SOL     OW 6776   1.282   3.283   5.387  0.3551 -0.4720  0.5625
 2133SOL    HW1 6777   1.298   3.235   5.469 -1.1691 -2.4145 -0.1804
 2133SOL    HW2 6778   1.192   3.260   5.364 -0.0983  1.9835 -0.4375
 2134SOL     OW 6779   5.724   1.174   0.447  0.0345 -0.0646 -0.2648
 2134SOL    HW1 6780   5.742   1.213   0.361  0.7497 -0.8974 -0.5028
 2134SOL    HW2 6781   5.688   1.246   0.499 -1.0792  0.2823 -1.4678
 2135SOL     OW 6782   1.802   2.814   1.606 -0.2876  0.0689  0.0046
 2135SOL    HW1 6783   1.737   2.751   1.636 -0.8265 -0.4434 -2.0498
 2135SOL    HW2 6784   1.885   2.765   1.608 -0.5369 -0.3972 -0.5896
 2136SOL     OW 6785   2.215   0.948   2.638  0.0769 -0.0995  0.0108
 2136SOL    HW1 6786   2.223   0.958   2.733  1.6978  0.3517 -0.1274
 2136SOL    HW2 6787   2.182   1.033   2.608  0.4430  0.0775  0.0992
 2137SOL     OW 6788   2.475   3.410   3.823  0.0620 -0.4735  0.5454
 2137SOL    HW1 6789   2.402   3.374   3.772  0.5697 -1.5770  0.5792
 2137SOL    HW2 6790   2.433   3.465   3.889 -0.7361 -1.0573  0.5308
 2138SOL     OW 6791   4.952   3.258   2.656  0.0443  0.3223 -0.3688
 2138SOL    HW1 6792   4.895   3.313   2.710 -1.3139 -1.9841  0.6568
 2138SOL    HW2 6793   4.892   3.203   2.606  1.3436 -1.2523 -0.2691
 2139SOL     OW 6794   1.392   3.992   6.488 -0.2788 -0.0422  0.1662
 2139SOL    HW1 6795   1.364   3.917   6.541 -0.7881 -0.6791 -0.9694
 2139SOL    HW2 6796   1.323   4.057   6.501 -0.9022 -0.5660 -0.4667
 2140SOL     OW 6797   5.846   1.586   5.422 -0.5891 -0.0659  0.1322
 2140SOL    HW1 6798   5.814   1.675   5.407  2.8745  0.9217 -2.7394
 2140SOL    HW2 6799   5.862   1.582   5.517 -1.2694  2.2096  0.4079
 2141SOL     OW 6800   3.326   4.605   5.944 -0.1151  0.1808 -0.2372
 2141SOL    HW1 6801   3.248   4.551   5.956  1.0656 -1.8035 -1.0812
 2141SOL    HW2 6802   3.333   4.617   5.849  0.7526  0.0901 -0.1956
 2142SOL     OW 6803   5.320   5.992   6.582 -0.2398 -0.1019 -0.6055
 2142SOL    HW1 6804   5.366   6.074   6.599  0.9213 -0.4723 -1.8282
 2142SOL    HW2 6805   5.358   5.929   6.643  2.4718 -0.9264 -2.9575
 2143SOL     OW 6806   3.717   5.705   3.590 -0.0669  0.0814 -0.5810
 2143SOL    HW1 6807   3.775   5.771   3.552  0.5436 -0.4326 -0.5572
 2143SOL    HW2 6808   3.764   5.623   3.579 -0.7442 -0.3313 -0.4507
 2144SOL     OW 6809   4.131   3.916   4.031 -0.1310 -0.3141 -0.0172
 2144SOL    HW1 6810   4.149   3.970   3.954  0.2423  1.3808  1.2126
 2144SOL    HW2 6811   4.189   3.840   4.021  0.1792  0.0586 -1.2068
 2145SOL     OW 6812   2.166   4.364   3.247  0.3763 -0.3577 -0.5076
 2145SOL    HW1 6813   2.243   4.313   3.224  0.2455 -0.7400 -0.1157
 2145SOL    HW2 6814   2.135   4.324   3.329  0.7309  0.8292  0.2395
 2146SOL     OW 6815   0.819   5.194   0.311  0.3017  0.0245  0.1010
 2146SOL    HW1 6816   0.741   5.216   0.260 -0.1913  1.7402  1.4938
 2146SOL    HW2 6817   0.786   5.179   0.400  1.3555 -1.1124  0.3366
 2147SOL     OW 6818   3.910   4.134   2.662  0.0760 -0.2569  0.3549
 2147SOL    HW1 6819   3.898   4.194   2.589 -0.1045 -0.5719  0.1212
 2147SOL    HW2 6820   3.968   4.066   2.629 -0.1077 -0.4685  0.4622
 2148SOL     OW 6821   1.884   5.454   2.304 -0.2155  0.2188 -0.2729
 2148SOL    HW1 6822   1.913   5.414   2.387  2.7474  1.4263 -0.5998
 2148SOL    HW2 6823   1.919   5.396   2.236  2.5795  2.1886 -0.7019
 2149SOL     OW 6824   3.015   0.342   3.297  0.6365 -0.3650  0.3409
 2149SOL    HW1 6825   3.086   0.389   3.340  0.6408  0.0247 -0.0736
 2149SOL    HW2 6826   2.970   0.410   3.246  0.1497 -0.6626  0.3676
 2150SOL     OW 6827   0.800   2.215   4.417 -0.3359 -0.3493 -0.1149
 2150SOL    HW1 6828   0.815   2.310   4.425 -0.8442 -0.2894  0.1792
 2150SOL    HW2 6829   0.829   2.179   4.500 -3.4193 -0.0082  1.2448
 2151SOL     OW 6830   3.765   0.086   1.041 -0.0344  0.3385 -0.5779
 2151SOL    HW1 6831   3.692   0.050   1.092 -0.5900 -0.1830 -1.7066
 2151SOL    HW2 6832   3.724   0.128   0.966  0.7894  0.7669 -0.8041
 2152SOL     OW 6833   2.594   1.462   6.619 -0.5387 -0.2299  0.0406
 2152SOL    HW1 6834   2.673   1.490   6.665 -1.2278  0.6343  0.7439
 2152SOL    HW2 6835   2.578   1.530   6.554  0.2385 -1.2780 -1.3114
 2153SOL     OW 6836   2.250   2.857   2.197 -0.2568 -0.2878  0.4552
 2153SOL    HW1 6837   2.245   2.876   2.103 -0.3042 -0.1586  0.4837
 2153SOL    HW2 6838   2.165   2.884   2.232 -0.0791  0.0808  0.6081
 2154SOL     OW 6839   3.065   5.116   3.898  0.0415  0.2296  0.4183
 2154SOL    HW1 6840   3.134   5.051   3.910  0.4923  0.6664  0.2015
 2154SOL    HW2 6841   3.050   5.119   3.804  0.2931  0.7150  0.3900
 2155SOL     OW 6842   5.913   1.261   1.691  0.0038 -0.0933  0.0608
 2155SOL    HW1 6843   5.911   1.350   1.655  0.4004 -0.2161 -0.2741
 2155SOL    HW2 6844   5.970   1.268   1.768  0.3380 -0.1347 -0.1820
 2156SOL     OW 6845   4.119   6.758   4.213 -0.3649 -0.0203  0.0064
 2156SOL    HW1 6846   4.045   6.799   4.168 -0.2344  0.9137  0.5939
 2156SOL    HW2 6847   4.156   6.697   4.150 -1.0019  0.2790 -0.6650
 2157SOL     OW 6848   6.811   3.662   4.446 -0.0389 -0.1982  0.1378
 2157SOL    HW1 6849   6.816   3.603   4.372 -0.0181 -0.5175  0.3907
 2157SOL    HW2 6850   6.857   3.741   4.418  0.0289 -0.3437 -0.1597
 2158SOL     OW 6851   6.109   2.422   6.340 -0.3085 -0.6203  0.2504
 2158SOL    HW1 6852   6.133   2.458   6.255 -0.3386 -1.7102 -0.2444
 2158SOL    HW2 6853   6.136   2.330   6.336 -0.8809 -0.8502  1.1826
 2159SOL     OW 6854   0.687   3.702   4.329 -0.5474  0.6092 -0.0429
 2159SOL    HW1 6855   0.682   3.752   4.247 -1.1680 -0.0358 -0.4090
 2159SOL    HW2 6856   0.623   3.743   4.386 -2.3954 -0.8696 -0.9723
 2160SOL     OW 6857   0.920   2.028   3.177  0.5333  0.2838 -0.6150
 2160SOL    HW1 6858   0.918   1.991   3.266  1.4206  0.9540 -0.3032
 2160SOL    HW2 6859   0.833   2.065   3.164  0.9137  1.6762  0.6353
 2161SOL     OW 6860   6.050   6.160   5.494 -0.3284 -0.0787 -0.0395
 2161SOL    HW1 6861   6.089   6.125   5.574  0.4318  0.2865 -0.2394
 2161SOL    HW2 6862   6.038   6.083   5.438 -0.9994 -0.3542  0.4780
 2162SOL     OW 6863   4.870   4.807   0.142 -0.2471  0.2182 -0.4494
 2162SOL    HW1 6864   4.959   4.783   0.167 -0.0265 -0.3692 -1.7302
 2162SOL    HW2 6865   4.830   4.837   0.223  0.8618 -0.2820  0.3118
 2163SOL     OW 6866   3.686   6.346   2.014  0.0665 -0.4266 -0.4214
 2163SOL    HW1 6867   3.660   6.319   1.926 -1.0787  2.0403 -0.9478
 2163SOL    HW2 6868   3.760   6.405   2.000  0.0480 -0.2262  0.2752
 2164SOL     OW 6869   5.277   1.058   2.276 -0.1152 -0.1490  0.7790
 2164SOL    HW1 6870   5.241   1.061   2.365 -0.8990 -0.0515  0.4628
 2164SOL    HW2 6871   5.294   0.965   2.261  0.8821 -0.0751  1.3628
 2165SOL     OW 6872   2.792   1.178   6.419  0.4105  0.2605 -0.2637
 2165SOL    HW1 6873   2.699   1.164   6.434  0.5325 -0.8754 -0.4523
 2165SOL    HW2 6874   2.807   1.148   6.330  0.9960  0.2354 -0.1635
 2166SOL     OW 6875   4.437   2.731   1.917  0.0238 -0.1383 -0.3667
 2166SOL    HW1 6876   4.346   2.710   1.934  0.2835 -0.0371  1.2989
 2166SOL    HW2 6877   4.447   2.718   1.823 -1.0880 -2.5341 -0.2442
 2167SOL     OW 6878   4.872   4.066   1.979  0.5669 -0.3196  0.5140
 2167SOL    HW1 6879   4.859   4.118   2.058  0.3209  1.0752 -0.4104
 2167SOL    HW2 6880   4.926   4.121   1.922 -0.3042 -0.7407 -0.7834
 2168SOL     OW 6881   4.583   0.580   2.682 -0.0282 -0.2653  0.2416
 2168SOL    HW1 6882   4.574   0.493   2.720 -0.9495 -0.1938  0.2124
 2168SOL    HW2 6883   4.651   0.623   2.735 -0.5643 -0.5197  1.1480
 2169SOL     OW 6884   0.577   4.661   5.462 -0.2183  0.0223 -0.1104
 2169SOL    HW1 6885   0.580   4.618   5.547  1.0789  2.2919  1.0783
 2169SOL    HW2 6886   0.505   4.723   5.468 -0.5984 -0.3174 -0.9677
 2170SOL     OW 6887   3.839   6.539   3.510 -0.0676  0.0230 -0.0418
 2170SOL    HW1 6888   3.785   6.598   3.457 -0.2500 -0.1288 -0.0263
 2170SOL    HW2 6889   3.777   6.475   3.545  0.4149 -1.4737 -1.7787
 2171SOL     OW 6890   1.206   4.891   6.557  0.0198  0.0560 -0.4667
 2171SOL    HW1 6891   1.220   4.985   6.566 -1.0839  0.1672  0.4095
 2171SOL    HW2 6892   1.111   4.882   6.545  0.1326 -0.9277 -0.7017
 2172SOL     OW 6893   3.796   5.651   6.329  0.2977  0.0412 -0.0866
 2172SOL    HW1 6894   3.756   5.733   6.300  0.2564  0.4144  0.9706
 2172SOL    HW2 6895   3.885   5.653   6.295 -0.1681 -0.2016 -1.3741
 2173SOL     OW 6896   2.741   0.387   2.919 -0.1621  0.0530 -0.5491
 2173SOL    HW1 6897   2.726   0.301   2.879 -2.2479 -0.0607  0.3559
 2173SOL    HW2 6898   2.741   0.448   2.845  1.8715 -0.7289 -1.2589
 2174SOL     OW 6899   0.075   4.741   3.264 -0.1774 -0.3432  0.7730
 2174SOL    HW1 6900   0.058   4.821   3.314  0.0399  1.1303 -1.3592
 2174SOL    HW2 6901   0.156   4.760   3.217 -0.4310 -1.5882 -0.2023
 2175SOL     OW 6902   6.097   3.775   5.162 -0.2503 -0.3349  0.2153
 2175SOL    HW1 6903   6.072   3.722   5.086  1.5943  2.2197 -2.4224
 2175SOL    HW2 6904   6.038   3.850   5.159  1.1372  0.7951 -0.0265
 2176SOL     OW 6905   0.301   1.036   0.373 -0.4516  0.2018 -0.8770
 2176SOL    HW1 6906   0.221   1.087   0.358 -1.1266 -0.3290  0.6708
 2176SOL    HW2 6907   0.272   0.945   0.368 -0.5951 -0.0381  2.3422
 2177SOL     OW 6908   0.612   4.150   6.779  0.6339 -0.3358  0.3614
 2177SOL    HW1 6909   0.629   4.130   6.871  2.7892 -1.4033 -0.2053
 2177SOL    HW2 6910   0.518   4.136   6.768 -0.2908  2.6423  3.0317
 2178SOL     OW 6911   5.779   0.811   3.443  0.3473 -0.5862 -0.0135
 2178SOL    HW1 6912   5.804   0.875   3.376 -0.9357 -0.9806 -0.9146
 2178SOL    HW2 6913   5.726   0.861   3.505 -0.4683 -0.7055 -0.5983
 2179SOL     OW 6914   6.434   6.259   4.685 -0.3326 -0.3514  0.2444
 2179SOL    HW1 6915   6.420   6.304   4.602 -1.2010 -0.0124  0.5628
 2179SOL    HW2 6916   6.395   6.172   4.672  1.6103 -1.1641 -0.4717
 2180SOL     OW 6917   4.812   1.629   4.791  0.0796 -0.1508  0.8452
 2180SOL    HW1 6918   4.810   1.554   4.731  1.1720  1.1936 -0.9846
 2180SOL    HW2 6919   4.743   1.687   4.760 -1.0485 -0.5340  2.5155
 2181SOL     OW 6920   3.836   5.868   3.391  0.1721 -0.3360  0.4809
 2181SOL    HW1 6921   3.911   5.857   3.449  0.0613  1.5338  1.0409
 2181SOL    HW2 6922   3.851   5.952   3.348  0.0083 -1.4335 -1.8951
 2182SOL     OW 6923   5.438   1.059   4.789 -0.0306  0.2430  0.2651
 2182SOL    HW1 6924   5.496   1.133   4.805  0.3426  0.4404 -1.8234
 2182SOL    HW2 6925   5.351   1.098   4.778 -0.0218  0.2608  0.2591
 2183SOL     OW 6926   2.483   2.770   4.152  0.0027 -0.7327  0.3021
 2183SOL    HW1 6927   2.543   2.819   4.208  1.1007  1.0718 -2.2761
 2183SOL    HW2 6928   2.539   2.711   4.102 -0.6793 -0.8922 -0.2891
 2184SOL     OW 6929   5.655   1.186   0.817 -0.0927  0.6848 -0.3444
 2184SOL    HW1 6930   5.645   1.249   0.745 -0.1230  1.5284  0.3687
 2184SOL    HW2 6931   5.667   1.241   0.894 -1.2125 -0.1730  0.4695
 2185SOL     OW 6932   6.622   5.994   6.463 -0.6433 -0.1598 -0.5297
 2185SOL    HW1 6933   6.575   6.030   6.389  1.6368  2.4580 -0.8842
 2185SOL    HW2 6934   6.618   6.063   6.530 -0.1598 -1.2368  0.6584
 2186SOL     OW 6935   1.357   0.073   2.843  0.1873  0.1657  0.3547
 2186SOL    HW1 6936   1.267   0.058   2.871  0.5801 -0.4762  1.3078
 2186SOL    HW2 6937   1.377  -0.000   2.785  0.7259 -0.7655  1.6893
 2187SOL     OW 6938   5.357   1.428   0.545  0.2735 -0.0136 -0.5532
 2187SOL    HW1 6939   5.268   1.400   0.563  0.0238  0.0248 -1.6358
 2187SOL    HW2 6940   5.354   1.524   0.548  0.7361 -0.0184  1.3749
 2188SOL     OW 6941   1.629   3.152   6.076  0.4179  0.7133 -0.0078
 2188SOL    HW1 6942   1.556   3.151   6.138 -1.6337  0.7193 -2.2432
 2188SOL    HW2 6943   1.647   3.245   6.061 -0.7158  0.7819 -1.1205
 2189SOL     OW 6944   0.144   2.320   5.179  0.2502 -0.1601  0.4908
 2189SOL    HW1 6945   0.122   2.413   5.186 -0.3772 -0.3315  0.9027
 2189SOL    HW2 6946   0.060   2.275   5.187  0.6462 -0.7983  1.2085
 2190SOL     OW 6947   6.394   2.299   3.427  0.1521  0.3322 -0.7988
 2190SOL    HW1 6948   6.306   2.271   3.405  0.2046  0.4266 -1.1271
 2190SOL    HW2 6949   6.398   2.292   3.523 -0.5110  1.1900 -0.7003
 2191SOL     OW 6950   4.220   3.128   0.240  0.1670 -0.2341 -0.0354
 2191SOL    HW1 6951   4.301   3.088   0.210 -0.3039  0.0097 -1.7765
 2191SOL    HW2 6952   4.205   3.200   0.178 -1.4791 -0.4172  0.1106
 2192SOL     OW 6953   0.630   4.399   4.890 -0.2900  0.1028  0.0136
 2192SOL    HW1 6954   0.581   4.365   4.965 -0.3797 -1.2652 -0.6362
 2192SOL    HW2 6955   0.708   4.342   4.885 -0.9811 -0.7624 -1.7635
 2193SOL     OW 6956   4.534   0.372   6.109  0.6009  0.6602  0.5311
 2193SOL    HW1 6957   4.534   0.445   6.171  1.9194 -0.2885  1.7102
 2193SOL    HW2 6958   4.443   0.366   6.079  0.1778  1.8721  1.4935
 2194SOL     OW 6959   1.607   3.074   2.041  0.2645  0.3471 -0.2880
 2194SOL    HW1 6960   1.528   3.091   1.989  0.3859 -0.1830 -0.6610
 2194SOL    HW2 6961   1.675   3.057   1.976  0.2859 -0.9156  0.0321
 2195SOL     OW 6962   2.006   1.462   1.864  0.3803  0.3744 -0.1334
 2195SOL    HW1 6963   1.963   1.445   1.948 -1.2780 -0.7792 -1.1521
 2195SOL    HW2 6964   2.040   1.377   1.836  1.1387  0.7964 -0.5309
 2196SOL     OW 6965   1.953   4.127   2.585  0.0528 -0.0263 -0.5263
 2196SOL    HW1 6966   1.885   4.095   2.644 -1.0457 -0.8856 -2.1647
 2196SOL    HW2 6967   2.017   4.055   2.582  0.0903  0.0020 -0.4054
 2197SOL     OW 6968   5.071   3.063   4.986 -0.2354 -0.4496  0.0614
 2197SOL    HW1 6969   4.995   3.091   5.037 -0.5789 -0.7768 -0.2600
 2197SOL    HW2 6970   5.040   3.064   4.895  0.4656  0.4489 -0.1791
 2198SOL     OW 6971   0.866   4.140   6.465  0.0615 -0.3841  0.4754
 2198SOL    HW1 6972   0.806   4.074   6.501 -0.2516  0.2016  1.0592
 2198SOL    HW2 6973   0.872   4.206   6.534 -0.8489  0.9559 -0.6701
 2199SOL     OW 6974   4.438   6.720   0.293 -0.3903 -0.1395 -0.7009
 2199SOL    HW1 6975   4.412   6.655   0.228 -2.3790 -1.7184  1.4855
 2199SOL    HW2 6976   4.359   6.772   0.308  0.3899  0.9940 -0.4293
 2200SOL     OW 6977   0.369   4.106   4.167 -0.1761  0.4241 -0.1637
 2200SOL    HW1 6978   0.277   4.127   4.183  0.0608  0.3301  1.5269
 2200SOL    HW2 6979   0.377   4.102   4.072 -2.0956 -0.3181 -0.3307
 2201SOL     OW 6980   0.924   4.657   4.669  0.5536 -0.4770  0.6941
 2201SOL    HW1 6981   0.878   4.573   4.676 -0.3043  0.0864  2.6774
 2201SOL    HW2 6982   0.892   4.696   4.588 -0.2920 -1.3524  0.5872
 2202SOL     OW 6983   3.282   5.720   2.249  0.0160  0.3251  0.5281
 2202SOL    HW1 6984   3.213   5.654   2.245 -0.9196  1.0649  2.7609
 2202SOL    HW2 6985   3.235   5.804   2.252  1.1529  1.1232 -1.4187
 2203SOL     OW 6986   5.152   4.858   6.103 -0.4121 -0.2143  0.0600
 2203SOL    HW1 6987   5.138   4.892   6.014  3.1053 -0.1314 -0.6163
 2203SOL    HW2 6988   5.179   4.934   6.154  0.5073 -0.7478  0.3902
 2204SOL     OW 6989   6.693   1.881   5.737 -0.1972  0.3697  0.2113
 2204SOL    HW1 6990   6.654   1.964   5.710  0.7213  0.9759  0.7129
 2204SOL    HW2 6991   6.755   1.859   5.668  0.2573  0.5935  0.5454
 2205SOL     OW 6992   4.856   5.987   3.836 -0.4825  0.4617 -0.0831
 2205SOL    HW1 6993   4.942   5.956   3.862  0.1765  0.2366 -2.3222
 2205SOL    HW2 6994   4.809   5.908   3.810 -0.7529  0.7635 -0.5225
 2206SOL     OW 6995   3.703   6.812   2.602 -0.3645 -0.3740  0.4354
 2206SOL    HW1 6996   3.725   6.883   2.663 -1.1054 -0.4662  0.8182
 2206SOL    HW2 6997   3.616   6.835   2.569  0.6982  0.6008 -1.9395
 2207SOL     OW 6998   0.854   1.645   6.665  0.3255  0.1510 -0.0297
 2207SOL    HW1 6999   0.913   1.714   6.695  1.4009  0.4423 -2.5994
 2207SOL    HW2 7000   0.767   1.671   6.697  1.1671  1.0799  1.5896
 2208SOL     OW 7001   4.169   3.666   3.093  0.1433  0.1219  0.1393
 2208SOL    HW1 7002   4.235   3.621   3.042  0.8250  0.5640  0.6134
 2208SOL    HW2 7003   4.167   3.755   3.056 -0.7132 -0.0811 -0.3498
 2209SOL     OW 7004   1.399   2.460   3.549 -0.2227  0.3672  0.4025
 2209SOL    HW1 7005   1.446   2.461   3.632 -0.5764  1.8600  0.6213
 2209SOL    HW2 7006   1.452   2.406   3.491  0.8768  0.6402  1.1305
 2210SOL     OW 7007   2.072   6.012   1.956 -0.1946 -0.1385  0.0567
 2210SOL    HW1 7008   2.163   6.008   1.985 -0.1795  0.0465  0.0341
 2210SOL    HW2 7009   2.058   5.927   1.912  0.1321  0.0476 -0.4207
 2211SOL     OW 7010   0.978   2.263   5.228  0.2634 -0.1381 -0.0910
 2211SOL    HW1 7011   1.002   2.321   5.300 -0.5583 -0.5068  0.4997
 2211SOL    HW2 7012   0.968   2.321   5.153 -1.7613  0.7072  0.7614
 2212SOL     OW 7013   1.458   1.754   5.243  0.3505  0.1257  0.1049
 2212SOL    HW1 7014   1.494   1.702   5.315 -0.0320 -0.5457 -0.1765
 2212SOL    HW2 7015   1.489   1.843   5.260  1.1865 -0.2220  0.4898
 2213SOL     OW 7016   6.095   2.383   0.585 -0.1213  0.5353 -0.2301
 2213SOL    HW1 7017   6.037   2.454   0.613 -0.3975 -0.0115  0.6161
 2213SOL    HW2 7018   6.036   2.315   0.552  0.1050  0.4405 -0.4444
 2214SOL     OW 7019   6.083   4.992   3.527 -0.2402  0.6534 -0.0538
 2214SOL    HW1 7020   6.048   4.908   3.556 -1.7681  1.0154 -0.7496
 2214SOL    HW2 7021   6.083   5.047   3.606 -0.4960  0.4086  0.1154
 2215SOL     OW 7022   1.409   6.005   3.813  0.1577 -0.0095  0.2422
 2215SOL    HW1 7023   1.398   5.920   3.771  3.6341 -0.3861 -0.1807
 2215SOL    HW2 7024   1.462   5.986   3.891 -0.1946  1.5949  0.8976
 2216SOL     OW 7025   5.855   6.525   0.705  0.0543  0.5929  0.0271
 2216SOL    HW1 7026   5.779   6.531   0.648 -0.2865 -0.2580  0.3814
 2216SOL    HW2 7027   5.820   6.544   0.793 -0.3183 -2.3854  0.6157
 2217SOL     OW 7028   1.011   1.258   4.260  0.4517  0.1413  0.0376
 2217SOL    HW1 7029   0.991   1.165   4.270 -0.2378  0.3604  0.8264
 2217SOL    HW2 7030   0.947   1.289   4.195  1.0547 -0.0459 -0.6562
 2218SOL     OW 7031   2.250   0.272   1.553 -0.0621 -0.0825  0.5156
 2218SOL    HW1 7032   2.209   0.226   1.626 -0.7971 -0.4179 -0.0952
 2218SOL    HW2 7033   2.241   0.212   1.479  1.8830 -0.3395  0.4264
 2219SOL     OW 7034   1.227   0.501   1.642  0.6268  0.4416  0.3377
 2219SOL    HW1 7035   1.320   0.493   1.621  0.5134 -0.7345  0.1857
 2219SOL    HW2 7036   1.185   0.433   1.589 -0.2251  0.4489  0.9859
 2220SOL     OW 7037   4.298   3.234   0.763 -0.2013  0.5266 -0.2198
 2220SOL    HW1 7038   4.369   3.261   0.821 -1.3351  0.1672  1.3901
 2220SOL    HW2 7039   4.264   3.315   0.726 -0.8652  0.9704  1.3180
 2221SOL     OW 7040   1.943   6.742   3.864 -0.1937 -0.0643 -0.1853
 2221SOL    HW1 7041   1.953   6.824   3.913 -1.7498  0.2259 -0.3114
 2221SOL    HW2 7042   1.936   6.675   3.931 -5.1524  0.6059  0.3325
 2222SOL     OW 7043   0.085   3.494   0.730  0.5415  0.1796 -0.0075
 2222SOL    HW1 7044   0.068   3.570   0.675 -0.2024 -0.9376 -1.3771
 2222SOL    HW2 7045   0.180   3.489   0.735  0.6048  1.4480  0.4959
 2223SOL     OW 7046   2.557   6.603   5.513  0.5578 -0.3600 -0.6996
 2223SOL    HW1 7047   2.630   6.593   5.451  1.5490  0.5745  0.2731
 2223SOL    HW2 7048   2.492   6.653   5.463  0.7813 -0.7640 -1.4202
 2224SOL     OW 7049   4.807   5.841   5.629  0.1984 -0.2606 -0.2727
 2224SOL    HW1 7050   4.854   5.811   5.707 -0.6098 -2.0091 -0.4054
 2224SOL    HW2 7051   4.806   5.766   5.571 -2.4616 -0.2348 -0.3913
 2225SOL     OW 7052   5.678   3.452   5.036  0.2902  0.6972  0.2317
 2225SOL    HW1 7053   5.606   3.442   5.099  0.1243 -0.2791 -0.0990
 2225SOL    HW2 7054   5.756   3.463   5.090  0.5150 -2.3983  0.7394
 2226SOL     OW 7055   0.082   4.418   1.106 -0.0412  0.0484  0.4153
 2226SOL    HW1 7056   0.010   4.356   1.097 -0.5638  0.5427  1.0706
 2226SOL    HW2 7057   0.107   4.413   1.198  1.1658 -0.5388  0.0792
 2227SOL     OW 7058   3.951   3.604   5.814 -0.3322  0.4610  0.5437
 2227SOL    HW1 7059   3.929   3.585   5.723 -0.2889 -1.9726  0.9751
 2227SOL    HW2 7060   4.013   3.677   5.810 -1.9499  1.8391 -1.1949
 2228SOL     OW 7061   0.879   4.533   2.219 -0.0937  0.2767  0.1634
 2228SOL    HW1 7062   0.949   4.534   2.154 -0.8196  0.6685 -0.6296
 2228SOL    HW2 7063   0.880   4.444   2.254  1.0625  0.3938  0.4637
 2229SOL     OW 7064   5.079   5.002   4.290  0.4621  0.2499 -0.7760
 2229SOL    HW1 7065   5.093   5.022   4.197 -0.6764 -0.5828 -1.1518
 2229SOL    HW2 7066   5.071   4.906   4.292 -1.1225  0.3657 -0.0652
 2230SOL     OW 7067   0.012   4.973   2.378  0.1764  0.4468  0.0873
 2230SOL    HW1 7068  -0.002   5.010   2.465  0.8446  0.1209  0.3356
 2230SOL    HW2 7069   0.093   4.924   2.385 -0.2206 -0.3205 -0.4778
 2231SOL     OW 7070   2.722   4.585   3.558 -0.1690 -0.7205 -0.4122
 2231SOL    HW1 7071   2.752   4.495   3.543  0.5151 -0.5205 -0.2594
 2231SOL    HW2 7072   2.652   4.597   3.494 -0.0551 -1.2567 -0.6490
 2232SOL     OW 7073   2.909   1.491   0.524  0.4098  0.1315 -0.1154
 2232SOL    HW1 7074   2.971   1.419   0.534 -2.2450 -2.1230  1.3278
 2232SOL    HW2 7075   2.901   1.528   0.612 -1.8811 -1.1454  0.3041
 2233SOL     OW 7076   0.295   4.608   3.586 -0.0166  0.2981  0.0954
 2233SOL    HW1 7077   0.353   4.533   3.573 -0.1427 -0.6348  3.6501
 2233SOL    HW2 7078   0.209   4.577   3.560 -0.3068 -1.4095  2.6584
 2234SOL     OW 7079   0.889   2.551   6.180  0.2429 -0.4287  0.2109
 2234SOL    HW1 7080   0.855   2.529   6.094 -0.8175  0.1375  0.4640
 2234SOL    HW2 7081   0.812   2.580   6.230  1.1104  0.9918  0.7861
 2235SOL     OW 7082   0.203   1.977   4.554  0.0796  0.2397  0.4526
 2235SOL    HW1 7083   0.221   1.988   4.647 -1.0056 -0.1993  0.7275
 2235SOL    HW2 7084   0.288   1.952   4.516  0.4050 -0.1695  1.4207
 2236SOL     OW 7085   6.487   3.063   3.777 -0.5935 -0.4221  0.1869
 2236SOL    HW1 7086   6.442   3.144   3.800 -2.3438 -1.5092  0.7898
 2236SOL    HW2 7087   6.571   3.070   3.822  0.1884  1.9108 -1.4219
 2237SOL     OW 7088   2.413   2.505   5.447 -0.3520  0.0148 -0.0570
 2237SOL    HW1 7089   2.331   2.471   5.483 -0.6881  0.1648 -0.6624
 2237SOL    HW2 7090   2.465   2.428   5.426 -0.6099 -0.0970 -0.2837
 2238SOL     OW 7091   6.794   0.021   3.705  0.6545  0.2497  0.2326
 2238SOL    HW1 7092   6.855   0.052   3.638 -1.3438  2.1485 -0.8121
 2238SOL    HW2 7093   6.834   0.047   3.788  1.9904  0.0295 -0.3094
 2239SOL     OW 7094   3.323   1.070   5.665  0.4809  0.1650 -0.8205
 2239SOL    HW1 7095   3.335   1.031   5.752 -0.3744 -1.5799 -1.4599
 2239SOL    HW2 7096   3.411   1.071   5.627  0.5832 -0.7677 -0.6326
 2240SOL     OW 7097   2.338   5.491   5.244 -0.2384 -0.3188  0.1929
 2240SOL    HW1 7098   2.286   5.571   5.245 -1.5119 -1.1062  1.1452
 2240SOL    HW2 7099   2.302   5.439   5.172  0.3620 -0.1701 -0.2157
 2241SOL     OW 7100   6.788   3.120   1.245  0.6002 -0.0061  0.1393
 2241SOL    HW1 7101   6.848   3.191   1.268  0.8121 -0.5507  1.3502
 2241SOL    HW2 7102   6.846   3.047   1.225  0.3640 -0.1914  0.1342
 2242SOL     OW 7103   1.774   5.486   4.692  0.5442 -0.0659  0.7083
 2242SOL    HW1 7104   1.742   5.436   4.767  1.5294  0.4938  1.5192
 2242SOL    HW2 7105   1.853   5.529   4.723  1.5078 -0.5512 -0.9184
 2243SOL     OW 7106   4.193   0.228   1.726 -0.0815 -0.3089 -0.1352
 2243SOL    HW1 7107   4.115   0.180   1.697 -0.5813  0.6898 -0.5295
 2243SOL    HW2 7108   4.164   0.319   1.729  2.3824  1.0947 -5.6682
 2244SOL     OW 7109   6.116   0.899   0.817  0.8719 -0.0135  0.4979
 2244SOL    HW1 7110   6.049   0.953   0.775 -0.8075 -0.8481  1.9942
 2244SOL    HW2 7111   6.132   0.942   0.901  0.8674 -0.8237  0.9210
 2245SOL     OW 7112   2.379   4.314   1.159 -0.1222 -0.1840 -0.0583
 2245SOL    HW1 7113   2.284   4.303   1.160 -0.0192 -1.1031  0.2070
 2245SOL    HW2 7114   2.409   4.270   1.238  0.5818 -0.4682 -0.4754
 2246SOL     OW 7115   2.231   5.966   1.503  0.1283 -0.4665  0.1496
 2246SOL    HW1 7116   2.289   5.909   1.452 -0.8412 -0.5750 -0.8841
 2246SOL    HW2 7117   2.146   5.959   1.458 -0.1541  1.3367  0.3417
 2247SOL     OW 7118   4.221   3.013   1.263  0.1127 -0.4183 -0.5102
 2247SOL    HW1 7119   4.225   3.079   1.194 -1.0941 -1.0272 -1.2106
 2247SOL    HW2 7120   4.219   3.063   1.344  1.5994  0.3102 -0.8942
 2248SOL     OW 7121   0.569   0.056   3.601 -0.0144 -0.2453 -0.0839
 2248SOL    HW1 7122   0.596   0.142   3.569 -0.5374  0.7829  2.0363
 2248SOL    HW2 7123   0.478   0.067   3.626  0.2853 -1.0026  1.4839
 2249SOL     OW 7124   2.340   0.063   3.069 -0.0922 -0.0315  0.8381
 2249SOL    HW1 7125   2.298   0.078   3.154 -0.4629 -0.8128  0.8055
 2249SOL    HW2 7126   2.387   0.144   3.051 -2.7034  1.4295  0.2138
 2250SOL     OW 7127   6.255   5.834   4.205  0.2315  0.0713  0.2138
 2250SOL    HW1 7128   6.316   5.902   4.235 -0.0751  0.4507 -0.0069
 2250SOL    HW2 7129   6.311   5.758   4.187  0.7578  0.6702 -0.7944
 2251SOL     OW 7130   1.478   4.409   4.556 -0.2018  0.3506  0.7229
 2251SOL    HW1 7131   1.510   4.368   4.475 -0.5351 -0.5995  1.0626
 2251SOL    HW2 7132   1.424   4.482   4.526  0.9478  0.9747  0.1171
 2252SOL     OW 7133   5.925   3.562   2.873 -0.7708  0.4636 -0.1839
 2252SOL    HW1 7134   5.912   3.471   2.901 -2.8765  0.2903 -1.4605
 2252SOL    HW2 7135   6.005   3.560   2.821 -1.1730 -0.8602 -0.8067
 2253SOL     OW 7136   3.216   6.182   6.565  0.4356  0.5416  0.6702
 2253SOL    HW1 7137   3.296   6.231   6.587 -1.8453  3.3257  3.9275
 2253SOL    HW2 7138   3.179   6.230   6.491  2.3712 -1.7982 -2.0567
 2254SOL     OW 7139   0.644   0.347   2.469  0.0110  0.1083 -0.0762
 2254SOL    HW1 7140   0.563   0.326   2.515 -1.0072  1.3736 -1.2276
 2254SOL    HW2 7141   0.705   0.371   2.539 -0.4262 -1.3148  0.8408
 2255SOL     OW 7142   2.380   0.623   2.393 -0.1654 -0.0094 -0.1735
 2255SOL    HW1 7143   2.312   0.568   2.354  2.2230 -1.2509 -2.9587
 2255SOL    HW2 7144   2.390   0.696   2.331  2.1296 -0.7532 -0.7452
 2256SOL     OW 7145   4.587   5.289   4.787  0.3968  0.0776  0.0728
 2256SOL    HW1 7146   4.523   5.218   4.791 -0.5269  0.8670 -0.2321
 2256SOL    HW2 7147   4.552   5.349   4.721  1.7040  0.2979 -0.4406
 2257SOL     OW 7148   3.670   5.969   1.167 -0.3273  0.0103  0.7074
 2257SOL    HW1 7149   3.727   6.016   1.106 -1.8489 -1.2566 -1.8786
 2257SOL    HW2 7150   3.717   5.887   1.184  0.1018  0.3656  1.2574
 2258SOL     OW 7151   3.482   1.741   6.092 -0.8408  0.0742  0.3991
 2258SOL    HW1 7152   3.499   1.694   6.011  0.2262  0.5870  0.2941
 2258SOL    HW2 7153   3.387   1.742   6.101 -0.9920  0.3959 -1.0711
 2259SOL     OW 7154   3.477   3.725   6.662 -0.4437 -0.1126 -0.0513
 2259SOL    HW1 7155   3.429   3.719   6.745  1.0313 -1.4143  0.7589
 2259SOL    HW2 7156   3.542   3.794   6.677  0.7035 -1.2500  0.3959
 2260SOL     OW 7157   1.197   3.790   2.833  0.2673 -0.3857  0.0655
 2260SOL    HW1 7158   1.162   3.709   2.871 -0.9549 -0.3321 -0.8892
 2260SOL    HW2 7159   1.269   3.760   2.777 -0.6086 -0.9273 -0.8175
 2261SOL     OW 7160   4.750   2.269   6.150  0.1141 -0.6666  0.3858
 2261SOL    HW1 7161   4.706   2.185   6.161 -0.8199 -0.2587 -0.1485
 2261SOL    HW2 7162   4.680   2.334   6.152  0.5322 -0.0742 -1.4881
 2262SOL     OW 7163   3.371   3.851   0.241 -0.0987 -0.2745 -0.0664
 2262SOL    HW1 7164   3.463   3.861   0.265 -0.2150 -0.2138  0.3589
 2262SOL    HW2 7165   3.326   3.834   0.323 -0.6791  1.1352 -0.0613
 2263SOL     OW 7166   5.345   1.805   3.973  0.8113  0.1754 -0.1508
 2263SOL    HW1 7167   5.373   1.835   3.886 -1.6903  0.8159 -0.8468
 2263SOL    HW2 7168   5.261   1.850   3.987  1.1685  0.1371  2.6544
 2264SOL     OW 7169   5.066   4.924   1.163 -0.0694 -0.0184  0.0503
 2264SOL    HW1 7170   4.988   4.871   1.144 -0.4411  0.8814 -1.0731
 2264SOL    HW2 7171   5.100   4.888   1.245 -1.0246 -1.1572 -0.0202
 2265SOL     OW 7172   4.200   0.635   6.016 -0.4181 -1.1339 -0.2186
 2265SOL    HW1 7173   4.132   0.643   6.082 -2.0287 -0.3480 -1.8804
 2265SOL    HW2 7174   4.228   0.725   5.998  1.1583 -1.4437  0.4790
 2266SOL     OW 7175   3.165   5.024   2.468  0.3056  0.1673  0.0769
 2266SOL    HW1 7176   3.243   5.010   2.414  0.9351 -0.5329  1.1213
 2266SOL    HW2 7177   3.165   5.118   2.486  1.4683  0.0500  0.8320
 2267SOL     OW 7178   6.735   5.284   6.719 -0.0473 -0.2369 -0.4741
 2267SOL    HW1 7179   6.830   5.284   6.719 -0.0452  0.2344  0.0674
 2267SOL    HW2 7180   6.711   5.271   6.627  0.5337 -0.4135 -0.6027
 2268SOL     OW 7181   6.172   4.078   6.564 -0.0633  0.0304  0.0133
 2268SOL    HW1 7182   6.156   4.170   6.542  2.2509  0.1641 -1.4613
 2268SOL    HW2 7183   6.266   4.074   6.583  0.2792 -2.3074 -1.7243
 2269SOL     OW 7184   2.118   1.037   4.958  0.1561  0.2573  0.3184
 2269SOL    HW1 7185   2.148   0.950   4.932  3.1447  0.5800  2.2411
 2269SOL    HW2 7186   2.051   1.020   5.025 -0.5451 -0.5218 -0.5540
 2270SOL     OW 7187   5.396   1.809   5.356  0.0890  0.6014  0.1153
 2270SOL    HW1 7188   5.453   1.737   5.326 -0.7787  0.2645 -0.7949
 2270SOL    HW2 7189   5.322   1.807   5.295 -1.7385 -0.0324  2.2409
 2271SOL     OW 7190   6.221   0.514   1.212 -0.5561 -0.2982  0.5743
 2271SOL    HW1 7191   6.174   0.541   1.291 -1.0228 -0.6014  0.4058
 2271SOL    HW2 7192   6.247   0.596   1.170 -3.1904 -0.0075 -0.6784
 2272SOL     OW 7193   6.347   0.957   0.526 -0.4249  0.5178 -0.5801
 2272SOL    HW1 7194   6.341   1.022   0.596  0.0514  0.8672 -0.8511
 2272SOL    HW2 7195   6.441   0.956   0.503 -0.8086  1.8444 -2.5253
 2273SOL     OW 7196   4.191   6.651   6.171  0.5045  0.0489 -0.2248
 2273SOL    HW1 7197   4.277   6.692   6.159  0.2701  1.1255  1.3635
 2273SOL    HW2 7198   4.148   6.661   6.086  1.8622 -0.3292 -0.9850
 2274SOL     OW 7199   6.089   6.495   3.847 -0.2084  0.1667  0.1010
 2274SOL    HW1 7200   6.015   6.515   3.905 -1.4833 -0.4717 -1.2180
 2274SOL    HW2 7201   6.160   6.552   3.876 -1.9233  2.4836 -0.0183
 2275SOL     OW 7202   6.617   0.204   5.294 -0.6870 -0.3171 -0.3197
 2275SOL    HW1 7203   6.523   0.215   5.309 -0.8852 -2.6124  0.4686
 2275SOL    HW2 7204   6.624   0.126   5.240  0.7928 -0.1560 -0.4079
 2276SOL     OW 7205   6.614   3.318   5.929 -0.8592 -0.1467  0.0223
 2276SOL    HW1 7206   6.590   3.282   6.013 -2.0517  1.4211  0.4078
 2276SOL    HW2 7207   6.551   3.388   5.913 -1.2386 -0.9586 -2.6012
 2277SOL     OW 7208   6.422   2.844   3.649 -0.6559 -0.0803 -0.1411
 2277SOL    HW1 7209   6.513   2.813   3.643 -0.8303 -1.0149  1.5721
 2277SOL    HW2 7210   6.428   2.927   3.695 -0.3931  1.6280 -3.0082
 2278SOL     OW 7211   4.816   5.086   2.382 -0.3505  0.2922  0.3235
 2278SOL    HW1 7212   4.805   5.015   2.445 -0.4485  0.1659  0.1663
 2278SOL    HW2 7213   4.804   5.166   2.432  0.2685  0.2118  0.6104
 2279SOL     OW 7214   4.871   4.234   3.712 -0.0036  0.3218 -0.6037
 2279SOL    HW1 7215   4.877   4.147   3.673 -0.3292  0.3793 -0.7862
 2279SOL    HW2 7216   4.866   4.217   3.806  1.1965  0.2053 -0.5518
 2280SOL     OW 7217   1.459   3.079   5.606  0.1186  0.2280 -0.3337
 2280SOL    HW1 7218   1.535   3.138   5.610 -0.3714  0.8104  0.9076
 2280SOL    HW2 7219   1.408   3.100   5.684 -1.9034  0.6109 -1.6724
 2281SOL     OW 7220   0.812   4.226   5.694 -0.1980 -0.1146 -0.5700
 2281SOL    HW1 7221   0.903   4.217   5.665  0.1188  0.8564  0.0853
 2281SOL    HW2 7222   0.819   4.254   5.785 -1.1525  0.7244 -0.7490
 2282SOL     OW 7223   3.831   1.500   6.297  0.1029 -0.2672 -0.6540
 2282SOL    HW1 7224   3.885   1.579   6.303 -0.2324 -0.1210  0.8082
 2282SOL    HW2 7225   3.793   1.504   6.209  0.6760  0.8014 -0.8729
 2283SOL     OW 7226   6.155   4.177   6.197 -0.0299 -0.6763 -0.1590
 2283SOL    HW1 7227   6.116   4.202   6.113  0.1395  1.2809  0.3136
 2283SOL    HW2 7228   6.151   4.256   6.251 -0.3340 -1.9250  1.7803
 2284SOL     OW 7229   4.545   0.019   4.602 -0.0948 -0.1083 -0.3492
 2284SOL    HW1 7230   4.495   0.023   4.684  1.3900 -0.3736  0.6072
 2284SOL    HW2 7231   4.602   0.096   4.605  0.6477 -0.6323 -0.6627
 2285SOL     OW 7232   1.559   5.749   6.194  0.2894  0.1936 -0.0479
 2285SOL    HW1 7233   1.567   5.657   6.220 -0.3975  0.3160  0.6244
 2285SOL    HW2 7234   1.631   5.793   6.240 -1.2841  0.5129  2.2395
 2286SOL     OW 7235   0.991   5.187   2.814 -0.5662 -0.0565  0.2701
 2286SOL    HW1 7236   0.929   5.260   2.821  0.0923  0.4672  0.8787
 2286SOL    HW2 7237   1.074   5.229   2.789 -0.2029 -0.6057  0.5317
 2287SOL     OW 7238   2.089   1.018   6.541  0.1194 -0.1920  0.1484
 2287SOL    HW1 7239   2.098   1.061   6.626  2.9690  0.6675 -0.4683
 2287SOL    HW2 7240   2.127   0.932   6.554 -1.0150 -0.7140  0.1298
 2288SOL     OW 7241   0.498   2.502   2.464  0.2016 -0.3533 -0.2557
 2288SOL    HW1 7242   0.501   2.521   2.558 -0.2259 -0.8484 -0.1349
 2288SOL    HW2 7243   0.502   2.406   2.459  1.3583 -0.2857 -0.8007
 2289SOL     OW 7244   4.516   3.898   1.719 -0.0062  0.1118  0.0378
 2289SOL    HW1 7245   4.525   3.874   1.627  0.1043  0.3330 -0.0097
 2289SOL    HW2 7246   4.532   3.817   1.767  0.1481  0.0448 -0.1276
 2290SOL     OW 7247   4.603   6.268   5.727 -0.0570 -0.1004  0.3425
 2290SOL    HW1 7248   4.655   6.324   5.785  0.1747 -0.0679  0.1100
 2290SOL    HW2 7249   4.668   6.212   5.684 -0.3130 -0.7517  0.7880
 2291SOL     OW 7250   6.184   3.099   5.666  0.2691 -0.4585 -0.3206
 2291SOL    HW1 7251   6.161   3.109   5.573 -0.9963  0.4657  0.0496
 2291SOL    HW2 7252   6.200   3.189   5.696 -1.1742 -0.5299  0.7653
 2292SOL     OW 7253   2.315   2.903   4.441  0.4500  0.0783  0.1083
 2292SOL    HW1 7254   2.293   2.954   4.363  0.4137 -1.4996 -0.9528
 2292SOL    HW2 7255   2.395   2.857   4.419  1.3439  0.8152  1.6193
 2293SOL     OW 7256   4.443   2.332   2.836  0.3903  0.1284 -0.7895
 2293SOL    HW1 7257   4.425   2.281   2.915 -0.7271  0.6514 -0.6864
 2293SOL    HW2 7258   4.534   2.361   2.846  0.0096  0.8693  0.6851
 2294SOL     OW 7259   6.053   0.800   1.626 -0.3845 -0.4227 -0.1042
 2294SOL    HW1 7260   6.040   0.808   1.720 -0.3731 -0.6280 -0.0851
 2294SOL    HW2 7261   6.047   0.890   1.593  0.5412 -0.2240  0.2163
 2295SOL     OW 7262   6.679   6.365   2.283  0.4572  0.1011 -0.2086
 2295SOL    HW1 7263   6.714   6.407   2.204  0.2010 -0.2067 -0.4896
 2295SOL    HW2 7264   6.622   6.430   2.322  1.3643  0.6245  0.2732
 2296SOL     OW 7265   2.055   1.711   4.011  0.2070  0.0291 -0.4250
 2296SOL    HW1 7266   2.065   1.801   4.042  0.5306 -0.1280 -0.0638
 2296SOL    HW2 7267   2.119   1.703   3.941  1.0818 -0.3029  0.3995
 2297SOL     OW 7268   2.239   0.688   1.629  0.3172  0.7142 -0.3848
 2297SOL    HW1 7269   2.267   0.624   1.563  0.3537  0.7965 -0.4497
 2297SOL    HW2 7270   2.267   0.650   1.712 -2.2662 -0.8023 -0.1040
 2298SOL     OW 7271   6.404   1.851   5.546 -0.0225 -0.0002  0.0501
 2298SOL    HW1 7272   6.369   1.937   5.567  0.1977  0.5671 -1.7155
 2298SOL    HW2 7273   6.466   1.867   5.474  0.2307 -1.5934 -0.1319
 2299SOL     OW 7274   0.038   1.391   0.503 -0.2622 -0.5871 -0.3778
 2299SOL    HW1 7275   0.019   1.299   0.483 -2.8552 -0.2602  0.2527
 2299SOL    HW2 7276   0.003   1.439   0.428 -2.5523  0.0840  1.0214
 2300SOL     OW 7277   5.833   2.052   0.086  0.1905 -0.0939  0.2966
 2300SOL    HW1 7278   5.830   2.066  -0.009 -2.0897 -0.0688  0.3190
 2300SOL    HW2 7279   5.813   1.959   0.098  0.0441 -0.0103  0.7478
 2301SOL     OW 7280   6.126   2.361   0.913 -0.1074  0.4005 -0.1438
 2301SOL    HW1 7281   6.171   2.389   0.833 -1.3902  0.7646 -0.7626
 2301SOL    HW2 7282   6.168   2.278   0.935  0.1337  0.1818 -1.3196
 2302SOL     OW 7283   2.575   2.311   2.096  0.3059  0.1323  0.2955
 2302SOL    HW1 7284   2.667   2.334   2.084  0.4814 -0.7322 -0.0829
 2302SOL    HW2 7285   2.536   2.320   2.009  0.2901 -0.5721  0.2218
 2303SOL     OW 7286   0.783   1.917   4.966  0.0918 -0.5513 -0.1065
 2303SOL    HW1 7287   0.752   1.885   5.050  0.3382 -0.1200  0.1461
 2303SOL    HW2 7288   0.704   1.945   4.920  0.0610  0.2158  0.3973
 2304SOL     OW 7289   3.683   5.708   4.087 -0.7551 -0.5761  0.0597
 2304SOL    HW1 7290   3.706   5.727   3.996  1.2466 -0.0940  0.6346
 2304SOL    HW2 7291   3.716   5.619   4.101  0.4133 -0.0407  0.7741
 2305SOL     OW 7292   5.585   0.973   5.744 -1.3244 -0.0930  0.1558
 2305SOL    HW1 7293   5.541   0.940   5.822 -0.1058 -2.1732  0.0345
 2305SOL    HW2 7294   5.635   0.898   5.712  0.7049  1.6100 -0.8269
 2306SOL     OW 7295   6.571   0.998   6.715  0.5919  0.4186 -0.2221
 2306SOL    HW1 7296   6.580   0.905   6.692 -0.1461  0.1800  0.4004
 2306SOL    HW2 7297   6.624   1.044   6.650  2.3256 -0.5387  0.4599
 2307SOL     OW 7298   4.620   1.508   1.434  0.0941 -0.0694 -0.6887
 2307SOL    HW1 7299   4.526   1.499   1.450  0.5439 -2.0374  1.4523
 2307SOL    HW2 7300   4.650   1.419   1.418  1.5844  0.5555 -1.5699
 2308SOL     OW 7301   0.180   4.478   0.471  0.0141 -0.7518  0.0845
 2308SOL    HW1 7302   0.266   4.507   0.500 -0.1307 -0.2043 -0.0092
 2308SOL    HW2 7303   0.119   4.532   0.522 -0.2785 -1.4676  0.4943
 2309SOL     OW 7304   2.618   4.737   2.542 -0.6719  0.2252  0.2904
 2309SOL    HW1 7305   2.672   4.749   2.620  0.4384 -0.7558 -0.2811
 2309SOL    HW2 7306   2.679   4.749   2.469 -1.5469  0.4952 -0.4102
 2310SOL     OW 7307   6.141   6.795   2.701  0.9555 -0.1677  0.0719
 2310SOL    HW1 7308   6.095   6.742   2.635  1.7340 -0.4045 -0.2905
 2310SOL    HW2 7309   6.216   6.741   2.726  1.7479  0.7486 -0.2833
 2311SOL     OW 7310   0.971   0.323   3.744 -0.1660 -0.2936  0.4362
 2311SOL    HW1 7311   0.938   0.255   3.685 -1.5184  0.8051 -0.1304
 2311SOL    HW2 7312   0.960   0.286   3.832  0.5253 -1.3789  0.0838
 2312SOL     OW 7313   3.074   6.137   0.824  0.0834 -0.3233 -0.4990
 2312SOL    HW1 7314   3.147   6.197   0.809  0.9261 -1.0226  0.6006
 2312SOL    HW2 7315   3.036   6.123   0.737  0.5281  0.9563 -0.9196
 2313SOL     OW 7316   0.587   6.072   4.163  0.0244  0.3410 -0.1780
 2313SOL    HW1 7317   0.640   6.048   4.239  0.3187 -0.6070 -0.6762
 2313SOL    HW2 7318   0.640   6.135   4.115  0.2405  0.2199 -0.0979
 2314SOL     OW 7319   2.905   1.104   0.962  0.2614 -0.2694  0.6070
 2314SOL    HW1 7320   3.000   1.100   0.954  0.0961 -2.1682 -1.1038
 2314SOL    HW2 7321   2.878   1.165   0.893  0.1839 -0.2809  0.6265
 2315SOL     OW 7322   1.204   0.944   5.179 -0.2435 -0.1498  0.0499
 2315SOL    HW1 7323   1.270   0.989   5.127 -3.1352  3.2194 -1.1051
 2315SOL    HW2 7324   1.141   0.910   5.115  0.3885 -3.7036  1.0791
 2316SOL     OW 7325   6.443   5.680   5.000 -0.0627  0.2302 -0.2737
 2316SOL    HW1 7326   6.361   5.657   5.044 -0.0183 -0.0170 -0.3215
 2316SOL    HW2 7327   6.511   5.633   5.048 -0.0568 -0.3687 -0.8588
 2317SOL     OW 7328   6.262   6.598   4.168 -0.4245 -0.0242  0.3790
 2317SOL    HW1 7329   6.260   6.663   4.238  1.7664  0.0590  0.4351
 2317SOL    HW2 7330   6.239   6.647   4.089 -1.3726  0.2172  0.7866
 2318SOL     OW 7331   2.964   1.837   5.348 -0.7193 -0.5196 -1.0394
 2318SOL    HW1 7332   2.875   1.802   5.342 -0.7998 -0.5657  0.1688
 2318SOL    HW2 7333   2.975   1.858   5.441  0.0577  0.7448 -1.3852
 2319SOL     OW 7334   6.229   6.335   4.208 -0.2206 -0.1176 -0.9561
 2319SOL    HW1 7335   6.172   6.298   4.141 -1.5271 -0.2802  0.1786
 2319SOL    HW2 7336   6.235   6.428   4.186 -0.3222 -0.2391 -1.5086
 2320SOL     OW 7337   1.967   0.941   5.186 -0.0059  0.8007 -0.0203
 2320SOL    HW1 7338   1.980   0.849   5.209  0.2162  0.6282 -0.8127
 2320SOL    HW2 7339   1.885   0.965   5.229 -0.0399  0.2463  0.2299
 2321SOL     OW 7340   0.745   0.626   1.854  0.0672 -0.1953 -0.5066
 2321SOL    HW1 7341   0.795   0.547   1.874  0.8677  0.3481 -0.3078
 2321SOL    HW2 7342   0.735   0.671   1.938 -0.1922  0.0197 -0.6492
 2322SOL     OW 7343   6.635   3.217   5.277  0.2803 -0.2420  0.2166
 2322SOL    HW1 7344   6.549   3.247   5.308 -0.0435 -0.8480 -0.0620
 2322SOL    HW2 7345   6.614   3.147   5.215  0.7582  2.1499 -2.8995
 2323SOL     OW 7346   2.162   0.335   4.617  0.3381 -0.0522 -0.0318
 2323SOL    HW1 7347   2.210   0.380   4.547  1.1529  0.1907  0.6668
 2323SOL    HW2 7348   2.074   0.372   4.614  0.6469  0.6645 -0.2949
 2324SOL     OW 7349   6.305   4.986   6.770  0.2893 -0.0767  0.7338
 2324SOL    HW1 7350   6.282   5.077   6.788 -1.2402 -0.6124  1.6418
 2324SOL    HW2 7351   6.267   4.968   6.684  0.3515  0.0450  0.6800
 2325SOL     OW 7352   4.465   3.574   4.059 -0.1349  0.3188  0.4292
 2325SOL    HW1 7353   4.550   3.561   4.019 -0.6455  0.1993 -0.6596
 2325SOL    HW2 7354   4.478   3.553   4.152  1.9132  3.7930  1.1076
 2326SOL     OW 7355   2.819   3.014   6.501  0.2344  0.6362  0.4237
 2326SOL    HW1 7356   2.872   3.038   6.577  1.6611 -0.4235 -0.1786
 2326SOL    HW2 7357   2.827   3.089   6.442  2.0744  0.0489 -0.1415
 2327SOL     OW 7358   3.586   6.093   0.227  0.0393 -0.8125 -0.0226
 2327SOL    HW1 7359   3.541   6.014   0.198 -0.2895 -0.6909  0.1452
 2327SOL    HW2 7360   3.677   6.081   0.199 -0.5063 -0.1133 -2.2645
 2328SOL     OW 7361   4.172   4.062   5.135  0.3136  0.1733  0.4919
 2328SOL    HW1 7362   4.116   4.080   5.210 -0.5665  0.8060 -0.3094
 2328SOL    HW2 7363   4.261   4.060   5.172 -0.1795 -0.4504  1.6977
 2329SOL     OW 7364   1.837   6.462   3.037  0.3345  0.1621  0.7103
 2329SOL    HW1 7365   1.811   6.554   3.034  0.0385  0.1860  2.6407
 2329SOL    HW2 7366   1.927   6.462   3.006  0.6373  1.2552  1.5165
 2330SOL     OW 7367   0.590   2.619   3.285 -0.0996 -0.7942  0.3730
 2330SOL    HW1 7368   0.531   2.580   3.220 -0.6813  0.4206  0.1425
 2330SOL    HW2 7369   0.543   2.696   3.317  2.3608  1.8298 -1.7539
 2331SOL     OW 7370   6.251   2.955   2.686  0.5684  0.4431 -0.0806
 2331SOL    HW1 7371   6.254   3.051   2.679  1.2933  0.3511 -1.1686
 2331SOL    HW2 7372   6.214   2.939   2.773 -2.2213  1.7059 -0.9186
 2332SOL     OW 7373   5.829   0.658   3.664  0.1356  0.8156 -0.1985
 2332SOL    HW1 7374   5.815   0.672   3.571 -1.5323  3.0704  0.3115
 2332SOL    HW2 7375   5.901   0.717   3.687  0.8477 -0.0638 -0.1006
 2333SOL     OW 7376   2.935   4.599   0.551 -0.2100  0.0334 -0.4747
 2333SOL    HW1 7377   2.919   4.693   0.566  0.9577  0.3922 -1.3131
 2333SOL    HW2 7378   3.027   4.587   0.574 -0.5649 -1.1057  0.4169
 2334SOL     OW 7379   6.657   6.249   6.616  0.2564  0.2165 -0.2189
 2334SOL    HW1 7380   6.653   6.337   6.654 -0.3615  0.8157 -1.5831
 2334SOL    HW2 7381   6.751   6.234   6.599  0.1653  2.4859 -3.9172
 2335SOL     OW 7382   0.788   2.021   2.921  0.4367  0.4395 -0.2128
 2335SOL    HW1 7383   0.764   1.939   2.966 -1.0963  0.0436 -1.6447
 2335SOL    HW2 7384   0.883   2.016   2.911  0.4313 -0.9450  0.1601
 2336SOL     OW 7385   4.366   4.504   3.147 -0.2971  0.4840 -0.6054
 2336SOL    HW1 7386   4.292   4.563   3.136 -0.6316  0.0596 -0.6393
 2336SOL    HW2 7387   4.408   4.501   3.061  0.9754  2.3185 -0.1021
 2337SOL     OW 7388   6.425   5.860   0.742 -0.2025  0.2333  0.5408
 2337SOL    HW1 7389   6.430   5.775   0.698  0.3727  0.5813 -0.0794
 2337SOL    HW2 7390   6.509   5.902   0.724 -0.7605  1.2409  0.1834
 2338SOL     OW 7391   6.801   2.545   4.123  0.0021 -0.3566 -0.0499
 2338SOL    HW1 7392   6.710   2.559   4.151 -0.3728  1.0031 -1.7375
 2338SOL    HW2 7393   6.835   2.634   4.110  0.5189 -0.8439 -2.5146
 2339SOL     OW 7394   5.714   2.335   4.276 -0.3311  0.1340  0.2890
 2339SOL    HW1 7395   5.807   2.357   4.279 -0.6698  2.5333 -2.4635
 2339SOL    HW2 7396   5.699   2.309   4.185 -2.1868 -1.3506  0.9525
 2340SOL     OW 7397   4.547   4.795   4.386  0.7874  0.1516  0.8200
 2340SOL    HW1 7398   4.573   4.716   4.339  0.8351  0.2692  0.6467
 2340SOL    HW2 7399   4.460   4.776   4.419  0.5123  0.2837  0.1837
 2341SOL     OW 7400   0.008   5.875   1.040  0.3040  0.0128 -0.5865
 2341SOL    HW1 7401  -0.087   5.873   1.048  0.4012  0.9461  1.1821
 2341SOL    HW2 7402   0.033   5.783   1.032 -0.7534 -0.2203 -1.5764
 2342SOL     OW 7403   4.381   1.261   5.315  0.7591 -0.7018  0.3375
 2342SOL    HW1 7404   4.304   1.207   5.335  1.2577 -0.9275  1.7485
 2342SOL    HW2 7405   4.345   1.338   5.271 -0.0472 -1.7951 -1.0164
 2343SOL     OW 7406   0.952   0.476   4.710  0.4739 -0.2893  0.1734
 2343SOL    HW1 7407   0.928   0.409   4.774  1.2366 -0.4235  0.3314
 2343SOL    HW2 7408   1.015   0.532   4.756 -0.0436  0.4549 -0.0060
 2344SOL     OW 7409   3.047   4.828   0.039 -0.2365 -0.1624 -0.3769
 2344SOL    HW1 7410   3.079   4.743   0.070 -1.7460 -0.1418  1.4534
 2344SOL    HW2 7411   3.126   4.873   0.007  1.0016 -1.3336  0.8600
 2345SOL     OW 7412   1.366   4.685   3.723 -0.8243  0.4901 -0.1427
 2345SOL    HW1 7413   1.283   4.638   3.720 -1.3306  1.3380  0.0922
 2345SOL    HW2 7414   1.399   4.669   3.812 -0.5086 -0.2271 -0.3898
 2346SOL     OW 7415   1.682   2.471   1.986 -0.1247  0.0292 -0.0021
 2346SOL    HW1 7416   1.752   2.487   2.048  0.1471  0.5999 -0.4467
 2346SOL    HW2 7417   1.685   2.377   1.969 -1.9412 -0.6742  2.9041
 2347SOL     OW 7418   1.548   2.088   6.480  0.1122 -0.8246  0.3189
 2347SOL    HW1 7419   1.479   2.039   6.435  0.8293 -1.3755 -0.1840
 2347SOL    HW2 7420   1.503   2.126   6.557 -0.6880 -1.3784  0.1387
 2348SOL     OW 7421   6.194   6.588   4.580  1.1174 -0.4280 -1.0657
 2348SOL    HW1 7422   6.148   6.654   4.529  0.9662  0.4204  0.1249
 2348SOL    HW2 7423   6.151   6.590   4.666  2.2956 -0.7755 -0.4488
 2349SOL     OW 7424   1.257   2.280   6.218 -0.7429  0.4422 -0.0885
 2349SOL    HW1 7425   1.231   2.190   6.197  1.9123 -0.4585  0.1533
 2349SOL    HW2 7426   1.220   2.333   6.147 -0.5323 -1.1498 -1.4394
 2350SOL     OW 7427   3.377   5.975   3.315 -0.0777 -0.1680  0.5203
 2350SOL    HW1 7428   3.337   5.924   3.244 -1.8264  0.3843  1.0569
 2350SOL    HW2 7429   3.447   5.919   3.347 -1.6196 -2.0779  0.7704
 2351SOL     OW 7430   6.300   3.853   3.257  0.1406  0.4468 -0.4051
 2351SOL    HW1 7431   6.381   3.833   3.304  1.8755 -0.6449 -3.5717
 2351SOL    HW2 7432   6.322   3.929   3.203 -0.6632 -0.3632 -1.9158
 2352SOL     OW 7433   5.734   0.582   4.025  0.2655  0.4955 -0.0447
 2352SOL    HW1 7434   5.801   0.514   4.022  1.3196  1.5040 -3.0196
 2352SOL    HW2 7435   5.771   0.648   4.085  0.5748 -0.2161  0.5704
 2353SOL     OW 7436   2.925   6.144   1.330  0.3067  0.2319 -0.5383
 2353SOL    HW1 7437   2.992   6.083   1.361  0.3938  0.4650 -0.2694
 2353SOL    HW2 7438   2.933   6.141   1.235  1.1743  0.7926 -0.4897
 2354SOL     OW 7439   6.171   5.369   1.402 -0.1029  0.1481  0.4777
 2354SOL    HW1 7440   6.232   5.299   1.378  0.6488  0.8967  0.1744
 2354SOL    HW2 7441   6.112   5.375   1.326  0.2559  0.3063  0.2085
 2355SOL     OW 7442   2.630   4.542   2.316  0.4602  0.2854  0.0432
 2355SOL    HW1 7443   2.535   4.546   2.307  0.4549 -1.1782 -0.9191
 2355SOL    HW2 7444   2.659   4.633   2.304 -0.7351  0.5949 -0.6813
 2356SOL     OW 7445   0.513   3.937   1.468 -0.6188  0.6919 -0.7454
 2356SOL    HW1 7446   0.467   4.021   1.460  0.2043  1.0995 -1.3171
 2356SOL    HW2 7447   0.520   3.905   1.378 -1.3959 -0.2559 -0.4790
 2357SOL     OW 7448   1.428   3.344   6.704  0.3499  0.2279 -0.0177
 2357SOL    HW1 7449   1.455   3.430   6.737 -0.9336  1.5351 -2.1694
 2357SOL    HW2 7450   1.502   3.315   6.650  0.4915  0.3295  0.1204
 2358SOL     OW 7451   1.559   4.128   4.968 -0.2623 -0.2305 -0.0309
 2358SOL    HW1 7452   1.606   4.046   4.986 -1.6926 -1.1859 -0.4629
 2358SOL    HW2 7453   1.573   4.143   4.875 -0.0132  0.0131  0.0455
 2359SOL     OW 7454   0.622   5.853   2.725  0.4306  0.2598 -0.0090
 2359SOL    HW1 7455   0.664   5.808   2.651  0.4569 -0.8843  0.6813
 2359SOL    HW2 7456   0.536   5.812   2.733 -0.5992  2.0854 -0.9479
 2360SOL     OW 7457   5.883   6.123   2.344  0.2682 -0.1543 -0.5739
 2360SOL    HW1 7458   5.976   6.144   2.341  0.3863 -0.7314 -2.2490
 2360SOL    HW2 7459   5.876   6.055   2.411  1.1727 -0.5831 -0.8920
 2361SOL     OW 7460   3.573   1.237   3.468  0.2975 -0.3051  0.7852
 2361SOL    HW1 7461   3.580   1.161   3.526  0.0298 -1.2509 -0.3846
 2361SOL    HW2 7462   3.637   1.220   3.399 -1.4769 -0.7159 -0.8421
 2362SOL     OW 7463   4.135   3.554   1.526  0.3239 -0.3549 -0.4572
 2362SOL    HW1 7464   4.073   3.620   1.557  0.1552 -0.8341  0.2334
 2362SOL    HW2 7465   4.221   3.595   1.537  0.2470 -0.4069  0.3624
 2363SOL     OW 7466   5.905   3.942   0.223 -0.2480 -0.0500 -0.1086
 2363SOL    HW1 7467   5.994   3.956   0.254  1.1631 -1.9402 -2.9627
 2363SOL    HW2 7468   5.869   3.875   0.281  1.2067 -1.2756 -0.5830
 2364SOL     OW 7469   6.709   6.589   2.881  0.1144 -0.1311 -0.2682
 2364SOL    HW1 7470   6.792   6.621   2.847 -0.6896  1.2395 -1.0131
 2364SOL    HW2 7471   6.649   6.663   2.873 -1.2678 -1.1767 -0.0268
 2365SOL     OW 7472   6.501   1.945   0.646 -0.0513 -0.0810 -0.4403
 2365SOL    HW1 7473   6.571   2.003   0.618 -0.1505  0.3813  0.2439
 2365SOL    HW2 7474   6.544   1.876   0.696  0.1892 -1.2083 -2.1256
 2366SOL     OW 7475   4.672   2.810   6.163 -0.5119 -0.7587 -0.4893
 2366SOL    HW1 7476   4.750   2.760   6.143  0.1506  0.6471 -1.6183
 2366SOL    HW2 7477   4.649   2.853   6.080 -1.7884 -0.2060  0.1194
 2367SOL     OW 7478   6.762   4.845   0.655 -0.4684  0.2111 -0.5082
 2367SOL    HW1 7479   6.761   4.938   0.675  1.7215  0.0959  0.5051
 2367SOL    HW2 7480   6.674   4.825   0.625 -2.1333  1.8358  2.8475
 2368SOL     OW 7481   4.274   3.122   5.452 -0.8590 -0.7656  0.2303
 2368SOL    HW1 7482   4.248   3.209   5.480 -1.0812 -0.5628 -0.5879
 2368SOL    HW2 7483   4.210   3.063   5.492 -0.4701 -0.6016  1.1165
 2369SOL     OW 7484   6.713   2.110   0.519  0.2167 -0.2181  0.1558
 2369SOL    HW1 7485   6.786   2.140   0.465 -0.1485 -0.9305 -0.7536
 2369SOL    HW2 7486   6.673   2.039   0.469  1.4320 -2.7264  2.4461
 2370SOL     OW 7487   6.023   3.963   5.897 -0.2105  0.0788 -0.0623
 2370SOL    HW1 7488   6.107   3.961   5.852 -0.7702 -1.9389 -1.1319
 2370SOL    HW2 7489   5.961   3.997   5.833 -0.5917 -0.5979 -0.0729
 2371SOL     OW 7490   4.893   0.510   2.587 -0.0481  0.1588 -0.1329
 2371SOL    HW1 7491   4.934   0.425   2.571  0.1696  0.1348  0.5363
 2371SOL    HW2 7492   4.849   0.500   2.671 -0.6256  0.4895 -0.3941
 2372SOL     OW 7493   0.800   0.832   2.876  0.5358 -0.0626  0.4009
 2372SOL    HW1 7494   0.746   0.778   2.935 -0.7981  2.0194  1.2082
 2372SOL    HW2 7495   0.748   0.837   2.795  1.9060 -2.0931 -0.7019
 2373SOL     OW 7496   1.460   4.287   6.800  0.6067 -0.2134  0.0982
 2373SOL    HW1 7497   1.536   4.231   6.816  1.6385  0.3252 -2.4475
 2373SOL    HW2 7498   1.498   4.370   6.771 -0.7789 -0.8949 -4.3818
 2374SOL     OW 7499   5.015   3.002   4.435  0.1004  0.0578  0.2359
 2374SOL    HW1 7500   5.010   3.090   4.398  3.1534  0.6603  0.9423
 2374SOL    HW2 7501   4.929   2.964   4.419 -1.1735  2.9738 -0.5430
 2375SOL     OW 7502   3.307   5.919   4.968  0.0514 -0.4054  0.2598
 2375SOL    HW1 7503   3.323   6.012   4.989  1.9684 -0.3874 -1.0180
 2375SOL    HW2 7504   3.213   5.913   4.956 -0.2168  1.1842  1.2169
 2376SOL     OW 7505   0.803   4.231   1.271  0.3319  0.2697 -0.2317
 2376SOL    HW1 7506   0.884   4.206   1.227 -0.4822 -0.9225 -1.1357
 2376SOL    HW2 7507   0.807   4.188   1.356  0.1193 -0.8054 -0.7525
 2377SOL     OW 7508   6.446   3.692   3.464 -0.6833  0.1279 -0.0579
 2377SOL    HW1 7509   6.438   3.599   3.445  0.2828  0.2288 -1.0551
 2377SOL    HW2 7510   6.532   3.702   3.503  0.2563  0.8817 -2.1413
 2378SOL     OW 7511   6.101   0.908   6.391 -0.4322 -0.1670  0.8962
 2378SOL    HW1 7512   6.187   0.952   6.396 -0.3820 -0.2025  0.3802
 2378SOL    HW2 7513   6.047   0.968   6.340 -0.1201 -1.0784 -0.5587
 2379SOL     OW 7514   4.232   3.342   1.061  0.1026 -0.2177 -0.0904
 2379SOL    HW1 7515   4.228   3.365   1.154  1.1057 -0.9773  0.1580
 2379SOL    HW2 7516   4.145   3.306   1.042 -0.2075  0.2073  0.4727
 2380SOL     OW 7517   0.221   5.713   1.938  1.2729  0.4261  0.2139
 2380SOL    HW1 7518   0.220   5.779   2.008  1.6398  0.1456  0.4916
 2380SOL    HW2 7519   0.173   5.754   1.866 -1.0805 -0.1069  1.3706
 2381SOL     OW 7520   2.301   0.630   1.889 -0.3349 -0.3088 -0.8029
 2381SOL    HW1 7521   2.375   0.611   1.946  0.1211 -0.2175 -1.3532
 2381SOL    HW2 7522   2.245   0.687   1.941 -0.3452 -0.9074 -0.1433
 2382SOL     OW 7523   1.217   6.757   1.694 -0.3649 -0.0330 -0.0231
 2382SOL    HW1 7524   1.122   6.764   1.684 -0.5006 -0.2823  0.9666
 2382SOL    HW2 7525   1.251   6.751   1.605 -1.3574 -0.8372 -0.3549
 2383SOL     OW 7526   5.630   3.605   5.344  0.0432  0.1721  0.7540
 2383SOL    HW1 7527   5.581   3.539   5.294  1.9099  0.1675 -1.2444
 2383SOL    HW2 7528   5.718   3.568   5.353  0.3190  1.1191  2.2430
 2384SOL     OW 7529   1.178   6.136   3.745 -0.1319  0.7322 -0.3066
 2384SOL    HW1 7530   1.213   6.225   3.748 -1.0342  1.0588  1.8582
 2384SOL    HW2 7531   1.250   6.080   3.774  0.0806  0.8680 -0.5684
 2385SOL     OW 7532   3.506   1.217   3.120 -0.4526 -0.1372 -0.0424
 2385SOL    HW1 7533   3.593   1.243   3.153 -0.4567  0.3393 -0.4072
 2385SOL    HW2 7534   3.477   1.149   3.182  0.0567 -0.0995  0.2468
 2386SOL     OW 7535   0.245   1.975   3.115  0.5424  0.2881  0.2022
 2386SOL    HW1 7536   0.217   2.058   3.076  0.0701  0.6477  1.2911
 2386SOL    HW2 7537   0.333   1.960   3.078  1.1365  1.8790  0.9032
 2387SOL     OW 7538   0.493   0.654   2.608 -0.1143 -0.1038  0.1179
 2387SOL    HW1 7539   0.509   0.559   2.603  0.0201 -0.0719 -0.0614
 2387SOL    HW2 7540   0.399   0.662   2.590 -0.3059 -0.2741  1.0018
 2388SOL     OW 7541   5.878   2.523   0.275  0.4935  0.0780  0.0460
 2388SOL    HW1 7542   5.818   2.572   0.219  1.4290  0.4490 -0.6699
 2388SOL    HW2 7543   5.825   2.452   0.311 -0.6560  1.0680  0.3785
 2389SOL     OW 7544   0.338   4.130   6.591  0.2754 -0.6968 -0.2281
 2389SOL    HW1 7545   0.276   4.117   6.519 -0.0847 -1.8534  0.2805
 2389SOL    HW2 7546   0.413   4.173   6.549 -1.0480  1.2439 -0.7450
 2390SOL     OW 7547   2.974   3.083   6.707 -0.4938  0.1095  0.0110
 2390SOL    HW1 7548   2.959   3.123   6.793 -1.6463 -0.1598 -0.0562
 2390SOL    HW2 7549   3.031   3.008   6.725 -0.2889  0.3672  0.4588
 2391SOL     OW 7550   0.507   1.213   1.288  0.3915  0.6715 -0.0037
 2391SOL    HW1 7551   0.590   1.197   1.243  0.5026 -1.0654  0.7115
 2391SOL    HW2 7552   0.440   1.201   1.220  0.6122 -0.8934  0.0085
 2392SOL     OW 7553   5.448   0.755   1.574 -0.5953 -0.5222  0.0363
 2392SOL    HW1 7554   5.420   0.664   1.572 -1.9062 -0.1686  1.2145
 2392SOL    HW2 7555   5.368   0.806   1.583  0.2894  0.5479  3.1355
 2393SOL     OW 7556   4.831   1.027   6.602  0.6007 -0.2457 -0.2392
 2393SOL    HW1 7557   4.813   1.056   6.513  1.2767  0.5141 -0.1448
 2393SOL    HW2 7558   4.819   0.932   6.600  1.9884 -0.4320 -1.4901
 2394SOL     OW 7559   5.651   6.499   4.261 -0.6955 -0.4788 -0.0942
 2394SOL    HW1 7560   5.578   6.437   4.263  0.0419 -1.3652  0.2175
 2394SOL    HW2 7561   5.712   6.462   4.197 -0.1575 -0.1941  0.2458
 2395SOL     OW 7562   3.538   4.004   5.064  0.0683 -0.1487 -0.0563
 2395SOL    HW1 7563   3.443   3.997   5.070  0.1585 -1.0242  0.6078
 2395SOL    HW2 7564   3.566   4.031   5.151  0.6147 -2.6891  0.6454
 2396SOL     OW 7565   3.642   6.204   2.656  0.4924 -0.1715 -0.1279
 2396SOL    HW1 7566   3.596   6.129   2.617 -1.8865  1.6512 -1.1083
 2396SOL    HW2 7567   3.633   6.274   2.592  1.6798  1.2865  1.2104
 2397SOL     OW 7568   3.329   0.738   3.150 -0.1919  0.1977  0.5545
 2397SOL    HW1 7569   3.337   0.659   3.097 -0.4273 -0.4789  1.5160
 2397SOL    HW2 7570   3.390   0.800   3.109 -1.4770  0.2415 -1.4515
 2398SOL     OW 7571   2.200   6.527   6.631 -0.1995 -0.3283  0.0533
 2398SOL    HW1 7572   2.204   6.448   6.577  0.8052  0.1720 -0.6498
 2398SOL    HW2 7573   2.107   6.542   6.644 -0.4214 -1.2576 -0.3698
 2399SOL     OW 7574   4.244   3.681   2.739  0.1750  0.1690 -0.3056
 2399SOL    HW1 7575   4.295   3.755   2.771 -1.4144  0.1117  2.8583
 2399SOL    HW2 7576   4.154   3.714   2.733 -0.1079 -0.7532 -1.7913
 2400SOL     OW 7577   4.313   5.162   6.507 -0.7943 -0.1353 -0.2217
 2400SOL    HW1 7578   4.398   5.198   6.483 -0.5098 -1.2932 -1.0280
 2400SOL    HW2 7579   4.302   5.187   6.599  0.4990 -0.1089 -0.0500
 2401SOL     OW 7580   3.178   6.543   4.817  0.4128 -0.4265  0.2465
 2401SOL    HW1 7581   3.180   6.612   4.750 -1.4407 -0.2626  0.3164
 2401SOL    HW2 7582   3.236   6.575   4.885  2.0640 -0.4223 -1.0923
 2402SOL     OW 7583   3.152   1.832   4.174 -0.2149 -0.2611 -0.1860
 2402SOL    HW1 7584   3.237   1.826   4.217 -0.2180 -0.8933 -0.2672
 2402SOL    HW2 7585   3.115   1.744   4.179 -0.0045 -0.4797 -1.9112
 2403SOL     OW 7586   1.771   6.311   6.777  0.0377  0.2406 -0.2633
 2403SOL    HW1 7587   1.729   6.292   6.860 -0.0705 -0.1709 -0.4094
 2403SOL    HW2 7588   1.763   6.406   6.766  0.8396  0.4253  0.6183
 2404SOL     OW 7589   2.370   0.021   4.783  0.5214 -0.0284  0.1540
 2404SOL    HW1 7590   2.372   0.062   4.697  0.1126 -0.8137 -0.2363
 2404SOL    HW2 7591   2.283  -0.017   4.790 -0.0613  1.4308  1.5939
 2405SOL     OW 7592   3.825   2.368   5.613 -0.2474 -0.4821 -0.2912
 2405SOL    HW1 7593   3.847   2.308   5.684  0.3028 -0.4314 -0.4173
 2405SOL    HW2 7594   3.735   2.394   5.631 -0.3196 -0.9495  0.0447
 2406SOL     OW 7595   4.271   6.364   5.868  0.2019 -0.0049  0.0406
 2406SOL    HW1 7596   4.279   6.435   5.804 -0.9221 -0.4016 -0.5722
 2406SOL    HW2 7597   4.343   6.378   5.929  1.4160  0.2848 -1.4195
 2407SOL     OW 7598   5.689   5.172   2.267  0.2278  0.1807  0.1340
 2407SOL    HW1 7599   5.642   5.237   2.215  1.6091  0.7736 -0.3955
 2407SOL    HW2 7600   5.700   5.097   2.209 -0.3569 -0.1056  0.3786
 2408SOL     OW 7601   5.153   0.883   1.153  0.0007 -0.1444  0.0372
 2408SOL    HW1 7602   5.181   0.825   1.082  0.0598 -0.3228  0.2060
 2408SOL    HW2 7603   5.231   0.933   1.176 -0.7706  2.3375 -2.2881
 2409SOL     OW 7604   5.679   2.121   5.487  0.1482 -0.0721  0.5082
 2409SOL    HW1 7605   5.741   2.194   5.480 -0.2793  0.1929 -0.7381
 2409SOL    HW2 7606   5.597   2.156   5.452 -0.1380 -1.0697  0.1597
 2410SOL     OW 7607   5.318   5.245   0.111 -0.0446 -0.0189 -0.5826
 2410SOL    HW1 7608   5.239   5.195   0.133  0.3636 -0.1014  0.7783
 2410SOL    HW2 7609   5.389   5.200   0.158  0.4473  1.3803  0.0752
 2411SOL     OW 7610   4.487   5.781   0.516 -0.4587  0.0494 -0.1809
 2411SOL    HW1 7611   4.392   5.780   0.525 -0.5211  0.0804 -0.7712
 2411SOL    HW2 7612   4.503   5.760   0.424  0.0662  1.0965 -0.3431
 2412SOL     OW 7613   1.582   5.460   0.814  0.1211 -0.0910  0.1218
 2412SOL    HW1 7614   1.633   5.385   0.785 -0.1423 -0.2586  0.0877
 2412SOL    HW2 7615   1.493   5.426   0.825 -0.3034  0.5239 -1.2286
 2413SOL     OW 7616   5.300   1.551   6.130 -0.3088 -0.1444 -0.7019
 2413SOL    HW1 7617   5.294   1.627   6.188 -1.5462 -2.7334  3.0016
 2413SOL    HW2 7618   5.386   1.557   6.090  0.9020  1.6531  1.8897
 2414SOL     OW 7619   2.243   5.327   3.632  0.0829  0.0784 -0.3799
 2414SOL    HW1 7620   2.285   5.320   3.546  1.7677  0.6816  0.3564
 2414SOL    HW2 7621   2.315   5.345   3.693 -1.2456  1.0570  0.9712
 2415SOL     OW 7622   3.652   4.663   0.008  0.5733 -0.7110 -0.3541
 2415SOL    HW1 7623   3.601   4.741  -0.012  1.4791 -0.1228 -0.4231
 2415SOL    HW2 7624   3.612   4.594  -0.045 -0.8661 -0.5512  0.4476
 2416SOL     OW 7625   1.942   5.271   0.905 -0.0537 -0.6017  0.3639
 2416SOL    HW1 7626   2.030   5.309   0.897  0.4647 -1.8455  0.0479
 2416SOL    HW2 7627   1.954   5.178   0.890 -1.1583 -1.0696  2.1463
 2417SOL     OW 7628   2.814   4.491   6.342  0.1368 -0.1047 -0.4539
 2417SOL    HW1 7629   2.872   4.513   6.269  0.4476 -3.4049 -1.3531
 2417SOL    HW2 7630   2.732   4.537   6.322  0.4867 -0.2481 -2.4311
 2418SOL     OW 7631   2.414   2.792   2.741 -0.5107  0.1847  0.4155
 2418SOL    HW1 7632   2.342   2.729   2.751  0.2146 -0.5665  1.0289
 2418SOL    HW2 7633   2.493   2.740   2.754  0.1277  1.1364  0.4164
 2419SOL     OW 7634   3.345   6.325   6.168  0.3162  0.0898  0.5449
 2419SOL    HW1 7635   3.282   6.337   6.097  1.9911 -1.1424 -1.2649
 2419SOL    HW2 7636   3.387   6.410   6.178  0.1514  0.2478 -0.0686
 2420SOL     OW 7637   6.332   4.637   5.338  0.7123  0.4993  0.7891
 2420SOL    HW1 7638   6.396   4.704   5.361 -1.4178  1.7669  3.5481
 2420SOL    HW2 7639   6.274   4.632   5.413 -2.9654  0.0510 -1.8101
 2421SOL     OW 7640   4.236   5.765   4.765  0.2611 -0.5369  0.0444
 2421SOL    HW1 7641   4.259   5.853   4.794  0.2303 -0.8759  1.1282
 2421SOL    HW2 7642   4.225   5.773   4.670 -1.5289  1.0188  0.3360
 2422SOL     OW 7643   0.283   6.704   1.795  0.5188 -0.4453  0.0097
 2422SOL    HW1 7644   0.371   6.739   1.806  0.7062 -0.6614 -0.7762
 2422SOL    HW2 7645   0.295   6.611   1.776  0.2606 -0.0270 -2.4396
 2423SOL     OW 7646   2.567   6.696   4.815 -0.0602  0.1430 -0.2594
 2423SOL    HW1 7647   2.606   6.708   4.728  2.0116 -1.7940  0.3254
 2423SOL    HW2 7648   2.500   6.764   4.820  1.1067  1.6051 -2.5823
 2424SOL     OW 7649   2.104   5.077   3.914 -0.1289 -0.2771 -0.0487
 2424SOL    HW1 7650   2.165   5.126   3.969  0.1566 -0.2182 -0.4115
 2424SOL    HW2 7651   2.111   4.987   3.946 -0.8542 -0.0451  0.7913
 2425SOL     OW 7652   5.498   3.226   6.040 -0.0418 -0.5251 -0.6474
 2425SOL    HW1 7653   5.574   3.274   6.074 -0.4368  0.1114 -0.6522
 2425SOL    HW2 7654   5.442   3.293   6.002 -1.2703 -0.7983  0.6054
 2426SOL     OW 7655   3.130   6.805   5.348  0.2937 -0.1990 -0.2132
 2426SOL    HW1 7656   3.202   6.846   5.301  1.5729 -0.9328  1.0185
 2426SOL    HW2 7657   3.137   6.712   5.326  0.4352 -0.4383  0.7830
 2427SOL     OW 7658   0.742   5.999   1.543 -0.2345 -0.0567 -0.9810
 2427SOL    HW1 7659   0.777   5.919   1.582  0.4494  0.4648 -0.5011
 2427SOL    HW2 7660   0.706   5.971   1.458 -1.2929 -1.1117 -0.2201
 2428SOL     OW 7661   4.184   2.204   3.268 -0.0274  0.6564 -0.0816
 2428SOL    HW1 7662   4.122   2.228   3.337 -0.2558 -0.2970  0.0574
 2428SOL    HW2 7663   4.269   2.202   3.313 -0.4008 -1.7603  0.6582
 2429SOL     OW 7664   3.811   3.406   6.708  0.4085  0.0673 -0.3586
 2429SOL    HW1 7665   3.778   3.403   6.797  1.9363  1.9397  0.3294
 2429SOL    HW2 7666   3.734   3.391   6.653 -0.9529  1.0010  1.2212
 2430SOL     OW 7667   0.409   2.695   4.795 -0.5126 -0.4403  0.1817
 2430SOL    HW1 7668   0.471   2.648   4.739  1.7766  1.3893  0.9805
 2430SOL    HW2 7669   0.375   2.765   4.739 -0.1009 -0.0903  0.3613
 2431SOL     OW 7670   3.704   6.710   3.346 -0.1256  0.3933 -0.1137
 2431SOL    HW1 7671   3.695   6.805   3.349 -2.3320  0.2298  0.8808
 2431SOL    HW2 7672   3.618   6.678   3.319 -0.4685 -1.3918  2.6061
 2432SOL     OW 7673   0.914   2.932   2.418  0.4455 -0.0259 -0.0353
 2432SOL    HW1 7674   0.977   2.977   2.474  1.0539 -1.8380  0.7872
 2432SOL    HW2 7675   0.966   2.899   2.345 -0.0262  0.6730 -0.7085
 2433SOL     OW 7676   5.950   0.875   4.662  0.1974  0.1613  0.0124
 2433SOL    HW1 7677   6.024   0.918   4.620  1.0071 -1.3374 -0.1697
 2433SOL    HW2 7678   5.874   0.904   4.612  0.7797  0.8499 -0.5001
 2434SOL     OW 7679   5.343   5.168   1.859  0.3639 -0.1105 -0.5244
 2434SOL    HW1 7680   5.290   5.129   1.790 -0.9616  2.7974 -1.3122
 2434SOL    HW2 7681   5.401   5.229   1.814 -0.9835  2.3456  0.8922
 2435SOL     OW 7682   1.667   4.119   3.151 -0.0452 -0.0662  0.4669
 2435SOL    HW1 7683   1.652   4.210   3.129  0.7889 -0.2547 -1.0217
 2435SOL    HW2 7684   1.709   4.121   3.237 -1.9583  0.7945  1.4392
 2436SOL     OW 7685   5.314   1.327   2.214  0.0647 -0.7494  0.6105
 2436SOL    HW1 7686   5.254   1.372   2.272  1.2838  0.5782  0.9027
 2436SOL    HW2 7687   5.302   1.234   2.233 -0.2857 -0.3913  2.2431
 2437SOL     OW 7688   6.659   5.510   6.149  0.1027 -0.0694 -0.1566
 2437SOL    HW1 7689   6.565   5.521   6.132 -0.0485  0.3658  0.8953
 2437SOL    HW2 7690   6.678   5.572   6.219  0.7460 -1.5190  1.0055
 2438SOL     OW 7691   2.083   1.817   4.682  0.0815  0.7790  0.4251
 2438SOL    HW1 7692   1.988   1.812   4.688  0.2043 -0.5042  2.6548
 2438SOL    HW2 7693   2.107   1.748   4.621 -0.4102  0.9537  0.0335
 2439SOL     OW 7694   3.615   6.152   6.146  0.2281  0.4024 -0.3326
 2439SOL    HW1 7695   3.698   6.194   6.122  0.0849  0.2076 -1.1791
 2439SOL    HW2 7696   3.566   6.220   6.192 -0.6617  1.7324 -3.0478
 2440SOL     OW 7697   5.774   2.827   4.791  0.0003  0.8010  0.3166
 2440SOL    HW1 7698   5.752   2.788   4.706 -3.0560 -1.9097  2.0960
 2440SOL    HW2 7699   5.728   2.911   4.791  0.6380  1.1762 -0.9367
 2441SOL     OW 7700   6.710   4.062   5.730 -0.6723  0.0622 -0.2413
 2441SOL    HW1 7701   6.685   4.057   5.822  1.3202 -1.4214  0.2902
 2441SOL    HW2 7702   6.791   4.113   5.730 -0.0659 -0.8778 -1.0175
 2442SOL     OW 7703   3.354   4.901   3.875  0.6581  0.1341 -0.8561
 2442SOL    HW1 7704   3.397   4.820   3.904  0.8398  0.6078  0.2747
 2442SOL    HW2 7705   3.309   4.932   3.953 -1.0683  0.0977 -1.8031
 2443SOL     OW 7706   6.779   5.181   3.244  0.4795  0.2379 -0.1962
 2443SOL    HW1 7707   6.825   5.245   3.298 -1.9476  0.9092  1.2885
 2443SOL    HW2 7708   6.790   5.211   3.154 -0.9475  3.1093  0.4696
 2444SOL     OW 7709   3.808   0.595   6.460 -0.2216 -0.6740  0.0365
 2444SOL    HW1 7710   3.901   0.596   6.480 -0.2977 -0.5366  0.3830
 2444SOL    HW2 7711   3.765   0.622   6.541 -0.5994 -1.4169  0.0964
 2445SOL     OW 7712   2.088   3.905   3.885  0.0721  0.5432 -0.1643
 2445SOL    HW1 7713   2.034   3.909   3.806  1.8163  0.0295 -1.4371
 2445SOL    HW2 7714   2.140   3.825   3.876  1.8978  1.5879  0.4098
 2446SOL     OW 7715   6.296   3.344   0.179 -0.4024  0.5754  0.6453
 2446SOL    HW1 7716   6.222   3.318   0.233 -0.9075 -0.4362 -0.5102
 2446SOL    HW2 7717   6.276   3.311   0.092  1.1499  0.7651  0.1842
 2447SOL     OW 7718   3.685   4.608   1.193  0.0964 -0.5905 -0.5074
 2447SOL    HW1 7719   3.741   4.570   1.125  0.7845  1.0825 -0.9224
 2447SOL    HW2 7720   3.595   4.591   1.163  0.3579 -1.9128 -0.6209
 2448SOL     OW 7721   2.797   1.016   0.176  0.0163  0.0283 -0.3772
 2448SOL    HW1 7722   2.828   1.001   0.087 -2.0235  0.3658 -1.1862
 2448SOL    HW2 7723   2.754   1.101   0.173 -2.4683 -1.1172  0.2039
 2449SOL     OW 7724   0.218   6.209   0.517  0.1316  0.2455  0.3331
 2449SOL    HW1 7725   0.307   6.183   0.491  0.8733  1.5244  1.4357
 2449SOL    HW2 7726   0.231   6.261   0.596 -1.4931  1.5372 -0.1944
 2450SOL     OW 7727   0.110   0.282   4.453  0.0006 -0.3631 -0.2063
 2450SOL    HW1 7728   0.016   0.281   4.473  0.0786 -1.0197  0.1781
 2450SOL    HW2 7729   0.147   0.213   4.509  1.0112  1.1770  1.1059
 2451SOL     OW 7730   6.243   0.186   4.124  0.6200  0.1868 -0.5215
 2451SOL    HW1 7731   6.290   0.136   4.190 -0.4991 -1.8473 -1.1564
 2451SOL    HW2 7732   6.307   0.199   4.053  1.4517  1.3109  0.3966
 2452SOL     OW 7733   4.895   4.579   3.230 -0.3871  0.7098  0.3155
 2452SOL    HW1 7734   4.905   4.501   3.284 -1.1599  0.7264  0.4968
 2452SOL    HW2 7735   4.818   4.624   3.266 -0.3427  1.2106 -0.1970
 2453SOL     OW 7736   5.978   2.160   5.996  0.4214 -0.4266 -0.0075
 2453SOL    HW1 7737   5.906   2.121   5.946  0.7728 -0.4488 -0.5053
 2453SOL    HW2 7738   5.936   2.226   6.050  0.3194  1.5785 -2.3606
 2454SOL     OW 7739   0.589   2.980   6.501  0.3039  0.2650 -0.5274
 2454SOL    HW1 7740   0.671   2.950   6.540 -1.0274  0.3240  2.5642
 2454SOL    HW2 7741   0.550   2.901   6.463  1.5293  0.1693 -1.6845
 2455SOL     OW 7742   6.011   6.506   4.303  0.3837  0.0062 -0.0729
 2455SOL    HW1 7743   6.019   6.570   4.373 -0.5318  0.7831 -0.6493
 2455SOL    HW2 7744   6.082   6.528   4.242  0.0163  0.5306 -0.3120
 2456SOL     OW 7745   3.373   0.316   6.765  0.2997  0.0939  0.3934
 2456SOL    HW1 7746   3.418   0.309   6.681  0.5198  0.6613  0.4641
 2456SOL    HW2 7747   3.280   0.315   6.742  0.3316 -1.0486  0.2440
 2457SOL     OW 7748   4.106   3.577   3.773 -0.5532  0.0924  0.3064
 2457SOL    HW1 7749   4.036   3.605   3.832 -0.7272  0.6249 -0.1417
 2457SOL    HW2 7750   4.152   3.658   3.750 -1.4230  0.1185 -1.4678
 2458SOL     OW 7751   1.060   4.458   5.667  0.4019  0.0334  0.6674
 2458SOL    HW1 7752   1.003   4.492   5.599  0.7664  0.8559  0.7618
 2458SOL    HW2 7753   1.080   4.368   5.639 -0.0548  0.1119  0.0823
 2459SOL     OW 7754   5.467   5.158   4.454 -0.2974 -0.1468  0.0850
 2459SOL    HW1 7755   5.520   5.095   4.406 -0.1855 -0.9953  1.2811
 2459SOL    HW2 7756   5.380   5.118   4.457 -0.3597  0.0123  0.3846
 2460SOL     OW 7757   4.761   5.779   4.566  0.1926 -0.0378 -0.1792
 2460SOL    HW1 7758   4.687   5.834   4.592  0.1815 -1.0198  2.0269
 2460SOL    HW2 7759   4.721   5.703   4.524 -0.3023 -1.4985  2.6891
 2461SOL     OW 7760   0.973   5.689   4.886 -0.4462  0.4398 -0.2662
 2461SOL    HW1 7761   1.027   5.611   4.892 -0.5116  0.5275  2.0980
 2461SOL    HW2 7762   1.020   5.746   4.824  1.7691  0.1973  1.1013
 2462SOL     OW 7763   2.053   6.784   2.412  0.2816  0.1198 -0.4629
 2462SOL    HW1 7764   1.977   6.741   2.371  0.4384 -1.2230  0.5925
 2462SOL    HW2 7765   2.118   6.790   2.342  0.0531 -0.8906 -0.7761
 2463SOL     OW 7766   2.761   0.550   2.690  0.2362 -0.0196  0.0625
 2463SOL    HW1 7767   2.805   0.529   2.608 -0.6220 -0.4848 -0.2931
 2463SOL    HW2 7768   2.757   0.646   2.691 -2.2344 -0.0080 -1.8448
 2464SOL     OW 7769   3.680   5.741   5.242 -0.1803  0.0665  0.5373
 2464SOL    HW1 7770   3.609   5.686   5.275 -0.3058 -0.6951 -0.9250
 2464SOL    HW2 7771   3.646   5.830   5.245 -0.2441  0.0150  2.2488
 2465SOL     OW 7772   6.204   0.655   4.915  0.0515 -0.4523 -0.1988
 2465SOL    HW1 7773   6.242   0.664   4.827 -0.0327 -2.4472 -0.4844
 2465SOL    HW2 7774   6.276   0.620   4.968 -0.6556 -1.9274 -0.1663
 2466SOL     OW 7775   3.947   1.891   2.347  0.0961 -0.0813  0.1132
 2466SOL    HW1 7776   3.852   1.882   2.339  0.3073 -1.8008 -0.9640
 2466SOL    HW2 7777   3.960   1.927   2.434 -1.5049 -0.8334  0.7095
 2467SOL     OW 7778   3.304   5.962   5.446  0.2059  0.1301 -0.2463
 2467SOL    HW1 7779   3.385   5.979   5.398  0.0903 -1.0885 -0.9295
 2467SOL    HW2 7780   3.308   6.019   5.522  2.6937 -1.3397  0.8556
 2468SOL     OW 7781   1.675   0.921   5.184  0.3960  0.2453  0.1204
 2468SOL    HW1 7782   1.683   0.994   5.122  1.0008 -0.5604 -0.7771
 2468SOL    HW2 7783   1.587   0.931   5.222 -0.0743  0.6487 -1.0247
 2469SOL     OW 7784   0.104   6.339   1.515  0.4707  0.5392  0.8206
 2469SOL    HW1 7785   0.128   6.364   1.426 -0.4419  1.1434  0.7356
 2469SOL    HW2 7786   0.172   6.277   1.541 -0.1477 -1.0037 -0.9293
 2470SOL     OW 7787   4.639   0.995   0.958 -0.0216  0.3004 -0.0531
 2470SOL    HW1 7788   4.639   1.066   1.022  0.5638  0.9099 -0.7098
 2470SOL    HW2 7789   4.732   0.983   0.935 -0.1379 -0.4935 -0.1531
 2471SOL     OW 7790   5.548   0.481   4.593 -0.3048  0.5903  0.3478
 2471SOL    HW1 7791   5.499   0.435   4.661 -1.2460  1.2105  0.1127
 2471SOL    HW2 7792   5.601   0.545   4.640 -0.2384  0.3757  0.5634
 2472SOL     OW 7793   6.792   1.180   2.445  0.1043  0.0188 -0.5946
 2472SOL    HW1 7794   6.807   1.092   2.412  1.1367 -0.0285 -0.0420
 2472SOL    HW2 7795   6.876   1.225   2.432 -0.3601  0.8642 -0.7185
 2473SOL     OW 7796   5.464   0.747   0.726  0.4665  0.6675  0.4985
 2473SOL    HW1 7797   5.515   0.672   0.695 -0.7051 -0.8152  1.9383
 2473SOL    HW2 7798   5.405   0.767   0.653  1.1070  0.4950 -0.0776
 2474SOL     OW 7799   5.373   3.363   5.007 -0.4558 -0.0596  0.8885
 2474SOL    HW1 7800   5.379   3.344   4.913  1.4821  2.3072  0.4326
 2474SOL    HW2 7801   5.287   3.401   5.019  0.3576  2.5592 -0.6543
 2475SOL     OW 7802   3.834   3.598   3.888 -0.7966 -0.1600 -0.0453
 2475SOL    HW1 7803   3.864   3.689   3.898 -1.0305  0.0778 -1.3467
 2475SOL    HW2 7804   3.743   3.606   3.860 -0.9555 -0.8178  0.2637
 2476SOL     OW 7805   5.634   0.005   4.892 -0.5022  0.0965 -0.3007
 2476SOL    HW1 7806   5.685   0.074   4.849  1.8867 -0.1216  1.9567
 2476SOL    HW2 7807   5.633  -0.066   4.828 -0.8073  1.2697 -1.6616
 2477SOL     OW 7808   2.068   0.303   2.441  0.5602  0.7913 -0.2447
 2477SOL    HW1 7809   2.162   0.290   2.454  0.7071  1.4559 -0.6292
 2477SOL    HW2 7810   2.049   0.388   2.480  0.5948  1.8017 -2.2887
 2478SOL     OW 7811   3.416   1.800   4.281  0.2768  0.0131  0.3232
 2478SOL    HW1 7812   3.510   1.809   4.263  0.2168 -0.5416 -0.3163
 2478SOL    HW2 7813   3.405   1.708   4.304  0.2898  0.6045  2.9782
 2479SOL     OW 7814   1.761   5.245   4.332 -0.2692 -0.2804  0.5912
 2479SOL    HW1 7815   1.764   5.314   4.266  0.4996 -0.0741  0.8332
 2479SOL    HW2 7816   1.801   5.169   4.289  0.0554 -0.2016  0.7531
 2480SOL     OW 7817   1.334   6.661   3.023  0.1254  0.3797 -0.3503
 2480SOL    HW1 7818   1.255   6.697   3.064 -0.1354 -1.3415  0.7775
 2480SOL    HW2 7819   1.393   6.735   3.016 -0.4305  1.0841  1.7351
 2481SOL     OW 7820   6.108   0.594   4.091  0.4154  0.2003 -0.3035
 2481SOL    HW1 7821   6.134   0.554   4.174 -0.0322  0.4369 -0.0457
 2481SOL    HW2 7822   6.038   0.655   4.114 -1.7416 -1.7835 -1.1743
 2482SOL     OW 7823   5.810   4.197   5.239  0.6080  0.3134 -0.0035
 2482SOL    HW1 7824   5.724   4.175   5.273  0.7251  0.6073  0.4855
 2482SOL    HW2 7825   5.872   4.165   5.304  0.7861  2.0001  0.7222
 2483SOL     OW 7826   3.489   0.657   0.133 -0.5884  0.2686  0.2771
 2483SOL    HW1 7827   3.436   0.635   0.209 -0.8025  1.4711  0.4989
 2483SOL    HW2 7828   3.573   0.613   0.147 -0.1163  1.6135  1.9161
 2484SOL     OW 7829   5.019   6.495   0.043  0.4294  0.2461  0.9955
 2484SOL    HW1 7830   4.998   6.511   0.135 -0.0525  2.0534  0.6204
 2484SOL    HW2 7831   5.086   6.561   0.023  1.0453 -0.5886  0.2131
 2485SOL     OW 7832   0.675   0.843   2.626  0.4638 -0.5641 -0.0268
 2485SOL    HW1 7833   0.598   0.789   2.609 -0.8321  1.6670 -1.7789
 2485SOL    HW2 7834   0.717   0.853   2.541 -0.1569  2.2450 -0.1181
 2486SOL     OW 7835   3.632   1.988   1.079 -0.0690  0.2380  0.2423
 2486SOL    HW1 7836   3.611   2.079   1.100  0.3575  0.1490  1.0829
 2486SOL    HW2 7837   3.619   1.941   1.161  1.4661 -0.1449  0.2985
 2487SOL     OW 7838   3.317   5.699   0.844 -0.5785 -0.6030  0.1544
 2487SOL    HW1 7839   3.314   5.783   0.891 -2.0866 -1.3347  1.4512
 2487SOL    HW2 7840   3.239   5.700   0.789  0.0822 -0.6332 -0.7946
 2488SOL     OW 7841   2.670   1.393   5.072  0.4276  0.4090  0.1473
 2488SOL    HW1 7842   2.604   1.405   5.140 -0.7110 -0.9631 -0.6796
 2488SOL    HW2 7843   2.662   1.302   5.046  3.4871 -0.1577  0.8286
 2489SOL     OW 7844   3.537   0.311   3.501  0.0563 -0.0304  0.1780
 2489SOL    HW1 7845   3.525   0.234   3.445  0.2612  0.7862 -1.0302
 2489SOL    HW2 7846   3.499   0.383   3.451  2.0687  1.0953  0.1535
 2490SOL     OW 7847   5.157   2.512   0.252  0.0050  0.3256  0.7930
 2490SOL    HW1 7848   5.138   2.602   0.226 -1.5693  0.0909  1.0140
 2490SOL    HW2 7849   5.181   2.468   0.170  3.1214  1.4180  0.9855
 2491SOL     OW 7850   1.999   2.548   4.364  0.0023 -0.1398 -0.2277
 2491SOL    HW1 7851   2.070   2.582   4.419  0.0375 -2.4114  1.2560
 2491SOL    HW2 7852   2.043   2.496   4.297 -0.2128 -0.3272 -0.2248
 2492SOL     OW 7853   6.358   5.140   0.192  0.2885  0.1373  0.2373
 2492SOL    HW1 7854   6.319   5.201   0.130 -0.0867 -0.0714  0.2665
 2492SOL    HW2 7855   6.430   5.099   0.144 -0.5029 -0.6182 -0.3274
 2493SOL     OW 7856   1.489   3.819   3.437  0.4988  0.0836 -0.1997
 2493SOL    HW1 7857   1.556   3.792   3.375  0.5185 -0.3283 -0.0030
 2493SOL    HW2 7858   1.471   3.911   3.415  0.4068 -0.0991 -0.8969
 2494SOL     OW 7859   1.796   4.675   5.712  0.3690  0.0132  0.2486
 2494SOL    HW1 7860   1.737   4.715   5.777 -0.2853 -0.1672 -0.2231
 2494SOL    HW2 7861   1.867   4.638   5.764 -1.6668 -2.9278  1.2386
 2495SOL     OW 7862   3.766   3.435   0.910 -0.5002 -0.0193  0.0611
 2495SOL    HW1 7863   3.744   3.374   0.840 -0.3308 -0.9280  0.7841
 2495SOL    HW2 7864   3.705   3.508   0.897  1.1816  1.0706 -2.5556
 2496SOL     OW 7865   4.274   1.815   2.816  0.5182  0.2803  0.2064
 2496SOL    HW1 7866   4.268   1.886   2.752 -1.1211  0.7514  0.8250
 2496SOL    HW2 7867   4.356   1.771   2.796  0.6706  1.2197 -1.3759
 2497SOL     OW 7868   0.469   4.797   5.053 -0.7561  0.2354 -0.0582
 2497SOL    HW1 7869   0.382   4.770   5.083 -1.5703  3.6865  1.1530
 2497SOL    HW2 7870   0.522   4.801   5.132  0.3782 -1.0643 -0.6889
 2498SOL     OW 7871   1.480   3.188   0.331  0.2357  0.1564  0.0076
 2498SOL    HW1 7872   1.520   3.198   0.245 -0.0485 -0.4886 -0.2073
 2498SOL    HW2 7873   1.497   3.097   0.355  0.8347  0.4900  0.9066
 2499SOL     OW 7874   0.504   2.454   6.109 -0.6258  0.4345  0.2993
 2499SOL    HW1 7875   0.440   2.524   6.092 -0.1281  0.3355 -2.5036
 2499SOL    HW2 7876   0.573   2.469   6.045  0.9834 -0.9055  1.6427
 2500SOL     OW 7877   0.709   4.651   3.172  0.0230 -0.3669  0.2826
 2500SOL    HW1 7878   0.646   4.615   3.234 -0.9518 -1.3614 -1.2145
 2500SOL    HW2 7879   0.792   4.652   3.220 -0.5850 -1.6360  1.4251
 2501SOL     OW 7880   3.983   1.039   3.547 -0.4182 -0.0298 -0.1725
 2501SOL    HW1 7881   4.048   0.969   3.552  0.0218  0.3752 -0.1682
 2501SOL    HW2 7882   3.967   1.064   3.638  1.0626  1.3643 -0.2674
 2502SOL     OW 7883   1.237   0.506   1.259  0.2579  0.2490 -0.3835
 2502SOL    HW1 7884   1.162   0.562   1.242  1.7579  2.5766  0.1979
 2502SOL    HW2 7885   1.220   0.469   1.346 -0.7316 -0.2269 -0.7596
 2503SOL     OW 7886   2.921   3.527   3.619 -0.6265 -0.0327  0.6048
 2503SOL    HW1 7887   2.834   3.488   3.626 -1.2321  0.9259 -1.0663
 2503SOL    HW2 7888   2.957   3.494   3.537  0.1093  0.4790  0.7062
 2504SOL     OW 7889   1.550   0.059   4.143  0.1883  0.4968 -0.1014
 2504SOL    HW1 7890   1.561   0.147   4.106 -1.5437 -0.1567 -2.3640
 2504SOL    HW2 7891   1.639   0.032   4.166  0.6685  3.2129  1.7017
 2505SOL     OW 7892   4.220   6.637   5.230 -0.0369 -0.0327  0.6026
 2505SOL    HW1 7893   4.233   6.614   5.323 -0.1420  2.2014  1.2224
 2505SOL    HW2 7894   4.309   6.637   5.194  0.2235  0.9861  1.2059
 2506SOL     OW 7895   4.426   5.605   5.173  0.0638  0.2482 -0.4698
 2506SOL    HW1 7896   4.468   5.634   5.091  1.6404 -0.0663  0.1828
 2506SOL    HW2 7897   4.339   5.645   5.171  0.9313  2.2492 -1.1868
 2507SOL     OW 7898   5.142   0.423   0.923  0.0270 -0.3868 -0.3275
 2507SOL    HW1 7899   5.156   0.515   0.946 -5.1616  0.1682  2.1716
 2507SOL    HW2 7900   5.157   0.419   0.829 -0.6974  3.3622 -0.7625
 2508SOL     OW 7901   2.979   5.639   1.062  0.1762 -0.5603  0.7438
 2508SOL    HW1 7902   2.993   5.545   1.074 -1.2331 -0.9356 -0.3753
 2508SOL    HW2 7903   2.965   5.672   1.151 -0.8580 -1.6778  1.0201
 2509SOL     OW 7904   1.958   5.249   6.776 -0.2788  0.3001 -0.2329
 2509SOL    HW1 7905   1.989   5.203   6.855 -0.2134  0.4392 -0.1775
 2509SOL    HW2 7906   2.024   5.230   6.710 -1.6049 -1.9944 -1.0264
 2510SOL     OW 7907   0.022   6.696   2.178 -0.2235 -0.1251 -0.5463
 2510SOL    HW1 7908  -0.055   6.752   2.169 -0.1550 -0.2185 -1.8671
 2510SOL    HW2 7909   0.096   6.755   2.163 -0.0082 -0.0159  0.8100
 2511SOL     OW 7910   0.389   5.354   4.113 -0.0071  0.1349 -0.7362
 2511SOL    HW1 7911   0.437   5.427   4.074 -1.0524  1.0764 -0.3392
 2511SOL    HW2 7912   0.446   5.322   4.183  0.6931  0.2280 -1.2591
 2512SOL     OW 7913   6.606   5.510   5.152  0.4311 -0.2526  0.0492
 2512SOL    HW1 7914   6.577   5.432   5.200 -0.5609 -0.9048 -1.5172
 2512SOL    HW2 7915   6.693   5.488   5.120  0.6449 -0.2331  0.5973
 2513SOL     OW 7916   2.414   3.182   6.006 -0.2127 -0.5898  0.1521
 2513SOL    HW1 7917   2.429   3.193   5.913  1.9877 -3.0011  0.1298
 2513SOL    HW2 7918   2.332   3.133   6.012 -0.5891 -0.0476 -0.4574
 2514SOL     OW 7919   4.745   2.316   2.880 -0.8595 -0.3413  0.1577
 2514SOL    HW1 7920   4.739   2.255   2.953 -0.6652  0.6650  1.0387
 2514SOL    HW2 7921   4.777   2.263   2.807  1.7918 -0.8264  1.5351
 2515SOL     OW 7922   0.076   2.804   0.837  0.0464 -0.0143  0.0086
 2515SOL    HW1 7923   0.023   2.883   0.825  1.1730  0.6748 -0.7272
 2515SOL    HW2 7924   0.014   2.737   0.865 -1.0316  1.0004  0.1345
 2516SOL     OW 7925   2.165   5.198   0.454  0.0571  0.0379 -0.4247
 2516SOL    HW1 7926   2.146   5.188   0.360 -0.7695  0.7691 -0.3458
 2516SOL    HW2 7927   2.260   5.193   0.460  0.1388  0.3468 -1.3490
 2517SOL     OW 7928   3.396   4.055   2.450 -0.3479  0.2076  0.0866
 2517SOL    HW1 7929   3.391   4.148   2.430  0.0131  0.1673 -0.2255
 2517SOL    HW2 7930   3.487   4.031   2.429 -0.1407  0.0039  1.1442
 2518SOL     OW 7931   4.286   4.794   4.475 -0.5592  0.4537  0.1062
 2518SOL    HW1 7932   4.262   4.717   4.424 -0.7842  0.5836  0.0171
 2518SOL    HW2 7933   4.211   4.852   4.469  0.2499  1.4350 -1.2778
 2519SOL     OW 7934   6.464   4.414   1.534  0.2319  0.0330  0.3431
 2519SOL    HW1 7935   6.428   4.500   1.556  0.4593 -0.2368  1.8906
 2519SOL    HW2 7936   6.429   4.355   1.601  0.7449 -0.9305 -0.1992
 2520SOL     OW 7937   3.106   6.283   1.751 -0.1813 -0.1385  0.5354
 2520SOL    HW1 7938   3.029   6.331   1.779  0.3517  0.7658  0.4825
 2520SOL    HW2 7939   3.085   6.191   1.769 -0.5706  0.2383  2.1487
 2521SOL     OW 7940   6.588   3.627   5.354  0.2200 -0.3739  0.4404
 2521SOL    HW1 7941   6.660   3.673   5.311  1.2223  0.1314  2.5211
 2521SOL    HW2 7942   6.508   3.666   5.317  0.9830 -0.2230 -1.1479
 2522SOL     OW 7943   4.372   0.731   3.586 -0.4414  0.1738  0.0996
 2522SOL    HW1 7944   4.407   0.759   3.671  1.6576  1.3750 -1.0905
 2522SOL    HW2 7945   4.435   0.667   3.554  0.0661  1.4107 -1.5155
 2523SOL     OW 7946   2.669   5.100   0.547  0.0309 -0.0412  0.2853
 2523SOL    HW1 7947   2.610   5.161   0.503  0.9635  0.8238  0.1794
 2523SOL    HW2 7948   2.701   5.148   0.623  1.8650  0.1833 -0.5607
 2524SOL     OW 7949   3.545   5.557   2.493 -0.4177  0.0845  0.3146
 2524SOL    HW1 7950   3.563   5.550   2.400 -0.9643 -2.2189  0.3170
 2524SOL    HW2 7951   3.449   5.560   2.499 -0.4622 -1.2867  0.8047
 2525SOL     OW 7952   4.972   2.800   4.157  0.1050 -0.1773  0.3853
 2525SOL    HW1 7953   5.047   2.848   4.121 -0.7534  0.2467 -0.9455
 2525SOL    HW2 7954   4.938   2.750   4.082 -1.6899  0.6326  0.6026
 2526SOL     OW 7955   6.362   5.715   5.354  0.4164  0.6447  0.0826
 2526SOL    HW1 7956   6.310   5.733   5.277 -0.1502  2.8276  0.9167
 2526SOL    HW2 7957   6.450   5.697   5.321  0.0178  0.8238 -1.0883
 2527SOL     OW 7958   5.822   5.560   4.236  0.5097  0.1312  0.2855
 2527SOL    HW1 7959   5.854   5.649   4.247 -2.4479  1.1617  1.5189
 2527SOL    HW2 7960   5.843   5.517   4.320 -0.3360  0.4859  0.6892
 2528SOL     OW 7961   4.824   6.697   5.720 -0.3663  0.2194 -1.2116
 2528SOL    HW1 7962   4.802   6.608   5.748 -0.9317  0.9762  0.9409
 2528SOL    HW2 7963   4.765   6.714   5.647  0.3508 -1.4421 -2.2432
 2529SOL     OW 7964   4.489   1.174   2.615  0.1643  0.1931 -0.1754
 2529SOL    HW1 7965   4.547   1.246   2.640  0.1813  0.2741 -0.4360
 2529SOL    HW2 7966   4.418   1.176   2.679  0.2332  0.3612 -0.1038
 2530SOL     OW 7967   3.505   6.412   3.619  0.8818 -0.2807  0.1711
 2530SOL    HW1 7968   3.501   6.499   3.580  0.4606 -0.6283 -0.5810
 2530SOL    HW2 7969   3.436   6.412   3.685 -0.4754 -0.6694 -1.1773
 2531SOL     OW 7970   2.808   6.328   4.174  0.5109  0.5251 -0.3422
 2531SOL    HW1 7971   2.734   6.299   4.120 -1.3957 -0.6222  2.6219
 2531SOL    HW2 7972   2.877   6.263   4.157 -0.3115 -0.2426 -0.8526
 2532SOL     OW 7973   4.022   0.252   6.156 -0.4865  0.1589 -0.3539
 2532SOL    HW1 7974   3.971   0.175   6.132 -1.5129  0.8388 -0.4459
 2532SOL    HW2 7975   3.983   0.282   6.238 -0.5305  0.9334 -0.6465
 2533SOL     OW 7976   0.149   4.106   0.200  0.0951 -0.3331 -0.4145
 2533SOL    HW1 7977   0.071   4.119   0.253 -0.0588 -0.4457 -0.6109
 2533SOL    HW2 7978   0.191   4.192   0.197  1.0573 -0.6865  1.3616
 2534SOL     OW 7979   6.312   2.415   5.676  0.2704  0.0573  0.0030
 2534SOL    HW1 7980   6.401   2.401   5.644 -0.4192 -1.0527 -1.5825
 2534SOL    HW2 7981   6.277   2.483   5.619  0.3055  1.0165  1.0899
 2535SOL     OW 7982   5.147   1.512   0.957 -0.1183  0.0465 -0.0279
 2535SOL    HW1 7983   5.146   1.417   0.945 -2.2066  0.0794 -0.4862
 2535SOL    HW2 7984   5.167   1.523   1.050 -1.0695 -0.9228  0.3238
 2536SOL     OW 7985   2.647   5.698   3.357  0.0676 -0.1302  0.8907
 2536SOL    HW1 7986   2.718   5.673   3.416  0.9941 -1.0703 -0.5508
 2536SOL    HW2 7987   2.658   5.640   3.281 -0.7061  1.4136 -0.4610
 2537SOL     OW 7988   4.195   3.014   3.978 -0.1234  0.3770 -0.0316
 2537SOL    HW1 7989   4.262   3.040   3.915 -1.2429 -0.5041 -1.6549
 2537SOL    HW2 7990   4.172   3.095   4.023  0.0834  1.2182 -1.3805
 2538SOL     OW 7991   1.377   2.776   1.847 -0.2765  0.4844 -0.0328
 2538SOL    HW1 7992   1.290   2.816   1.853 -0.1650  0.7287 -0.0111
 2538SOL    HW2 7993   1.387   2.728   1.930 -0.1296  0.9983  0.2530
 2539SOL     OW 7994   5.431   1.281   0.323  0.2790  0.0676  0.1886
 2539SOL    HW1 7995   5.441   1.326   0.407  0.3088 -0.4271  0.4535
 2539SOL    HW2 7996   5.371   1.337   0.273  0.5949  0.5834  0.3748
 2540SOL     OW 7997   6.546   3.771   5.680 -0.5442 -0.0160 -0.1633
 2540SOL    HW1 7998   6.504   3.743   5.600  0.6034 -0.4129 -0.6528
 2540SOL    HW2 7999   6.570   3.862   5.664 -1.6614  0.3725  0.3143
 2541SOL     OW 8000   5.206   3.443   1.640  0.1212 -0.4315  0.5307
 2541SOL    HW1 8001   5.273   3.390   1.596  0.3730 -0.2641  0.7126
 2541SOL    HW2 8002   5.253   3.487   1.710 -0.0786  0.0714  0.3508
 2542SOL     OW 8003   6.316   3.604   1.361  0.2882 -0.1845  0.3545
 2542SOL    HW1 8004   6.385   3.642   1.415  2.0613 -0.4682 -1.5796
 2542SOL    HW2 8005   6.360   3.534   1.312 -2.1996 -2.8795  1.6635
 2543SOL     OW 8006   6.296   2.315   2.268 -0.1332 -0.3474 -0.1870
 2543SOL    HW1 8007   6.251   2.373   2.329 -1.4431  1.5212 -2.7497
 2543SOL    HW2 8008   6.389   2.326   2.288 -0.4360  1.6247  0.2933
 2544SOL     OW 8009   0.249   0.762   2.546 -0.2579  0.7349  0.4114
 2544SOL    HW1 8010   0.268   0.805   2.463 -0.2893  0.7355  0.4046
 2544SOL    HW2 8011   0.171   0.709   2.529 -0.0245  0.4150  0.3288
 2545SOL     OW 8012   0.432   3.246   3.603  0.1289  0.4138  0.2084
 2545SOL    HW1 8013   0.501   3.182   3.619 -0.4341 -0.0624  0.8100
 2545SOL    HW2 8014   0.387   3.215   3.525 -0.1307  0.0737  0.4877
 2546SOL     OW 8015   5.900   2.564   4.902 -0.4181 -0.8218 -0.8503
 2546SOL    HW1 8016   5.884   2.538   4.993  3.5676 -0.6137  0.0892
 2546SOL    HW2 8017   5.881   2.658   4.901 -0.7044 -0.8650 -0.3233
 2547SOL     OW 8018   4.484   5.005   2.313  0.3012 -0.1312  0.7539
 2547SOL    HW1 8019   4.408   5.001   2.255  0.6877 -0.6138  0.2782
 2547SOL    HW2 8020   4.506   5.098   2.317 -0.6428  0.0874  1.3347
 2548SOL     OW 8021   3.327   3.634   2.554  0.0539  0.5794 -0.7422
 2548SOL    HW1 8022   3.311   3.703   2.489 -2.6243  1.6654  0.8996
 2548SOL    HW2 8023   3.247   3.582   2.554  1.0518 -1.0486 -0.1386
 2549SOL     OW 8024   5.992   3.640   4.978  0.0987 -0.2610  0.5264
 2549SOL    HW1 8025   6.001   3.545   4.970  2.7413  0.0227 -1.1736
 2549SOL    HW2 8026   5.975   3.670   4.888  0.0491  0.9476  0.9225
 2550SOL     OW 8027   0.784   6.400   6.614 -0.0174  0.3797  0.3679
 2550SOL    HW1 8028   0.817   6.459   6.682  2.1250 -0.7449  0.3841
 2550SOL    HW2 8029   0.761   6.320   6.662  0.9601 -0.2133 -0.1230
 2551SOL     OW 8030   2.339   4.793   2.591 -0.6294 -0.0570 -0.5539
 2551SOL    HW1 8031   2.329   4.834   2.505  0.7571  1.0331 -0.2260
 2551SOL    HW2 8032   2.425   4.752   2.588 -0.4280  0.2801  0.4279
 2552SOL     OW 8033   5.328   5.987   5.349 -0.0108  0.3433 -0.1329
 2552SOL    HW1 8034   5.245   6.029   5.372 -1.0137 -2.1266  1.1717
 2552SOL    HW2 8035   5.329   5.986   5.253 -2.9522 -2.0548 -0.2737
 2553SOL     OW 8036   4.176   5.360   6.129 -0.4676  0.0451  0.0651
 2553SOL    HW1 8037   4.117   5.405   6.069 -0.1290  3.7488  2.1881
 2553SOL    HW2 8038   4.262   5.369   6.089 -0.4632  1.0190  0.2658
 2554SOL     OW 8039   5.385   4.173   6.162  0.1733 -0.2790 -0.0030
 2554SOL    HW1 8040   5.360   4.213   6.245 -1.0555 -0.9438 -0.0255
 2554SOL    HW2 8041   5.422   4.088   6.187 -0.1089 -0.4385 -0.1271
 2555SOL     OW 8042   0.597   0.148   0.362  0.1145  0.5120  0.4658
 2555SOL    HW1 8043   0.575   0.140   0.269  1.4808  0.1482  0.1374
 2555SOL    HW2 8044   0.624   0.059   0.387 -0.1329  0.6340  1.1756
 2556SOL     OW 8045   4.140   0.015   3.196  0.3378 -0.4661  0.3846
 2556SOL    HW1 8046   4.064  -0.043   3.202 -0.5291  0.6538  0.8205
 2556SOL    HW2 8047   4.182  -0.008   3.114  1.1550 -3.0159  1.4239
 2557SOL     OW 8048   6.256   3.796   4.708  0.0508  0.0874  0.6567
 2557SOL    HW1 8049   6.264   3.766   4.799  1.0591 -0.9183  0.2563
 2557SOL    HW2 8050   6.242   3.717   4.657 -0.3889  0.6321 -0.0915
 2558SOL     OW 8051   4.182   2.210   0.435 -0.1146  0.2700  0.0001
 2558SOL    HW1 8052   4.213   2.275   0.372  0.8794  1.0502  1.2502
 2558SOL    HW2 8053   4.127   2.151   0.383 -0.5519  1.7369 -1.2914
 2559SOL     OW 8054   1.040   3.766   0.538  0.4532 -1.0213  0.1110
 2559SOL    HW1 8055   1.007   3.778   0.449  0.7717  1.2661  0.2309
 2559SOL    HW2 8056   1.110   3.701   0.529  0.6795 -0.6055 -1.3790
 2560SOL     OW 8057   0.580   2.369   5.770  0.5838 -0.1119 -0.2520
 2560SOL    HW1 8058   0.500   2.412   5.738  1.1866  0.2498 -1.3445
 2560SOL    HW2 8059   0.567   2.277   5.750  0.5827 -0.0070 -0.7463
 2561SOL     OW 8060   3.748   0.338   6.373 -0.5779  0.6404 -0.8083
 2561SOL    HW1 8061   3.683   0.351   6.304  0.4255  2.1491 -1.5168
 2561SOL    HW2 8062   3.759   0.425   6.411  1.0714  0.4196 -0.7376
 2562SOL     OW 8063   0.217   4.921   2.856 -0.5037 -0.0630 -0.3383
 2562SOL    HW1 8064   0.277   4.860   2.899  1.7130  1.6318 -0.8433
 2562SOL    HW2 8065   0.180   4.973   2.927 -0.6647 -0.4958 -0.1011
 2563SOL     OW 8066   4.904   5.628   3.074 -0.0501  0.1197  0.1253
 2563SOL    HW1 8067   4.962   5.610   3.148  1.5281 -0.2180 -1.1308
 2563SOL    HW2 8068   4.963   5.636   2.999 -1.6141  0.1693 -1.1570
 2564SOL     OW 8069   3.582   5.029   4.415  0.4132 -0.7009 -0.5138
 2564SOL    HW1 8070   3.569   5.047   4.321 -1.5436  0.4575 -0.0797
 2564SOL    HW2 8071   3.593   5.116   4.454  0.3781 -1.1147  0.4378
 2565SOL     OW 8072   3.612   3.987   2.716  0.1425  0.6012 -0.2833
 2565SOL    HW1 8073   3.594   3.925   2.787  1.3492  0.6761  0.1123
 2565SOL    HW2 8074   3.689   4.036   2.746  1.6201 -0.3515 -2.2429
 2566SOL     OW 8075   5.905   5.949   2.536  0.1485 -0.2784 -0.2385
 2566SOL    HW1 8076   5.849   5.911   2.604 -0.7185  0.7795 -0.3264
 2566SOL    HW2 8077   5.994   5.940   2.570 -0.3368  1.1537  1.5426
 2567SOL     OW 8078   4.083   2.572   3.988 -0.0504  0.0158  0.3352
 2567SOL    HW1 8079   4.133   2.639   4.035  0.3683  1.0547 -1.5006
 2567SOL    HW2 8080   3.995   2.609   3.980  0.4597  0.9179 -1.6543
 2568SOL     OW 8081   6.267   3.969   2.020 -0.2945 -0.2168 -0.0592
 2568SOL    HW1 8082   6.210   4.026   1.969 -0.2770  0.3143  0.5031
 2568SOL    HW2 8083   6.340   4.026   2.046  0.1872 -0.7320 -0.2622
 2569SOL     OW 8084   3.342   6.384   2.442 -0.0627  0.6876  0.4105
 2569SOL    HW1 8085   3.436   6.379   2.427  0.0318 -0.6379  1.3375
 2569SOL    HW2 8086   3.307   6.306   2.400 -0.6049  0.5578  1.0911
 2570SOL     OW 8087   6.555   0.498   6.152 -0.3582 -0.2432  0.3486
 2570SOL    HW1 8088   6.589   0.557   6.085  2.4433 -0.3780  1.5396
 2570SOL    HW2 8089   6.551   0.413   6.110  0.3023 -0.1197  0.0342
 2571SOL     OW 8090   1.359   2.975   3.631 -0.0345 -0.4525 -0.3487
 2571SOL    HW1 8091   1.349   2.918   3.707  0.2052 -1.0769 -0.7756
 2571SOL    HW2 8092   1.423   3.041   3.658  0.5258 -1.0412 -0.2117
 2572SOL     OW 8093   3.876   3.593   2.938 -0.8872 -0.2528  0.2701
 2572SOL    HW1 8094   3.869   3.687   2.927 -0.6087 -0.3053 -0.4063
 2572SOL    HW2 8095   3.969   3.574   2.924 -0.5597 -0.4005  2.3085
 2573SOL     OW 8096   6.030   5.482   2.602 -0.4053  0.0817  0.0900
 2573SOL    HW1 8097   6.084   5.557   2.627 -1.5966  0.5540  1.4228
 2573SOL    HW2 8098   6.076   5.406   2.638 -0.0374  0.3527  0.1981
 2574SOL     OW 8099   2.307   0.593   5.377  0.2068  0.2963 -0.6853
 2574SOL    HW1 8100   2.260   0.523   5.422  0.9482  0.0941 -0.1932
 2574SOL    HW2 8101   2.342   0.551   5.299 -0.1090  0.3503 -0.8562
 2575SOL     OW 8102   0.226   4.621   6.204 -0.6104  0.0443 -0.2071
 2575SOL    HW1 8103   0.269   4.544   6.241 -1.8737 -0.2379  0.7194
 2575SOL    HW2 8104   0.276   4.695   6.238 -0.6413 -0.2925  0.5907
 2576SOL     OW 8105   0.072   3.080   0.380 -0.3612 -0.2539 -0.7037
 2576SOL    HW1 8106   0.051   3.154   0.323 -1.0129  0.2787  0.1952
 2576SOL    HW2 8107   0.057   3.113   0.468  1.3278 -0.8335 -0.1578
 2577SOL     OW 8108   6.209   0.557   5.906 -0.1132  0.0714 -0.5601
 2577SOL    HW1 8109   6.153   0.592   5.975 -0.7378  3.8727 -2.7326
 2577SOL    HW2 8110   6.284   0.616   5.903  2.6827 -3.1064  0.2066
 2578SOL     OW 8111   1.943   6.065   6.813  0.1592 -0.7420  0.2984
 2578SOL    HW1 8112   1.876   6.027   6.870 -0.1848  0.2396  0.5581
 2578SOL    HW2 8113   1.924   6.159   6.812  2.0748 -0.2986  1.0832
 2579SOL     OW 8114   2.778   6.817   5.520 -0.4129  0.2695 -0.6263
 2579SOL    HW1 8115   2.749   6.812   5.429  1.5341 -0.3302 -1.2682
 2579SOL    HW2 8116   2.866   6.855   5.515 -0.1534 -0.0517  0.9659
 2580SOL     OW 8117   4.683   2.309   1.087 -0.2387  0.5861  0.4521
 2580SOL    HW1 8118   4.682   2.401   1.112 -2.9905  1.1614 -1.2352
 2580SOL    HW2 8119   4.645   2.263   1.162 -4.0328  1.6603 -0.5961
 2581SOL     OW 8120   6.323   1.056   1.394 -0.0896 -0.5826 -0.3064
 2581SOL    HW1 8121   6.330   0.971   1.350 -0.1408 -1.2073  0.8512
 2581SOL    HW2 8122   6.308   1.119   1.323 -1.3103 -1.6999 -1.0715
 2582SOL     OW 8123   5.241   6.220   2.540 -0.3699  0.1005 -0.0870
 2582SOL    HW1 8124   5.285   6.237   2.624 -0.6878 -0.1350  0.1255
 2582SOL    HW2 8125   5.230   6.125   2.538  0.7521 -0.0393 -0.9537
 2583SOL     OW 8126   5.677   1.238   4.627  0.4493 -0.1739  0.2277
 2583SOL    HW1 8127   5.755   1.189   4.652  0.0243 -0.0326  1.9291
 2583SOL    HW2 8128   5.667   1.222   4.533  1.9583 -0.9786  0.1875
 2584SOL     OW 8129   1.716   4.033   0.856 -0.2741 -0.4860  0.1930
 2584SOL    HW1 8130   1.780   4.016   0.925  1.2781  0.9184 -0.7961
 2584SOL    HW2 8131   1.632   4.007   0.893  0.1682  1.9243  3.3703
 2585SOL     OW 8132   5.309   3.371   2.214  0.0006 -0.8786 -0.1309
 2585SOL    HW1 8133   5.263   3.297   2.254 -0.4300 -1.2473 -1.2721
 2585SOL    HW2 8134   5.313   3.349   2.121  3.4504 -1.3737  0.0285
 2586SOL     OW 8135   3.117   4.824   6.072 -0.2780 -0.2014  0.1375
 2586SOL    HW1 8136   3.102   4.909   6.029 -0.5429 -1.0155 -1.4777
 2586SOL    HW2 8137   3.213   4.816   6.074 -0.2094  0.6039  1.3392
 2587SOL     OW 8138   4.449   4.235   0.137 -0.2827 -0.4949  0.1996
 2587SOL    HW1 8139   4.520   4.234   0.073  1.1554 -0.1011  1.7230
 2587SOL    HW2 8140   4.380   4.286   0.095  0.4632 -0.5931 -1.1940
 2588SOL     OW 8141   3.536   0.657   1.336  0.1259 -0.3880  0.5319
 2588SOL    HW1 8142   3.554   0.595   1.265  0.3758 -0.0344  0.2789
 2588SOL    HW2 8143   3.471   0.717   1.299  0.7190  0.1710  0.3829
 2589SOL     OW 8144   5.445   3.298   1.595 -0.3899  0.2563 -0.1746
 2589SOL    HW1 8145   5.478   3.307   1.505  0.9771  1.0321  0.3745
 2589SOL    HW2 8146   5.441   3.203   1.609 -0.6607  0.1253 -1.0594
 2590SOL     OW 8147   0.373   6.005   6.406  0.2157 -0.0959 -0.2803
 2590SOL    HW1 8148   0.322   5.975   6.482 -0.4428  1.7801  0.0685
 2590SOL    HW2 8149   0.436   5.934   6.391 -0.9710 -1.4475  0.7180
 2591SOL     OW 8150   4.333   3.950   2.731  0.2868 -0.2893  0.2174
 2591SOL    HW1 8151   4.424   3.961   2.704 -0.0522 -0.3543 -0.9977
 2591SOL    HW2 8152   4.282   3.999   2.667 -0.5047  0.3087  1.2757
 2592SOL     OW 8153   3.403   1.850   0.532 -0.4589  0.0883  0.2934
 2592SOL    HW1 8154   3.423   1.809   0.449 -0.1069 -0.8598  0.8291
 2592SOL    HW2 8155   3.438   1.790   0.598 -2.0311  0.0703  1.1682
 2593SOL     OW 8156   3.747   2.042   4.885  0.1176 -0.1702  0.2601
 2593SOL    HW1 8157   3.748   1.967   4.945  0.2568 -0.5212 -0.1801
 2593SOL    HW2 8158   3.655   2.068   4.881 -0.2886 -1.6857 -1.2741
 2594SOL     OW 8159   6.164   4.150   0.500 -0.1744 -0.0583 -0.1651
 2594SOL    HW1 8160   6.204   4.189   0.578 -1.4503  0.4568  0.2620
 2594SOL    HW2 8161   6.127   4.224   0.452  0.5250 -0.3832 -1.2302
 2595SOL     OW 8162   3.032   4.018   0.778 -0.2109 -0.7157  0.2398
 2595SOL    HW1 8163   3.097   4.061   0.834 -0.4419 -0.6198  0.4340
 2595SOL    HW2 8164   3.059   3.926   0.776 -0.1779 -0.7115  0.4755
 2596SOL     OW 8165   4.866   4.200   6.645 -0.4417  0.1186  0.0920
 2596SOL    HW1 8166   4.890   4.292   6.650  1.1435 -0.2508 -0.2411
 2596SOL    HW2 8167   4.933   4.155   6.696  1.6428 -1.2809 -3.5427
 2597SOL     OW 8168   5.214   0.745   3.969 -0.0328 -0.2531 -0.0354
 2597SOL    HW1 8169   5.126   0.774   3.993 -0.4429 -1.3507 -0.1758
 2597SOL    HW2 8170   5.250   0.818   3.919 -1.7905 -0.7736 -2.1824
 2598SOL     OW 8171   5.311   1.586   1.512 -0.4366  0.2730 -0.5950
 2598SOL    HW1 8172   5.351   1.672   1.499 -0.1060  0.4463  1.2961
 2598SOL    HW2 8173   5.244   1.601   1.578 -1.2188 -0.7059 -1.1461
 2599SOL     OW 8174   2.628   2.587   6.096  0.1301  0.3097  0.1492
 2599SOL    HW1 8175   2.542   2.548   6.083  1.0139 -1.5873 -0.3781
 2599SOL    HW2 8176   2.614   2.680   6.083 -1.7767  0.0197 -0.2225
 2600SOL     OW 8177   5.529   3.996   3.926 -0.2614  0.1436  0.0007
 2600SOL    HW1 8178   5.532   3.925   3.863 -0.8860 -0.3309  0.4897
 2600SOL    HW2 8179   5.491   4.070   3.878 -3.3285 -0.9675  0.4710
 2601SOL     OW 8180   0.564   0.901   3.702 -0.4307  0.3386  0.2127
 2601SOL    HW1 8181   0.519   0.889   3.786 -1.2653  1.4136 -0.0687
 2601SOL    HW2 8182   0.599   0.990   3.706 -0.0493  0.2233 -0.3947
 2602SOL     OW 8183   3.667   0.780   6.153 -0.0165  0.1626  0.4645
 2602SOL    HW1 8184   3.672   0.858   6.097 -0.5206  0.4422  0.8013
 2602SOL    HW2 8185   3.739   0.791   6.215  0.7069 -0.2764 -0.2783
 2603SOL     OW 8186   6.826   2.964   6.339 -0.1114  0.1331  0.3242
 2603SOL    HW1 8187   6.789   3.052   6.337  0.9422  0.5738 -0.5232
 2603SOL    HW2 8188   6.848   2.949   6.431 -1.1298  0.3806  0.6231
 2604SOL     OW 8189   6.428   1.267   6.265  0.7250  0.0901 -0.2329
 2604SOL    HW1 8190   6.420   1.190   6.321 -0.7356  1.1627  1.1031
 2604SOL    HW2 8191   6.522   1.285   6.262  1.1971 -2.1853 -1.2545
 2605SOL     OW 8192   4.766   5.369   5.731  0.6918 -0.4208  0.5904
 2605SOL    HW1 8193   4.810   5.367   5.646  1.1884 -0.0768  0.8404
 2605SOL    HW2 8194   4.829   5.409   5.791  0.0444  0.0877  0.9523
 2606SOL     OW 8195   3.921   0.260   3.073 -0.6034 -0.1808 -0.3840
 2606SOL    HW1 8196   3.928   0.354   3.085  0.5931  0.0380 -2.4343
 2606SOL    HW2 8197   4.001   0.224   3.111 -0.8566 -0.3377  0.0087
 2607SOL     OW 8198   2.845   5.253   5.319  0.2214 -0.1746  0.4126
 2607SOL    HW1 8199   2.802   5.330   5.281  1.3108 -0.2917 -1.1568
 2607SOL    HW2 8200   2.936   5.280   5.332  0.1354 -0.5276  1.9064
 2608SOL     OW 8201   0.496   2.300   0.993  0.2118 -0.5251 -0.3032
 2608SOL    HW1 8202   0.508   2.388   0.958 -0.7249 -0.1418  0.2923
 2608SOL    HW2 8203   0.514   2.308   1.086 -0.6825 -0.7613 -0.0926
 2609SOL     OW 8204   1.515   5.010   0.230  0.2925  0.2286 -0.2823
 2609SOL    HW1 8205   1.479   4.923   0.249  1.0408  0.1029  0.7044
 2609SOL    HW2 8206   1.600   4.992   0.190  1.3281  0.4435  1.6747
 2610SOL     OW 8207   6.465   3.151   4.109 -0.3579 -0.2414 -0.2279
 2610SOL    HW1 8208   6.384   3.177   4.153  0.6604 -0.2415  1.7875
 2610SOL    HW2 8209   6.457   3.056   4.099 -0.8192 -0.1747 -0.5470
 2611SOL     OW 8210   5.489   4.711   2.704  0.4644 -0.9045 -0.4716
 2611SOL    HW1 8211   5.452   4.625   2.684 -0.6516 -0.8317  1.0810
 2611SOL    HW2 8212   5.455   4.768   2.636  0.4634 -1.5158 -0.9888
 2612SOL     OW 8213   6.561   5.779   2.554 -0.1566 -0.7946  0.4746
 2612SOL    HW1 8214   6.626   5.823   2.499 -2.5843  0.9837 -1.1787
 2612SOL    HW2 8215   6.580   5.685   2.543  0.8950 -0.3967 -1.5271
 2613SOL     OW 8216   0.998   2.812   0.366  0.1664  0.3825  0.5062
 2613SOL    HW1 8217   1.071   2.856   0.410  1.0811 -0.6961  0.1107
 2613SOL    HW2 8218   1.015   2.719   0.377 -2.6901  0.0087  2.8844
 2614SOL     OW 8219   6.287   2.254   1.237  0.7563  0.5522  0.1822
 2614SOL    HW1 8220   6.299   2.203   1.158  1.5807 -0.3379  0.8561
 2614SOL    HW2 8221   6.291   2.190   1.308 -2.9715  0.8638  0.8522
 2615SOL     OW 8222   2.427   2.149   5.709 -0.2396  0.2338 -0.0255
 2615SOL    HW1 8223   2.371   2.224   5.687 -1.0606 -0.2923  0.2202
 2615SOL    HW2 8224   2.396   2.079   5.652 -0.2049 -0.2206  0.5127
 2616SOL     OW 8225   4.864   6.829   4.370  0.4944  0.2288 -0.5954
 2616SOL    HW1 8226   4.832   6.916   4.347 -0.2571  0.1927  0.2472
 2616SOL    HW2 8227   4.815   6.806   4.449  0.3170 -1.1814 -1.1059
 2617SOL     OW 8228   6.081   3.393   2.419 -0.3089 -0.6015  0.1328
 2617SOL    HW1 8229   5.996   3.432   2.402  0.1933 -0.1639 -1.5500
 2617SOL    HW2 8230   6.111   3.360   2.334  1.4744 -0.1854  0.5437
 2618SOL     OW 8231   2.076   6.161   5.847  0.2022 -0.1285 -0.8870
 2618SOL    HW1 8232   1.983   6.173   5.824 -0.1919 -1.1544  0.1176
 2618SOL    HW2 8233   2.117   6.138   5.764 -0.6006 -0.5098 -1.1952
 2619SOL     OW 8234   2.917   1.420   2.482 -0.4776 -0.4735 -0.3098
 2619SOL    HW1 8235   2.895   1.512   2.473  0.2822 -0.1134  1.1751
 2619SOL    HW2 8236   2.833   1.375   2.478 -0.7566  0.1386 -2.2210
 2620SOL     OW 8237   3.953   1.087   6.718  0.5472  0.6780  0.0925
 2620SOL    HW1 8238   3.897   1.065   6.793 -1.9941  4.1295 -0.5301
 2620SOL    HW2 8239   4.020   1.145   6.755  1.1262  0.0331  0.0931
 2621SOL     OW 8240   3.100   5.988   1.472 -0.4083 -0.3875 -0.1377
 2621SOL    HW1 8241   3.191   5.958   1.478 -0.4693 -1.1339 -2.2533
 2621SOL    HW2 8242   3.074   6.003   1.563  1.9804  0.3635  0.4848
 2622SOL     OW 8243   0.294   6.377   0.211  0.8196  0.3877  0.0101
 2622SOL    HW1 8244   0.303   6.291   0.252  1.2187  1.0736  1.4360
 2622SOL    HW2 8245   0.228   6.422   0.264  1.2510  1.2561 -0.1708
 2623SOL     OW 8246   5.583   3.942   4.180 -0.0989  0.3494 -0.0559
 2623SOL    HW1 8247   5.560   3.997   4.105  1.2369  0.0823 -0.7054
 2623SOL    HW2 8248   5.651   3.884   4.146 -0.0973 -0.3797  1.1445
 2624SOL     OW 8249   2.471   5.269   0.410  0.0561 -0.1130 -0.1699
 2624SOL    HW1 8250   2.475   5.238   0.319  0.9117 -1.4164  0.2792
 2624SOL    HW2 8251   2.496   5.361   0.405  0.2680 -0.2159 -1.2346
 2625SOL     OW 8252   1.264   6.255   0.891  0.1945  0.0102  0.3685
 2625SOL    HW1 8253   1.187   6.310   0.885 -0.5972 -1.0503  0.4600
 2625SOL    HW2 8254   1.279   6.245   0.985 -2.0769 -3.0741  0.5689
 2626SOL     OW 8255   1.374   5.362   6.349  0.0426 -0.0798 -0.0817
 2626SOL    HW1 8256   1.423   5.351   6.431 -0.1389 -1.4955 -0.1319
 2626SOL    HW2 8257   1.442   5.378   6.283  0.2005  0.9266  0.3096
 2627SOL     OW 8258   1.724   3.047   1.791  0.2906  0.3398  0.1459
 2627SOL    HW1 8259   1.769   2.984   1.735 -0.1330 -0.5270  0.7524
 2627SOL    HW2 8260   1.755   3.132   1.760  1.7449 -0.1886  0.0324
 2628SOL     OW 8261   2.728   6.060   1.991  0.1306 -0.5513 -0.3177
 2628SOL    HW1 8262   2.778   6.090   2.067  1.1953 -0.2428 -1.1149
 2628SOL    HW2 8263   2.675   6.136   1.966  0.8639 -0.1579 -0.7380
 2629SOL     OW 8264   0.499   0.263   6.577  0.3985 -0.2062  0.0716
 2629SOL    HW1 8265   0.550   0.185   6.599 -2.2275 -1.9277  0.4891
 2629SOL    HW2 8266   0.454   0.241   6.496 -0.4556  0.8559  0.2320
 2630SOL     OW 8267   4.349   3.352   5.756 -0.2940  0.1007  0.2959
 2630SOL    HW1 8268   4.330   3.269   5.799 -0.1847  1.1414  2.5291
 2630SOL    HW2 8269   4.288   3.356   5.683 -1.6403 -1.0987  1.2964
 2631SOL     OW 8270   3.096   5.832   5.622 -0.4166 -0.4487  0.0435
 2631SOL    HW1 8271   3.024   5.778   5.655 -0.3692 -0.1869  0.5963
 2631SOL    HW2 8272   3.131   5.876   5.700  0.9476 -1.2886 -0.0597
 2632SOL     OW 8273   5.042   5.628   3.351  0.3628  0.3540  0.0417
 2632SOL    HW1 8274   5.095   5.688   3.298  2.5610 -2.6594 -1.5156
 2632SOL    HW2 8275   5.104   5.593   3.416 -0.8450 -0.2077  0.9320
 2633SOL     OW 8276   4.631   2.555   1.252 -0.2481  0.5062  1.1165
 2633SOL    HW1 8277   4.634   2.594   1.340 -0.9859  1.7937  0.5967
 2633SOL    HW2 8278   4.584   2.619   1.199  1.8189  0.6529 -0.6802
 2634SOL     OW 8279   4.992   3.205   1.450 -0.1629 -0.0942 -0.4934
 2634SOL    HW1 8280   4.976   3.232   1.360 -0.5344 -1.8170 -0.9688
 2634SOL    HW2 8281   4.991   3.109   1.448 -1.7457 -0.2052  1.6100
 2635SOL     OW 8282   4.321   1.556   3.937  0.1862 -0.2076 -0.5527
 2635SOL    HW1 8283   4.298   1.464   3.954  0.0949 -0.3229 -1.2632
 2635SOL    HW2 8284   4.415   1.554   3.919  0.2917 -0.0789 -0.0364
 2636SOL     OW 8285   3.850   1.403   1.554 -0.1545  0.8598 -0.2661
 2636SOL    HW1 8286   3.762   1.405   1.593  0.0213  1.7291  0.0969
 2636SOL    HW2 8287   3.840   1.347   1.477 -0.7458 -0.0465  0.4452
 2637SOL     OW 8288   3.372   6.007   4.627 -0.1371 -0.0485 -0.0812
 2637SOL    HW1 8289   3.401   5.941   4.690 -0.6887 -1.7698 -1.5621
 2637SOL    HW2 8290   3.451   6.057   4.606  0.3779 -0.5030  0.7269
 2638SOL     OW 8291   1.351   6.591   5.721 -0.0596  0.1294  0.6860
 2638SOL    HW1 8292   1.274   6.551   5.681  0.3240  0.0283  0.0377
 2638SOL    HW2 8293   1.341   6.572   5.815  0.9036 -2.9660  0.2903
 2639SOL     OW 8294   3.803   2.990   2.875 -0.3726 -0.0471  0.3701
 2639SOL    HW1 8295   3.828   3.047   2.948 -0.4386  1.1508 -0.5249
 2639SOL    HW2 8296   3.876   2.997   2.813 -0.8394 -0.1626 -0.1925
 2640SOL     OW 8297   3.401   0.786   4.322  0.3401 -0.0629  0.4422
 2640SOL    HW1 8298   3.410   0.839   4.401 -0.3574 -0.5346  0.8483
 2640SOL    HW2 8299   3.474   0.723   4.326  1.5071  1.1875 -0.3259
 2641SOL     OW 8300   0.626   6.467   3.328  0.3633  0.1423 -0.0624
 2641SOL    HW1 8301   0.550   6.464   3.270  0.7053 -0.9534 -0.4773
 2641SOL    HW2 8302   0.701   6.474   3.269  0.6593 -0.0661  0.2856
 2642SOL     OW 8303   5.504   5.309   5.977 -0.4697 -0.3617 -0.2305
 2642SOL    HW1 8304   5.594   5.341   5.981 -0.7117  0.2110  1.1832
 2642SOL    HW2 8305   5.491   5.287   5.885  0.7396  0.6281 -0.6714
 2643SOL     OW 8306   6.727   4.126   5.397 -0.2634  0.5697  0.3575
 2643SOL    HW1 8307   6.732   4.061   5.327  1.0268  0.4836  0.5053
 2643SOL    HW2 8308   6.814   4.166   5.399 -1.1518  2.6150  0.0038
 2644SOL     OW 8309   0.193   1.705   3.326  0.7882 -0.7428 -0.0184
 2644SOL    HW1 8310   0.178   1.763   3.251  0.1519 -0.5102  0.2762
 2644SOL    HW2 8311   0.288   1.703   3.336  0.9366 -1.4586 -1.3420
 2645SOL     OW 8312   1.210   1.567   1.683  0.1414  0.2972 -0.3756
 2645SOL    HW1 8313   1.159   1.597   1.758  1.7645  0.9802  0.5170
 2645SOL    HW2 8314   1.286   1.626   1.681  0.9487 -0.7288 -1.5728
 2646SOL     OW 8315   5.928   3.596   3.998 -0.0714 -0.6874  0.3141
 2646SOL    HW1 8316   6.009   3.646   3.984 -1.0594  0.9224  0.1741
 2646SOL    HW2 8317   5.930   3.528   3.930  1.7586 -1.4872  1.1074
 2647SOL     OW 8318   0.108   6.051   0.726 -0.0283  0.4981 -0.4438
 2647SOL    HW1 8319   0.149   6.095   0.651 -0.0321  0.2098 -0.6157
 2647SOL    HW2 8320   0.018   6.084   0.726  0.4576  1.9267  0.5463
 2648SOL     OW 8321   0.344   0.113   5.208  0.4241 -0.0809 -0.2840
 2648SOL    HW1 8322   0.400   0.035   5.203  0.1408 -0.2288 -1.1992
 2648SOL    HW2 8323   0.287   0.096   5.283  0.2105 -0.8529 -0.6107
 2649SOL     OW 8324   5.564   1.757   1.589  0.5771 -0.0516  0.2876
 2649SOL    HW1 8325   5.628   1.767   1.660  0.5698  1.4210  0.1246
 2649SOL    HW2 8326   5.484   1.796   1.624  0.5691  0.6786 -0.4954
 2650SOL     OW 8327   5.006   4.098   3.371 -0.2324  0.0408  0.1780
 2650SOL    HW1 8328   4.994   4.062   3.283 -3.2997  1.0133  0.0968
 2650SOL    HW2 8329   5.101   4.100   3.383  0.2203 -1.8627 -2.3453
 2651SOL     OW 8330   1.825   4.741   2.382  0.6979  0.2200 -0.1503
 2651SOL    HW1 8331   1.766   4.803   2.425 -0.9583 -0.1826 -1.7418
 2651SOL    HW2 8332   1.849   4.679   2.451 -0.4088  0.6355  0.6423
 2652SOL     OW 8333   6.301   1.937   4.038  0.5088  0.1368  0.2783
 2652SOL    HW1 8334   6.335   1.899   3.957 -1.1526  0.0257 -0.4095
 2652SOL    HW2 8335   6.207   1.949   4.021  0.1187  0.0946  2.1939
 2653SOL     OW 8336   3.128   6.138   4.636 -0.3028 -0.4395 -0.2968
 2653SOL    HW1 8337   3.071   6.070   4.601  0.7316 -1.1821 -0.5737
 2653SOL    HW2 8338   3.215   6.098   4.640 -0.0683  0.1732  1.5777
 2654SOL     OW 8339   3.181   2.710   2.033  0.2399  0.0694 -0.0389
 2654SOL    HW1 8340   3.221   2.646   1.976  0.6186 -1.9684  2.3362
 2654SOL    HW2 8341   3.087   2.690   2.030  0.3447 -0.5445  0.6094
 2655SOL     OW 8342   4.722   3.601   3.920  0.0249  0.1740  0.5976
 2655SOL    HW1 8343   4.713   3.691   3.951 -1.5627  0.7133 -1.2244
 2655SOL    HW2 8344   4.794   3.603   3.858  0.2465  0.1059  0.8537
 2656SOL     OW 8345   1.693   2.230   5.497  0.1596  0.1403 -0.5382
 2656SOL    HW1 8346   1.731   2.202   5.414  0.4560  0.7300 -0.6018
 2656SOL    HW2 8347   1.624   2.166   5.514  1.1636 -0.9505 -0.4178
 2657SOL     OW 8348   5.052   6.350   4.070 -0.3943 -0.0804 -0.3680
 2657SOL    HW1 8349   5.103   6.361   4.150 -0.4327 -0.8217 -0.2375
 2657SOL    HW2 8350   5.077   6.425   4.016 -0.1647  0.2794  0.2235
 2658SOL     OW 8351   3.105   6.481   2.562 -0.2356 -0.6020 -0.6672
 2658SOL    HW1 8352   3.174   6.420   2.535  0.3185 -0.1669 -0.2793
 2658SOL    HW2 8353   3.045   6.428   2.614  0.7821 -0.6369  0.5396
 2659SOL     OW 8354   5.157   0.380   1.593 -0.1792 -0.0801 -0.4859
 2659SOL    HW1 8355   5.074   0.386   1.639 -0.0087  0.2293 -0.2204
 2659SOL    HW2 8356   5.223   0.377   1.662  0.0101 -0.7960 -0.6815
 2660SOL     OW 8357   5.461   1.491   5.760 -1.0793  0.1120 -0.2092
 2660SOL    HW1 8358   5.454   1.405   5.802  0.8169 -0.1893 -0.3979
 2660SOL    HW2 8359   5.504   1.547   5.825 -0.5267  0.3655 -0.7798
 2661SOL     OW 8360   1.383   3.296   3.133 -0.2913  0.5339  0.6904
 2661SOL    HW1 8361   1.469   3.259   3.115 -0.4618  0.4872 -0.0714
 2661SOL    HW2 8362   1.398   3.359   3.204  0.1577 -0.3073  1.3536
 2662SOL     OW 8363   0.292   5.178   3.479 -0.0092 -0.1924 -0.5187
 2662SOL    HW1 8364   0.323   5.262   3.445 -0.9650  0.3018 -0.2118
 2662SOL    HW2 8365   0.301   5.117   3.406  1.7887 -0.1206 -0.3982
 2663SOL     OW 8366   0.639   5.724   2.290  0.1390  0.7095 -0.4336
 2663SOL    HW1 8367   0.544   5.734   2.284  0.1326  0.2812 -1.1424
 2663SOL    HW2 8368   0.659   5.652   2.230  0.8646  0.5249  0.0243
 2664SOL     OW 8369   5.433   0.003   4.301  0.0685 -0.0737  0.2863
 2664SOL    HW1 8370   5.350   0.038   4.333  0.5526  1.0389  0.3776
 2664SOL    HW2 8371   5.446   0.046   4.216 -1.3081 -3.1319 -1.6512
 2665SOL     OW 8372   2.335   4.123   5.096  0.3976 -0.2537  0.2525
 2665SOL    HW1 8373   2.253   4.168   5.118  0.4482  0.2109 -0.4372
 2665SOL    HW2 8374   2.307   4.044   5.050  0.3210 -0.4432  0.6285
 2666SOL     OW 8375   2.970   5.053   5.995 -0.3331  0.6730 -0.0515
 2666SOL    HW1 8376   3.019   5.130   6.024 -1.6555  1.3708  0.4092
 2666SOL    HW2 8377   2.879   5.072   6.018 -0.7600 -0.8167 -0.3908
 2667SOL     OW 8378   1.321   1.188   4.510  0.1992  0.3052 -0.2721
 2667SOL    HW1 8379   1.254   1.134   4.468 -1.9298  2.1727  0.4651
 2667SOL    HW2 8380   1.306   1.276   4.474  1.8920  0.8991  0.3793
 2668SOL     OW 8381   0.184   0.261   6.171  0.4021  0.0800 -0.5554
 2668SOL    HW1 8382   0.107   0.318   6.161 -0.9367 -0.2278  4.7883
 2668SOL    HW2 8383   0.153   0.175   6.143 -0.6599  0.3040 -0.1342
 2669SOL     OW 8384   5.102   2.696   0.658 -0.2227 -0.1793 -0.3462
 2669SOL    HW1 8385   5.069   2.727   0.574 -3.1624  1.1764  1.1497
 2669SOL    HW2 8386   5.026   2.654   0.699  0.1064  2.0602  2.9034
 2670SOL     OW 8387   1.034   5.801   6.191  0.0848 -0.2285  0.0585
 2670SOL    HW1 8388   1.062   5.888   6.222  0.9159 -0.2662 -0.5431
 2670SOL    HW2 8389   1.102   5.776   6.128 -0.9807 -0.6177 -0.9710
 2671SOL     OW 8390   0.217   0.750   0.374  0.3221 -0.0950  0.1632
 2671SOL    HW1 8391   0.259   0.775   0.292  0.8683 -4.8988 -1.3689
 2671SOL    HW2 8392   0.129   0.723   0.350  0.2476 -0.9113  1.2247
 2672SOL     OW 8393   1.940   3.574   2.317 -0.1842 -0.6905 -0.1234
 2672SOL    HW1 8394   1.990   3.583   2.398 -1.9042  1.0117  0.8374
 2672SOL    HW2 8395   1.991   3.624   2.252  0.7985 -1.3987  0.0773
 2673SOL     OW 8396   1.592   5.627   6.557 -0.1906 -0.4745  0.3534
 2673SOL    HW1 8397   1.566   5.609   6.648  0.0645 -1.6154  0.2137
 2673SOL    HW2 8398   1.512   5.662   6.516 -0.5836 -0.8625  0.7710
 2674SOL     OW 8399   6.039   4.528   4.220 -0.8028 -0.5632  0.2608
 2674SOL    HW1 8400   6.047   4.433   4.216 -0.3010 -0.4849 -1.0392
 2674SOL    HW2 8401   5.991   4.551   4.140 -0.8923  0.2839  0.5504
 2675SOL     OW 8402   3.248   4.750   6.529 -0.6083 -0.2739 -0.1466
 2675SOL    HW1 8403   3.277   4.781   6.443 -1.4879 -1.1939 -0.7994
 2675SOL    HW2 8404   3.157   4.781   6.536 -0.5780 -0.3012  0.4041
 2676SOL     OW 8405   5.716   4.575   0.311 -0.4737 -0.4396  0.0315
 2676SOL    HW1 8406   5.767   4.656   0.309 -0.3055 -0.5519 -0.3978
 2676SOL    HW2 8407   5.656   4.582   0.238 -1.1980 -0.2410  0.6300
 2677SOL     OW 8408   0.929   3.615   5.486  0.0860  0.1483  0.0659
 2677SOL    HW1 8409   0.964   3.527   5.500 -0.2874 -0.1925 -0.9753
 2677SOL    HW2 8410   0.963   3.667   5.559  0.5410 -0.7920  0.5437
 2678SOL     OW 8411   4.371   6.476   0.147 -0.5407  0.3375  0.1894
 2678SOL    HW1 8412   4.314   6.412   0.105  0.2575 -0.1221 -0.2068
 2678SOL    HW2 8413   4.363   6.458   0.240 -0.4011 -0.2654  0.0855
 2679SOL     OW 8414   0.603   4.881   5.293  0.5296 -0.2910  0.5150
 2679SOL    HW1 8415   0.629   4.805   5.345  1.1979 -0.9374 -0.7228
 2679SOL    HW2 8416   0.684   4.929   5.279  0.1009  0.7335  1.3559
 2680SOL     OW 8417   5.395   1.017   1.146  0.0443  0.4232 -0.5859
 2680SOL    HW1 8418   5.406   1.109   1.168  0.8256  0.4173 -0.9115
 2680SOL    HW2 8419   5.435   1.008   1.059  0.1920 -0.2709 -0.4552
 2681SOL     OW 8420   5.462   1.864   0.475 -0.6693 -0.4047  0.0635
 2681SOL    HW1 8421   5.512   1.882   0.395 -1.1877 -0.4947 -0.2845
 2681SOL    HW2 8422   5.529   1.848   0.542 -0.1959  1.0396 -0.0209
 2682SOL     OW 8423   3.133   1.689   3.185 -0.4175  0.2063 -0.1016
 2682SOL    HW1 8424   3.162   1.633   3.113 -2.3822  0.5160 -1.1984
 2682SOL    HW2 8425   3.160   1.642   3.264  0.5086 -0.8624 -1.0138
 2683SOL     OW 8426   2.308   4.071   5.575 -0.7507 -1.0980 -0.2217
 2683SOL    HW1 8427   2.323   3.978   5.557 -0.0604 -0.8416 -1.0811
 2683SOL    HW2 8428   2.395   4.106   5.595 -0.9514 -0.5718 -0.2412
 2684SOL     OW 8429   1.084   0.970   1.752 -0.3540 -0.0481 -0.4218
 2684SOL    HW1 8430   1.004   0.985   1.802 -0.1589  2.3384 -0.7179
 2684SOL    HW2 8431   1.141   0.922   1.811 -0.2065  2.4711  1.6754
 2685SOL     OW 8432   4.962   4.704   3.576  0.2680  0.3276 -0.3398
 2685SOL    HW1 8433   4.922   4.636   3.630  0.4446 -1.4960 -2.3496
 2685SOL    HW2 8434   4.888   4.759   3.548 -0.1505 -0.1362 -0.1557
 2686SOL     OW 8435   0.113   0.802   2.866  0.0829  0.8308  0.4139
 2686SOL    HW1 8436   0.042   0.789   2.804  0.2355  0.8594  0.2348
 2686SOL    HW2 8437   0.086   0.879   2.917  0.6677  1.7350 -0.6163
 2687SOL     OW 8438   5.218   2.652   1.029  0.2346 -0.0920 -0.1422
 2687SOL    HW1 8439   5.152   2.586   1.049  0.0590  0.0377 -0.2927
 2687SOL    HW2 8440   5.180   2.734   1.058  0.8668 -0.1720  0.9802
 2688SOL     OW 8441   6.198   6.288   2.979 -0.0416 -0.6200 -0.1364
 2688SOL    HW1 8442   6.135   6.217   2.988  0.1125 -0.5510  2.2303
 2688SOL    HW2 8443   6.283   6.244   2.975 -0.0473 -0.6246 -0.2118
 2689SOL     OW 8444   3.687   5.365   2.583 -0.4335  0.1335  0.3252
 2689SOL    HW1 8445   3.616   5.301   2.579  0.8950 -1.3508 -1.7758
 2689SOL    HW2 8446   3.644   5.449   2.572 -1.9266 -0.7114 -0.7501
 2690SOL     OW 8447   1.979   6.556   4.089  0.0758 -0.1013 -0.0667
 2690SOL    HW1 8448   2.002   6.514   4.172 -1.9012 -1.2233 -0.0456
 2690SOL    HW2 8449   1.996   6.489   4.023  1.3170  0.6758 -0.5765
 2691SOL     OW 8450   4.208   6.395   3.726 -0.6005  0.1404 -0.2364
 2691SOL    HW1 8451   4.222   6.489   3.739 -1.2061  0.2678 -0.4754
 2691SOL    HW2 8452   4.114   6.384   3.731 -0.5508 -0.4223 -0.4570
 2692SOL     OW 8453   5.675   4.296   4.472 -0.8169 -0.3100  0.3529
 2692SOL    HW1 8454   5.745   4.302   4.408 -1.6981  0.8505 -0.5479
 2692SOL    HW2 8455   5.720   4.285   4.556  0.5476  1.8414 -0.0106
 2693SOL     OW 8456   3.143   3.490   6.403 -0.1778  0.5657  0.1569
 2693SOL    HW1 8457   3.229   3.524   6.429 -0.5460  1.4674  0.2496
 2693SOL    HW2 8458   3.119   3.430   6.473  0.3564  0.3468  0.1562
 2694SOL     OW 8459   6.764   4.242   3.356  0.2185  0.2559  0.3122
 2694SOL    HW1 8460   6.798   4.332   3.361 -2.2469  1.2048  2.5302
 2694SOL    HW2 8461   6.776   4.207   3.444 -1.8331 -0.3249  0.4145
 2695SOL     OW 8462   5.776   2.472   1.412 -0.3752 -0.0672 -0.0674
 2695SOL    HW1 8463   5.773   2.459   1.506  2.0111  0.8147  0.1993
 2695SOL    HW2 8464   5.867   2.455   1.388  0.0388  3.3931 -1.5601
 2696SOL     OW 8465   3.011   2.127   6.182  0.1174 -0.1811  0.3127
 2696SOL    HW1 8466   2.971   2.156   6.100  1.3983 -0.3414 -0.4041
 2696SOL    HW2 8467   3.017   2.032   6.173 -1.5289 -0.4312  1.4635
 2697SOL     OW 8468   0.138   0.503   5.262 -0.3136 -0.1350  0.1001
 2697SOL    HW1 8469   0.081   0.429   5.241  0.1788 -0.7196  0.7489
 2697SOL    HW2 8470   0.102   0.539   5.343 -0.4563  0.2371 -0.1268
 2698SOL     OW 8471   5.705   2.430   1.673 -0.2226 -0.2764  0.4051
 2698SOL    HW1 8472   5.716   2.397   1.762  1.7448  1.0567  0.7283
 2698SOL    HW2 8473   5.652   2.509   1.682 -1.2916 -0.9526  0.1788
 2699SOL     OW 8474   2.514   3.322   6.361  0.6844 -0.2987  0.4874
 2699SOL    HW1 8475   2.538   3.403   6.406  0.0792  0.1575 -0.0141
 2699SOL    HW2 8476   2.473   3.268   6.429  1.4935 -0.3823  0.9314
 2700SOL     OW 8477   4.522   6.668   3.256 -0.0108 -0.1406  0.1226
 2700SOL    HW1 8478   4.501   6.575   3.255 -1.6439  0.1911  0.6803
 2700SOL    HW2 8479   4.451   6.708   3.305 -0.4180  1.6694 -1.8147
 2701SOL     OW 8480   0.767   5.527   4.933 -0.2384  0.6919  0.1811
 2701SOL    HW1 8481   0.724   5.541   4.849  0.5788  0.8318 -0.2260
 2701SOL    HW2 8482   0.840   5.590   4.934 -0.6202  1.1415  1.2696
 2702SOL     OW 8483   1.602   6.532   2.010 -0.1651  0.3922  0.5650
 2702SOL    HW1 8484   1.538   6.519   1.939 -0.7926 -1.4107  1.3889
 2702SOL    HW2 8485   1.632   6.443   2.031 -1.0211  0.6667  3.4459
 2703SOL     OW 8486   3.792   5.886   6.193  0.4575  0.5006 -0.0150
 2703SOL    HW1 8487   3.762   5.842   6.114 -0.1390 -0.2138  0.5995
 2703SOL    HW2 8488   3.839   5.963   6.161 -0.1351  0.4432 -1.0488
 2704SOL     OW 8489   1.489   2.040   4.422  0.0002  0.0358 -0.3442
 2704SOL    HW1 8490   1.395   2.057   4.428 -0.0133 -0.5303  2.1237
 2704SOL    HW2 8491   1.496   1.945   4.432  0.8385  0.1122 -0.1944
 2705SOL     OW 8492   0.659   5.613   0.762 -0.1118 -0.5038 -0.7421
 2705SOL    HW1 8493   0.639   5.533   0.714  1.3119 -1.4004  0.0634
 2705SOL    HW2 8494   0.750   5.603   0.789  0.5180  1.9551 -1.6449
 2706SOL     OW 8495   4.201   1.947   3.281  0.3918 -0.0822 -0.6836
 2706SOL    HW1 8496   4.169   1.913   3.364  1.8784 -0.2551 -0.1560
 2706SOL    HW2 8497   4.195   2.042   3.290  1.4435 -0.0644  0.0217
 2707SOL     OW 8498   6.518   3.018   5.610  0.2071 -0.5540 -0.4411
 2707SOL    HW1 8499   6.445   3.034   5.551  1.3434  0.4598 -1.6495
 2707SOL    HW2 8500   6.552   3.105   5.632  2.3787 -0.9877 -1.7188
 2708SOL     OW 8501   1.003   1.502   4.379  0.1652  0.1393 -0.2682
 2708SOL    HW1 8502   1.016   1.407   4.369  0.9999  0.3039 -0.9405
 2708SOL    HW2 8503   1.076   1.530   4.433 -0.9567  0.1861  1.2782
 2709SOL     OW 8504   5.499   4.615   3.581 -0.1003  0.0777 -0.3604
 2709SOL    HW1 8505   5.558   4.677   3.536  0.3637  0.5106  0.7940
 2709SOL    HW2 8506   5.413   4.656   3.576  0.0194  0.3126 -0.5123
 2710SOL     OW 8507   4.593   1.287   2.097 -0.1580  0.2086 -0.1802
 2710SOL    HW1 8508   4.661   1.350   2.120  0.6395 -0.8575  0.4253
 2710SOL    HW2 8509   4.575   1.240   2.179 -0.4379 -0.6390 -0.7142
 2711SOL     OW 8510   4.415   2.257   6.043 -0.1576 -0.0612 -0.1049
 2711SOL    HW1 8511   4.390   2.333   6.096  1.3501 -0.4309  1.2409
 2711SOL    HW2 8512   4.436   2.293   5.957 -0.5897  0.8871  0.1776
 2712SOL     OW 8513   6.337   3.173   4.562 -0.0055 -0.2112  0.1006
 2712SOL    HW1 8514   6.290   3.198   4.482  0.6264 -2.1823 -0.9816
 2712SOL    HW2 8515   6.271   3.176   4.631 -0.5136  1.7796 -0.4147
 2713SOL     OW 8516   3.148   4.603   0.159  0.0448  0.2547 -0.0064
 2713SOL    HW1 8517   3.214   4.565   0.102  0.3929  0.0676  0.5158
 2713SOL    HW2 8518   3.127   4.533   0.221  1.0630  1.0584  1.2802
 2714SOL     OW 8519   1.453   1.731   3.575  0.3157 -0.2057 -0.0776
 2714SOL    HW1 8520   1.417   1.739   3.487 -0.6924 -0.2844  0.3148
 2714SOL    HW2 8521   1.390   1.675   3.622  0.2705  0.7058  0.9831
 2715SOL     OW 8522   5.918   0.157   0.200 -0.4327 -0.2827 -0.0650
 2715SOL    HW1 8523   6.007   0.154   0.235 -0.7941  0.8381  1.0234
 2715SOL    HW2 8524   5.862   0.140   0.275 -1.1600 -0.2217 -0.5828
 2716SOL     OW 8525   5.426   3.597   2.247  0.2765  0.8834  0.2515
 2716SOL    HW1 8526   5.377   3.515   2.240  1.3114  0.2116  0.6450
 2716SOL    HW2 8527   5.480   3.600   2.168  0.0518  1.3227  0.1112
 2717SOL     OW 8528   3.197   2.821   2.994 -0.5951 -0.2941 -0.0487
 2717SOL    HW1 8529   3.186   2.736   3.036 -0.3992  0.3080  1.2559
 2717SOL    HW2 8530   3.119   2.871   3.018 -0.1862  0.2715  0.1164
 2718SOL     OW 8531   0.645   0.274   4.056 -0.3753  0.4172 -0.3591
 2718SOL    HW1 8532   0.591   0.241   3.985  0.9189 -2.2262 -0.2312
 2718SOL    HW2 8533   0.609   0.235   4.135  0.1529  0.7256  0.0480
 2719SOL     OW 8534   4.736   5.946   2.004 -0.3759 -0.1085 -0.0291
 2719SOL    HW1 8535   4.730   6.012   1.935 -1.0068  0.3214  0.4109
 2719SOL    HW2 8536   4.749   5.863   1.958 -2.4251 -0.0706 -0.7905
 2720SOL     OW 8537   0.603   3.311   4.009  0.5229  0.3252 -0.3226
 2720SOL    HW1 8538   0.620   3.218   3.993  1.8142  0.0036  2.3807
 2720SOL    HW2 8539   0.677   3.340   4.062 -0.8569  2.3815  0.5883
 2721SOL     OW 8540   4.503   3.795   0.201 -0.4402 -0.6194 -0.0657
 2721SOL    HW1 8541   4.441   3.861   0.229  0.9615  0.5352  0.4241
 2721SOL    HW2 8542   4.461   3.712   0.222 -1.7194  0.1292  0.4167
 2722SOL     OW 8543   1.185   6.162   5.459 -0.3135  0.5240  0.3657
 2722SOL    HW1 8544   1.235   6.192   5.535  1.0966  0.4678 -0.5168
 2722SOL    HW2 8545   1.157   6.073   5.482  0.5109  0.3272  0.6274
 2723SOL     OW 8546   6.074   2.863   5.724  0.8632  0.1228 -0.1768
 2723SOL    HW1 8547   6.015   2.876   5.650  2.2434 -0.0661 -1.3410
 2723SOL    HW2 8548   6.135   2.936   5.720  1.1579 -0.0714  0.5838
 2724SOL     OW 8549   2.319   3.378   1.929  0.9212  0.0414  0.5786
 2724SOL    HW1 8550   2.241   3.367   1.874  1.7863  1.4977 -1.0289
 2724SOL    HW2 8551   2.327   3.295   1.976  0.4084 -1.4920 -1.8720
 2725SOL     OW 8552   1.681   3.527   4.089 -0.2909 -0.0854  0.0152
 2725SOL    HW1 8553   1.758   3.580   4.070  0.4614 -0.9310  0.6751
 2725SOL    HW2 8554   1.611   3.591   4.103  0.1849  0.6766 -0.9750
 2726SOL     OW 8555   3.603   3.909   0.926 -0.8871  0.4629  0.1766
 2726SOL    HW1 8556   3.528   3.967   0.940 -0.6147  1.0487 -0.7440
 2726SOL    HW2 8557   3.677   3.957   0.964 -0.8258  0.2619  0.3150
 2727SOL     OW 8558   5.495   6.207   4.009  0.0225  0.2436 -0.2069
 2727SOL    HW1 8559   5.580   6.225   3.969 -0.0909  0.4812 -0.3452
 2727SOL    HW2 8560   5.490   6.268   4.083 -0.6583  1.2894 -1.0885
 2728SOL     OW 8561   2.043   1.981   5.517  0.0320  0.0861  0.2180
 2728SOL    HW1 8562   2.077   1.997   5.605 -1.5064  1.4581  0.6102
 2728SOL    HW2 8563   1.992   1.901   5.525 -1.5410  1.1135  1.0593
 2729SOL     OW 8564   6.026   0.409   2.773  0.1557 -0.0440 -0.1545
 2729SOL    HW1 8565   6.063   0.321   2.760  2.7507  0.9414 -0.0986
 2729SOL    HW2 8566   6.055   0.434   2.860 -3.1045 -0.1879  1.1156
 2730SOL     OW 8567   0.957   4.232   3.802 -0.1661  0.5138  0.3323
 2730SOL    HW1 8568   0.886   4.290   3.833  0.1151  1.1262 -0.1549
 2730SOL    HW2 8569   0.996   4.279   3.729 -0.8519 -0.9527 -1.0131
 2731SOL     OW 8570   3.659   1.057   3.664 -0.2754  0.0565 -0.1722
 2731SOL    HW1 8571   3.741   1.062   3.713  0.7693  0.4644 -1.8705
 2731SOL    HW2 8572   3.597   1.017   3.725  0.5055  1.9550  1.9943
 2732SOL     OW 8573   1.200   0.647   5.344  0.4300  0.2121 -0.0191
 2732SOL    HW1 8574   1.121   0.623   5.296  0.8922  0.5303 -0.9612
 2732SOL    HW2 8575   1.168   0.680   5.428 -0.4453  0.5054 -0.4522
 2733SOL     OW 8576   2.430   3.160   6.553 -0.1093  0.0791 -0.1742
 2733SOL    HW1 8577   2.404   3.080   6.508 -1.8103  0.7365 -0.4183
 2733SOL    HW2 8578   2.392   3.152   6.640 -0.0107  0.4720 -0.0946
 2734SOL     OW 8579   4.883   6.688   4.005  0.2687  0.2922  0.1229
 2734SOL    HW1 8580   4.893   6.701   3.910  0.4294 -1.2593 -0.1094
 2734SOL    HW2 8581   4.873   6.776   4.041 -0.6254  0.8641 -1.4343
 2735SOL     OW 8582   0.826   5.843   4.643 -0.4551 -0.1291 -0.2335
 2735SOL    HW1 8583   0.790   5.757   4.661 -0.0322 -0.8627 -2.5646
 2735SOL    HW2 8584   0.921   5.832   4.651 -0.4372  0.3302  0.2342
 2736SOL     OW 8585   4.066   3.869   1.984  0.3404 -0.0830  0.2211
 2736SOL    HW1 8586   4.030   3.919   1.911 -1.4776 -0.2204  0.9741
 2736SOL    HW2 8587   3.991   3.853   2.042  1.5520 -0.7474  1.6801
 2737SOL     OW 8588   0.726   3.519   3.074 -0.1377  0.0945  0.0065
 2737SOL    HW1 8589   0.701   3.456   3.142  0.4516 -0.0673  0.0816
 2737SOL    HW2 8590   0.746   3.464   2.998  0.2269  0.1981  0.0259
 2738SOL     OW 8591   5.642   2.356   4.555 -0.3961  0.1461  0.5038
 2738SOL    HW1 8592   5.725   2.401   4.571 -0.6802  0.6698  0.5172
 2738SOL    HW2 8593   5.640   2.344   4.460  0.4177 -1.2841  0.6371
 2739SOL     OW 8594   5.323   1.022   3.917  0.0065 -0.2890  0.0707
 2739SOL    HW1 8595   5.284   1.082   3.979 -0.5102 -0.6119  0.0624
 2739SOL    HW2 8596   5.417   1.026   3.936 -0.2086 -0.9578  1.3953
 2740SOL     OW 8597   4.499   4.744   2.863  0.0170  0.0564 -0.2356
 2740SOL    HW1 8598   4.412   4.775   2.886 -0.1670 -0.0864 -0.7196
 2740SOL    HW2 8599   4.493   4.649   2.870  0.4036  0.0918  0.6478
 2741SOL     OW 8600   1.742   2.471   2.862 -0.1507 -0.0746  0.2560
 2741SOL    HW1 8601   1.758   2.453   2.955 -0.0430  1.0306  0.4654
 2741SOL    HW2 8602   1.767   2.390   2.818 -0.6738 -0.7895  1.2293
 2742SOL     OW 8603   3.084   5.500   2.241  0.5233 -0.2453  0.2874
 2742SOL    HW1 8604   3.116   5.431   2.182  1.4861 -0.3725  0.9343
 2742SOL    HW2 8605   3.020   5.548   2.189  1.8596  0.0972 -1.1162
 2743SOL     OW 8606   3.498   3.295   6.432  0.9223 -0.0525  0.3065
 2743SOL    HW1 8607   3.430   3.269   6.370  2.6416  1.3864 -2.3431
 2743SOL    HW2 8608   3.470   3.381   6.463  0.4685 -0.4208  0.9441
 2744SOL     OW 8609   5.162   5.242   0.359 -0.2359  0.0716  0.1843
 2744SOL    HW1 8610   5.127   5.302   0.293 -1.6519 -1.3262 -0.4109
 2744SOL    HW2 8611   5.242   5.284   0.390 -0.5421  1.6699 -1.0627
 2745SOL     OW 8612   1.724   4.310   6.436 -0.4786 -0.5991 -0.0044
 2745SOL    HW1 8613   1.764   4.365   6.368 -0.3689 -1.7689 -0.9177
 2745SOL    HW2 8614   1.676   4.243   6.387 -1.6476 -0.5932  1.0838
 2746SOL     OW 8615   0.304   1.791   6.346 -0.1131 -0.1494 -0.3662
 2746SOL    HW1 8616   0.366   1.776   6.274  0.5541  0.4217  0.0701
 2746SOL    HW2 8617   0.306   1.710   6.396  2.1955  0.6783  1.0366
 2747SOL     OW 8618   4.992   3.637   3.083  0.3975  0.1740 -0.3502
 2747SOL    HW1 8619   5.000   3.632   3.178  0.5454 -0.7985 -0.3956
 2747SOL    HW2 8620   5.075   3.674   3.054  0.3361  0.5135 -0.1035
 2748SOL     OW 8621   4.076   4.695   5.103  0.0907 -0.3182 -0.8707
 2748SOL    HW1 8622   4.020   4.768   5.076  0.7130  0.4382 -0.1618
 2748SOL    HW2 8623   4.165   4.726   5.089  0.3637 -1.0480 -0.8175
 2749SOL     OW 8624   3.127   2.131   6.824 -0.1618 -0.3241 -0.1293
 2749SOL    HW1 8625   3.157   2.222   6.820 -0.7105 -0.1311  0.0189
 2749SOL    HW2 8626   3.113   2.106   6.733 -1.7928  0.3579 -0.0965
 2750SOL     OW 8627   4.364   2.753   4.934 -0.0265 -0.1508  0.3507
 2750SOL    HW1 8628   4.328   2.668   4.908  0.1021 -0.6716  1.7690
 2750SOL    HW2 8629   4.449   2.757   4.891 -0.6694 -0.0391 -0.9649
 2751SOL     OW 8630   6.744   5.254   6.094  0.5724 -0.2612 -0.0549
 2751SOL    HW1 8631   6.797   5.220   6.166  0.4269  0.4623  0.4002
 2751SOL    HW2 8632   6.736   5.347   6.112  0.1192 -0.1597 -0.7475
 2752SOL     OW 8633   6.064   0.340   3.728 -0.0782 -0.0247  0.0983
 2752SOL    HW1 8634   6.075   0.422   3.680 -0.9892 -0.3361 -0.6850
 2752SOL    HW2 8635   6.151   0.302   3.732  0.2585  0.7156 -0.0135
 2753SOL     OW 8636   5.733   4.719   4.201  0.1264  0.1166  0.0147
 2753SOL    HW1 8637   5.741   4.662   4.124  1.4333 -0.0653  0.2617
 2753SOL    HW2 8638   5.791   4.793   4.183 -0.6936  0.8292  0.1963
 2754SOL     OW 8639   6.272   3.190   6.051 -0.1323  0.3258 -0.0233
 2754SOL    HW1 8640   6.290   3.108   6.004 -1.0067 -0.6364  1.2324
 2754SOL    HW2 8641   6.207   3.234   5.997 -0.3368 -0.2679 -0.2787
 2755SOL     OW 8642   3.118   6.272   0.509 -0.4646 -0.2576 -0.1062
 2755SOL    HW1 8643   3.036   6.275   0.459 -0.4657  0.8900 -0.0579
 2755SOL    HW2 8644   3.186   6.278   0.442 -0.4669  1.3802  0.0044
 2756SOL     OW 8645   4.596   1.608   3.825 -0.7401  0.5731 -0.4460
 2756SOL    HW1 8646   4.565   1.695   3.801  1.7165  2.1186  1.5521
 2756SOL    HW2 8647   4.690   1.617   3.836 -0.1245 -2.7486 -1.6133
 2757SOL     OW 8648   5.359   3.959   2.444  0.6424 -0.0567 -0.7625
 2757SOL    HW1 8649   5.430   3.918   2.493 -0.7468  0.4056  1.8489
 2757SOL    HW2 8650   5.300   3.887   2.422  0.1391 -0.0063  0.3512
 2758SOL     OW 8651   0.175   3.263   4.999 -0.3921  0.2601 -0.2504
 2758SOL    HW1 8652   0.119   3.286   5.074 -0.3879  0.0675 -0.1870
 2758SOL    HW2 8653   0.246   3.327   5.002 -0.3371  0.1920 -0.0273
 2759SOL     OW 8654   5.523   3.914   4.977  0.0396 -0.2355 -0.0763
 2759SOL    HW1 8655   5.547   3.860   4.902 -1.3812 -0.7356 -0.2156
 2759SOL    HW2 8656   5.588   3.894   5.044  0.6116 -0.7112 -0.7719
 2760SOL     OW 8657   1.869   4.212   2.334 -0.4267  0.1447  0.4748
 2760SOL    HW1 8658   1.882   4.125   2.296 -0.6230  0.4545 -0.3254
 2760SOL    HW2 8659   1.910   4.207   2.421  2.4734  0.1852 -0.7617
 2761SOL     OW 8660   4.947   0.346   2.807 -0.4050  0.5589 -0.5147
 2761SOL    HW1 8661   4.933   0.387   2.893  1.6975 -0.7654  0.5288
 2761SOL    HW2 8662   4.894   0.266   2.811  1.5039 -0.7263  0.5632
 2762SOL     OW 8663   2.367   1.182   4.922 -0.2364  0.1790  0.0988
 2762SOL    HW1 8664   2.390   1.151   4.835  2.5383  0.2203  0.7244
 2762SOL    HW2 8665   2.286   1.135   4.943  0.1016 -1.3515 -1.7082
 2763SOL     OW 8666   2.669   1.545   4.131  0.1729 -0.3163 -0.5229
 2763SOL    HW1 8667   2.598   1.531   4.067  0.0007  0.1168 -0.4296
 2763SOL    HW2 8668   2.646   1.489   4.205 -0.7484  0.7701  0.0361
 2764SOL     OW 8669   3.177   3.791   0.772 -0.0250  0.8413  0.3906
 2764SOL    HW1 8670   3.223   3.708   0.778 -1.0569  0.1770 -0.5612
 2764SOL    HW2 8671   3.247   3.856   0.765  0.7883 -0.0321  0.2264
 2765SOL     OW 8672   4.966   1.846   1.943 -0.3062 -0.1646 -0.2576
 2765SOL    HW1 8673   5.059   1.845   1.919 -0.3057  0.2425 -0.2671
 2765SOL    HW2 8674   4.926   1.909   1.883 -0.8228 -1.2566 -1.1079
 2766SOL     OW 8675   4.529   5.388   6.328  0.4540 -0.1899  0.1837
 2766SOL    HW1 8676   4.573   5.303   6.321  0.6232  0.0500 -4.6863
 2766SOL    HW2 8677   4.590   5.442   6.380  1.3635 -2.3569  1.5166
 2767SOL     OW 8678   3.819   5.721   1.948 -0.2727  0.0225  0.0047
 2767SOL    HW1 8679   3.775   5.806   1.939 -0.2428  0.0296 -0.0783
 2767SOL    HW2 8680   3.758   5.658   1.910 -0.1704  0.0447 -0.1992
 2768SOL     OW 8681   1.943   0.758   2.416  0.0536 -0.7174  0.2568
 2768SOL    HW1 8682   2.015   0.815   2.389  0.8897 -0.9418  1.9075
 2768SOL    HW2 8683   1.899   0.806   2.487 -2.4524  0.1238 -1.6910
 2769SOL     OW 8684   0.834   1.076   3.850 -0.4128  0.5307  0.4189
 2769SOL    HW1 8685   0.840   1.118   3.936  2.3958 -2.1270  1.7245
 2769SOL    HW2 8686   0.843   0.983   3.868 -2.2717 -0.3896 -2.6320
 2770SOL     OW 8687   5.624   2.611   6.072  0.4310 -0.7668 -0.5530
 2770SOL    HW1 8688   5.613   2.541   6.136  3.3696 -2.0092 -1.2533
 2770SOL    HW2 8689   5.681   2.674   6.115 -3.1841  2.1073  0.5855
 2771SOL     OW 8690   4.681   4.949   2.825  0.1137 -0.1235 -0.3871
 2771SOL    HW1 8691   4.598   4.906   2.844  0.6083 -1.7618 -1.6934
 2771SOL    HW2 8692   4.716   4.902   2.750  2.0542  0.7693 -0.1131
 2772SOL     OW 8693   6.388   3.369   0.842  0.4128  0.4270 -0.0104
 2772SOL    HW1 8694   6.480   3.344   0.832  0.0669 -0.4175 -1.2513
 2772SOL    HW2 8695   6.349   3.352   0.756 -0.9591  0.5616  0.5644
 2773SOL     OW 8696   1.775   6.353   2.210 -0.2787  0.3375  0.4948
 2773SOL    HW1 8697   1.836   6.376   2.280 -0.3829  0.1166  0.6603
 2773SOL    HW2 8698   1.828   6.357   2.130  1.1672 -4.0424  0.9914
 2774SOL     OW 8699   0.491   1.916   1.528 -0.6617 -0.2515 -0.4567
 2774SOL    HW1 8700   0.452   1.889   1.611 -0.1125  0.1925 -0.0473
 2774SOL    HW2 8701   0.556   1.982   1.552  0.5051 -1.1317 -1.0930
 2775SOL     OW 8702   4.227   2.782   4.129 -0.4539 -0.6104 -0.9434
 2775SOL    HW1 8703   4.186   2.858   4.087  0.0273  0.1500 -0.0613
 2775SOL    HW2 8704   4.319   2.804   4.134 -0.7596  0.4503  2.6867
 2776SOL     OW 8705   2.653   0.136   2.834 -0.0618 -0.4267  0.3723
 2776SOL    HW1 8706   2.606   0.122   2.752  0.1024  1.0665  0.0013
 2776SOL    HW2 8707   2.585   0.164   2.896  0.1633  0.7773  0.0950
 2777SOL     OW 8708   0.942   3.159   2.145 -0.5048 -0.2409 -0.2665
 2777SOL    HW1 8709   0.864   3.104   2.136  0.4623 -2.1406  1.9972
 2777SOL    HW2 8710   0.982   3.132   2.228  1.4594  2.1260 -0.3126
 2778SOL     OW 8711   5.441   1.989   2.415  0.4441  0.0615  0.5212
 2778SOL    HW1 8712   5.482   2.007   2.330 -0.9222  0.3752 -0.0961
 2778SOL    HW2 8713   5.402   1.903   2.405 -0.1035  0.2884  0.6781
 2779SOL     OW 8714   1.458   4.917   5.658  0.0204  0.3239 -0.8247
 2779SOL    HW1 8715   1.512   4.953   5.588  0.0450 -1.2044 -1.6497
 2779SOL    HW2 8716   1.383   4.879   5.613  1.6601 -3.8152 -0.5792
 2780SOL     OW 8717   1.422   5.087   2.700 -0.4925 -0.2302  0.3267
 2780SOL    HW1 8718   1.409   4.994   2.681  2.3388 -0.6098 -0.1731
 2780SOL    HW2 8719   1.490   5.115   2.638 -1.6883  2.3731  0.0418
 2781SOL     OW 8720   0.914   1.003   4.706 -0.4314  0.6400 -0.4315
 2781SOL    HW1 8721   0.900   1.077   4.647  0.4586  0.0692 -1.3772
 2781SOL    HW2 8722   0.843   0.943   4.687 -3.0160  2.4809  2.4588
 2782SOL     OW 8723   2.244   4.005   0.930 -0.2657  0.6423 -0.0278
 2782SOL    HW1 8724   2.339   4.017   0.935 -0.0891 -1.0122  1.1328
 2782SOL    HW2 8725   2.215   4.074   0.869  1.6873  1.0125 -0.6168
 2783SOL     OW 8726   5.898   0.115   3.757  0.2938 -0.4242 -0.3656
 2783SOL    HW1 8727   5.972   0.060   3.730  0.1086 -0.5935 -0.5258
 2783SOL    HW2 8728   5.926   0.204   3.734  0.5256 -0.4652 -0.2535
 2784SOL     OW 8729   1.224   6.845   3.595 -0.3689 -0.1172 -0.5236
 2784SOL    HW1 8730   1.283   6.896   3.651  0.9585 -0.9596 -1.0931
 2784SOL    HW2 8731   1.145   6.833   3.648  0.5913 -0.3108  0.9257
 2785SOL     OW 8732   5.485   1.870   1.078  0.3342 -0.4016  0.3069
 2785SOL    HW1 8733   5.417   1.920   1.124 -0.1332 -1.2051  0.5080
 2785SOL    HW2 8734   5.500   1.918   0.997  1.0818  0.9769  1.2252
 2786SOL     OW 8735   3.110   1.065   5.904 -0.5871 -0.1361  0.3976
 2786SOL    HW1 8736   3.196   1.025   5.896 -0.9805 -1.1780  1.0924
 2786SOL    HW2 8737   3.090   1.062   5.998 -1.3921  0.0483  0.2441
 2787SOL     OW 8738   2.995   4.599   2.529  0.1774  0.3131 -0.4768
 2787SOL    HW1 8739   3.003   4.677   2.583 -0.8915  0.5604 -0.6389
 2787SOL    HW2 8740   3.008   4.630   2.439 -2.9558  0.9188 -0.8573
 2788SOL     OW 8741   0.931   3.507   2.339  0.0029 -0.2899 -0.3511
 2788SOL    HW1 8742   0.963   3.588   2.379  1.4249 -1.2522  0.5679
 2788SOL    HW2 8743   0.975   3.503   2.254  1.9600 -1.2871  0.6414
 2789SOL     OW 8744   3.154   2.284   4.051 -0.0578 -0.8880 -0.4274
 2789SOL    HW1 8745   3.214   2.267   4.124  0.2928  0.2853 -0.4368
 2789SOL    HW2 8746   3.089   2.344   4.087 -0.2457 -0.8067 -0.8997
 2790SOL     OW 8747   4.002   3.018   6.418 -0.0705  0.0813  0.6010
 2790SOL    HW1 8748   3.971   2.943   6.468 -0.9093 -0.1085 -0.1677
 2790SOL    HW2 8749   3.922   3.061   6.388  0.3996  0.3841 -0.2630
 2791SOL     OW 8750   6.437   2.514   1.311  0.3527 -0.5526 -0.1493
 2791SOL    HW1 8751   6.377   2.456   1.263 -0.8132  0.2545  0.2778
 2791SOL    HW2 8752   6.452   2.469   1.394 -1.1694  0.0554  0.5009
 2792SOL     OW 8753   5.006   5.295   4.917 -0.7255 -0.1997 -0.2277
 2792SOL    HW1 8754   5.085   5.317   4.966 -1.8682  1.2252  1.1018
 2792SOL    HW2 8755   5.031   5.305   4.825  1.4286 -2.7380 -0.0497
 2793SOL     OW 8756   0.244   4.797   4.183 -0.6609 -0.0940 -0.2426
 2793SOL    HW1 8757   0.193   4.850   4.121 -0.2979  0.9063  0.2974
 2793SOL    HW2 8758   0.264   4.856   4.255 -1.6963 -1.4226  1.2201
 2794SOL     OW 8759   6.136   6.004   3.413 -0.5902  1.0809 -0.6851
 2794SOL    HW1 8760   6.086   5.932   3.375 -0.7898  0.8044  0.0875
 2794SOL    HW2 8761   6.093   6.022   3.496  1.3174  0.0009  0.6147
 2795SOL     OW 8762   3.322   5.212   2.705 -0.1950 -0.1247  0.0699
 2795SOL    HW1 8763   3.226   5.207   2.708 -0.1862 -0.5688 -0.2786
 2795SOL    HW2 8764   3.341   5.248   2.618 -0.0486 -0.0570  0.1311
 2796SOL     OW 8765   2.665   5.527   1.348 -0.3280  0.0072  0.1604
 2796SOL    HW1 8766   2.665   5.616   1.313  0.6842  0.7033  1.8101
 2796SOL    HW2 8767   2.745   5.488   1.315 -1.3827 -0.7927 -1.6151
 2797SOL     OW 8768   4.251   1.190   1.881  0.3778 -0.0933  0.8152
 2797SOL    HW1 8769   4.171   1.221   1.839  1.6345 -1.0910 -2.6566
 2797SOL    HW2 8770   4.227   1.106   1.920 -0.1790 -0.6474 -0.6730
 2798SOL     OW 8771   4.891   1.716   4.162  0.3034  0.8615 -0.3777
 2798SOL    HW1 8772   4.834   1.725   4.238  1.1333  1.2946  0.2122
 2798SOL    HW2 8773   4.939   1.635   4.179  1.2966  1.5389  0.1285
 2799SOL     OW 8774   0.630   0.623   5.865  0.2108  0.4506  0.0017
 2799SOL    HW1 8775   0.582   0.552   5.823  0.6282  0.0963  0.1147
 2799SOL    HW2 8776   0.691   0.579   5.924  1.2669  0.8617 -0.7579
 2800SOL     OW 8777   5.084   1.917   3.999 -0.1082 -0.8681 -0.4847
 2800SOL    HW1 8778   5.038   1.999   4.017 -0.2768 -1.4228  2.0032
 2800SOL    HW2 8779   5.022   1.848   4.024  0.1093 -1.8182 -2.3222
 2801SOL     OW 8780   0.771   1.171   0.561 -0.1588 -0.6910 -0.6565
 2801SOL    HW1 8781   0.708   1.138   0.625 -1.5041  0.3079 -1.4134
 2801SOL    HW2 8782   0.797   1.093   0.511 -0.2940 -1.2223  0.0828
 2802SOL     OW 8783   5.036   3.675   0.455  0.3634  0.3730 -0.2169
 2802SOL    HW1 8784   5.116   3.710   0.494  0.7516  0.6053 -1.1836
 2802SOL    HW2 8785   4.966   3.702   0.514  0.9672  0.3865  0.5047
 2803SOL     OW 8786   2.695   5.269   5.916  0.1167  0.5393 -0.3788
 2803SOL    HW1 8787   2.677   5.183   5.876 -1.8613 -0.0602  1.6270
 2803SOL    HW2 8788   2.641   5.330   5.867 -0.0191  0.3122 -0.5148
 2804SOL     OW 8789   0.862   5.637   6.301 -0.0777 -0.0610  0.2449
 2804SOL    HW1 8790   0.833   5.572   6.237  2.0361 -0.8559  0.0111
 2804SOL    HW2 8791   0.920   5.695   6.251  1.5111 -0.6195  1.3463
 2805SOL     OW 8792   0.214   4.385   3.052 -0.4085  0.3322 -0.1972
 2805SOL    HW1 8793   0.185   4.316   2.992  0.0866  0.8313 -1.0213
 2805SOL    HW2 8794   0.179   4.466   3.015 -0.6889  0.5765  0.5742
 2806SOL     OW 8795   0.326   4.772   5.633 -0.0246  0.5463  0.2027
 2806SOL    HW1 8796   0.360   4.799   5.718 -1.6834 -0.2368  1.1561
 2806SOL    HW2 8797   0.288   4.852   5.596 -1.9979  0.2901  1.5638
 2807SOL     OW 8798   4.677   4.354   5.668 -0.3360  0.6188  0.0543
 2807SOL    HW1 8799   4.738   4.292   5.627  1.1390  0.5754  2.1564
 2807SOL    HW2 8800   4.723   4.438   5.666 -0.8532  0.9078  0.2855
 2808SOL     OW 8801   3.576   5.289   4.479 -0.6613 -0.5373  0.3349
 2808SOL    HW1 8802   3.487   5.315   4.504 -0.2450 -0.0247  1.3249
 2808SOL    HW2 8803   3.633   5.339   4.537  0.3768  0.8179 -1.7306
 2809SOL     OW 8804   2.183   4.423   6.103 -0.0912 -0.3460  0.6821
 2809SOL    HW1 8805   2.206   4.374   6.025  0.7938 -1.1049  1.4040
 2809SOL    HW2 8806   2.258   4.481   6.118 -0.0410 -0.5499  1.2371
 2810SOL     OW 8807   6.258   3.781   3.676  0.2287  0.2470 -0.3211
 2810SOL    HW1 8808   6.319   3.847   3.642  1.7160 -0.6056  0.5913
 2810SOL    HW2 8809   6.251   3.716   3.605  0.3453  0.3670 -0.4438
 2811SOL     OW 8810   4.124   4.170   4.174 -0.0469  0.0144 -0.4169
 2811SOL    HW1 8811   4.051   4.189   4.234  0.4916  0.0392  0.2404
 2811SOL    HW2 8812   4.091   4.098   4.120 -0.8078  0.4708 -0.5848
 2812SOL     OW 8813   6.379   1.464   0.104  0.0757  0.4117 -0.1401
 2812SOL    HW1 8814   6.289   1.497   0.113  0.6954  2.5534 -1.1294
 2812SOL    HW2 8815   6.385   1.438   0.013  0.9357  2.0005 -0.5775
 2813SOL     OW 8816   5.744   6.555   4.946  0.2268  0.0191 -0.3063
 2813SOL    HW1 8817   5.830   6.546   4.904  0.5015  0.9290  0.0274
 2813SOL    HW2 8818   5.692   6.605   4.884  0.8994  2.1227  0.7211
 2814SOL     OW 8819   6.042   4.272   1.750 -0.2056 -0.4671 -0.0974
 2814SOL    HW1 8820   6.007   4.185   1.728 -0.1988 -0.6533  0.6008
 2814SOL    HW2 8821   5.971   4.314   1.799  0.3487 -0.6449  0.8646
 2815SOL     OW 8822   4.678   3.608   5.513  0.2752  0.6888  0.2078
 2815SOL    HW1 8823   4.609   3.659   5.553  1.7519  2.1698  0.9966
 2815SOL    HW2 8824   4.668   3.520   5.550 -2.3228  0.2976 -1.2052
 2816SOL     OW 8825   5.953   4.589   1.427 -0.1341 -0.0838 -0.0846
 2816SOL    HW1 8826   5.883   4.654   1.438 -1.1630 -1.1393 -0.2934
 2816SOL    HW2 8827   5.972   4.591   1.333  0.9838  1.0436  0.1251
 2817SOL     OW 8828   6.354   4.042   0.943 -0.1105 -0.3933  0.3368
 2817SOL    HW1 8829   6.430   4.017   0.995 -0.4243 -1.0931  0.4723
 2817SOL    HW2 8830   6.343   3.969   0.881  0.5009  0.5981 -0.9890
 2818SOL     OW 8831   2.323   1.433   3.974  1.0508 -0.2294 -0.2743
 2818SOL    HW1 8832   2.356   1.409   4.061 -0.4560  0.7977  0.6259
 2818SOL    HW2 8833   2.232   1.404   3.974  0.6938  0.8581 -1.0683
 2819SOL     OW 8834   2.501   3.512   4.212  0.3068  0.5532 -0.7779
 2819SOL    HW1 8835   2.512   3.490   4.305 -0.2962 -1.6939 -1.1777
 2819SOL    HW2 8836   2.591   3.524   4.180  0.7828 -1.8418 -0.5454
 2820SOL     OW 8837   4.550   4.170   1.577  0.1918  0.4366 -0.4869
 2820SOL    HW1 8838   4.573   4.174   1.670 -0.9096 -1.0976 -0.1094
 2820SOL    HW2 8839   4.454   4.177   1.575 -0.0405 -1.9553 -1.2563
 2821SOL     OW 8840   5.805   2.355   6.131 -0.4089 -0.3852  0.1764
 2821SOL    HW1 8841   5.765   2.402   6.203  0.4445 -0.5004  0.7454
 2821SOL    HW2 8842   5.880   2.409   6.105  1.9572 -2.3273  2.2944
 2822SOL     OW 8843   2.804   3.808   4.216 -0.7814 -0.5298  0.9849
 2822SOL    HW1 8844   2.893   3.816   4.248 -0.6124  0.4418  0.3353
 2822SOL    HW2 8845   2.755   3.876   4.264 -0.5850  0.7459 -0.5232
 2823SOL     OW 8846   3.126   4.165   5.789 -0.2254 -0.6505  0.1682
 2823SOL    HW1 8847   3.148   4.179   5.697 -0.7747  0.4962  0.1956
 2823SOL    HW2 8848   3.031   4.180   5.793  0.0699  1.1295  1.2368
 2824SOL     OW 8849   3.821   2.323   4.889  0.4126 -0.3096  0.0378
 2824SOL    HW1 8850   3.896   2.328   4.830  0.2834  0.7736 -0.0609
 2824SOL    HW2 8851   3.779   2.239   4.869 -0.4615  0.6303 -2.4450
 2825SOL     OW 8852   1.559   1.893   3.010 -0.0476 -0.8001 -0.1919
 2825SOL    HW1 8853   1.556   1.853   2.923 -0.5683  1.4318 -1.2733
 2825SOL    HW2 8854   1.507   1.973   3.001  1.6297  0.5724  1.6031
 2826SOL     OW 8855   3.015   5.697   1.987 -0.0358 -0.5202 -0.1022
 2826SOL    HW1 8856   2.987   5.660   1.903  0.1829 -1.0537  0.0522
 2826SOL    HW2 8857   2.938   5.691   2.043 -0.4080  0.5332 -0.4802
 2827SOL     OW 8858   3.582   6.637   1.893 -0.3404 -0.3229  0.2034
 2827SOL    HW1 8859   3.637   6.672   1.823 -0.2550  1.8570  1.2741
 2827SOL    HW2 8860   3.508   6.597   1.847 -0.3011  1.0482 -1.1510
 2828SOL     OW 8861   3.085   5.732   5.301  0.3243 -0.4872 -0.3155
 2828SOL    HW1 8862   3.006   5.696   5.260  0.6320 -0.9555 -0.5063
 2828SOL    HW2 8863   3.156   5.677   5.269  0.5388 -1.0810  1.0900
 2829SOL     OW 8864   1.012   4.338   6.325  0.4870 -0.0816 -0.4157
 2829SOL    HW1 8865   0.976   4.420   6.361 -2.0157 -0.8947 -0.8655
 2829SOL    HW2 8866   0.956   4.270   6.362  1.8754 -1.5185 -0.8694
 2830SOL     OW 8867   0.713   1.854   6.220 -0.0018  0.7034  0.0089
 2830SOL    HW1 8868   0.676   1.766   6.230  1.9584 -0.1574  0.2018
 2830SOL    HW2 8869   0.804   1.846   6.251 -0.1920  3.1784  1.5015
 2831SOL     OW 8870   3.407   4.437   5.199 -0.3144  0.6855  0.6995
 2831SOL    HW1 8871   3.384   4.398   5.115  0.2147 -0.2620  0.9755
 2831SOL    HW2 8872   3.502   4.426   5.206 -0.3625  0.6722  1.4496
 2832SOL     OW 8873   5.056   3.065   0.635 -0.5736  0.7255  0.3887
 2832SOL    HW1 8874   5.130   3.097   0.687 -0.8707  0.4766  0.9729
 2832SOL    HW2 8875   5.086   3.070   0.545  0.7649 -0.9337  0.7025
 2833SOL     OW 8876   5.005   2.518   5.908 -0.0008  0.0961 -0.3309
 2833SOL    HW1 8877   4.951   2.540   5.832 -0.0560  0.8906 -0.0715
 2833SOL    HW2 8878   5.080   2.578   5.902 -1.0475  1.6736  1.3809
 2834SOL     OW 8879   3.140   6.331   6.353 -1.0868  0.4055 -0.4906
 2834SOL    HW1 8880   3.069   6.304   6.295 -1.2676  0.1007 -0.1273
 2834SOL    HW2 8881   3.220   6.311   6.305 -1.2416  0.5779 -0.8238
 2835SOL     OW 8882   0.380   6.239   6.245  0.5471 -0.4007  0.4193
 2835SOL    HW1 8883   0.353   6.152   6.276 -1.8900  0.8481  2.2201
 2835SOL    HW2 8884   0.475   6.240   6.257  0.6838 -2.8473  0.1688
 2836SOL     OW 8885   6.614   4.670   0.829  0.2568  0.4474 -0.4401
 2836SOL    HW1 8886   6.670   4.745   0.809  0.0620  0.9497  0.8347
 2836SOL    HW2 8887   6.581   4.687   0.917  2.0996 -2.2523  0.9333
 2837SOL     OW 8888   5.087   4.889   6.436  0.9045 -0.5489  0.7002
 2837SOL    HW1 8889   5.151   4.823   6.409  0.2954 -0.6836 -0.4753
 2837SOL    HW2 8890   5.006   4.840   6.447  0.6184 -0.1116  0.5572
 2838SOL     OW 8891   4.892   0.266   4.298 -0.1389 -0.2169 -0.2327
 2838SOL    HW1 8892   4.828   0.337   4.300 -2.4952 -2.1882  0.6961
 2838SOL    HW2 8893   4.977   0.309   4.307 -1.3856  2.4935 -0.4765
 2839SOL     OW 8894   5.981   3.468   1.026 -0.0944 -0.1154  0.4255
 2839SOL    HW1 8895   5.920   3.486   1.098  0.0037 -1.0090  0.7486
 2839SOL    HW2 8896   6.068   3.475   1.066 -0.0219 -0.0026  0.2468
 2840SOL     OW 8897   0.705   2.116   6.166  0.5041  0.4409 -0.2842
 2840SOL    HW1 8898   0.713   2.023   6.188  0.5099  0.7244  0.9917
 2840SOL    HW2 8899   0.775   2.132   6.103  1.0389 -0.2386  0.1238
 2841SOL     OW 8900   5.097   3.574   4.173  0.1428 -0.1996  0.5681
 2841SOL    HW1 8901   5.034   3.529   4.117 -0.6921  1.3710  0.1945
 2841SOL    HW2 8902   5.045   3.609   4.245  0.8959 -0.4340  1.2484
 2842SOL     OW 8903   3.776   4.736   4.877  0.1014 -0.0013  0.0829
 2842SOL    HW1 8904   3.801   4.763   4.966  0.6622  0.7449 -0.2891
 2842SOL    HW2 8905   3.713   4.666   4.891  1.8331 -1.4570  1.0664
 2843SOL     OW 8906   0.414   1.772   2.953 -0.5251  0.1461  0.0421
 2843SOL    HW1 8907   0.344   1.789   2.890  0.2548  0.0548 -0.8723
 2843SOL    HW2 8908   0.373   1.717   3.020 -1.7499  1.4350  0.4005
 2844SOL     OW 8909   2.924   2.298   3.105 -0.1749 -0.1913 -0.1417
 2844SOL    HW1 8910   2.839   2.258   3.122  0.1706 -1.2766 -0.8908
 2844SOL    HW2 8911   2.902   2.380   3.059 -0.9337  1.1200  2.3369
 2845SOL     OW 8912   0.921   4.803   6.537  0.0523 -0.5474  0.3272
 2845SOL    HW1 8913   0.899   4.832   6.449 -2.8068 -0.9671  0.8097
 2845SOL    HW2 8914   0.918   4.883   6.590  0.9351 -0.4322  0.2288
 2846SOL     OW 8915   6.578   5.680   5.720 -0.5202 -0.0289 -0.6118
 2846SOL    HW1 8916   6.518   5.754   5.720 -0.9326 -0.3538 -0.0135
 2846SOL    HW2 8917   6.661   5.717   5.748 -0.9940  0.0106  0.8075
 2847SOL     OW 8918   3.406   4.349   1.338 -0.1743  0.2503 -0.4335
 2847SOL    HW1 8919   3.440   4.310   1.419  0.0491  0.4711 -0.4203
 2847SOL    HW2 8920   3.454   4.431   1.329 -1.2686  0.9725  0.0209
 2848SOL     OW 8921   3.102   1.331   3.589 -0.1872  0.1900  0.4785
 2848SOL    HW1 8922   3.118   1.288   3.673 -0.3421  1.2992  1.0878
 2848SOL    HW2 8923   3.116   1.262   3.524  1.2113 -0.3569  1.3245
 2849SOL     OW 8924   5.800   5.245   0.475  0.3682 -0.6543 -0.6952
 2849SOL    HW1 8925   5.847   5.295   0.542 -0.7616 -0.0888 -0.3059
 2849SOL    HW2 8926   5.811   5.296   0.394 -0.7044  0.2142 -0.3186
 2850SOL     OW 8927   4.130   3.735   0.734  0.3282 -0.1818  0.2700
 2850SOL    HW1 8928   4.138   3.702   0.823 -1.3103  0.5353  0.7301
 2850SOL    HW2 8929   4.075   3.813   0.743  0.3453  0.0416 -1.3398
 2851SOL     OW 8930   0.856   5.843   3.732  0.2695  0.2720  0.3233
 2851SOL    HW1 8931   0.872   5.934   3.705 -1.9413  0.7879  0.5050
 2851SOL    HW2 8932   0.815   5.851   3.818  0.2116 -0.9133  0.4177
 2852SOL     OW 8933   5.217   1.432   0.211 -0.0692 -0.1385 -0.1643
 2852SOL    HW1 8934   5.185   1.383   0.135  0.4112 -0.0933 -0.4008
 2852SOL    HW2 8935   5.145   1.429   0.274 -0.1164 -0.9725 -0.2520
 2853SOL     OW 8936   2.660   0.582   0.746 -0.1628 -0.7643 -0.3347
 2853SOL    HW1 8937   2.653   0.583   0.651  1.5135 -0.3271 -0.4824
 2853SOL    HW2 8938   2.689   0.493   0.767 -0.3663 -0.8108 -0.2535
 2854SOL     OW 8939   0.983   4.255   1.736 -0.2882  0.4794 -0.4430
 2854SOL    HW1 8940   1.001   4.178   1.791 -1.5108  0.6208  0.1853
 2854SOL    HW2 8941   1.070   4.286   1.711  0.3416  0.4612  1.5069
 2855SOL     OW 8942   1.028   4.923   3.971  0.1549 -0.0593  0.0580
 2855SOL    HW1 8943   1.065   4.992   4.026  1.2666 -0.0093 -0.7092
 2855SOL    HW2 8944   1.068   4.937   3.885 -0.4062 -1.0302 -0.3785
 2856SOL     OW 8945   4.552   2.691   1.019 -0.0084 -1.1501 -0.3865
 2856SOL    HW1 8946   4.607   2.667   0.944  2.2734  0.1420  0.7658
 2856SOL    HW2 8947   4.520   2.779   0.997 -0.3872 -1.2870 -0.3870
 2857SOL     OW 8948   3.930   1.156   5.931 -0.4897  0.2873  0.3411
 2857SOL    HW1 8949   3.862   1.210   5.891  0.8022  1.9133  0.2351
 2857SOL    HW2 8950   3.998   1.149   5.864 -0.3586 -0.9793  0.5816
 2858SOL     OW 8951   5.647   5.932   4.463  0.4313  0.0622 -0.1444
 2858SOL    HW1 8952   5.613   5.943   4.375  2.0006  2.1771 -0.5589
 2858SOL    HW2 8953   5.577   5.965   4.520  0.3626  1.0334 -0.7703
 2859SOL     OW 8954   2.585   3.048   6.268  0.0654 -0.2348  0.1375
 2859SOL    HW1 8955   2.530   2.982   6.309  0.0810 -0.8419 -0.7829
 2859SOL    HW2 8956   2.597   3.116   6.335 -0.3327 -0.9430  0.9312
 2860SOL     OW 8957   4.729   4.018   4.251  0.6133  0.4584 -0.6676
 2860SOL    HW1 8958   4.706   3.929   4.278 -1.6834  0.8081 -1.2294
 2860SOL    HW2 8959   4.645   4.063   4.244  1.6830  2.5630 -0.8468
 2861SOL     OW 8960   6.640   0.333   3.422  0.3500 -0.3956  0.0496
 2861SOL    HW1 8961   6.552   0.340   3.385  0.5636  2.1922 -0.1416
 2861SOL    HW2 8962   6.627   0.338   3.517  0.2219 -1.1880  0.0780
 2862SOL     OW 8963   4.876   1.851   5.821  0.0176  0.8599  0.1308
 2862SOL    HW1 8964   4.965   1.852   5.858 -0.4046 -0.1553  1.2616
 2862SOL    HW2 8965   4.846   1.941   5.828  0.8329  1.1431  0.0721
 2863SOL     OW 8966   1.153   6.489   5.285  1.0196 -0.4381 -0.2214
 2863SOL    HW1 8967   1.249   6.479   5.286  1.0667 -0.0001 -0.0917
 2863SOL    HW2 8968   1.138   6.562   5.224  0.8541  0.3738  0.7758
 2864SOL     OW 8969   6.306   3.866   2.642  0.3585  0.6024  0.3625
 2864SOL    HW1 8970   6.385   3.829   2.681  0.3690  0.8221  0.5503
 2864SOL    HW2 8971   6.254   3.790   2.615  1.4390  0.4499 -1.3918
 2865SOL     OW 8972   6.474   4.826   4.882  0.4922  0.2771  0.0758
 2865SOL    HW1 8973   6.397   4.840   4.827  1.1192  0.4505 -0.7778
 2865SOL    HW2 8974   6.465   4.890   4.952  0.0843  0.6110 -0.2744
 2866SOL     OW 8975   5.971   4.949   2.354  0.9037  0.1704 -0.0651
 2866SOL    HW1 8976   6.029   5.000   2.410  2.1401 -0.2103 -0.9507
 2866SOL    HW2 8977   5.974   4.861   2.391  1.2404  0.0523 -0.3773
 2867SOL     OW 8978   4.813   5.840   2.268 -0.0211  0.3632  0.0018
 2867SOL    HW1 8979   4.731   5.827   2.316  0.2055 -1.2072  0.0040
 2867SOL    HW2 8980   4.785   5.860   2.179 -0.4308 -0.6837 -0.1231
 2868SOL     OW 8981   0.656   3.052   2.981 -0.2734 -0.5313 -0.3626
 2868SOL    HW1 8982   0.624   2.965   3.005  0.2521 -0.9897 -1.2571
 2868SOL    HW2 8983   0.747   3.052   3.010 -0.3581 -0.1678 -0.0965
 2869SOL     OW 8984   2.411   6.339   6.038 -0.0304  0.3540 -0.4680
 2869SOL    HW1 8985   2.358   6.344   5.958 -1.8657  0.0101  0.6681
 2869SOL    HW2 8986   2.399   6.249   6.068  2.2546 -0.1197 -0.8175
 2870SOL     OW 8987   0.136   1.106   2.739 -0.2850 -0.1044  0.1163
 2870SOL    HW1 8988   0.121   1.027   2.687 -1.3021  0.3773 -0.3435
 2870SOL    HW2 8989   0.217   1.143   2.703  2.0385 -2.5466  2.3913
 2871SOL     OW 8990   5.505   4.411   4.140  0.6772 -0.0841 -0.0433
 2871SOL    HW1 8991   5.490   4.470   4.066 -0.9057  1.1774  1.1866
 2871SOL    HW2 8992   5.593   4.377   4.127  1.6632  2.5441 -0.8481
 2872SOL     OW 8993   5.804   1.687   4.085  0.0347  0.0372  0.3663
 2872SOL    HW1 8994   5.894   1.677   4.117 -0.0799 -0.5870  0.4902
 2872SOL    HW2 8995   5.749   1.667   4.160 -0.2200  2.0458  0.7795
 2873SOL     OW 8996   2.938   2.851   2.177  0.6690  0.2794  0.1712
 2873SOL    HW1 8997   2.995   2.920   2.210  1.3783 -0.0819 -0.2725
 2873SOL    HW2 8998   2.930   2.790   2.250 -0.7363  1.2832  0.8937
 2874SOL     OW 8999   0.875   5.088   5.547 -0.4661 -0.1607  0.7713
 2874SOL    HW1 9000   0.893   5.086   5.641  1.2180 -0.9578  0.4775
 2874SOL    HW2 9001   0.923   5.013   5.512 -2.8334 -1.2240 -0.4680
 2875SOL     OW 9002   2.543   6.698   2.734 -0.3116 -0.5986  0.4130
 2875SOL    HW1 9003   2.638   6.699   2.734 -0.2751  1.5427  1.0595
 2875SOL    HW2 9004   2.520   6.678   2.825 -0.4811 -0.8949  0.3060
 2876SOL     OW 9005   5.746   3.521   0.508  0.1782 -0.3373  0.2061
 2876SOL    HW1 9006   5.816   3.519   0.574  0.2710 -1.0390  0.0905
 2876SOL    HW2 9007   5.759   3.442   0.457  0.0255  0.1418 -0.5828
 2877SOL     OW 9008   4.158   5.792   3.081  0.4240 -0.2555 -0.5337
 2877SOL    HW1 9009   4.207   5.825   3.156 -2.1971  1.5672  0.5093
 2877SOL    HW2 9010   4.079   5.754   3.118 -0.0797 -1.0665 -2.2878
 2878SOL     OW 9011   6.213   4.093   3.389  0.3824 -0.6542 -0.2754
 2878SOL    HW1 9012   6.305   4.070   3.398  0.6359  0.4895  0.2676
 2878SOL    HW2 9013   6.207   4.137   3.304  0.1824 -1.3682 -0.6414
 2879SOL     OW 9014   6.110   1.202   4.215 -0.3127  0.2290 -0.0084
 2879SOL    HW1 9015   6.124   1.146   4.139  0.2061  1.5501 -0.9267
 2879SOL    HW2 9016   6.119   1.143   4.290  0.8678 -0.8056 -0.9075
 2880SOL     OW 9017   6.082   4.652   6.823  0.2128 -0.0467 -0.8635
 2880SOL    HW1 9018   6.016   4.584   6.814  1.5714 -1.7888  1.4013
 2880SOL    HW2 9019   6.032   4.732   6.840 -1.3452 -0.9842 -0.8844
 2881SOL     OW 9020   5.611   0.360   2.924 -0.2723 -0.2276  0.1723
 2881SOL    HW1 9021   5.676   0.401   2.981 -2.2302  0.5273  1.9696
 2881SOL    HW2 9022   5.663   0.300   2.869  1.9584  0.5641  1.2763
 2882SOL     OW 9023   4.151   6.542   4.018 -0.6156 -0.0461 -0.6146
 2882SOL    HW1 9024   4.090   6.468   4.009  0.1516 -0.7713 -0.0193
 2882SOL    HW2 9025   4.237   6.505   3.995 -0.3158  0.8324 -0.9555
 2883SOL     OW 9026   1.410   5.431   0.393  0.4784 -0.0369  0.6059
 2883SOL    HW1 9027   1.501   5.458   0.385  0.9919 -1.5611  1.0265
 2883SOL    HW2 9028   1.414   5.342   0.427 -1.0461 -1.3999 -2.3604
 2884SOL     OW 9029   1.680   3.849   2.991 -0.2572 -0.1206  0.3371
 2884SOL    HW1 9030   1.606   3.833   2.934 -0.8483 -0.8467  1.2734
 2884SOL    HW2 9031   1.659   3.931   3.036 -1.0619 -0.9137  1.4480
 2885SOL     OW 9032   1.099   5.075   3.064  0.6959 -0.1063  0.3826
 2885SOL    HW1 9033   1.106   5.156   3.113  0.7299 -0.7191  1.4276
 2885SOL    HW2 9034   1.081   5.102   2.973  2.2867  1.0852  0.3980
 2886SOL     OW 9035   1.476   6.437   1.578 -0.0450  0.1668  0.3955
 2886SOL    HW1 9036   1.399   6.475   1.535 -1.2571 -0.4166  1.9478
 2886SOL    HW2 9037   1.483   6.349   1.542  0.8500  0.7292 -0.8676
 2887SOL     OW 9038   2.941   3.536   5.704  0.4009 -0.4854  0.4349
 2887SOL    HW1 9039   2.910   3.532   5.795  2.4126  1.5864  1.3105
 2887SOL    HW2 9040   2.860   3.544   5.652 -0.7362  1.5464  2.3397
 2888SOL     OW 9041   2.257   1.690   6.003  0.2723 -0.6555 -0.2105
 2888SOL    HW1 9042   2.326   1.748   5.970  0.5326 -0.7251  0.2018
 2888SOL    HW2 9043   2.186   1.749   6.029 -0.4504 -0.6595 -2.0196
 2889SOL     OW 9044   2.007   5.472   3.656  0.9790  0.1086  0.1817
 2889SOL    HW1 9045   2.057   5.549   3.682  0.6895  0.5007 -0.4046
 2889SOL    HW2 9046   2.070   5.401   3.656  0.7886 -0.1784  3.1010
 2890SOL     OW 9047   6.793   3.499   2.023 -0.4260  0.1972 -0.1391
 2890SOL    HW1 9048   6.728   3.517   2.090  0.5856  1.3800  0.5834
 2890SOL    HW2 9049   6.774   3.411   1.993 -1.9011  0.2581  0.5479
 2891SOL     OW 9050   1.600   0.993   3.822 -0.0944  0.5890 -0.4096
 2891SOL    HW1 9051   1.557   0.970   3.904  0.0782  2.0161  0.1071
 2891SOL    HW2 9052   1.559   1.075   3.795  0.2385  0.4194 -1.4632
 2892SOL     OW 9053   0.563   5.594   0.060 -0.4123  0.1831  0.3843
 2892SOL    HW1 9054   0.633   5.547   0.016 -1.3953 -2.5489  1.5209
 2892SOL    HW2 9055   0.488   5.588   0.001 -0.9955 -1.1732  1.2237
 2893SOL     OW 9056   0.524   5.337   2.273  0.1059  0.1388  0.4896
 2893SOL    HW1 9057   0.481   5.259   2.308 -0.1725 -0.1053 -0.3607
 2893SOL    HW2 9058   0.536   5.317   2.180 -1.3724  1.7258 -0.0736
 2894SOL     OW 9059   1.108   3.112   4.789 -0.1764  0.0798 -0.2562
 2894SOL    HW1 9060   1.046   3.143   4.854  0.7851 -2.6248  2.1809
 2894SOL    HW2 9061   1.193   3.141   4.821  0.2019  0.0045 -1.1517
 2895SOL     OW 9062   3.790   0.792   5.175  0.5948  0.3455  0.0266
 2895SOL    HW1 9063   3.845   0.754   5.107 -1.0030  1.1234 -1.7883
 2895SOL    HW2 9064   3.766   0.878   5.141  0.3110  1.0560  1.9149
 2896SOL     OW 9065   3.744   4.702   3.185  0.4860  0.0313 -0.4899
 2896SOL    HW1 9066   3.649   4.706   3.183  0.4778  1.1011  0.5766
 2896SOL    HW2 9067   3.765   4.609   3.188 -0.5880 -0.1991  0.6433
 2897SOL     OW 9068   4.680   2.157   1.928  0.0216 -0.3284  0.8991
 2897SOL    HW1 9069   4.586   2.171   1.916 -0.1354 -1.7658  0.2970
 2897SOL    HW2 9070   4.719   2.178   1.843  0.3107  0.6282  1.2525
 2898SOL     OW 9071   2.187   5.078   0.007  0.1786 -0.1888 -0.3237
 2898SOL    HW1 9072   2.137   5.002  -0.023  0.8968 -1.0720  0.6328
 2898SOL    HW2 9073   2.205   5.060   0.100  0.3092  1.1832 -0.0592
 2899SOL     OW 9074   4.418   4.430   3.806  0.1662  0.3357  0.2458
 2899SOL    HW1 9075   4.482   4.367   3.773  1.0244  1.2289  0.1303
 2899SOL    HW2 9076   4.404   4.490   3.733  1.6058  1.9660  1.2239
 2900SOL     OW 9077   3.623   5.907   3.032 -0.5666  0.2496  0.2764
 2900SOL    HW1 9078   3.626   5.872   3.121  1.2591 -1.0287 -0.2389
 2900SOL    HW2 9079   3.702   5.874   2.989 -0.9231  1.5704 -1.5700
 2901SOL     OW 9080   0.608   2.083   6.491  0.0308  0.5106  0.2605
 2901SOL    HW1 9081   0.657   2.021   6.438  0.4136 -1.3509  2.6345
 2901SOL    HW2 9082   0.517   2.067   6.467  0.1543 -0.6655  0.5024
 2902SOL     OW 9083   0.064   5.525   5.945 -0.8977  0.2320 -0.5539
 2902SOL    HW1 9084   0.109   5.461   5.890 -0.0965  0.7113 -0.4756
 2902SOL    HW2 9085  -0.001   5.475   5.993 -0.0571 -0.5967 -0.2468
 2903SOL     OW 9086   0.896   1.800   4.072  0.0510 -0.5709 -0.0844
 2903SOL    HW1 9087   0.858   1.801   4.160  0.6928  2.0004  0.2304
 2903SOL    HW2 9088   0.854   1.873   4.027  2.1651  0.2824 -0.7888
 2904SOL     OW 9089   1.226   5.957   3.330 -0.5249  0.8226 -0.1208
 2904SOL    HW1 9090   1.215   5.918   3.243 -0.6942 -0.4786  0.4614
 2904SOL    HW2 9091   1.295   6.022   3.319  0.9600 -0.7991 -0.7830
 2905SOL     OW 9092   6.733   6.265   0.100  0.1319  0.1645 -0.1828
 2905SOL    HW1 9093   6.792   6.243   0.171  0.5377 -1.1903 -0.9164
 2905SOL    HW2 9094   6.760   6.353   0.073  2.5318 -0.7805 -1.1622
 2906SOL     OW 9095   2.465   6.701   1.784 -0.5491 -0.1406 -0.4916
 2906SOL    HW1 9096   2.425   6.652   1.856  2.9664 -0.9438  1.1648
 2906SOL    HW2 9097   2.409   6.684   1.709 -1.9300 -3.1152  1.0467
 2907SOL     OW 9098   2.585   3.023   2.930  0.5352  0.3239  0.3043
 2907SOL    HW1 9099   2.530   2.978   2.994 -0.7932  0.6446 -0.5595
 2907SOL    HW2 9100   2.570   3.116   2.947  3.8924  0.5926  2.6165
 2908SOL     OW 9101   0.907   2.327   3.401  0.1016  0.3763 -0.4773
 2908SOL    HW1 9102   0.916   2.422   3.399  0.2889  0.5038  2.3469
 2908SOL    HW2 9103   0.996   2.294   3.385  0.4170  0.7646  0.4053
 2909SOL     OW 9104   6.592   4.070   2.397  0.0447 -0.6182  0.2539
 2909SOL    HW1 9105   6.646   3.995   2.375 -1.4697 -1.2216 -1.7010
 2909SOL    HW2 9106   6.621   4.139   2.336 -0.0293 -0.2913  0.5820
 2910SOL     OW 9107   1.822   0.725   0.370  0.3331  0.3266  0.2959
 2910SOL    HW1 9108   1.807   0.731   0.464  0.1501  0.6306  0.2467
 2910SOL    HW2 9109   1.880   0.799   0.350 -0.5866  0.9717 -0.0304
 2911SOL     OW 9110   5.863   2.536   0.666 -0.1395  0.3711 -0.4186
 2911SOL    HW1 9111   5.799   2.501   0.604 -0.8627  0.4239  0.2719
 2911SOL    HW2 9112   5.824   2.618   0.696 -1.2254 -0.9692  2.2212
 2912SOL     OW 9113   6.244   0.839   4.293  0.3792 -0.2178 -0.2850
 2912SOL    HW1 9114   6.337   0.860   4.279  0.3299  0.0733 -0.1796
 2912SOL    HW2 9115   6.209   0.827   4.205  1.5002 -4.8472 -0.3972
 2913SOL     OW 9116   6.593   3.707   3.750 -0.7200  0.2888  0.3235
 2913SOL    HW1 9117   6.670   3.708   3.807  0.5981  0.2207 -1.3905
 2913SOL    HW2 9118   6.557   3.619   3.761  0.4047 -0.2447 -0.0604
 2914SOL     OW 9119   0.331   6.294   3.806 -0.8123 -0.1366  0.1404
 2914SOL    HW1 9120   0.355   6.354   3.877 -1.4264 -0.3375  0.5291
 2914SOL    HW2 9121   0.392   6.314   3.735 -0.5786  0.4824  0.5131
 2915SOL     OW 9122   3.408   6.222   5.326  0.2091  0.1487  0.2137
 2915SOL    HW1 9123   3.446   6.197   5.241 -1.0469 -2.0276  0.2095
 2915SOL    HW2 9124   3.316   6.240   5.306  0.3474  1.6744  0.8236
 2916SOL     OW 9125   0.050   4.134   4.097  0.8542  0.1778 -0.2568
 2916SOL    HW1 9126   0.034   4.041   4.114  0.1503  0.4160  0.4080
 2916SOL    HW2 9127   0.063   4.172   4.184 -1.1968  1.1237 -0.3115
 2917SOL     OW 9128   3.001   1.480   1.002  0.6030  0.1849  0.1593
 2917SOL    HW1 9129   3.012   1.570   1.033  0.0486 -0.0919  1.2059
 2917SOL    HW2 9130   3.004   1.427   1.081  1.6023 -0.7990 -0.5111
 2918SOL     OW 9131   6.839   0.661   5.462  0.6113  0.3810  0.0922
 2918SOL    HW1 9132   6.822   0.754   5.475 -1.0492 -0.0792  1.6379
 2918SOL    HW2 9133   6.801   0.618   5.539  0.7990 -1.6228 -0.8555
 2919SOL     OW 9134   1.932   2.623   6.188 -0.3301 -0.0629  0.0090
 2919SOL    HW1 9135   1.859   2.563   6.171 -0.7102  1.1011 -3.2445
 2919SOL    HW2 9136   1.892   2.710   6.187  0.7442  0.4679  0.9033
 2920SOL     OW 9137   2.080   1.088   2.012 -0.4639 -0.0902  0.0795
 2920SOL    HW1 9138   2.067   1.064   2.103 -0.2804  1.3360  0.5031
 2920SOL    HW2 9139   2.012   1.040   1.964 -1.2044 -0.0767  1.0885
 2921SOL     OW 9140   3.840   5.867   2.890  0.7776 -0.6609  0.2432
 2921SOL    HW1 9141   3.932   5.887   2.904  1.4305 -0.5076 -3.1923
 2921SOL    HW2 9142   3.840   5.777   2.856 -0.3259 -0.6234  0.1107
 2922SOL     OW 9143   2.379   4.881   2.839  0.5554 -0.0028  0.0704
 2922SOL    HW1 9144   2.429   4.809   2.876  1.2344 -0.4600 -1.6363
 2922SOL    HW2 9145   2.360   4.853   2.749 -0.1735  1.4511 -0.2614
 2923SOL     OW 9146   5.444   0.053   3.381  0.3931 -0.4037 -0.0067
 2923SOL    HW1 9147   5.497   0.047   3.302  1.8187 -1.0233  0.9529
 2923SOL    HW2 9148   5.413  -0.037   3.396 -1.1129 -0.0205 -0.6454
 2924SOL     OW 9149   3.175   1.505   2.583  0.3688  0.2321 -0.2298
 2924SOL    HW1 9150   3.094   1.511   2.532 -0.1861 -0.4888  0.5425
 2924SOL    HW2 9151   3.152   1.541   2.669  1.2604  1.3168 -0.4255
 2925SOL     OW 9152   2.497   1.863   3.524  0.0182 -0.5323 -0.5257
 2925SOL    HW1 9153   2.566   1.899   3.467 -0.7092  0.9498 -0.5264
 2925SOL    HW2 9154   2.489   1.927   3.595  0.4036 -1.9866  0.8830
 2926SOL     OW 9155   4.393   3.484   2.590 -0.0667 -0.1991 -0.3694
 2926SOL    HW1 9156   4.344   3.535   2.655  0.2567 -0.0767 -0.2183
 2926SOL    HW2 9157   4.467   3.541   2.567  0.2639 -0.5779 -0.2432
 2927SOL     OW 9158   5.139   4.768   1.378  0.6155  0.6117 -0.2626
 2927SOL    HW1 9159   5.186   4.790   1.459  0.5342 -0.0600 -0.0241
 2927SOL    HW2 9160   5.162   4.676   1.362  1.5337  1.0483 -1.6198
 2928SOL     OW 9161   5.380   2.666   4.670 -0.0711  0.2383 -0.0814
 2928SOL    HW1 9162   5.413   2.748   4.633 -0.3784  0.2782 -0.2699
 2928SOL    HW2 9163   5.447   2.639   4.732 -0.5141  1.2570  0.8780
 2929SOL     OW 9164   4.231   5.118   1.039  0.6629  0.3068 -0.0760
 2929SOL    HW1 9165   4.167   5.062   0.995  1.9284 -0.7166 -0.6814
 2929SOL    HW2 9166   4.244   5.077   1.124  2.0880 -0.7803 -0.7681
 2930SOL     OW 9167   5.527   5.631   1.842  0.7551 -0.0523 -0.2286
 2930SOL    HW1 9168   5.584   5.708   1.848 -0.0653  0.4500  3.6080
 2930SOL    HW2 9169   5.442   5.666   1.817  0.1345  0.5888  2.4576
 2931SOL     OW 9170   4.164   6.719   3.690  0.1725  0.0861  0.1895
 2931SOL    HW1 9171   4.100   6.648   3.697 -0.6183  0.8001  0.3398
 2931SOL    HW2 9172   4.248   6.674   3.681 -0.4188 -0.8767 -0.7586
 2932SOL     OW 9173   4.037   0.764   0.321 -0.4224  0.3874  0.0304
 2932SOL    HW1 9174   3.987   0.736   0.244 -2.7960  1.5202  1.0631
 2932SOL    HW2 9175   4.025   0.693   0.385  1.5289 -0.5422 -0.5366
 2933SOL     OW 9176   5.247   3.873   6.009  0.2080  0.2714  0.3311
 2933SOL    HW1 9177   5.244   3.838   6.098  0.7607 -1.6792 -0.3601
 2933SOL    HW2 9178   5.166   3.841   5.968 -1.3807  3.3093  0.7841
 2934SOL     OW 9179   6.253   2.677   5.304 -0.4915 -0.4035  0.6861
 2934SOL    HW1 9180   6.337   2.704   5.268 -0.4128 -1.8933 -0.3231
 2934SOL    HW2 9181   6.188   2.718   5.247 -0.7381  3.6252  3.3805
 2935SOL     OW 9182   5.042   0.829   1.393  0.4087 -0.3501  0.3364
 2935SOL    HW1 9183   5.049   0.847   1.299  1.8027 -2.0128  0.0727
 2935SOL    HW2 9184   5.107   0.760   1.409  0.5011  0.1941  2.6131
 2936SOL     OW 9185   2.203   2.647   4.518  0.4078 -0.2257 -0.6471
 2936SOL    HW1 9186   2.272   2.714   4.513 -0.4487  0.5996 -2.3913
 2936SOL    HW2 9187   2.246   2.572   4.558  2.0548  0.5873 -0.7961
 2937SOL     OW 9188   1.355   1.953   3.240 -0.4215 -0.1445 -0.5605
 2937SOL    HW1 9189   1.325   1.961   3.149 -2.6590 -0.9704  0.0386
 2937SOL    HW2 9190   1.364   1.859   3.253  1.2451  0.0196 -0.2771
 2938SOL     OW 9191   6.100   6.701   5.036  0.3259  0.5265 -0.1647
 2938SOL    HW1 9192   6.187   6.725   5.070  0.2425 -0.7335  1.0156
 2938SOL    HW2 9193   6.118   6.630   4.975  0.1608  0.5474 -0.2351
 2939SOL     OW 9194   5.972   6.288   0.889  0.1650  0.0927 -0.0967
 2939SOL    HW1 9195   5.925   6.337   0.957  0.2814 -2.9273  2.3375
 2939SOL    HW2 9196   5.980   6.351   0.816  1.9353  4.3551  3.2942
 2940SOL     OW 9197   3.628   3.087   3.506 -0.0848 -0.2857 -0.3467
 2940SOL    HW1 9198   3.542   3.129   3.517  0.9410  1.8341  0.0224
 2940SOL    HW2 9199   3.657   3.114   3.419  0.7240  0.0205  0.0137
 2941SOL     OW 9200   1.081   6.483   3.944 -0.3453  0.5422  0.0451
 2941SOL    HW1 9201   1.121   6.559   3.901 -1.2664 -0.7399 -3.3775
 2941SOL    HW2 9202   1.144   6.412   3.930 -1.8035 -0.5007 -1.6332
 2942SOL     OW 9203   2.498   2.931   2.143 -0.2804  0.0803 -0.6224
 2942SOL    HW1 9204   2.534   3.019   2.151  0.5499 -0.2671 -0.4014
 2942SOL    HW2 9205   2.421   2.932   2.199  0.7656  0.1489  0.8817
 2943SOL     OW 9206   3.394   2.891   3.732  0.5170 -0.1033 -0.3956
 2943SOL    HW1 9207   3.314   2.944   3.731 -1.0257 -2.2314  0.3260
 2943SOL    HW2 9208   3.386   2.834   3.655  2.0171  0.5228 -1.0481
 2944SOL     OW 9209   0.407   4.430   6.264  0.1731 -0.6955 -0.0218
 2944SOL    HW1 9210   0.446   4.354   6.221  1.1886 -0.3365  0.2288
 2944SOL    HW2 9211   0.464   4.446   6.339 -0.6857 -0.3693  0.5776
 2945SOL     OW 9212   0.564   4.451   4.100  0.3873  0.1082 -0.2616
 2945SOL    HW1 9213   0.499   4.488   4.039 -0.7696 -0.1627  0.7668
 2945SOL    HW2 9214   0.572   4.517   4.169  0.6198 -0.2040  0.0125
 2946SOL     OW 9215   3.814   4.406   0.524 -0.1712  0.5470 -0.1865
 2946SOL    HW1 9216   3.837   4.481   0.470 -0.4094 -0.3763 -1.6195
 2946SOL    HW2 9217   3.718   4.412   0.532 -0.0499  1.2331  1.0118
 2947SOL     OW 9218   5.823   6.782   2.011 -0.3730 -0.7145 -1.0541
 2947SOL    HW1 9219   5.862   6.703   2.049 -0.5044 -1.0852 -1.6704
 2947SOL    HW2 9220   5.734   6.756   1.989 -1.0552  0.1776  0.5001
 2948SOL     OW 9221   4.507   3.876   2.122 -0.4374  0.7972  0.4340
 2948SOL    HW1 9222   4.460   3.932   2.060  0.5975  0.9825 -0.2075
 2948SOL    HW2 9223   4.584   3.847   2.074 -0.8125 -0.9765  0.8591
 2949SOL     OW 9224   5.094   6.296   0.881  0.1762  0.1628 -0.5089
 2949SOL    HW1 9225   5.122   6.294   0.973 -1.5008 -1.9267  0.0330
 2949SOL    HW2 9226   5.005   6.328   0.884  0.2791  0.5543 -1.4751
 2950SOL     OW 9227   3.073   0.856   2.789 -0.0430  0.1917 -0.2899
 2950SOL    HW1 9228   2.985   0.894   2.784 -0.4062 -0.6154 -0.2330
 2950SOL    HW2 9229   3.132   0.932   2.788 -0.7174  0.7225 -0.7768
 2951SOL     OW 9230   5.339   6.845   6.698  0.5136  0.7331  0.0056
 2951SOL    HW1 9231   5.280   6.845   6.622  1.0812 -0.3638 -0.4551
 2951SOL    HW2 9232   5.398   6.919   6.682  0.3563  0.7754 -0.4019
 2952SOL     OW 9233   3.295   2.402   3.851  0.5960 -0.4597 -0.1367
 2952SOL    HW1 9234   3.240   2.386   3.927  0.1953 -0.2537 -0.3803
 2952SOL    HW2 9235   3.382   2.369   3.876  0.9397  1.2462  1.0884
 2953SOL     OW 9236   1.899   4.187   6.072  0.6621 -0.1907  0.6670
 2953SOL    HW1 9237   1.875   4.275   6.098  2.2421  0.0812  1.3428
 2953SOL    HW2 9238   1.986   4.173   6.110  1.6847 -1.0042 -1.7232
 2954SOL     OW 9239   3.803   5.288   3.040  0.0285 -0.1574  0.4482
 2954SOL    HW1 9240   3.852   5.268   2.960  0.5068  1.2257  0.3498
 2954SOL    HW2 9241   3.738   5.219   3.047  1.0604 -1.2427 -0.2181
 2955SOL     OW 9242   0.307   2.041   5.959 -0.0019  0.4225  0.5326
 2955SOL    HW1 9243   0.354   2.105   6.013 -2.0051  0.7989  1.9629
 2955SOL    HW2 9244   0.354   1.959   5.973  0.9419  1.0031  0.9158
 2956SOL     OW 9245   6.283   4.561   2.963  0.1479  0.2775 -0.4557
 2956SOL    HW1 9246   6.288   4.650   2.928 -0.0953 -0.2569 -1.9605
 2956SOL    HW2 9247   6.229   4.568   3.042 -0.7205  1.3165 -1.1112
 2957SOL     OW 9248   4.117   6.588   3.358  0.5412  0.1679 -0.2461
 2957SOL    HW1 9249   4.112   6.605   3.263  0.9095  3.1659  0.1767
 2957SOL    HW2 9250   4.026   6.587   3.386  0.4660  1.4007 -0.3706
 2958SOL     OW 9251   2.499   4.892   2.106 -0.2787 -0.0382 -0.1515
 2958SOL    HW1 9252   2.514   4.975   2.061 -1.5050  0.7319  0.7967
 2958SOL    HW2 9253   2.407   4.871   2.088  0.0223 -1.2364 -0.4158
 2959SOL     OW 9254   5.033   2.385   3.470  0.3385 -0.1665  0.0376
 2959SOL    HW1 9255   4.989   2.416   3.550 -0.7724 -1.2229 -0.1277
 2959SOL    HW2 9256   5.110   2.441   3.462 -1.1975  2.0780  0.1057
 2960SOL     OW 9257   3.449   1.963   5.511 -0.6286  0.3677 -0.4273
 2960SOL    HW1 9258   3.523   2.017   5.538 -0.4043 -1.2145  2.4628
 2960SOL    HW2 9259   3.435   1.987   5.419  0.7226  3.7885  0.0915
 2961SOL     OW 9260   1.706   5.451   0.471  0.3810  0.2048 -0.2286
 2961SOL    HW1 9261   1.733   5.393   0.543  0.8490  1.4800  0.6749
 2961SOL    HW2 9262   1.719   5.399   0.392 -0.3783 -1.3304  0.6015
 2962SOL     OW 9263   3.404   2.675   6.653 -0.3337 -0.2925 -0.0257
 2962SOL    HW1 9264   3.381   2.768   6.660  2.2546  0.3901  0.4892
 2962SOL    HW2 9265   3.354   2.643   6.578 -2.2418  1.1658  0.5589
 2963SOL     OW 9266   1.617   6.130   3.299 -0.1043 -0.4076  0.1627
 2963SOL    HW1 9267   1.697   6.078   3.289 -0.2471 -0.8272  1.1377
 2963SOL    HW2 9268   1.647   6.221   3.291  0.0706 -0.6087 -2.0623
 2964SOL     OW 9269   5.067   5.277   4.059  0.2370  0.0672 -0.1379
 2964SOL    HW1 9270   5.024   5.340   4.000  0.4947 -0.3160 -0.7503
 2964SOL    HW2 9271   5.144   5.322   4.091 -0.8083  0.9139  1.2919
 2965SOL     OW 9272   2.733   3.682   6.213 -0.5756  0.5337  0.1741
 2965SOL    HW1 9273   2.746   3.775   6.195 -0.1155  0.1394 -1.7567
 2965SOL    HW2 9274   2.796   3.663   6.283 -0.9906  1.7530  0.9090
 2966SOL     OW 9275   3.448   1.380   5.118 -0.4803 -0.0538  0.3585
 2966SOL    HW1 9276   3.361   1.378   5.078  0.0299 -1.5316 -0.7866
 2966SOL    HW2 9277   3.483   1.292   5.103  1.0751  0.4010  1.1158
 2967SOL     OW 9278   3.995   1.852   5.774 -0.0592  0.2656 -0.0025
 2967SOL    HW1 9279   4.065   1.822   5.832  1.1971  1.0126 -1.0731
 2967SOL    HW2 9280   3.946   1.773   5.752  0.6723 -0.3387  0.4694
 2968SOL     OW 9281   0.127   4.689   6.477  0.5205 -0.2619 -0.1706
 2968SOL    HW1 9282   0.053   4.719   6.425  0.6067 -0.6934 -0.5511
 2968SOL    HW2 9283   0.178   4.768   6.496 -0.9022  0.3101  1.5084
 2969SOL     OW 9284   4.249   0.320   1.055 -0.4702  0.5494 -0.4161
 2969SOL    HW1 9285   4.239   0.307   1.149  1.2188  1.1191 -0.1186
 2969SOL    HW2 9286   4.305   0.248   1.027 -1.3725  0.0954 -1.0961
 2970SOL     OW 9287   1.340   6.159   6.756 -0.1439 -0.2883 -0.3749
 2970SOL    HW1 9288   1.273   6.228   6.747 -2.1874 -1.7186  2.1836
 2970SOL    HW2 9289   1.385   6.182   6.837  0.5946 -0.8420 -0.6263
 2971SOL     OW 9290   5.288   6.303   1.910 -0.1918 -0.0005  0.2964
 2971SOL    HW1 9291   5.250   6.261   1.833 -0.1389 -1.5783  1.0947
 2971SOL    HW2 9292   5.226   6.285   1.980  0.6931 -0.2545  1.0337
 2972SOL     OW 9293   0.083   4.960   4.929 -0.2857  0.4840 -0.7269
 2972SOL    HW1 9294   0.156   4.971   4.869  1.0087 -0.1294  0.6667
 2972SOL    HW2 9295   0.083   4.867   4.951 -0.0982  0.8284  0.9248
 2973SOL     OW 9296   4.624   3.117   3.964  0.0024  0.2815  0.8222
 2973SOL    HW1 9297   4.552   3.056   3.948  1.2057 -1.0344  0.1612
 2973SOL    HW2 9298   4.642   3.156   3.878  0.1019  0.5763  0.9763
 2974SOL     OW 9299   4.894   5.959   2.698 -0.1967 -0.1765 -0.4362
 2974SOL    HW1 9300   4.845   5.919   2.770 -0.7217 -2.2365 -1.8243
 2974SOL    HW2 9301   4.865   6.050   2.697 -0.1394 -0.0669  1.9453
 2975SOL     OW 9302   3.446   2.482   0.011 -0.6133  0.1326 -0.7590
 2975SOL    HW1 9303   3.514   2.415   0.001 -1.6145 -0.9864 -0.3754
 2975SOL    HW2 9304   3.451   2.534  -0.069 -0.9687 -1.5225 -1.9102
 2976SOL     OW 9305   2.724   2.611   5.487 -0.9547  0.1183  0.7842
 2976SOL    HW1 9306   2.765   2.571   5.563 -0.1924 -1.6236 -0.4666
 2976SOL    HW2 9307   2.631   2.588   5.495 -0.7928 -0.4921  0.9369
 2977SOL     OW 9308   1.345   5.167   0.605 -0.2645  0.1091 -1.1354
 2977SOL    HW1 9309   1.306   5.192   0.689  1.5024  0.4818 -0.3839
 2977SOL    HW2 9310   1.271   5.135   0.553 -1.1130 -2.1537  1.2618
 2978SOL     OW 9311   4.341   2.991   1.750  0.9072 -0.5207  0.0511
 2978SOL    HW1 9312   4.352   2.909   1.702  1.0534 -0.0381 -0.7636
 2978SOL    HW2 9313   4.273   2.972   1.814  1.4287 -1.4763  0.3445
 2979SOL     OW 9314   4.689   6.134   1.335  0.0379 -0.2803 -0.1255
 2979SOL    HW1 9315   4.723   6.061   1.283  1.5123  0.7446 -0.6581
 2979SOL    HW2 9316   4.691   6.102   1.425  1.4758 -0.6369 -0.2584
 2980SOL     OW 9317   1.507   5.055   5.400 -0.2023 -0.1902  0.2744
 2980SOL    HW1 9318   1.497   5.131   5.342  0.9216 -1.3996 -1.5776
 2980SOL    HW2 9319   1.427   5.004   5.387 -0.2774 -0.0947  0.3594
 2981SOL     OW 9320   1.243   1.515   0.239  0.4062 -0.3034  0.1895
 2981SOL    HW1 9321   1.223   1.597   0.282 -0.2622 -0.0678 -0.5398
 2981SOL    HW2 9322   1.163   1.492   0.192  1.4302  0.0684 -1.8836
 2982SOL     OW 9323   6.171   1.302   2.575 -0.0601  0.0797 -0.2106
 2982SOL    HW1 9324   6.217   1.227   2.539 -0.3460  0.1478 -0.7255
 2982SOL    HW2 9325   6.239   1.356   2.615  0.8579  1.8599 -3.7984
 2983SOL     OW 9326   6.606   1.956   5.978  0.0556  0.2744 -0.2034
 2983SOL    HW1 9327   6.548   1.892   6.019  0.2180 -1.0219 -1.9190
 2983SOL    HW2 9328   6.630   1.917   5.894  1.7767  1.6982 -0.4297
 2984SOL     OW 9329   0.383   1.317   3.615  0.3632 -0.2118 -0.0870
 2984SOL    HW1 9330   0.464   1.349   3.655 -0.9136  1.1562  1.5988
 2984SOL    HW2 9331   0.412   1.264   3.541  2.7960 -0.2446  0.7810
 2985SOL     OW 9332   0.843   2.890   0.155 -0.6013  0.0979  0.5911
 2985SOL    HW1 9333   0.805   2.807   0.123  0.0993 -0.1544  0.3928
 2985SOL    HW2 9334   0.915   2.863   0.212 -0.1083  0.5678  0.2022
 2986SOL     OW 9335   4.014   0.423   2.164 -0.2536 -0.4668 -0.0783
 2986SOL    HW1 9336   4.107   0.422   2.188 -0.5005 -1.7491  0.8926
 2986SOL    HW2 9337   4.007   0.493   2.099  0.8676  1.6688  1.9620
 2987SOL     OW 9338   1.259   4.665   1.293 -0.5860 -0.6878 -0.5860
 2987SOL    HW1 9339   1.220   4.678   1.207  0.4091 -0.6229 -1.0497
 2987SOL    HW2 9340   1.295   4.751   1.316  0.0577 -0.9500 -0.5827
 2988SOL     OW 9341   4.177   1.492   4.448  0.5095  0.5164 -0.2599
 2988SOL    HW1 9342   4.247   1.464   4.389  0.2648  1.4867 -1.0252
 2988SOL    HW2 9343   4.133   1.411   4.473  0.5868  0.0898 -1.4518
 2989SOL     OW 9344   6.062   4.211   1.151 -0.0649  0.4291  0.0753
 2989SOL    HW1 9345   5.987   4.251   1.107 -0.5693 -0.9119 -0.3322
 2989SOL    HW2 9346   6.100   4.282   1.203  0.7684  2.1847 -2.7454
 2990SOL     OW 9347   3.921   4.699   1.955  0.0067 -0.3830  0.5736
 2990SOL    HW1 9348   3.888   4.788   1.969  3.2492  0.8996  0.9979
 2990SOL    HW2 9349   3.917   4.687   1.860 -0.0016  0.4174  0.4604
 2991SOL     OW 9350   3.595   4.940   0.528 -0.3284 -0.1474 -0.0863
 2991SOL    HW1 9351   3.606   5.027   0.566 -0.4691 -0.1465 -0.0477
 2991SOL    HW2 9352   3.501   4.933   0.510 -0.4056 -0.5133  0.4398
 2992SOL     OW 9353   4.124   6.028   1.781  0.4932 -0.3767  0.0267
 2992SOL    HW1 9354   4.041   6.062   1.748  0.8460 -0.5850 -1.1294
 2992SOL    HW2 9355   4.168   6.104   1.818  0.1293 -0.0997 -0.1000
 2993SOL     OW 9356   6.331   1.719   0.607  0.3537  0.0282  0.3140
 2993SOL    HW1 9357   6.422   1.743   0.625  0.4940  1.6940 -2.1486
 2993SOL    HW2 9358   6.280   1.796   0.634 -0.0105  0.1930 -0.7974
 2994SOL     OW 9359   5.800   1.269   6.571 -0.4433  0.4128  0.4604
 2994SOL    HW1 9360   5.718   1.219   6.568 -0.8568  1.0540  0.8592
 2994SOL    HW2 9361   5.831   1.258   6.661 -0.8856  1.4122  0.7428
 2995SOL     OW 9362   0.348   3.124   3.392 -0.1555  0.4726 -1.2390
 2995SOL    HW1 9363   0.271   3.089   3.347 -0.2931  0.2817 -0.8591
 2995SOL    HW2 9364   0.396   3.172   3.324 -1.0024  1.2437 -1.2986
 2996SOL     OW 9365   0.595   2.186   4.714  0.2240 -0.2167  0.1079
 2996SOL    HW1 9366   0.589   2.185   4.809 -0.9496 -1.8251  0.0622
 2996SOL    HW2 9367   0.505   2.178   4.684  0.5906  0.0948 -1.1415
 2997SOL     OW 9368   6.823   1.846   0.145  0.1906 -0.2345 -0.0627
 2997SOL    HW1 9369   6.828   1.939   0.169  0.0278 -0.6123  1.5212
 2997SOL    HW2 9370   6.913   1.816   0.144  0.0972 -0.7543  2.4370
 2998SOL     OW 9371   3.770   2.013   1.974 -0.0251  0.2620 -0.0873
 2998SOL    HW1 9372   3.744   2.104   1.983 -2.2226 -0.0069 -2.5804
 2998SOL    HW2 9373   3.836   2.000   2.042 -2.2272  2.6873  2.7906
 2999SOL     OW 9374   4.443   0.985   5.261  0.5965 -0.1778 -0.1286
 2999SOL    HW1 9375   4.455   0.962   5.168 -1.1657 -1.9962  0.0374
 2999SOL    HW2 9376   4.438   1.080   5.261 -0.8663 -0.1773 -2.1452
 3000SOL     OW 9377   6.794   2.756   3.023 -0.2637  0.1246  0.1063
 3000SOL    HW1 9378   6.829   2.844   3.005  0.9269  0.0683  1.9146
 3000SOL    HW2 9379   6.726   2.771   3.088 -0.8079 -0.2010 -0.3826
 3001SOL     OW 9380   3.946   4.287   4.354  0.2723  0.0372  0.1951
 3001SOL    HW1 9381   3.857   4.264   4.383  0.0833  0.1337 -0.2895
 3001SOL    HW2 9382   3.954   4.380   4.374 -0.0926  0.2548 -0.6262
 3002SOL     OW 9383   6.427   5.521   1.606 -0.4286 -0.0702 -0.6717
 3002SOL    HW1 9384   6.335   5.497   1.594 -0.7358  1.2665 -1.1547
 3002SOL    HW2 9385   6.431   5.555   1.695 -0.0030 -1.7723 -0.0054
 3003SOL     OW 9386   1.091   0.508   3.222 -0.2636  0.0401 -0.2436
 3003SOL    HW1 9387   1.145   0.573   3.267  1.0433  0.0921 -1.8055
 3003SOL    HW2 9388   1.053   0.456   3.293 -1.2057  2.3371  1.0510
 3004SOL     OW 9389   2.982   4.848   6.376 -0.0905 -0.2474  0.1893
 3004SOL    HW1 9390   3.040   4.827   6.302  1.2057 -0.6894  1.2818
 3004SOL    HW2 9391   2.978   4.768   6.427 -0.0425  0.3624  1.1912
 3005SOL     OW 9392   3.998   3.819   4.735  0.0408  0.1040  0.2297
 3005SOL    HW1 9393   3.961   3.841   4.821  0.5611  1.6252  0.0857
 3005SOL    HW2 9394   3.937   3.859   4.672  0.9498  1.1254 -0.0405
 3006SOL     OW 9395   5.468   6.035   4.668  0.5404  0.4335 -0.5210
 3006SOL    HW1 9396   5.377   6.028   4.699  0.8346  2.5222  1.0320
 3006SOL    HW2 9397   5.469   6.116   4.617  1.3778  0.0057 -1.1965
 3007SOL     OW 9398   0.821   0.973   5.866 -0.1470 -0.3176 -0.1894
 3007SOL    HW1 9399   0.828   0.936   5.954  1.2071 -0.1430 -0.1958
 3007SOL    HW2 9400   0.876   0.916   5.811  0.3350  0.5020 -0.5893
 3008SOL     OW 9401   0.135   1.516   1.804 -0.3473  0.4003 -0.3758
 3008SOL    HW1 9402   0.193   1.441   1.812 -1.4509 -0.4044  0.3025
 3008SOL    HW2 9403   0.055   1.481   1.764 -0.4940  1.4203 -1.0048
 3009SOL     OW 9404   4.402   3.096   3.786  0.5348 -0.6046  0.1016
 3009SOL    HW1 9405   4.381   3.176   3.835  1.8624 -0.1596  0.0135
 3009SOL    HW2 9406   4.335   3.091   3.718 -0.6350 -0.5804  1.2225
 3010SOL     OW 9407   0.111   3.801   6.620 -0.0609  0.1251  0.4251
 3010SOL    HW1 9408   0.160   3.857   6.680  0.2882  0.1898  0.0835
 3010SOL    HW2 9409   0.031   3.779   6.667 -0.3946  1.2396  0.4122
 3011SOL     OW 9410   4.014   1.896   1.051 -0.2360  0.1502  0.0701
 3011SOL    HW1 9411   4.046   1.966   0.994  0.6675  1.0179  1.5695
 3011SOL    HW2 9412   4.093   1.863   1.096 -0.9166 -0.4568  0.8585
 3012SOL     OW 9413   6.161   0.051   6.214  0.2693 -0.2337  0.2164
 3012SOL    HW1 9414   6.230   0.017   6.156  0.8267 -0.0943  0.7902
 3012SOL    HW2 9415   6.170   0.146   6.207 -0.6262 -0.1884 -0.5966
 3013SOL     OW 9416   2.581   1.182   4.636  0.0816 -0.2936  0.1103
 3013SOL    HW1 9417   2.523   1.110   4.661 -0.4580 -0.1633 -0.7095
 3013SOL    HW2 9418   2.669   1.144   4.637 -0.1062 -0.7284  0.5251
 3014SOL     OW 9419   3.702   2.282   1.986  0.5711  0.1251 -0.3171
 3014SOL    HW1 9420   3.624   2.322   1.947  0.0003 -1.0608 -0.4501
 3014SOL    HW2 9421   3.698   2.307   2.078 -0.0088  0.0284 -0.3087
 3015SOL     OW 9422   1.142   3.481   4.906  0.6895 -0.5046  0.0096
 3015SOL    HW1 9423   1.133   3.566   4.864 -1.1676 -1.4831 -1.7316
 3015SOL    HW2 9424   1.214   3.492   4.968 -0.9935  3.0134  1.6116
 3016SOL     OW 9425   5.450   1.109   6.113  0.0545 -0.0878 -0.2505
 3016SOL    HW1 9426   5.423   1.017   6.115  0.1713 -0.1235 -0.2825
 3016SOL    HW2 9427   5.540   1.108   6.145  0.4591 -0.1320 -1.3358
 3017SOL     OW 9428   3.683   5.502   0.908  0.1507 -0.4439  0.3722
 3017SOL    HW1 9429   3.698   5.408   0.896  2.3048 -0.2263  1.0013
 3017SOL    HW2 9430   3.624   5.526   0.836 -3.8577 -2.9472  2.4279
 3018SOL     OW 9431   2.250   1.673   0.408 -0.4239 -0.2412  0.3535
 3018SOL    HW1 9432   2.236   1.609   0.478  0.3532 -0.5126  0.2716
 3018SOL    HW2 9433   2.162   1.707   0.389 -0.7480 -0.7362  0.9136
 3019SOL     OW 9434   2.591   3.925   2.399  0.1208  0.5540 -0.1676
 3019SOL    HW1 9435   2.537   3.888   2.469  0.4444  2.0713  0.9319
 3019SOL    HW2 9436   2.538   3.913   2.320  0.0309 -1.7838  0.1792
 3020SOL     OW 9437   1.814   0.074   6.594 -0.1898 -0.5281 -0.2145
 3020SOL    HW1 9438   1.745   0.052   6.657  1.0507 -2.4341  0.5927
 3020SOL    HW2 9439   1.887   0.017   6.619  1.7146  1.4645 -0.9857
 3021SOL     OW 9440   6.233   2.037   4.651  0.0286 -0.6652  0.1416
 3021SOL    HW1 9441   6.178   2.087   4.711  1.4870 -0.0516  1.0158
 3021SOL    HW2 9442   6.237   2.091   4.572  0.6839  0.0868  0.6756
 3022SOL     OW 9443   1.821   2.999   6.522 -0.2205 -0.7820  0.3841
 3022SOL    HW1 9444   1.868   2.921   6.493 -0.8150 -1.6538  1.6559
 3022SOL    HW2 9445   1.729   2.980   6.505 -0.3378 -0.1613  0.2937
 3023SOL     OW 9446   2.402   3.844   4.739 -0.0202 -0.5297  0.4814
 3023SOL    HW1 9447   2.457   3.917   4.767 -0.5183  1.3396 -2.8287
 3023SOL    HW2 9448   2.457   3.766   4.749  1.8084  0.7685  0.8551
 3024SOL     OW 9449   6.612   4.902   3.232  0.7486  0.1538  0.1580
 3024SOL    HW1 9450   6.680   4.964   3.259  1.1493 -0.3508  0.3282
 3024SOL    HW2 9451   6.609   4.909   3.137  1.3989 -0.1844  0.1073
 3025SOL     OW 9452   5.129   6.716   3.486  0.0005 -0.1089 -0.1720
 3025SOL    HW1 9453   5.191   6.660   3.439 -0.7911  1.2099 -3.0608
 3025SOL    HW2 9454   5.184   6.768   3.546  1.7304  0.7543 -2.3472
 3026SOL     OW 9455   6.276   5.073   3.054 -0.0823  0.1183 -0.0957
 3026SOL    HW1 9456   6.221   5.152   3.051  0.3808  0.4912  0.7318
 3026SOL    HW2 9457   6.273   5.046   3.145 -0.8100 -1.2550 -0.5079
 3027SOL     OW 9458   4.471   3.885   2.393 -0.5608 -0.1852 -0.1091
 3027SOL    HW1 9459   4.490   3.878   2.300  0.8374 -0.1325  0.1415
 3027SOL    HW2 9460   4.392   3.939   2.398 -0.6547 -0.2021 -1.2553
 3028SOL     OW 9461   5.872   6.383   4.116  0.2705 -0.0047  0.2024
 3028SOL    HW1 9462   5.879   6.288   4.108 -1.8768 -0.2677  0.7645
 3028SOL    HW2 9463   5.921   6.405   4.195 -0.1210 -0.7914  0.6706
 3029SOL     OW 9464   4.668   1.859   6.267 -0.2332  0.4933 -0.3485
 3029SOL    HW1 9465   4.700   1.842   6.356  0.3809  1.4304 -0.3747
 3029SOL    HW2 9466   4.746   1.870   6.214 -0.5883 -1.2449 -1.2808
 3030SOL     OW 9467   0.558   5.285   2.961  0.3995 -0.0070  0.0239
 3030SOL    HW1 9468   0.577   5.368   3.005  0.2883  0.0175  0.0239
 3030SOL    HW2 9469   0.645   5.246   2.946  0.4539  0.1329 -0.0249
 3031SOL     OW 9470   5.646   0.476   1.298 -0.0997 -0.6162  0.2465
 3031SOL    HW1 9471   5.699   0.413   1.348  0.5977  0.4397  0.8793
 3031SOL    HW2 9472   5.699   0.556   1.298 -1.2325  0.1436 -0.0366
 3032SOL     OW 9473   6.755   2.859   3.866  0.4560  0.2441 -0.7575
 3032SOL    HW1 9474   6.787   2.916   3.796  2.1048  0.1752 -0.0950
 3032SOL    HW2 9475   6.754   2.915   3.943  1.0022 -0.3290 -0.3314
 3033SOL     OW 9476   6.081   5.706   4.437  0.1537 -0.2736 -0.0862
 3033SOL    HW1 9477   6.163   5.748   4.466  0.8281 -0.6896 -1.3161
 3033SOL    HW2 9478   6.105   5.660   4.357 -1.1360 -1.0204 -0.0662
 3034SOL     OW 9479   0.273   3.853   5.173 -0.0242  0.5366  0.3836
 3034SOL    HW1 9480   0.290   3.918   5.104 -0.0212  0.4059  0.2606
 3034SOL    HW2 9481   0.215   3.789   5.131  2.5970 -1.3882 -0.5871
 3035SOL     OW 9482   4.585   3.292   4.474  0.0031 -0.1096 -0.0446
 3035SOL    HW1 9483   4.619   3.222   4.418 -1.9634 -0.7781 -0.5089
 3035SOL    HW2 9484   4.589   3.256   4.562 -1.3613 -1.0334 -0.3213
 3036SOL     OW 9485   4.588   6.084   0.299 -0.6354 -0.5093 -0.4833
 3036SOL    HW1 9486   4.494   6.068   0.313 -0.3905 -0.3804  1.5690
 3036SOL    HW2 9487   4.601   6.175   0.325  0.4531 -1.2322  1.7998
 3037SOL     OW 9488   1.294   6.670   5.133  0.2548  0.3811  0.7470
 3037SOL    HW1 9489   1.387   6.684   5.116  0.3977 -0.7163  0.5715
 3037SOL    HW2 9490   1.250   6.699   5.053  0.4440  0.8143  0.7954
 3038SOL     OW 9491   4.488   3.852   4.525 -0.0773  0.6363  0.4076
 3038SOL    HW1 9492   4.447   3.933   4.557 -0.6808  0.3974  0.2330
 3038SOL    HW2 9493   4.423   3.813   4.467  0.1566 -0.0499  0.6002
 3039SOL     OW 9494   1.731   4.539   1.226 -0.3391  0.0688  0.2486
 3039SOL    HW1 9495   1.742   4.582   1.310  0.6961 -0.2489  0.2943
 3039SOL    HW2 9496   1.662   4.588   1.182 -2.0559 -0.7357  1.9109
 3040SOL     OW 9497   0.542   1.749   4.023 -0.3703 -0.0059  0.0950
 3040SOL    HW1 9498   0.520   1.661   3.992  2.1076 -0.7910  0.4003
 3040SOL    HW2 9499   0.584   1.791   3.948 -0.8551  0.6728  0.1924
 3041SOL     OW 9500   5.315   4.186   3.123 -0.0408 -0.4859  0.2172
 3041SOL    HW1 9501   5.368   4.203   3.045  0.9057 -0.1623  0.9080
 3041SOL    HW2 9502   5.235   4.236   3.109 -0.3962 -1.3531 -1.0603
 3042SOL     OW 9503   4.994   6.262   6.088  0.3144  0.1167 -0.0662
 3042SOL    HW1 9504   4.972   6.308   6.170 -1.4431 -1.6136  0.5223
 3042SOL    HW2 9505   5.047   6.325   6.039 -0.1169  1.9112  1.6155
 3043SOL     OW 9506   0.973   2.283   0.219 -0.5420  0.1800 -0.3281
 3043SOL    HW1 9507   0.970   2.372   0.182  0.3134  0.0938 -0.6245
 3043SOL    HW2 9508   1.007   2.295   0.307 -0.8342  0.1933 -0.2178
 3044SOL     OW 9509   1.863   5.913   1.672 -0.1820 -0.3207 -0.1447
 3044SOL    HW1 9510   1.792   5.887   1.613  0.0266 -1.5151  0.0941
 3044SOL    HW2 9511   1.936   5.854   1.649  0.7518  0.8993 -0.4072
 3045SOL     OW 9512   6.292   4.359   6.364  0.4258 -0.4711  0.7814
 3045SOL    HW1 9513   6.354   4.315   6.305 -0.4535 -0.3235 -0.3000
 3045SOL    HW2 9514   6.340   4.434   6.398  0.1705  1.0960 -1.9742
 3046SOL     OW 9515   1.597   0.828   2.597  0.2492 -0.0897 -0.0700
 3046SOL    HW1 9516   1.638   0.872   2.672  0.0851 -0.2192  0.0994
 3046SOL    HW2 9517   1.518   0.787   2.634 -0.0104  0.1214 -0.3815
 3047SOL     OW 9518   5.406   3.116   1.101  0.0781  0.1328 -0.7559
 3047SOL    HW1 9519   5.319   3.076   1.101  1.1014 -2.3121 -2.0021
 3047SOL    HW2 9520   5.454   3.068   1.033  1.6288  3.2257 -2.0486
 3048SOL     OW 9521   3.211   0.776   6.081 -0.9780 -0.1429  0.3793
 3048SOL    HW1 9522   3.273   0.727   6.135  1.5598  0.7332 -1.5446
 3048SOL    HW2 9523   3.256   0.857   6.060 -2.1207 -0.1252 -2.4214
 3049SOL     OW 9524   4.697   5.484   1.528 -0.2359 -0.0591 -0.4838
 3049SOL    HW1 9525   4.735   5.426   1.594 -0.4830 -1.0781 -1.2065
 3049SOL    HW2 9526   4.715   5.440   1.444 -0.7093  0.7545 -1.0301
 3050SOL     OW 9527   5.713   3.368   6.113 -0.7424 -0.6283 -0.1449
 3050SOL    HW1 9528   5.733   3.396   6.202 -0.8777  0.9611 -0.5882
 3050SOL    HW2 9529   5.729   3.445   6.059 -2.6436 -0.9314 -1.2284
 3051SOL     OW 9530   2.434   4.802   4.072 -0.0085 -0.5277 -0.1953
 3051SOL    HW1 9531   2.394   4.715   4.077 -1.4983  0.1732  0.9366
 3051SOL    HW2 9532   2.511   4.796   4.129  0.3065 -1.2980 -0.6904
 3052SOL     OW 9533   1.071   6.063   1.119 -0.2374  0.2873  0.2932
 3052SOL    HW1 9534   1.027   5.981   1.141 -0.4466 -0.2235 -1.8210
 3052SOL    HW2 9535   1.002   6.118   1.080  0.1595  1.0203  0.5909
 3053SOL     OW 9536   5.576   3.139   5.071  0.5352 -0.1589  0.1491
 3053SOL    HW1 9537   5.591   3.156   4.978  0.5376 -0.0596  0.1681
 3053SOL    HW2 9538   5.481   3.139   5.081  0.5415  0.5273  0.2756
 3054SOL     OW 9539   0.832   1.486   3.434 -0.1137 -0.0895 -0.2268
 3054SOL    HW1 9540   0.915   1.497   3.480 -0.6002 -1.8013  1.2026
 3054SOL    HW2 9541   0.765   1.504   3.501 -0.8893  0.0950 -1.0267
 3055SOL     OW 9542   2.081   3.336   1.786  0.3766  0.1767 -0.5547
 3055SOL    HW1 9543   2.024   3.299   1.853 -0.0802  0.4848 -0.7724
 3055SOL    HW2 9544   2.037   3.416   1.757  0.7616  0.2554 -0.9472
 3056SOL     OW 9545   4.154   4.716   2.155  0.6616 -0.1227 -0.6488
 3056SOL    HW1 9546   4.081   4.700   2.095 -0.1258 -0.9885  0.5154
 3056SOL    HW2 9547   4.232   4.697   2.103  0.1302  1.4132 -2.1111
 3057SOL     OW 9548   4.854   1.198   0.557 -0.7923 -0.2761  0.0393
 3057SOL    HW1 9549   4.760   1.193   0.573 -0.9093  0.2143 -0.4846
 3057SOL    HW2 9550   4.864   1.188   0.462 -0.5533  2.4326 -0.2943
 3058SOL     OW 9551   1.954   3.937   5.575 -0.1723  0.5122  0.0815
 3058SOL    HW1 9552   1.866   3.939   5.538  0.2600 -1.8509 -1.2483
 3058SOL    HW2 9553   2.012   3.930   5.500  1.4490  4.2887  0.7465
 3059SOL     OW 9554   3.754   5.952   5.751  0.0351 -0.2575  0.2352
 3059SOL    HW1 9555   3.842   5.924   5.779  0.3675  0.6672  0.1618
 3059SOL    HW2 9556   3.707   5.871   5.733  1.3609 -0.7324 -1.2301
 3060SOL     OW 9557   6.518   2.464   3.103  0.4708  0.1156 -0.0519
 3060SOL    HW1 9558   6.483   2.536   3.156 -1.3009 -0.9026  0.2523
 3060SOL    HW2 9559   6.578   2.418   3.161  0.9381  0.8239  0.0344
 3061SOL     OW 9560   1.201   1.923   4.393 -0.2054 -0.4509 -0.3221
 3061SOL    HW1 9561   1.210   1.972   4.311 -0.0636  2.4326  1.2835
 3061SOL    HW2 9562   1.117   1.877   4.384 -0.2924 -0.0157 -2.0041
 3062SOL     OW 9563   5.408   1.729   4.501  0.5281  0.0093  0.0169
 3062SOL    HW1 9564   5.400   1.795   4.570  0.7643 -0.3350  0.3809
 3062SOL    HW2 9565   5.444   1.652   4.545 -1.1321 -0.8816 -0.0828
 3063SOL     OW 9566   5.609   5.551   2.093 -0.3285 -0.0369  0.2967
 3063SOL    HW1 9567   5.587   5.583   2.005  0.8469 -0.2660 -0.0942
 3063SOL    HW2 9568   5.548   5.479   2.108 -0.6753  0.1390 -0.2423
 3064SOL     OW 9569   5.734   0.213   2.036  0.1705 -0.4570  0.3629
 3064SOL    HW1 9570   5.776   0.259   1.963  0.0042  0.1821  0.6569
 3064SOL    HW2 9571   5.786   0.134   2.048  0.3546 -0.4403 -0.2805
 3065SOL     OW 9572   1.747   3.279   6.500  0.9174 -0.1895 -0.7360
 3065SOL    HW1 9573   1.821   3.334   6.525 -0.4218  0.9284  1.0653
 3065SOL    HW2 9574   1.784   3.191   6.494  2.4159  0.3419  0.0719
 3066SOL     OW 9575   1.277   3.546   0.868 -0.3387  0.2499  0.0122
 3066SOL    HW1 9576   1.361   3.510   0.838 -0.3352  2.0597 -2.4639
 3066SOL    HW2 9577   1.257   3.496   0.947  1.6677 -2.2120 -0.8777
 3067SOL     OW 9578   1.056   6.430   0.883 -0.6822 -0.6758  0.1926
 3067SOL    HW1 9579   1.021   6.400   0.799  0.4292 -0.3004 -0.4249
 3067SOL    HW2 9580   1.032   6.523   0.887  0.0972 -0.4459 -0.1794
 3068SOL     OW 9581   5.211   2.533   6.362  0.3047  0.7079 -0.2341
 3068SOL    HW1 9582   5.137   2.592   6.376  0.7316  0.9200  1.3351
 3068SOL    HW2 9583   5.223   2.531   6.267 -2.9058 -0.8513 -0.7530
 3069SOL     OW 9584   6.141   3.605   0.638  0.6645 -0.3727 -0.0908
 3069SOL    HW1 9585   6.150   3.684   0.690  0.4804  0.7170 -1.6469
 3069SOL    HW2 9586   6.196   3.620   0.561  0.4673 -1.6688 -0.5080
 3070SOL     OW 9587   0.006   4.375   5.655 -0.4748 -0.1231 -0.2717
 3070SOL    HW1 9588  -0.070   4.416   5.696 -0.8834  0.5178 -1.6085
 3070SOL    HW2 9589   0.069   4.446   5.643  0.6503 -0.7599  1.4051
 3071SOL     OW 9590   5.096   3.922   0.285 -0.0886  0.5530 -0.3044
 3071SOL    HW1 9591   5.020   3.967   0.248 -0.5197 -0.9558 -1.4055
 3071SOL    HW2 9592   5.084   3.926   0.379 -1.6545  0.1862 -0.4679
 3072SOL     OW 9593   2.385   2.884   6.380  0.1627 -0.3037 -0.1836
 3072SOL    HW1 9594   2.401   2.795   6.411  1.3072 -0.2063 -0.4621
 3072SOL    HW2 9595   2.290   2.890   6.374  0.0242 -1.1686  0.8188
 3073SOL     OW 9596   5.276   1.268   3.335 -0.2426  0.2436  0.4177
 3073SOL    HW1 9597   5.347   1.313   3.290  1.4492 -0.8860  1.8709
 3073SOL    HW2 9598   5.234   1.216   3.266  1.6229 -0.6497 -0.0957
 3074SOL     OW 9599   1.862   5.959   5.546 -0.2427  0.1550 -0.1340
 3074SOL    HW1 9600   1.871   5.963   5.450 -0.9068 -0.2010 -0.2179
 3074SOL    HW2 9601   1.832   6.046   5.571  0.0702  0.2932 -0.2323
 3075SOL     OW 9602   0.425   1.113   2.238 -0.4017  0.8108 -0.1988
 3075SOL    HW1 9603   0.358   1.154   2.184  0.3004  0.2780 -1.5340
 3075SOL    HW2 9604   0.450   1.035   2.189  1.6436  1.3328 -0.0772
 3076SOL     OW 9605   6.304   5.195   0.670 -0.2759  0.0347  0.0487
 3076SOL    HW1 9606   6.325   5.179   0.578  1.5664 -0.6153  0.5346
 3076SOL    HW2 9607   6.307   5.291   0.679 -1.4320  0.1636 -0.7514
 3077SOL     OW 9608   6.233   1.926   0.349 -0.1859 -0.3742 -0.3456
 3077SOL    HW1 9609   6.228   2.022   0.344 -0.1019 -0.3910 -0.8038
 3077SOL    HW2 9610   6.326   1.906   0.345 -0.2094 -0.4815 -0.3708
 3078SOL     OW 9611   3.336   3.930   3.000 -0.6110 -0.2491 -0.0593
 3078SOL    HW1 9612   3.294   3.905   3.083  1.0850 -1.7497  0.3969
 3078SOL    HW2 9613   3.421   3.887   3.002  1.3683  3.2698 -0.6067
 3079SOL     OW 9614   0.811   5.103   2.158  0.0454 -0.4598 -0.2355
 3079SOL    HW1 9615   0.865   5.180   2.137 -0.1154 -0.2300  0.1837
 3079SOL    HW2 9616   0.790   5.113   2.251 -2.2828  0.4272 -0.8036
 3080SOL     OW 9617   0.834   1.546   3.973  0.3508 -0.1970 -0.6748
 3080SOL    HW1 9618   0.859   1.635   3.998  1.0207 -0.3325 -0.8282
 3080SOL    HW2 9619   0.836   1.546   3.877 -0.2598 -0.2109 -0.6890
 3081SOL     OW 9620   6.104   0.094   5.521 -0.1061 -0.0974 -0.1426
 3081SOL    HW1 9621   6.056   0.057   5.446 -0.9321  2.3363 -0.9032
 3081SOL    HW2 9622   6.176   0.142   5.481  0.4348 -0.1476  0.7628
 3082SOL     OW 9623   3.205   2.268   2.762  0.0864  0.0332  0.3832
 3082SOL    HW1 9624   3.254   2.348   2.741  1.9716 -0.6649  1.8097
 3082SOL    HW2 9625   3.267   2.216   2.813 -1.9358 -1.2554  1.6281
 3083SOL     OW 9626   2.183   5.373   1.967  0.4580 -0.1792  0.2573
 3083SOL    HW1 9627   2.252   5.438   1.977 -1.7772  2.4003  0.0002
 3083SOL    HW2 9628   2.193   5.342   1.877  0.2326  1.5112 -0.3854
 3084SOL     OW 9629   1.816   5.550   3.856 -0.3304  0.1691  0.2844
 3084SOL    HW1 9630   1.779   5.625   3.810  1.0694 -0.0001 -1.2229
 3084SOL    HW2 9631   1.865   5.503   3.788  0.0440 -1.2909  1.5209
 3085SOL     OW 9632   0.701   3.539   5.008  0.3888 -0.4086  0.2998
 3085SOL    HW1 9633   0.642   3.589   5.065 -0.0807  0.1315 -0.6384
 3085SOL    HW2 9634   0.772   3.512   5.066  0.5275  1.1233  0.9095
 3086SOL     OW 9635   3.302   2.039   4.445  0.0270  0.1045 -0.0424
 3086SOL    HW1 9636   3.271   1.977   4.512 -2.0428  0.4223 -0.6509
 3086SOL    HW2 9637   3.245   2.024   4.370  1.0577  1.1050 -1.0644
 3087SOL     OW 9638   1.773   0.856   6.240 -0.2676 -0.5327  0.2114
 3087SOL    HW1 9639   1.753   0.916   6.312 -0.4646 -0.3957  0.0438
 3087SOL    HW2 9640   1.787   0.914   6.165  0.4343 -0.6449  0.2509
 3088SOL     OW 9641   1.695   6.464   6.441  0.4032 -0.3490 -0.1420
 3088SOL    HW1 9642   1.646   6.483   6.521  0.6388  0.3070 -0.1483
 3088SOL    HW2 9643   1.749   6.389   6.464  1.6086  0.7694  0.8121
 3089SOL     OW 9644   5.218   6.475   1.383  0.2348 -0.3793  0.3104
 3089SOL    HW1 9645   5.161   6.477   1.460 -1.0901 -1.9575 -0.5435
 3089SOL    HW2 9646   5.300   6.437   1.414 -0.1782 -0.7005  1.0256
 3090SOL     OW 9647   0.340   5.427   0.984  0.3393 -0.0412  0.1304
 3090SOL    HW1 9648   0.405   5.388   1.043 -0.2558  1.0078  1.5263
 3090SOL    HW2 9649   0.382   5.506   0.951  0.0812  0.2061  0.3920
 3091SOL     OW 9650   5.244   6.442   6.271  0.1614  0.2104 -0.4126
 3091SOL    HW1 9651   5.156   6.456   6.234 -0.0992 -0.7217 -0.1801
 3091SOL    HW2 9652   5.242   6.351   6.301  1.6777 -0.2969 -1.7160
 3092SOL     OW 9653   1.999   4.512   6.274  0.5033 -0.0475 -0.1682
 3092SOL    HW1 9654   2.046   4.535   6.354 -0.1667 -1.6640  0.7539
 3092SOL    HW2 9655   2.067   4.476   6.216  0.7028 -0.7972  0.5019
 3093SOL     OW 9656   3.295   0.232   0.176  0.3071  0.2892  0.3220
 3093SOL    HW1 9657   3.333   0.271   0.097 -0.6821  1.4674  0.3916
 3093SOL    HW2 9658   3.212   0.278   0.187 -0.4324 -1.1717  1.0108
 3094SOL     OW 9659   5.954   3.484   0.113  0.5777  0.2270 -0.3002
 3094SOL    HW1 9660   5.939   3.416   0.048 -0.4784 -0.2903  0.4560
 3094SOL    HW2 9661   5.867   3.504   0.148  1.1861  0.0239  1.4189
 3095SOL     OW 9662   4.155   5.086   3.432  0.4611  0.0631 -0.0452
 3095SOL    HW1 9663   4.234   5.044   3.467 -0.3226 -0.3065  1.3578
 3095SOL    HW2 9664   4.084   5.053   3.487 -0.4927  1.4404 -0.3893
 3096SOL     OW 9665   4.449   0.209   0.258 -0.1209  0.0726  0.2190
 3096SOL    HW1 9666   4.386   0.279   0.277 -1.5612 -1.1169  0.0612
 3096SOL    HW2 9667   4.459   0.162   0.341 -0.2652 -0.3653 -0.0054
 3097SOL     OW 9668   2.471   0.390   0.894  0.4994  0.5050  0.1903
 3097SOL    HW1 9669   2.449   0.363   0.983  1.1003  1.4935  0.6613
 3097SOL    HW2 9670   2.551   0.442   0.904  0.2176  1.1733 -0.8491
 3098SOL     OW 9671   5.358   4.845   3.002  0.0876 -0.0933 -0.4034
 3098SOL    HW1 9672   5.334   4.884   2.918  1.8188 -0.2545 -1.0286
 3098SOL    HW2 9673   5.334   4.753   2.993  0.9428 -0.2656 -1.0308
 3099SOL     OW 9674   3.439   6.028   1.897  0.0294 -0.0590  0.5068
 3099SOL    HW1 9675   3.353   5.988   1.911 -0.3922  0.7427  0.2681
 3099SOL    HW2 9676   3.466   6.057   1.984  0.0635 -0.3165  0.5834
 3100SOL     OW 9677   1.689   4.284   1.157 -0.5747  0.1094 -0.5791
 3100SOL    HW1 9678   1.696   4.372   1.194 -2.6830 -0.1013  0.4571
 3100SOL    HW2 9679   1.715   4.226   1.229  2.1784 -0.1667 -1.6661
 3101SOL     OW 9680   3.293   6.095   6.845  0.7563  0.2496 -0.0045
 3101SOL    HW1 9681   3.351   6.150   6.793 -0.3495  2.3876  0.8645
 3101SOL    HW2 9682   3.209   6.099   6.799  0.8317 -1.4206 -0.3481
 3102SOL     OW 9683   1.051   6.035   3.511 -0.0455 -0.1349 -0.0345
 3102SOL    HW1 9684   1.118   6.037   3.580  1.3534  0.2965 -1.3504
 3102SOL    HW2 9685   1.098   6.005   3.433 -1.4303  0.0403 -0.9666
 3103SOL     OW 9686   1.764   6.726   4.558 -0.0324  0.0016 -0.2485
 3103SOL    HW1 9687   1.752   6.631   4.557 -1.2436  0.1416 -1.0397
 3103SOL    HW2 9688   1.858   6.738   4.551  0.1541 -1.1371  0.0504
 3104SOL     OW 9689   6.645   6.823   1.498 -0.5270 -0.0416  0.6084
 3104SOL    HW1 9690   6.686   6.858   1.577  2.2938 -1.1817 -0.2335
 3104SOL    HW2 9691   6.631   6.730   1.518  0.0585 -0.3016 -0.1431
 3105SOL     OW 9692   6.273   4.259   0.720 -1.1831  0.5019  0.3073
 3105SOL    HW1 9693   6.297   4.349   0.698  1.8051 -0.6306 -1.8692
 3105SOL    HW2 9694   6.280   4.255   0.815  0.3043  2.1993  0.3313
 3106SOL     OW 9695   2.361   6.231   1.855  0.3939 -0.3254 -0.1421
 3106SOL    HW1 9696   2.327   6.243   1.767  0.8243  1.8226 -0.0777
 3106SOL    HW2 9697   2.284   6.240   1.912 -0.1406 -3.1005 -0.2702
 3107SOL     OW 9698   1.418   4.855   6.365  0.5503  0.5712  0.3373
 3107SOL    HW1 9699   1.474   4.791   6.408 -0.4662 -0.6824 -0.1570
 3107SOL    HW2 9700   1.346   4.868   6.426  1.3387  2.1864  0.9771
 3108SOL     OW 9701   1.871   3.282   2.911  0.0413 -1.1629 -0.1427
 3108SOL    HW1 9702   1.888   3.200   2.958  1.5830  0.0042  1.4781
 3108SOL    HW2 9703   1.933   3.281   2.838  1.0965 -0.8307  0.7201
 3109SOL     OW 9704   4.514   5.054   3.914 -0.1374 -0.0142 -0.8118
 3109SOL    HW1 9705   4.569   5.045   3.992  2.0162 -1.9398 -2.3989
 3109SOL    HW2 9706   4.448   4.985   3.923 -1.2357  1.1214  0.2295
 3110SOL     OW 9707   6.226   6.189   2.602  0.2346 -0.6194 -0.1479
 3110SOL    HW1 9708   6.187   6.263   2.649  2.7676  0.2229  0.8086
 3110SOL    HW2 9709   6.199   6.201   2.511 -1.0589  0.2981  0.3270
 3111SOL     OW 9710   4.662   6.063   6.602  0.3836 -0.4404 -0.1715
 3111SOL    HW1 9711   4.598   6.065   6.532  0.7235  1.7031 -0.5066
 3111SOL    HW2 9712   4.746   6.051   6.558  0.3394 -2.4358  0.1987
 3112SOL     OW 9713   4.232   2.703   6.496  0.0848  0.2385  0.1963
 3112SOL    HW1 9714   4.148   2.717   6.454  0.1335 -0.1741 -0.0360
 3112SOL    HW2 9715   4.211   2.680   6.586 -0.1136 -1.3524 -0.2325
 3113SOL     OW 9716   4.564   3.127   6.565  0.4939 -0.0025 -0.4256
 3113SOL    HW1 9717   4.634   3.185   6.537  0.8575  0.8594  2.0243
 3113SOL    HW2 9718   4.488   3.154   6.515  1.0788  1.4552 -0.5596
 3114SOL     OW 9719   2.746   3.698   3.966  0.5746 -0.0199  0.4041
 3114SOL    HW1 9720   2.774   3.608   3.950  1.3622  0.1294  0.8932
 3114SOL    HW2 9721   2.763   3.712   4.059  0.8295  0.7582  0.2440
 3115SOL     OW 9722   0.659   3.512   2.264  0.0070  0.1707  0.4223
 3115SOL    HW1 9723   0.629   3.554   2.345  2.4310 -0.8236  1.9354
 3115SOL    HW2 9724   0.754   3.513   2.270  0.2206 -1.5963 -1.5525
 3116SOL     OW 9725   0.012   2.897   1.642 -0.7435 -0.3457  0.2638
 3116SOL    HW1 9726   0.042   2.987   1.653 -0.0313 -0.6527  0.9976
 3116SOL    HW2 9727  -0.058   2.902   1.578  1.3848  0.3223 -2.1602
 3117SOL     OW 9728   2.673   0.507   4.572 -0.9676  0.6299  0.2952
 3117SOL    HW1 9729   2.645   0.418   4.549 -0.2310  0.7963 -1.3710
 3117SOL    HW2 9730   2.644   0.518   4.662  0.7049 -2.0593  1.2911
 3118SOL     OW 9731   0.903   5.008   6.712 -0.2431  0.2222 -0.0977
 3118SOL    HW1 9732   0.808   5.006   6.702 -0.3432 -0.1427  0.8347
 3118SOL    HW2 9733   0.921   5.092   6.753 -0.1831  0.2106 -0.0995
 3119SOL     OW 9734   6.127   4.925   6.104  0.5385 -0.1092 -0.1889
 3119SOL    HW1 9735   6.049   4.921   6.159  1.9824 -2.0307  1.9079
 3119SOL    HW2 9736   6.178   4.997   6.140  0.1638  0.5845 -1.0040
 3120SOL     OW 9737   5.881   6.116   1.577 -0.3614 -0.1383  0.4338
 3120SOL    HW1 9738   5.868   6.035   1.529  2.1253 -1.1035  1.2107
 3120SOL    HW2 9739   5.880   6.090   1.669  1.0194  0.5663  0.6818
 3121SOL     OW 9740   5.984   6.653   2.542 -0.1065  0.0464 -0.7036
 3121SOL    HW1 9741   5.938   6.570   2.529  0.9364 -0.6768  0.0431
 3121SOL    HW2 9742   5.970   6.701   2.461 -1.4160 -0.5092 -0.8406
 3122SOL     OW 9743   4.939   3.109   5.959 -0.2915  0.0421 -0.7931
 3122SOL    HW1 9744   5.029   3.078   5.964 -0.8992 -2.3473 -2.8029
 3122SOL    HW2 9745   4.913   3.124   6.050  1.9454  0.2830 -0.1573
 3123SOL     OW 9746   3.672   3.963   2.436  0.1945 -0.0403  0.0424
 3123SOL    HW1 9747   3.696   3.870   2.434 -0.4722 -0.2165  0.0035
 3123SOL    HW2 9748   3.657   3.982   2.529  3.9454  1.0068  0.5995
 3124SOL     OW 9749   6.351   1.358   6.676  0.2598 -0.1231  0.6946
 3124SOL    HW1 9750   6.295   1.280   6.679  1.4962 -1.0938 -0.2704
 3124SOL    HW2 9751   6.406   1.345   6.598 -0.7676  2.6100 -0.6413
 3125SOL     OW 9752   1.843   1.540   3.897  0.4252  0.0637 -0.1571
 3125SOL    HW1 9753   1.808   1.608   3.840  1.0347  0.4012 -0.1414
 3125SOL    HW2 9754   1.910   1.585   3.949  1.7873 -0.8344 -1.0786
 3126SOL     OW 9755   1.809   1.528   4.337  0.1818  0.0646  0.6322
 3126SOL    HW1 9756   1.825   1.491   4.424 -0.0795 -0.8095  0.3073
 3126SOL    HW2 9757   1.897   1.540   4.300  0.3965  1.8160  1.5550
 3127SOL     OW 9758   5.311   6.219   2.838 -0.2969  0.0773 -0.2357
 3127SOL    HW1 9759   5.261   6.208   2.920  0.4344  1.4295  0.4337
 3127SOL    HW2 9760   5.402   6.227   2.867  0.0784 -0.3183 -1.2749
 3128SOL     OW 9761   6.298   0.486   0.625  0.3809 -0.2468 -0.5735
 3128SOL    HW1 9762   6.255   0.565   0.594  1.7566  0.9469  0.4204
 3128SOL    HW2 9763   6.251   0.463   0.706 -0.0326 -0.4786 -0.8750
 3129SOL     OW 9764   5.179   5.888   1.525 -0.0690 -0.0663  0.0186
 3129SOL    HW1 9765   5.106   5.927   1.477 -0.3199 -1.2280 -0.5805
 3129SOL    HW2 9766   5.249   5.881   1.460 -0.6468 -2.3272 -0.4586
 3130SOL     OW 9767   1.485   6.357   2.228 -0.2641  0.1377 -0.4609
 3130SOL    HW1 9768   1.492   6.364   2.323 -0.9403  0.7394 -0.4461
 3130SOL    HW2 9769   1.572   6.331   2.199  0.0548  0.3477  0.2837
 3131SOL     OW 9770   4.983   0.445   5.519  0.1345 -0.2981 -0.0840
 3131SOL    HW1 9771   4.930   0.511   5.564 -0.3701  0.2249 -1.3840
 3131SOL    HW2 9772   4.996   0.481   5.431  3.5923  0.1197  0.4592
 3132SOL     OW 9773   2.416   3.556   5.348 -0.9466 -0.1235  0.0479
 3132SOL    HW1 9774   2.502   3.527   5.316 -0.9227  2.0367 -2.1282
 3132SOL    HW2 9775   2.354   3.500   5.302 -0.7854 -0.9086  0.7463
 3133SOL     OW 9776   1.735   1.539   5.931 -0.5372  0.7964  0.1741
 3133SOL    HW1 9777   1.761   1.448   5.920 -0.0200  1.1157 -1.7001
 3133SOL    HW2 9778   1.801   1.577   5.988  0.4182  0.4565 -0.6716
 3134SOL     OW 9779   5.880   6.816   2.316  0.3213 -0.1200 -0.1490
 3134SOL    HW1 9780   5.856   6.890   2.372 -0.0508 -1.7557  1.9979
 3134SOL    HW2 9781   5.800   6.796   2.267  0.8014  1.6620 -1.8125
 3135SOL     OW 9782   2.823   4.808   3.678 -0.0227 -0.8012  0.4216
 3135SOL    HW1 9783   2.807   4.777   3.767  1.6890 -1.9558  0.3841
 3135SOL    HW2 9784   2.805   4.731   3.623  0.1042 -0.4477 -0.1196
 3136SOL     OW 9785   3.965   5.116   2.028 -0.0511 -0.1923 -0.3008
 3136SOL    HW1 9786   3.954   5.096   1.935  0.1757 -0.0581 -0.3576
 3136SOL    HW2 9787   3.967   5.212   2.031  0.4881 -0.2041 -0.2230
 3137SOL     OW 9788   1.484   1.254   6.490 -0.2163 -0.2496 -0.1629
 3137SOL    HW1 9789   1.511   1.172   6.448 -0.8070 -1.5313  1.7879
 3137SOL    HW2 9790   1.402   1.277   6.447 -1.2553 -1.9989  0.7576
 3138SOL     OW 9791   3.617   3.456   6.214  0.5682  0.6335 -0.3339
 3138SOL    HW1 9792   3.697   3.459   6.162 -0.1006  1.9045 -1.3760
 3138SOL    HW2 9793   3.635   3.513   6.289  0.9041  0.2966 -0.1582
 3139SOL     OW 9794   0.001   4.120   3.626 -0.0177 -0.0892  0.0480
 3139SOL    HW1 9795   0.057   4.051   3.590 -0.1104 -1.1239  1.8063
 3139SOL    HW2 9796   0.063   4.185   3.660  0.0736  0.2778 -0.7954
 3140SOL     OW 9797   1.902   5.450   1.202  0.1092  0.0734  0.4218
 3140SOL    HW1 9798   1.951   5.370   1.222 -0.7441 -1.2151 -2.1443
 3140SOL    HW2 9799   1.969   5.511   1.171  0.4299 -1.0059 -1.1869
 3141SOL     OW 9800   6.304   1.733   4.922 -0.1930  0.2527 -0.1084
 3141SOL    HW1 9801   6.324   1.742   5.015 -0.2329  0.0500 -0.0796
 3141SOL    HW2 9802   6.367   1.791   4.878 -0.9609  1.3039  0.1186
 3142SOL     OW 9803   1.101   5.242   2.461  0.1175  0.1241  0.3874
 3142SOL    HW1 9804   1.124   5.178   2.528 -0.8246 -0.7836 -0.1259
 3142SOL    HW2 9805   1.075   5.320   2.510 -0.8448 -0.6292  1.1028
 3143SOL     OW 9806   3.448   2.772   3.460 -0.0663 -0.1272 -0.2970
 3143SOL    HW1 9807   3.512   2.843   3.469  0.3866 -0.5257 -0.3165
 3143SOL    HW2 9808   3.490   2.709   3.402 -1.7001  0.9722 -2.8571
 3144SOL     OW 9809   2.229   4.229   4.262  0.2145 -0.1880 -0.3908
 3144SOL    HW1 9810   2.236   4.139   4.231 -1.6188  0.0422 -1.6379
 3144SOL    HW2 9811   2.312   4.270   4.237  0.0081 -0.8420 -2.3186
 3145SOL     OW 9812   1.793   5.566   5.404 -0.5718  0.2215  0.0157
 3145SOL    HW1 9813   1.742   5.647   5.404 -0.1469  0.6172 -3.5724
 3145SOL    HW2 9814   1.728   5.496   5.407 -0.9466  0.5740  2.9531
 3146SOL     OW 9815   5.255   3.515   3.562 -0.0338 -0.1377 -0.3082
 3146SOL    HW1 9816   5.222   3.523   3.651 -1.8845  0.2356 -0.9739
 3146SOL    HW2 9817   5.292   3.602   3.542 -1.5966  0.5036 -0.5983
 3147SOL     OW 9818   4.230   5.470   6.380 -0.2926 -0.5399 -0.1428
 3147SOL    HW1 9819   4.324   5.459   6.390 -0.1320 -1.2295 -2.0372
 3147SOL    HW2 9820   4.207   5.416   6.304 -2.2992 -0.7837  0.5571
 3148SOL     OW 9821   6.177   0.208   2.609  0.2966 -0.4437 -0.4855
 3148SOL    HW1 9822   6.162   0.123   2.653 -1.1120 -0.7878 -1.5705
 3148SOL    HW2 9823   6.246   0.190   2.545  2.0265 -0.0518  1.1768
 3149SOL     OW 9824   6.218   1.455   1.680 -0.5461 -0.9494  0.8413
 3149SOL    HW1 9825   6.252   1.469   1.592 -2.7523  0.9905  0.1955
 3149SOL    HW2 9826   6.216   1.360   1.690 -1.1741 -1.2665 -1.6040
 3150SOL     OW 9827   4.991   6.006   1.388  0.2639  0.1529  0.5425
 3150SOL    HW1 9828   4.919   5.943   1.383 -1.5833  2.1299  0.9001
 3150SOL    HW2 9829   4.996   6.044   1.300  1.3613 -0.4316  0.3307
 3151SOL     OW 9830   4.476   4.698   0.682  0.1920 -0.2952  0.2055
 3151SOL    HW1 9831   4.567   4.728   0.692  0.6952 -1.3262 -0.9347
 3151SOL    HW2 9832   4.474   4.659   0.594 -1.9915  1.8948 -0.8529
 3152SOL     OW 9833   1.734   2.847   4.838 -0.5504  0.0683  0.1515
 3152SOL    HW1 9834   1.671   2.805   4.897 -1.9146 -0.2423 -1.4284
 3152SOL    HW2 9835   1.811   2.863   4.892 -1.1055 -1.7137  1.5778
 3153SOL     OW 9836   3.581   1.524   3.114 -0.1175 -0.3317 -0.4703
 3153SOL    HW1 9837   3.598   1.615   3.090 -2.4995  0.1375 -0.6836
 3153SOL    HW2 9838   3.543   1.485   3.035  0.3235 -1.3582 -0.1986
 3154SOL     OW 9839   2.426   3.514   2.193  0.2609  0.7056  0.2879
 3154SOL    HW1 9840   2.366   3.505   2.118 -0.4336 -0.3584  0.9431
 3154SOL    HW2 9841   2.386   3.461   2.262  2.0944 -0.2693  0.6637
 3155SOL     OW 9842   6.345   1.512   4.002 -0.0650  0.0785 -0.7136
 3155SOL    HW1 9843   6.408   1.570   3.960 -0.2114  0.4828 -0.3916
 3155SOL    HW2 9844   6.397   1.440   4.037  0.5190  1.3118  1.1819
 3156SOL     OW 9845   5.231   4.986   5.734 -0.3972  0.1252  0.0013
 3156SOL    HW1 9846   5.195   4.967   5.647 -0.9714 -0.6187  0.3894
 3156SOL    HW2 9847   5.155   4.983   5.792  0.1599 -0.6394  0.7194
 3157SOL     OW 9848   3.830   6.657   1.317 -0.6958  0.1163 -0.1803
 3157SOL    HW1 9849   3.909   6.711   1.323  0.6479 -1.4979 -2.1007
 3157SOL    HW2 9850   3.854   6.575   1.361 -1.1716 -0.5175 -1.0776
 3158SOL     OW 9851   0.982   6.228   4.177  0.1640  0.5974  0.3257
 3158SOL    HW1 9852   0.997   6.314   4.218 -0.4509  0.0553  1.7596
 3158SOL    HW2 9853   0.982   6.246   4.083  0.3717  2.1132  0.5859
 3159SOL     OW 9854   5.215   6.332   0.596  0.1996 -0.0975 -0.0713
 3159SOL    HW1 9855   5.307   6.326   0.620  0.5079  1.6041 -0.6592
 3159SOL    HW2 9856   5.171   6.359   0.677  0.1287 -1.2841  0.3080
 3160SOL     OW 9857   5.886   5.394   1.497  0.1347  0.0675 -0.2762
 3160SOL    HW1 9858   5.897   5.420   1.406 -1.4593  1.9885  0.0193
 3160SOL    HW2 9859   5.935   5.459   1.547  0.4055 -0.5528  0.2855
 3161SOL     OW 9860   4.901   1.531   2.386  0.4525 -0.0685  0.0576
 3161SOL    HW1 9861   4.852   1.452   2.366 -2.1707  1.2731  0.6293
 3161SOL    HW2 9862   4.892   1.586   2.308  0.2225  0.5449  0.4997
 3162SOL     OW 9863   4.530   5.016   4.531 -0.1928 -0.1049 -0.1881
 3162SOL    HW1 9864   4.546   4.934   4.485  1.5024  1.0364 -1.7912
 3162SOL    HW2 9865   4.501   4.990   4.618 -1.2515 -2.3669 -1.1389
 3163SOL     OW 9866   1.135   0.619   4.901 -0.7784 -0.2395  0.1275
 3163SOL    HW1 9867   1.212   0.641   4.849  0.0825 -0.8932  1.0835
 3163SOL    HW2 9868   1.169   0.603   4.989 -2.0656 -0.1531  0.6661
 3164SOL     OW 9869   2.254   5.776   5.282  0.5397  0.3025 -0.1590
 3164SOL    HW1 9870   2.300   5.833   5.221 -0.5202  2.2107  0.7410
 3164SOL    HW2 9871   2.279   5.808   5.369  0.4829 -1.0904  0.4064
 3165SOL     OW 9872   6.128   3.291   4.426 -0.0090  0.2428 -0.0100
 3165SOL    HW1 9873   6.074   3.294   4.505  1.2842  0.0129  0.9006
 3165SOL    HW2 9874   6.111   3.375   4.382 -0.5765  0.4567  0.6080
 3166SOL     OW 9875   2.098   3.512   0.891  0.1404 -0.1752 -0.1161
 3166SOL    HW1 9876   2.172   3.526   0.832  0.1271 -0.9977 -0.3430
 3166SOL    HW2 9877   2.085   3.597   0.934 -0.6792  0.8331 -2.2350
 3167SOL     OW 9878   2.060   0.062   0.316 -0.4950  0.3231 -0.2254
 3167SOL    HW1 9879   1.997   0.132   0.333 -1.5562 -0.9035  1.2238
 3167SOL    HW2 9880   2.091   0.078   0.227 -1.7016  1.8548 -0.4099
 3168SOL     OW 9881   5.958   4.727   2.799  0.2933 -0.0460 -0.0115
 3168SOL    HW1 9882   5.883   4.759   2.849  0.7813  0.3956  0.4473
 3168SOL    HW2 9883   5.935   4.746   2.708  0.5557  1.6220  0.2340
 3169SOL     OW 9884   5.188   4.182   0.377 -0.2207  0.0521  0.0154
 3169SOL    HW1 9885   5.227   4.098   0.401 -0.7297 -0.4030 -0.7164
 3169SOL    HW2 9886   5.228   4.205   0.294 -1.3025 -0.3142 -0.6371
 3170SOL     OW 9887   3.467   1.056   6.731  0.4188  0.2191  0.9000
 3170SOL    HW1 9888   3.434   1.005   6.805  1.1007 -0.5687  0.6782
 3170SOL    HW2 9889   3.514   1.128   6.771  1.0875 -0.3989  1.2500
 3171SOL     OW 9890   6.330   5.182   3.578  0.2349  0.2861  0.0317
 3171SOL    HW1 9891   6.346   5.092   3.607 -0.1208 -0.1409 -1.0361
 3171SOL    HW2 9892   6.397   5.197   3.511 -0.2557  0.5023 -0.4183
 3172SOL     OW 9893   5.093   3.881   2.052 -0.5902  0.2874 -0.0624
 3172SOL    HW1 9894   5.116   3.814   2.116 -1.9156  1.4673  1.7397
 3172SOL    HW2 9895   5.036   3.941   2.100  0.5582  2.7333 -1.5681
 3173SOL     OW 9896   5.026   2.849   5.341  0.4536 -0.0283 -0.0081
 3173SOL    HW1 9897   4.967   2.864   5.414  2.1664  1.4300  1.1704
 3173SOL    HW2 9898   5.109   2.824   5.381  1.2011 -0.0664 -1.4942
 3174SOL     OW 9899   5.953   4.213   2.162 -0.4934  0.0609  0.2481
 3174SOL    HW1 9900   6.022   4.219   2.228  0.8511  2.2309 -1.2044
 3174SOL    HW2 9901   5.921   4.303   2.152 -1.7061 -0.4602 -0.9981
 3175SOL     OW 9902   3.291   4.969   3.634 -0.3608  0.3308  0.3317
 3175SOL    HW1 9903   3.349   5.042   3.609  0.7962 -0.9749 -1.0035
 3175SOL    HW2 9904   3.323   4.942   3.720 -0.5930  1.1583  0.6967
 3176SOL     OW 9905   5.601   6.223   2.358  0.0344  0.1680  0.9143
 3176SOL    HW1 9906   5.567   6.221   2.447  0.4609 -0.0679  1.0736
 3176SOL    HW2 9907   5.686   6.180   2.363 -0.4428 -0.8991  0.1673
 3177SOL     OW 9908   5.998   0.387   0.420 -0.3512 -0.0525  0.1497
 3177SOL    HW1 9909   6.072   0.408   0.364 -0.2708  1.2220  0.6867
 3177SOL    HW2 9910   5.979   0.469   0.466 -1.3856 -0.6520  0.8418
 3178SOL     OW 9911   6.650   5.856   1.835 -0.2427 -0.0376 -0.2051
 3178SOL    HW1 9912   6.622   5.896   1.917  1.3196 -0.6113  0.6388
 3178SOL    HW2 9913   6.575   5.868   1.776 -0.8174  1.7321  0.8176
 3179SOL     OW 9914   0.269   2.218   2.859 -0.1901 -0.0933  0.1308
 3179SOL    HW1 9915   0.284   2.310   2.838  0.5311  0.2293  1.8956
 3179SOL    HW2 9916   0.181   2.215   2.895  1.1517  0.7392  3.9604
 3180SOL     OW 9917   4.320   3.189   5.155  0.0708 -0.1742 -0.4298
 3180SOL    HW1 9918   4.275   3.146   5.083 -2.4904  1.8800 -0.2185
 3180SOL    HW2 9919   4.293   3.141   5.233 -0.1654 -0.1454 -0.4937
 3181SOL     OW 9920   2.310   1.497   1.323  0.4038 -0.3492 -0.3474
 3181SOL    HW1 9921   2.275   1.494   1.412  0.5424 -1.7909 -0.3190
 3181SOL    HW2 9922   2.315   1.590   1.303  1.4858  0.0886  1.6092
 3182SOL     OW 9923   3.935   6.835   2.446 -0.0951 -0.4891  0.1221
 3182SOL    HW1 9924   3.927   6.787   2.363 -0.9617  2.7066 -1.8488
 3182SOL    HW2 9925   3.849   6.824   2.488 -0.3447 -0.5685 -0.3965
 3183SOL     OW 9926   3.013   6.206   2.076  0.0015 -0.3040  0.4885
 3183SOL    HW1 9927   3.064   6.280   2.107  1.0757 -1.2057  0.9424
 3183SOL    HW2 9928   3.006   6.219   1.981 -2.8123  2.1605  0.8783
 3184SOL     OW 9929   0.088   2.033   2.244 -0.5745 -0.7506  0.2240
 3184SOL    HW1 9930   0.130   2.089   2.308 -0.8376 -1.0081  0.6270
 3184SOL    HW2 9931   0.158   2.009   2.183  0.0134 -1.6504  1.2091
 3185SOL     OW 9932   0.150   5.806   6.551  1.0716  0.0450 -0.3580
 3185SOL    HW1 9933   0.086   5.783   6.484 -0.6335  1.4565  0.6961
 3185SOL    HW2 9934   0.209   5.731   6.555 -0.9034 -1.6290 -0.9213
 3186SOL     OW 9935   1.029   1.874   1.749 -0.2723 -0.0638 -0.4090
 3186SOL    HW1 9936   1.040   1.968   1.757  0.6623 -0.1804 -0.1907
 3186SOL    HW2 9937   1.118   1.839   1.753 -0.6932 -1.0561  0.7302
 3187SOL     OW 9938   4.529   5.872   5.677 -0.2608 -0.3575  0.0263
 3187SOL    HW1 9939   4.624   5.878   5.665 -0.0034 -0.3929  1.8822
 3187SOL    HW2 9940   4.513   5.779   5.692 -0.6030 -0.3431 -0.2253
 3188SOL     OW 9941   5.869   2.567   3.157  0.5612 -0.1556 -0.5839
 3188SOL    HW1 9942   5.860   2.472   3.155 -0.4988 -0.0703 -0.1421
 3188SOL    HW2 9943   5.890   2.587   3.248  0.7090  0.0505 -0.6604
 3189SOL     OW 9944   1.577   6.671   0.980  0.1037 -0.0452  0.3680
 3189SOL    HW1 9945   1.495   6.633   0.949  0.2551 -0.5067  0.5108
 3189SOL    HW2 9946   1.590   6.631   1.067  0.0473  0.6697  0.7148
 3190SOL     OW 9947   3.895   0.585   2.615  0.3236  0.2702  0.3231
 3190SOL    HW1 9948   3.826   0.614   2.674 -1.1053 -2.1838  0.0014
 3190SOL    HW2 9949   3.977   0.602   2.662 -0.6048  1.2093  1.6478
 3191SOL     OW 9950   5.416   5.413   1.148  0.1128  0.3159 -0.4170
 3191SOL    HW1 9951   5.322   5.413   1.167 -0.0369 -0.7198 -1.0852
 3191SOL    HW2 9952   5.423   5.371   1.062  0.9967  2.4646 -1.4821
 3192SOL     OW 9953   0.604   5.729   3.456  0.3819  0.5424  0.2829
 3192SOL    HW1 9954   0.639   5.800   3.510  2.3917 -0.4411  0.3684
 3192SOL    HW2 9955   0.618   5.650   3.509  0.1918 -0.1701 -0.7013
 3193SOL     OW 9956   4.042   4.355   6.572 -0.0900  0.3550  0.2932
 3193SOL    HW1 9957   4.124   4.310   6.554 -0.3748 -0.8617  1.8046
 3193SOL    HW2 9958   4.067   4.447   6.584  0.8550  0.2107 -0.4607
 3194SOL     OW 9959   5.300   5.659   1.647 -0.6436  0.2729 -0.2482
 3194SOL    HW1 9960   5.268   5.740   1.608 -3.1788  0.0359  1.1045
 3194SOL    HW2 9961   5.342   5.612   1.575 -2.5139  1.1248 -2.0128
 3195SOL     OW 9962   3.299   3.793   5.686  0.5283 -0.1020  0.0583
 3195SOL    HW1 9963   3.217   3.821   5.647  0.1838 -1.7454 -0.4810
 3195SOL    HW2 9964   3.274   3.731   5.755  1.2942 -0.3583  0.1224
 3196SOL     OW 9965   3.984   0.330   0.951  0.1829 -0.3243 -0.2489
 3196SOL    HW1 9966   4.076   0.306   0.955  0.5780  1.1808  1.8392
 3196SOL    HW2 9967   3.938   0.257   0.993  0.3241 -1.3374 -1.8095
 3197SOL     OW 9968   3.801   4.225   6.542 -0.4750  0.3751  0.2890
 3197SOL    HW1 9969   3.874   4.282   6.565 -1.5440  1.1883  1.7999
 3197SOL    HW2 9970   3.726   4.262   6.588 -1.3701 -1.8029  0.6861
 3198SOL     OW 9971   2.675   0.536   2.207  0.5890 -0.3373 -0.6533
 3198SOL    HW1 9972   2.667   0.610   2.267  1.0904 -2.2849  2.0093
 3198SOL    HW2 9973   2.637   0.567   2.125 -2.4220  1.7379  1.3135
 3199SOL     OW 9974   2.983   0.654   1.455  0.0627  0.1265  0.0081
 3199SOL    HW1 9975   2.996   0.619   1.543  2.1677  1.4494  0.3097
 3199SOL    HW2 9976   3.030   0.593   1.398  0.7646  0.5334  0.1282
 3200SOL     OW 9977   0.491   4.673   5.866 -0.4593  0.0757  0.1895
 3200SOL    HW1 9978   0.496   4.768   5.855 -1.6458 -0.0698 -2.3535
 3200SOL    HW2 9979   0.570   4.640   5.824 -0.2410 -0.1221  0.7360
 3201SOL     OW 9980   0.114   6.229   3.670  0.5180  0.7487 -0.7835
 3201SOL    HW1 9981   0.195   6.224   3.721 -0.1216  0.5888  0.2633
 3201SOL    HW2 9982   0.045   6.220   3.736 -0.3364 -0.2660 -1.7906
 3202SOL     OW 9983   2.972   3.671   2.998 -0.1117 -0.3646 -0.1920
 3202SOL    HW1 9984   2.927   3.754   3.015 -0.0413 -0.1935 -0.8040
 3202SOL    HW2 9985   3.040   3.693   2.934  0.0903 -0.8455 -0.1517
 3203SOL     OW 9986   2.530   0.466   0.150  0.2463 -0.3757 -0.5390
 3203SOL    HW1 9987   2.539   0.550   0.194 -0.1887  0.6598 -2.3015
 3203SOL    HW2 9988   2.530   0.401   0.220 -0.0708  1.1385  0.9142
 3204SOL     OW 9989   3.570   2.883   0.020 -0.1399 -0.0209 -0.9990
 3204SOL    HW1 9990   3.522   2.832   0.085  0.3303  1.1854  0.3146
 3204SOL    HW2 9991   3.511   2.954  -0.004 -0.0260 -0.0467 -1.3773
 3205SOL     OW 9992   2.108   1.670   6.344 -0.2140  0.2050  0.5405
 3205SOL    HW1 9993   2.060   1.648   6.424 -0.1272  1.7177  1.0217
 3205SOL    HW2 9994   2.154   1.751   6.364  1.4165 -0.4336 -0.3996
 3206SOL     OW 9995   0.611   5.594   1.978  0.3594 -0.3803  0.0798
 3206SOL    HW1 9996   0.704   5.585   2.000  0.8889  0.7370 -1.5580
 3206SOL    HW2 9997   0.589   5.684   2.001 -0.6886 -0.9779  1.6073
 3207SOL     OW 9998   1.249   3.820   3.983 -0.7308 -0.2213 -0.0056
 3207SOL    HW1 9999   1.196   3.899   3.991 -0.3087  0.2458 -1.4805
 3207SOL    HW210000   1.189   3.755   3.945 -0.3796  0.2256 -1.4062
 3208SOL     OW10001   5.843   4.566   6.440  0.3423  0.1587  0.2556
 3208SOL    HW110002   5.931   4.602   6.453  0.5268 -0.0103 -0.4624
 3208SOL    HW210003   5.853   4.472   6.455  0.2176  0.1770  0.4605
 3209SOL     OW10004   0.082   3.544   1.775  0.1878  0.3703 -0.4841
 3209SOL    HW110005   0.131   3.621   1.803  1.4467 -1.4775  3.0759
 3209SOL    HW210006   0.007   3.540   1.836 -0.7670 -0.3581 -1.6545
 3210SOL     OW10007   1.493   0.009   2.479  0.0239  0.5549 -0.0953
 3210SOL    HW110008   1.497  -0.027   2.391 -0.5402  0.4976 -0.1021
 3210SOL    HW210009   1.435  -0.051   2.527  2.9438 -1.4340  1.2761
 3211SOL     OW10010   0.668   4.683   6.393 -0.1729  0.2798  0.4530
 3211SOL    HW110011   0.682   4.711   6.484 -1.4039 -0.1679  0.7922
 3211SOL    HW210012   0.584   4.721   6.369 -0.8694 -1.3495  0.2146
 3212SOL     OW10013   2.478   2.643   6.485  0.5672 -0.0084  0.4597
 3212SOL    HW110014   2.565   2.607   6.466  0.1909 -0.6703 -0.0332
 3212SOL    HW210015   2.473   2.642   6.581  0.8714 -0.5402  0.4762
 3213SOL     OW10016   6.651   2.132   4.630  0.0565 -0.1480  0.0534
 3213SOL    HW110017   6.659   2.225   4.648  1.3597 -0.3929  0.8929
 3213SOL    HW210018   6.627   2.127   4.538 -1.1642  1.0326  0.2930
 3214SOL     OW10019   0.715   0.311   0.779 -0.3283  0.4097 -0.1627
 3214SOL    HW110020   0.682   0.394   0.812  0.9824  1.1116 -0.5303
 3214SOL    HW210021   0.799   0.299   0.824 -0.2717 -0.4802 -0.4731
 3215SOL     OW10022   3.684   2.828   6.517 -0.2676  0.5977  0.2894
 3215SOL    HW110023   3.665   2.905   6.464  0.3895 -0.0162 -0.8851
 3215SOL    HW210024   3.601   2.806   6.559 -0.5982  1.5890  0.1739
 3216SOL     OW10025   5.162   4.467   4.791 -0.3868  0.3760 -0.5323
 3216SOL    HW110026   5.067   4.456   4.798 -0.4910  1.8016  1.0347
 3216SOL    HW210027   5.180   4.548   4.840  1.7580 -0.4316  0.1246
 3217SOL     OW10028   4.184   4.274   3.163  0.0694 -0.0758  0.5074
 3217SOL    HW110029   4.194   4.208   3.094  1.3831 -2.3861  2.7218
 3217SOL    HW210030   4.213   4.356   3.123  0.4710 -1.2302 -1.7310
 3218SOL     OW10031   4.313   6.409   0.404 -0.1906 -0.2469  0.1653
 3218SOL    HW110032   4.284   6.318   0.412  0.8608 -0.6647 -0.5645
 3218SOL    HW210033   4.242   6.460   0.443 -1.7002 -1.2329 -1.1662
 3219SOL     OW10034   2.329   3.601   3.374  0.8085  0.0597 -0.1095
 3219SOL    HW110035   2.389   3.565   3.308  1.8013  0.5324  0.5043
 3219SOL    HW210036   2.387   3.647   3.435 -0.2950  1.4215 -0.0677
 3220SOL     OW10037   4.207   1.214   1.304  0.5672 -0.4969  0.0793
 3220SOL    HW110038   4.174   1.184   1.389  0.6811 -0.8536  0.0007
 3220SOL    HW210039   4.147   1.176   1.240  0.2201  0.1387  0.0224
 3221SOL     OW10040   3.179   1.153   3.805 -0.4408 -0.7542 -0.6078
 3221SOL    HW110041   3.151   1.167   3.896 -1.3369  2.4339 -1.2706
 3221SOL    HW210042   3.265   1.111   3.814  0.9035  2.1129  1.8864
 3222SOL     OW10043   0.419   1.182   5.703  0.4547 -0.2477  0.3767
 3222SOL    HW110044   0.346   1.129   5.671  0.2233  0.4943 -0.3573
 3222SOL    HW210045   0.386   1.223   5.782 -0.5173  1.3499 -0.8043
 3223SOL     OW10046   1.039   1.522   0.009  0.3034  0.3767  0.2641
 3223SOL    HW110047   0.952   1.493  -0.018  0.0648  0.2222  1.1953
 3223SOL    HW210048   1.035   1.618   0.005  0.6191  0.3562 -1.3088
 3224SOL     OW10049   4.188   5.702   5.068 -0.1020 -0.4590 -0.4746
 3224SOL    HW110050   4.162   5.794   5.079 -3.2626 -1.3312  0.3643
 3224SOL    HW210051   4.146   5.675   4.987 -0.8968 -1.6734  0.3168
 3225SOL     OW10052   0.322   4.321   4.771 -0.8244  0.5246 -0.0982
 3225SOL    HW110053   0.280   4.366   4.843 -0.1531  0.0635  0.5979
 3225SOL    HW210054   0.412   4.306   4.801  0.0734  2.0971 -1.7998
 3226SOL     OW10055   3.425   3.118   2.395 -0.0247  0.8069  0.3455
 3226SOL    HW110056   3.371   3.055   2.443  1.8014 -0.1198  1.3067
 3226SOL    HW210057   3.414   3.200   2.443 -2.1556  1.1925 -0.7107
 3227SOL     OW10058   6.790   2.613   0.965  0.0711  0.4306 -0.2811
 3227SOL    HW110059   6.806   2.521   0.944  0.0330  0.9368 -2.8899
 3227SOL    HW210060   6.768   2.613   1.058  1.0802 -2.0540  0.0362
 3228SOL     OW10061   6.040   0.112   5.141  0.3378 -0.7518 -0.4532
 3228SOL    HW110062   5.949   0.110   5.173  0.8737 -1.1415  1.1664
 3228SOL    HW210063   6.058   0.021   5.116  1.2356 -1.4256  2.2848
 3229SOL     OW10064   3.471   0.570   6.185  0.1707 -0.8300  0.1856
 3229SOL    HW110065   3.460   0.550   6.278  1.7956 -0.4043  0.5014
 3229SOL    HW210066   3.561   0.601   6.178 -0.0385 -0.5220 -1.4838
 3230SOL     OW10067   3.366   1.288   2.158  0.3677  0.3770 -0.2085
 3230SOL    HW110068   3.457   1.268   2.135 -0.1481 -2.5746 -0.1145
 3230SOL    HW210069   3.359   1.259   2.250 -1.0958 -1.3703 -0.8098
 3231SOL     OW10070   4.104   1.588   1.964  0.3356 -0.6695 -0.3594
 3231SOL    HW110071   4.084   1.597   2.057 -1.1210 -1.3617 -0.5749
 3231SOL    HW210072   4.190   1.547   1.961  0.5628 -0.2796  0.6762
 3232SOL     OW10073   4.824   2.313   3.288 -0.4748 -0.3948 -0.4134
 3232SOL    HW110074   4.895   2.355   3.337 -0.5618  0.2806 -0.8495
 3232SOL    HW210075   4.816   2.226   3.327 -2.0238  0.8562  2.2708
 3233SOL     OW10076   5.079   4.632   3.991  0.0035  0.0418  0.0738
 3233SOL    HW110077   5.154   4.673   4.034  0.7232 -0.4106 -0.7086
 3233SOL    HW210078   5.106   4.541   3.978 -0.6605 -0.1126 -0.2610
 3234SOL     OW10079   2.563   5.718   2.221  0.2472 -0.1993 -0.5169
 3234SOL    HW110080   2.470   5.696   2.216  0.5835 -1.7405 -0.5455
 3234SOL    HW210081   2.576   5.747   2.312 -0.1905 -0.2697 -0.4310
 3235SOL     OW10082   2.003   4.888   2.217 -0.0705 -0.0786  0.3659
 3235SOL    HW110083   1.941   4.859   2.285 -1.3499 -1.4447 -1.2868
 3235SOL    HW210084   2.055   4.810   2.198  2.1783  1.0124  1.6288
 3236SOL     OW10085   3.858   0.261   2.384  0.6798  0.8250 -0.1987
 3236SOL    HW110086   3.898   0.180   2.414 -0.6614 -0.5493 -1.8620
 3236SOL    HW210087   3.927   0.304   2.334  0.6973 -0.6649 -1.5730
 3237SOL     OW10088   0.216   0.496   4.099  0.2402 -0.2987  0.3272
 3237SOL    HW110089   0.122   0.509   4.112 -0.0524 -1.3292 -0.5714
 3237SOL    HW210090   0.252   0.486   4.187 -0.7416 -1.3600  0.6301
 3238SOL     OW10091   6.412   0.047   0.394 -0.1667  0.1068  0.7638
 3238SOL    HW110092   6.450  -0.025   0.445 -2.7276 -0.5672  1.8728
 3238SOL    HW210093   6.380   0.108   0.459  0.0731  1.2384 -0.1501
 3239SOL     OW10094   1.668   2.454   4.927  0.2178  0.4479 -0.4755
 3239SOL    HW110095   1.653   2.485   4.838  0.1692 -0.5696 -0.8272
 3239SOL    HW210096   1.750   2.496   4.954 -0.0721  1.2177 -0.7787
 3240SOL     OW10097   1.464   3.988   1.016  0.0321 -0.0254 -0.2106
 3240SOL    HW110098   1.519   3.992   1.095  0.4719  0.3676 -0.5295
 3240SOL    HW210099   1.414   4.069   1.018 -1.2867 -0.8254  0.5972
 3241SOL     OW10100   6.160   1.421   1.310  0.1069  0.5909 -0.4420
 3241SOL    HW110101   6.081   1.405   1.362  0.8428 -1.8392  0.0528
 3241SOL    HW210102   6.206   1.490   1.357 -0.4959  0.2217  0.7308
 3242SOL     OW10103   0.020   1.676   4.098 -0.2011 -0.0516 -0.6479
 3242SOL    HW110104   0.110   1.709   4.098 -0.3269  0.4259  1.5077
 3242SOL    HW210105  -0.029   1.742   4.049  0.4996  0.0315 -1.2585
 3243SOL     OW10106   2.405   1.654   6.248  0.4679 -0.5847 -0.4759
 3243SOL    HW110107   2.326   1.685   6.204  1.1924  1.1540 -0.6427
 3243SOL    HW210108   2.422   1.568   6.210  0.2089  0.2089 -2.5040
 3244SOL     OW10109   4.021   5.663   2.679 -0.0263  0.2977 -0.0520
 3244SOL    HW110110   4.070   5.746   2.674 -1.8712  1.5368  1.0268
 3244SOL    HW210111   3.963   5.665   2.603 -1.7026  1.1829  1.1748
 3245SOL     OW10112   0.886   4.986   2.490  0.7224 -0.1133 -0.4570
 3245SOL    HW110113   0.949   5.008   2.558  2.3211  2.5576 -2.5941
 3245SOL    HW210114   0.829   5.062   2.483 -0.0440 -0.7373 -1.4399
 3246SOL     OW10115   6.768   6.038   4.872  0.1186  0.2666  0.0085
 3246SOL    HW110116   6.737   6.004   4.788 -0.1507  2.0748 -0.6653
 3246SOL    HW210117   6.786   5.960   4.925 -0.9797 -0.8871 -1.2591
 3247SOL     OW10118   3.060   4.686   5.560  0.3842  0.4336 -0.3887
 3247SOL    HW110119   3.019   4.758   5.609 -1.0874  0.4566 -1.5921
 3247SOL    HW210120   3.111   4.730   5.492  2.2076  0.3909  0.8799
 3248SOL     OW10121   1.367   4.048   5.762 -0.0889  0.2631 -0.0238
 3248SOL    HW110122   1.357   4.110   5.834 -2.3037 -1.4858  1.2902
 3248SOL    HW210123   1.397   4.102   5.688 -2.1893  2.9904  0.9312
 3249SOL     OW10124   3.435   1.006   6.182 -0.1932  0.2188 -0.1312
 3249SOL    HW110125   3.473   1.050   6.106 -0.9038  2.6538  0.8449
 3249SOL    HW210126   3.509   0.963   6.225  0.9188  2.1130 -0.0706
 3250SOL     OW10127   0.979   1.867   6.288 -1.0435  0.0916 -0.6472
 3250SOL    HW110128   1.039   1.920   6.235 -1.0097 -0.6737 -1.4126
 3250SOL    HW210129   1.013   1.874   6.377 -1.2349  1.6062 -0.6658
 3251SOL     OW10130   6.192   2.743   6.615  0.1374 -0.2033  0.2886
 3251SOL    HW110131   6.201   2.722   6.523  1.4394  1.9548 -0.1525
 3251SOL    HW210132   6.132   2.817   6.618  1.6885  1.0929  0.9165
 3252SOL     OW10133   4.797   1.796   2.853 -0.4792 -0.2920  0.1632
 3252SOL    HW110134   4.861   1.727   2.867 -0.2041 -0.0678  0.0249
 3252SOL    HW210135   4.787   1.801   2.758  0.2314  0.5117  0.1170
 3253SOL     OW10136   2.203   2.135   1.682  0.1630 -0.0215 -0.1038
 3253SOL    HW110137   2.293   2.103   1.690  0.3480  0.1900 -1.1961
 3253SOL    HW210138   2.149   2.056   1.690  0.4845 -0.2562 -0.2139
 3254SOL     OW10139   3.578   1.057   4.367  0.3238  0.0502  0.0326
 3254SOL    HW110140   3.622   0.979   4.332 -0.4282 -0.3568 -0.0128
 3254SOL    HW210141   3.642   1.127   4.354  0.6263 -0.3657 -0.8202
 3255SOL     OW10142   5.157   0.167   0.654 -0.7201 -0.0087  0.3075
 3255SOL    HW110143   5.207   0.112   0.715 -1.1743  2.0165  2.6670
 3255SOL    HW210144   5.221   0.229   0.620 -0.7265 -0.3325 -0.3019
 3256SOL     OW10145   6.772   3.430   1.573  0.3213  0.0630  0.0140
 3256SOL    HW110146   6.837   3.475   1.627 -0.6400  2.0230 -0.4008
 3256SOL    HW210147   6.825   3.375   1.514  1.4064 -1.6990  2.4478
 3257SOL     OW10148   4.802   6.204   4.386 -0.2345  0.0454 -0.7686
 3257SOL    HW110149   4.830   6.133   4.444 -1.6716 -1.5293 -1.8841
 3257SOL    HW210150   4.792   6.280   4.443  0.4255 -0.8884  0.6450
 3258SOL     OW10151   3.391   4.178   3.186  0.2662  0.2174  0.3556
 3258SOL    HW110152   3.388   4.120   3.110  2.3684 -1.0146  1.1425
 3258SOL    HW210153   3.345   4.131   3.255  0.7533  0.1046  0.6057
 3259SOL     OW10154   6.338   1.088   3.060  0.6800 -0.5650 -0.3655
 3259SOL    HW110155   6.336   1.184   3.060  1.6672 -0.5044  1.4270
 3259SOL    HW210156   6.299   1.064   2.976  1.2787  1.4099 -1.2784
 3260SOL     OW10157   1.022   0.757   2.046  0.3147  0.3251  0.0072
 3260SOL    HW110158   1.026   0.680   2.102  0.2661 -0.3444 -0.8924
 3260SOL    HW210159   0.936   0.796   2.065 -1.0507 -1.6000 -1.7515
 3261SOL     OW10160   4.511   3.554   2.145 -0.2596  0.5958  0.0626
 3261SOL    HW110161   4.451   3.625   2.122 -2.0651 -1.4606 -2.0179
 3261SOL    HW210162   4.475   3.517   2.225 -0.2695  0.9835  0.2381
 3262SOL     OW10163   4.058   6.032   4.146  0.7364  0.1332  0.1908
 3262SOL    HW110164   4.123   6.101   4.158  1.5049 -0.8811  2.5053
 3262SOL    HW210165   4.110   5.953   4.130  0.0403 -0.4914  0.9330
 3263SOL     OW10166   3.683   3.989   5.437 -0.0599 -0.1088 -0.0725
 3263SOL    HW110167   3.697   4.011   5.529  0.4065 -1.1749  0.1311
 3263SOL    HW210168   3.590   4.007   5.422  0.1398  1.2891  0.2407
 3264SOL     OW10169   6.165   2.000   2.976  0.3987 -0.5128 -0.2631
 3264SOL    HW110170   6.211   1.972   2.897  1.9646 -2.2673  1.1534
 3264SOL    HW210171   6.179   2.095   2.980 -0.5454 -0.2201 -2.5248
 3265SOL     OW10172   5.383   5.856   3.431 -0.1053 -0.1958 -0.4748
 3265SOL    HW110173   5.374   5.910   3.509 -1.4551 -0.2289 -0.5833
 3265SOL    HW210174   5.355   5.912   3.359  1.3693 -0.0826 -0.9924
 3266SOL     OW10175   3.474   2.760   3.084  0.0210 -0.6320  0.0125
 3266SOL    HW110176   3.419   2.708   3.025 -2.6877  2.1057 -0.1674
 3266SOL    HW210177   3.510   2.697   3.146 -1.2260 -2.9436 -1.4608
 3267SOL     OW10178   4.831   6.488   2.697 -0.3591 -0.4366 -0.1468
 3267SOL    HW110179   4.885   6.439   2.635  0.5461  0.4590 -0.0984
 3267SOL    HW210180   4.840   6.579   2.669 -1.1065 -0.1752  0.4313
 3268SOL     OW10181   1.377   0.637   4.319  0.5388 -0.0422 -0.2108
 3268SOL    HW110182   1.460   0.614   4.361 -0.5559 -1.5907  1.1589
 3268SOL    HW210183   1.362   0.568   4.255  0.9643  1.0038 -1.5067
 3269SOL     OW10184   1.884   2.324   5.660  0.7065  0.2861 -0.3693
 3269SOL    HW110185   1.808   2.282   5.619  0.3728  0.0382  0.4736
 3269SOL    HW210186   1.900   2.402   5.607  0.7863 -0.4427 -1.4347
 3270SOL     OW10187   5.573   6.840   2.682 -0.2112 -0.0168 -0.0048
 3270SOL    HW110188   5.569   6.930   2.713  1.2142  0.5885 -1.4058
 3270SOL    HW210189   5.559   6.846   2.587  0.4784 -1.1675 -0.2116
 3271SOL     OW10190   5.322   5.073   6.698 -0.1818 -0.1974 -0.0542
 3271SOL    HW110191   5.301   4.982   6.717  0.1096 -0.4130 -0.7441
 3271SOL    HW210192   5.361   5.071   6.611  0.8142  0.4537  0.3595
 3272SOL     OW10193   4.415   3.477   6.582  0.1118 -0.2224  0.0849
 3272SOL    HW110194   4.461   3.530   6.517 -0.3272 -0.2468 -0.2531
 3272SOL    HW210195   4.324   3.505   6.575 -0.5408 -2.4420 -1.5616
 3273SOL     OW10196   6.213   6.227   5.764 -0.6780 -0.0982 -0.9860
 3273SOL    HW110197   6.246   6.231   5.854 -0.0542 -0.0794 -1.2110
 3273SOL    HW210198   6.230   6.314   5.728 -1.0838 -0.0526 -1.0696
 3274SOL     OW10199   4.238   3.202   3.054 -0.1656  0.5072  0.4176
 3274SOL    HW110200   4.309   3.152   3.013  0.6698  2.5884 -0.8554
 3274SOL    HW210201   4.283   3.263   3.113 -0.9460  1.3927  0.1166
 3275SOL     OW10202   5.275   5.673   2.436  0.2614  0.0616  0.5593
 3275SOL    HW110203   5.287   5.658   2.342  1.0616  0.2468  0.6260
 3275SOL    HW210204   5.180   5.682   2.446  0.1443 -0.1984 -0.1925
 3276SOL     OW10205   4.952   4.889   3.313  1.0686 -0.0593 -0.1338
 3276SOL    HW110206   4.913   4.965   3.269 -1.9936 -1.1771  0.3990
 3276SOL    HW210207   4.999   4.843   3.244  0.4480  0.7547 -1.1304
 3277SOL     OW10208   6.310   4.351   0.976  0.1110  0.3956 -0.1150
 3277SOL    HW110209   6.227   4.390   1.001 -0.6705 -0.7272 -0.8550
 3277SOL    HW210210   6.298   4.257   0.989  1.0907  0.1637 -0.7133
 3278SOL     OW10211   3.042   5.701   1.343  0.3835  0.0591 -0.6476
 3278SOL    HW110212   3.098   5.625   1.361 -0.8633 -0.5871  0.7223
 3278SOL    HW210213   3.101   5.764   1.301  1.7553 -1.1683 -0.6856
 3279SOL     OW10214   5.774   2.100   1.695  0.1074  0.3545 -0.8181
 3279SOL    HW110215   5.698   2.108   1.639  0.9279  0.6079 -1.9368
 3279SOL    HW210216   5.836   2.165   1.660  0.5349  0.7266  0.5626
 3280SOL     OW10217   3.168   0.771   1.738  0.0647  0.2884 -0.2368
 3280SOL    HW110218   3.203   0.684   1.751 -1.0166 -0.0909  0.2170
 3280SOL    HW210219   3.184   0.789   1.645  1.0381 -0.0394 -0.1430
 3281SOL     OW10220   5.115   5.974   0.845 -0.3229  0.0179 -0.0043
 3281SOL    HW110221   5.105   6.069   0.850  0.5826  0.1919 -1.1685
 3281SOL    HW210222   5.026   5.941   0.833 -0.4838  0.8608 -1.3619
 3282SOL     OW10223   4.658   4.872   6.286  0.4023  0.1544  0.2676
 3282SOL    HW110224   4.563   4.881   6.293  0.4309  1.6104 -0.8576
 3282SOL    HW210225   4.675   4.879   6.192  1.5407 -1.1712  0.3490
 3283SOL     OW10226   0.948   3.461   6.539  0.5117 -0.4973 -0.6861
 3283SOL    HW110227   0.949   3.535   6.479  1.1894  0.2390  0.2155
 3283SOL    HW210228   0.856   3.436   6.545  0.1663  0.7730 -0.3974
 3284SOL     OW10229   0.748   2.725   3.630 -0.8825  0.3591  0.3349
 3284SOL    HW110230   0.806   2.652   3.609 -1.3252  0.1915 -0.3479
 3284SOL    HW210231   0.791   2.802   3.593  0.2909  0.7045  2.2678
 3285SOL     OW10232   4.246   4.862   4.943 -0.0648  0.1954  0.2701
 3285SOL    HW110233   4.331   4.862   4.987 -0.1963 -0.9879  0.5698
 3285SOL    HW210234   4.236   4.772   4.911 -1.2288  0.3029  0.2873
 3286SOL     OW10235   5.573   0.869   1.337 -0.2863 -0.0204 -0.6656
 3286SOL    HW110236   5.505   0.853   1.402 -1.2696  0.6263 -1.5080
 3286SOL    HW210237   5.525   0.887   1.256  0.8979 -0.1621 -1.4252
 3287SOL     OW10238   6.602   6.796   2.645 -0.4820 -0.2603 -0.1376
 3287SOL    HW110239   6.588   6.844   2.563  0.5104 -1.1463 -0.8600
 3287SOL    HW210240   6.687   6.827   2.677 -0.9953  0.2937  0.7273
 3288SOL     OW10241   5.713   5.452   2.345 -0.1922  0.2214  0.3732
 3288SOL    HW110242   5.744   5.371   2.386 -0.7269 -0.4050 -0.4113
 3288SOL    HW210243   5.620   5.456   2.367 -0.6184 -0.3950 -1.1112
 3289SOL     OW10244   6.300   0.538   1.588  0.4265  0.3350  0.4446
 3289SOL    HW110245   6.278   0.489   1.667 -0.3412 -0.6252 -0.3439
 3289SOL    HW210246   6.360   0.480   1.540 -0.3450  0.2246 -0.4104
 3290SOL     OW10247   3.301   0.420   5.108  0.6061  0.7700  0.6071
 3290SOL    HW110248   3.351   0.470   5.043  1.6531 -0.1041  0.7011
 3290SOL    HW210249   3.211   0.423   5.077  0.7836  1.9813  0.1574
 3291SOL     OW10250   6.469   2.447   0.541 -0.1555  0.5372  0.3357
 3291SOL    HW110251   6.454   2.541   0.549  0.4300  0.8006 -1.2708
 3291SOL    HW210252   6.391   2.413   0.499 -0.8442  0.0863  1.8969
 3292SOL     OW10253   5.767   5.259   5.274  0.0835  0.0665 -0.2379
 3292SOL    HW110254   5.793   5.201   5.202  1.3423 -0.7496  0.8277
 3292SOL    HW210255   5.702   5.317   5.235  1.0681 -0.0307 -2.1716
 3293SOL     OW10256   0.165   0.107   4.641 -0.3535  0.0406  0.5575
 3293SOL    HW110257   0.115   0.031   4.671  0.8648 -0.8577  0.4170
 3293SOL    HW210258   0.161   0.169   4.713 -2.3943  0.3836  0.2065
 3294SOL     OW10259   2.527   2.676   4.486 -0.4088 -0.3273 -1.1677
 3294SOL    HW110260   2.611   2.666   4.530 -0.0054  1.0299 -1.5885
 3294SOL    HW210261   2.549   2.677   4.392 -0.9973 -0.8243 -1.3194
 3295SOL     OW10262   4.824   0.750   0.528  0.6754  0.3394 -0.6181
 3295SOL    HW110263   4.798   0.681   0.467  0.5062 -0.8978  0.8034
 3295SOL    HW210264   4.849   0.823   0.472 -2.1412  0.2553 -2.1474
 3296SOL     OW10265   1.361   4.036   3.359  0.3376 -0.3058 -0.2548
 3296SOL    HW110266   1.358   4.131   3.342 -0.7617 -0.3331 -0.3209
 3296SOL    HW210267   1.272   4.015   3.390  0.4463 -1.3889 -0.6486
 3297SOL     OW10268   4.067   4.490   5.536  0.6239 -0.0306  0.1119
 3297SOL    HW110269   4.102   4.567   5.580  0.5420 -0.3753  0.7957
 3297SOL    HW210270   4.136   4.424   5.545  0.0602 -0.5237  0.9327
 3298SOL     OW10271   0.545   1.841   2.367  0.3071 -0.5307 -0.1315
 3298SOL    HW110272   0.579   1.841   2.457  0.1078  0.4627 -0.0400
 3298SOL    HW210273   0.456   1.807   2.375  0.6649 -1.4842 -0.1184
 3299SOL     OW10274   4.841   2.860   1.175  0.0401  0.1232  0.6032
 3299SOL    HW110275   4.898   2.903   1.111  1.7716 -0.6576  1.5684
 3299SOL    HW210276   4.757   2.906   1.166 -0.6198 -1.3660 -3.8554
 3300SOL     OW10277   6.782   1.307   3.797  0.1283 -0.3049  0.0351
 3300SOL    HW110278   6.788   1.282   3.890  2.6731 -2.1065 -0.5146
 3300SOL    HW210279   6.850   1.373   3.785  0.6830 -1.0105 -0.7861
 3301SOL     OW10280   4.874   3.618   3.361  0.3928  0.3266  0.1518
 3301SOL    HW110281   4.935   3.673   3.410  1.5118 -0.4185 -0.3799
 3301SOL    HW210282   4.887   3.530   3.395  0.3879 -0.0155 -0.6891
 3302SOL     OW10283   4.159   0.326   3.858  0.0867  0.5328 -0.3415
 3302SOL    HW110284   4.216   0.306   3.784 -2.5218  0.7131 -2.5354
 3302SOL    HW210285   4.122   0.241   3.884  0.2629  0.6012  0.1586
 3303SOL     OW10286   0.821   3.075   6.792  0.3336 -0.0285  0.0671
 3303SOL    HW110287   0.894   3.067   6.731  0.2607  0.1184 -0.0403
 3303SOL    HW210288   0.843   3.016   6.864  0.6335  0.1362  0.1092
 3304SOL     OW10289   2.749   2.214   2.845  0.2543  0.1943  0.3575
 3304SOL    HW110290   2.762   2.307   2.863  2.0841  0.0993 -0.2955
 3304SOL    HW210291   2.662   2.210   2.804 -0.8824  1.2770  2.4855
 3305SOL     OW10292   4.673   1.105   4.851  0.5687 -0.4259  0.6070
 3305SOL    HW110293   4.755   1.069   4.817  0.9720  0.0856  1.0194
 3305SOL    HW210294   4.698   1.189   4.889  0.0448 -0.7744  1.7485
 3306SOL     OW10295   6.103   3.274   3.015 -0.2230  0.1034  0.1544
 3306SOL    HW110296   6.121   3.184   2.989 -0.1466 -0.1404  1.0096
 3306SOL    HW210297   6.012   3.289   2.990 -0.0320  0.0253 -0.6187
 3307SOL     OW10298   2.534   5.260   1.183 -0.2384  0.2526 -0.5883
 3307SOL    HW110299   2.471   5.236   1.115 -0.7383  1.8861 -0.7254
 3307SOL    HW210300   2.603   5.307   1.137 -1.3215  2.7336  0.1586
 3308SOL     OW10301   5.287   3.315   4.722 -0.4871  0.4785  0.5432
 3308SOL    HW110302   5.285   3.260   4.643 -0.2870 -1.1668  1.6374
 3308SOL    HW210303   5.211   3.372   4.713 -0.3881  0.4399 -0.9118
 3309SOL     OW10304   0.905   2.660   4.131  0.1834  0.2530 -0.6134
 3309SOL    HW110305   0.832   2.676   4.191  1.0589  1.1229  0.2389
 3309SOL    HW210306   0.863   2.650   4.045 -1.0307 -0.4639  0.0385
 3310SOL     OW10307   2.238   4.856   0.450 -0.5523  0.1940 -0.1109
 3310SOL    HW110308   2.333   4.857   0.439 -0.5820 -1.5436 -1.0230
 3310SOL    HW210309   2.218   4.764   0.469 -1.9454  0.7521  1.2486
 3311SOL     OW10310   2.060   6.277   1.186 -0.3161  0.2835 -0.1503
 3311SOL    HW110311   2.075   6.191   1.224  1.3809  0.8493  0.5944
 3311SOL    HW210312   1.966   6.283   1.174 -0.3324 -2.6165 -2.5934
 3312SOL     OW10313   1.025   5.851   1.676 -0.4987  0.2415  0.2102
 3312SOL    HW110314   1.066   5.875   1.759  1.3880 -2.0254  0.0290
 3312SOL    HW210315   1.099   5.831   1.618 -1.8213  0.0224 -1.4660
 3313SOL     OW10316   5.374   0.708   5.619 -0.2158  0.3031  0.5381
 3313SOL    HW110317   5.338   0.793   5.591  0.0178  0.2568  0.0952
 3313SOL    HW210318   5.388   0.660   5.538  1.0698  0.4071  0.6713
 3314SOL     OW10319   5.602   1.306   4.881 -0.0715  0.9475 -0.2405
 3314SOL    HW110320   5.619   1.306   4.787 -0.3894 -0.1484 -0.3225
 3314SOL    HW210321   5.591   1.398   4.904  0.8004  1.2890 -1.1229
 3315SOL     OW10322   0.151   1.568   4.914  1.3538  0.0477  0.0007
 3315SOL    HW110323   0.196   1.608   4.988 -0.6781  1.1559  0.7170
 3315SOL    HW210324   0.084   1.631   4.889  0.9883 -0.9807 -1.8037
 3316SOL     OW10325   0.764   6.784   0.616 -0.1391  0.1726 -0.0738
 3316SOL    HW110326   0.718   6.822   0.691  0.3688  0.0831  0.2949
 3316SOL    HW210327   0.832   6.848   0.595 -0.7761  0.5794 -0.9807
 3317SOL     OW10328   2.665   5.343   3.479  0.0236 -0.1782  0.1801
 3317SOL    HW110329   2.659   5.248   3.480 -1.4944 -0.0921  1.7772
 3317SOL    HW210330   2.575   5.374   3.483  0.4373  1.3582 -1.1672
 3318SOL     OW10331   0.011   3.791   1.500 -0.5423  0.4242  0.0528
 3318SOL    HW110332  -0.017   3.704   1.470 -0.1283 -0.3575  1.7884
 3318SOL    HW210333   0.043   3.834   1.421  1.0147 -1.6994 -0.5731
 3319SOL     OW10334   3.706   2.968   2.459 -0.3054 -0.5207 -0.3911
 3319SOL    HW110335   3.611   2.977   2.451 -0.4294 -0.7848  0.6240
 3319SOL    HW210336   3.718   2.918   2.540  0.7267  0.3305 -0.0074
 3320SOL     OW10337   5.316   2.048   1.157 -0.0844  0.1098 -0.2090
 3320SOL    HW110338   5.223   2.046   1.181 -0.1533  0.7651 -0.4061
 3320SOL    HW210339   5.331   2.137   1.126  0.5594 -0.0595 -0.3995
 3321SOL     OW10340   5.908   1.008   5.846 -0.0132  0.3840  0.1313
 3321SOL    HW110341   5.993   0.965   5.847 -0.3810 -0.3452  0.2465
 3321SOL    HW210342   5.850   0.949   5.894 -0.6750  0.6899 -0.2788
 3322SOL     OW10343   5.994   1.299   5.713 -0.2011 -0.0670  0.3913
 3322SOL    HW110344   6.066   1.239   5.730 -0.1162  0.0828  0.5721
 3322SOL    HW210345   5.915   1.249   5.733 -0.3303 -1.1340 -2.3473
 3323SOL     OW10346   6.385   6.111   3.028 -0.2579 -0.3147 -0.4742
 3323SOL    HW110347   6.477   6.135   3.023 -0.5760  0.7514 -1.9621
 3323SOL    HW210348   6.368   6.062   2.948 -0.8365 -1.0858  0.1106
 3324SOL     OW10349   0.251   3.765   0.094  0.5159  0.0808  0.4333
 3324SOL    HW110350   0.224   3.844   0.046  0.6078 -0.0773  0.1229
 3324SOL    HW210351   0.231   3.786   0.186 -0.9325 -0.1439  0.1882
 3325SOL     OW10352   3.902   3.807   5.144 -0.5656  0.3088  0.8008
 3325SOL    HW110353   3.892   3.817   5.238  1.6558  0.9137  1.0275
 3325SOL    HW210354   3.836   3.742   5.119 -2.1671  1.1926  2.5045
 3326SOL     OW10355   1.276   4.095   4.252  0.5049  0.5464  0.1403
 3326SOL    HW110356   1.212   4.145   4.303 -0.0792 -0.2737  0.2283
 3326SOL    HW210357   1.265   4.126   4.162 -0.0711  0.3391  0.1429
 3327SOL     OW10358   4.736   5.003   1.521 -0.6137 -0.3002  0.9675
 3327SOL    HW110359   4.792   5.071   1.485 -0.8713 -0.9727 -0.8322
 3327SOL    HW210360   4.790   4.960   1.587  0.8429 -0.5689 -0.3273
 3328SOL     OW10361   2.625   1.535   1.259  0.3083  0.2914 -0.2858
 3328SOL    HW110362   2.644   1.460   1.316  0.4603  0.3856 -0.2112
 3328SOL    HW210363   2.554   1.505   1.203 -0.4966  0.5206  0.5858
 3329SOL     OW10364   0.308   0.567   1.783  0.3600 -0.2505  0.5974
 3329SOL    HW110365   0.320   0.499   1.716 -1.8788  1.2615 -1.5170
 3329SOL    HW210366   0.216   0.561   1.807  0.1026  1.9985  0.3349
 3330SOL     OW10367   4.815   0.583   1.343  0.2476 -0.2970 -0.2882
 3330SOL    HW110368   4.842   0.606   1.432  0.9490 -0.5103 -0.4378
 3330SOL    HW210369   4.897   0.579   1.293  0.0364 -1.7496 -0.5817
 3331SOL     OW10370   1.737   4.333   5.045  0.0804 -0.2127  0.1341
 3331SOL    HW110371   1.800   4.275   5.002 -1.4271 -1.4995 -0.4466
 3331SOL    HW210372   1.672   4.352   4.977 -0.3853  0.7602  0.8292
 3332SOL     OW10373   1.608   2.292   4.409  0.1995  0.6582 -0.3718
 3332SOL    HW110374   1.551   2.223   4.442  0.9157 -0.6638 -1.7587
 3332SOL    HW210375   1.566   2.374   4.438 -0.7917 -0.3191  1.1201
 3333SOL     OW10376   3.928   4.172   2.164 -0.2116  0.2248  0.1445
 3333SOL    HW110377   3.990   4.245   2.159 -0.6621  0.7416  1.6069
 3333SOL    HW210378   3.982   4.094   2.147  0.5506  0.7826 -0.0661
 3334SOL     OW10379   1.435   3.323   0.623  0.0303  0.1864  0.6117
 3334SOL    HW110380   1.341   3.307   0.633 -0.5657  2.1319 -1.0604
 3334SOL    HW210381   1.461   3.266   0.551  0.0644 -0.1468  0.8880
 3335SOL     OW10382   4.752   5.221   6.071 -0.0348 -0.2750 -0.5361
 3335SOL    HW110383   4.703   5.297   6.102 -0.2046  0.3090 -2.1408
 3335SOL    HW210384   4.843   5.251   6.070 -0.2341  0.4663 -2.5106
 3336SOL     OW10385   3.118   0.026   4.364  0.4028 -0.1916 -0.0381
 3336SOL    HW110386   3.048   0.089   4.378  0.1054 -0.4661 -0.2771
 3336SOL    HW210387   3.086  -0.031   4.293  0.8192 -0.3830 -0.0784
 3337SOL     OW10388   6.520   2.783   5.246 -0.4220 -0.5338  0.0329
 3337SOL    HW110389   6.538   2.704   5.297  0.4662 -1.4834 -1.6722
 3337SOL    HW210390   6.607   2.820   5.228 -0.7607  0.1715 -0.1833
 3338SOL     OW10391   0.818   3.725   1.887 -0.0514  0.1766  0.1442
 3338SOL    HW110392   0.786   3.775   1.811 -1.1964  2.2993  1.8925
 3338SOL    HW210393   0.738   3.704   1.936  0.8367  1.8262  2.4443
 3339SOL     OW10394   4.131   3.628   0.023  0.1355 -0.0899  0.0306
 3339SOL    HW110395   4.111   3.617   0.116  0.0109  1.4035  0.2036
 3339SOL    HW210396   4.224   3.653   0.022 -0.2740  1.5913 -0.0698
 3340SOL     OW10397   0.315   1.550   0.518  0.2743  0.5203 -0.1054
 3340SOL    HW110398   0.258   1.474   0.504  1.7666 -0.8406  0.8003
 3340SOL    HW210399   0.294   1.609   0.446 -3.3586  0.8453  0.9728
 3341SOL     OW10400   2.444   0.635   3.494  0.6558 -0.0163 -0.3147
 3341SOL    HW110401   2.388   0.633   3.571  1.1380  0.1888  0.0462
 3341SOL    HW210402   2.513   0.571   3.513  0.5584 -0.2498 -0.7415
 3342SOL     OW10403   6.607   3.527   2.484  0.2764 -0.3279  0.0871
 3342SOL    HW110404   6.574   3.439   2.502  1.0941 -1.1302 -1.9903
 3342SOL    HW210405   6.605   3.535   2.389  0.3383  1.8853  0.2082
 3343SOL     OW10406   1.260   5.072   0.220 -0.4371  0.0056 -0.1486
 3343SOL    HW110407   1.240   5.154   0.175 -1.9457 -0.3890 -0.2474
 3343SOL    HW210408   1.355   5.063   0.213 -0.3554  1.2941 -0.9155
 3344SOL     OW10409   5.017   2.976   4.718  0.3459 -0.1252 -0.3848
 3344SOL    HW110410   5.057   2.966   4.632  0.4604  0.0684 -0.3537
 3344SOL    HW210411   4.972   2.892   4.733 -1.8696  0.7453 -1.7301
 3345SOL     OW10412   3.234   3.509   5.272 -0.3664 -0.0589 -0.0908
 3345SOL    HW110413   3.205   3.426   5.309 -0.0398 -0.0748  0.1344
 3345SOL    HW210414   3.326   3.516   5.298 -0.4019  0.3879 -0.0726
 3346SOL     OW10415   5.843   3.945   2.690 -0.6888 -0.1162  0.5781
 3346SOL    HW110416   5.899   4.020   2.712 -1.8542  1.3622 -1.1770
 3346SOL    HW210417   5.801   3.922   2.773  1.4047 -0.3637  1.6368
 3347SOL     OW10418   5.203   1.770   2.390  0.0596  0.0257  0.1930
 3347SOL    HW110419   5.116   1.807   2.405 -0.1069 -0.7021  1.0613
 3347SOL    HW210420   5.204   1.688   2.439  0.8965 -0.4719 -0.6078
 3348SOL     OW10421   1.997   4.815   6.252  0.2021 -0.4201  0.7585
 3348SOL    HW110422   1.998   4.722   6.228 -0.3332 -0.3088  0.3039
 3348SOL    HW210423   1.920   4.850   6.208  0.4023  0.2400  0.9366
 3349SOL     OW10424   1.646   4.653   4.607 -0.1835  0.3693  0.0403
 3349SOL    HW110425   1.704   4.618   4.675  1.3394  1.4674 -0.6381
 3349SOL    HW210426   1.563   4.668   4.652  0.5273  0.2743  1.4526
 3350SOL     OW10427   0.174   2.771   3.814 -0.9880 -0.1078  0.9440
 3350SOL    HW110428   0.226   2.850   3.829 -0.2944  0.4234 -3.0155
 3350SOL    HW210429   0.084   2.798   3.831 -0.6935  1.4209  0.2923
 3351SOL     OW10430   6.694   1.145   0.134  0.1173  0.2684  0.2328
 3351SOL    HW110431   6.666   1.226   0.177  0.0651  0.2815  0.1743
 3351SOL    HW210432   6.613   1.104   0.105  0.2341  1.2506 -1.6600
 3352SOL     OW10433   0.083   1.948   6.259 -0.5399  0.1344  0.0774
 3352SOL    HW110434   0.097   2.037   6.294 -0.8153 -0.3299  1.4462
 3352SOL    HW210435   0.163   1.901   6.284 -1.1979 -0.4923  1.0497
 3353SOL     OW10436   4.960   2.681   1.508  0.1308 -0.5077 -0.5174
 3353SOL    HW110437   5.024   2.635   1.454  0.3480 -1.7379  0.7176
 3353SOL    HW210438   4.993   2.672   1.598 -0.7706  0.5253 -0.0573
 3354SOL     OW10439   4.318   0.910   4.206 -0.0633 -0.2944 -0.4067
 3354SOL    HW110440   4.388   0.975   4.218 -0.1062  0.4127 -3.1131
 3354SOL    HW210441   4.238   0.962   4.200 -0.4894 -0.8723  0.1998
 3355SOL     OW10442   1.041   0.713   1.209  0.1733 -0.5033 -0.6031
 3355SOL    HW110443   0.974   0.748   1.149  1.8890 -0.0128 -2.3336
 3355SOL    HW210444   1.028   0.763   1.290 -1.3958 -0.2665 -0.9594
 3356SOL     OW10445   2.891   5.114   6.694 -0.5091  0.2184  0.6386
 3356SOL    HW110446   2.863   5.173   6.764 -0.3290 -1.4162  2.1497
 3356SOL    HW210447   2.850   5.030   6.716 -0.9414 -0.2157 -1.5704
 3357SOL     OW10448   3.039   3.206   4.469  0.4462 -0.6310 -0.0911
 3357SOL    HW110449   3.115   3.211   4.412  1.6360 -0.0618  1.4645
 3357SOL    HW210450   3.071   3.235   4.555 -1.5413 -0.3148  0.6028
 3358SOL     OW10451   4.881   3.458   4.085  0.2968  0.0070 -0.1134
 3358SOL    HW110452   4.799   3.490   4.047  1.3116  0.5946 -1.9233
 3358SOL    HW210453   4.865   3.365   4.100 -0.5164 -0.0260 -1.0296
 3359SOL     OW10454   5.543   1.578   6.021 -0.0019 -0.3391 -0.1696
 3359SOL    HW110455   5.567   1.669   6.036 -1.8935 -0.0096  1.1631
 3359SOL    HW210456   5.613   1.528   6.064  0.8373  0.4609 -0.5679
 3360SOL     OW10457   3.700   5.871   4.752  0.4151 -0.1882 -0.4442
 3360SOL    HW110458   3.658   5.957   4.754 -0.3486 -0.5089 -1.7581
 3360SOL    HW210459   3.763   5.873   4.825 -0.0042  1.2574 -0.0979
 3361SOL     OW10460   2.213   2.848   1.925 -0.7013 -0.6694  0.0410
 3361SOL    HW110461   2.209   2.781   1.856  0.9897 -1.5322  0.6970
 3361SOL    HW210462   2.255   2.923   1.884 -2.9345  0.1835 -0.8005
 3362SOL     OW10463   4.119   1.734   2.207  0.0284 -0.6219  0.2431
 3362SOL    HW110464   4.160   1.810   2.167 -0.1302 -0.6569  0.0108
 3362SOL    HW210465   4.054   1.771   2.268  1.9390 -0.5134  2.3329
 3363SOL     OW10466   2.727   1.757   1.172 -0.1426 -0.0861  0.1425
 3363SOL    HW110467   2.744   1.763   1.078 -2.4208 -0.9251 -0.3898
 3363SOL    HW210468   2.716   1.663   1.188  0.1929  0.0534  1.2466
 3364SOL     OW10469   2.232   2.359   5.911  0.1344  0.0298 -0.1131
 3364SOL    HW110470   2.187   2.309   5.843 -0.3029 -0.3908  0.4688
 3364SOL    HW210471   2.219   2.450   5.886 -1.2566 -0.0669  0.1535
 3365SOL     OW10472   3.035   2.589   4.843  0.0696  0.1083 -0.8134
 3365SOL    HW110473   2.943   2.602   4.867  0.1259 -2.0351  0.8611
 3365SOL    HW210474   3.038   2.501   4.805  1.2704  0.6198 -2.0148
 3366SOL     OW10475   3.674   6.406   0.437 -0.4726  0.5173  0.0484
 3366SOL    HW110476   3.701   6.447   0.354 -0.2857  2.3890  0.9681
 3366SOL    HW210477   3.585   6.439   0.452 -1.6212 -2.0130 -0.7129
 3367SOL     OW10478   3.895   0.451   3.743 -0.4466  0.1152  0.3307
 3367SOL    HW110479   3.851   0.390   3.803  0.8970 -2.1447 -0.8378
 3367SOL    HW210480   3.985   0.453   3.773 -0.2884  0.8781 -0.1815
 3368SOL     OW10481   6.832   6.152   2.364 -0.6682 -0.3908  0.1111
 3368SOL    HW110482   6.782   6.227   2.331 -2.0309 -0.6671  1.4518
 3368SOL    HW210483   6.907   6.191   2.407  0.5292  0.0223 -2.1842
 3369SOL     OW10484   3.860   2.070   0.754 -0.5066  0.4387 -0.2937
 3369SOL    HW110485   3.919   2.129   0.801  0.9103 -1.0748 -0.0750
 3369SOL    HW210486   3.918   2.015   0.702 -1.7154 -1.2039  0.0220
 3370SOL     OW10487   2.444   4.424   0.302 -0.1358 -0.0650 -0.1994
 3370SOL    HW110488   2.397   4.472   0.371  1.9383 -0.7300  1.8157
 3370SOL    HW210489   2.536   4.437   0.323  0.6634  0.4821 -3.4841
 3371SOL     OW10490   2.637   0.043   3.831 -0.1160  0.3504 -0.7159
 3371SOL    HW110491   2.603  -0.035   3.787 -1.0379  0.4796 -0.2559
 3371SOL    HW210492   2.666   0.012   3.916  3.4627 -0.2845 -1.9754
 3372SOL     OW10493   1.787   3.035   4.631 -0.1640  0.3301 -0.5236
 3372SOL    HW110494   1.770   2.989   4.549  0.3114  0.8512 -0.9201
 3372SOL    HW210495   1.779   2.967   4.698  1.3270 -0.5257 -1.1642
 3373SOL     OW10496   5.142   2.265   4.835  0.3330  0.1581  0.3730
 3373SOL    HW110497   5.119   2.215   4.757  0.2221 -0.3256  0.7147
 3373SOL    HW210498   5.123   2.356   4.811 -0.5250 -0.0765  0.1284
 3374SOL     OW10499   6.442   6.628   4.842 -0.6244 -0.5363  0.1574
 3374SOL    HW110500   6.517   6.686   4.833  0.0411 -1.4139 -0.1035
 3374SOL    HW210501   6.366   6.682   4.823  0.0340  0.0633 -0.7901
 3375SOL     OW10502   4.157   4.944   2.583  0.1305 -0.3945 -0.4654
 3375SOL    HW110503   4.183   5.004   2.513  0.0603 -0.5619 -0.6359
 3375SOL    HW210504   4.164   4.996   2.663  3.1001 -1.0200 -0.2016
 3376SOL     OW10505   4.150   6.579   4.436 -0.3610 -0.3903  0.4104
 3376SOL    HW110506   4.140   6.489   4.405 -1.3610  0.0845 -0.7236
 3376SOL    HW210507   4.156   6.631   4.356 -0.7138  0.6418  1.0375
 3377SOL     OW10508   3.329   0.451   4.034 -0.3058  0.2486 -0.3142
 3377SOL    HW110509   3.410   0.444   4.084 -1.3639  0.6095  1.5476
 3377SOL    HW210510   3.280   0.371   4.056 -1.0014  0.6450 -0.3814
 3378SOL     OW10511   5.283   4.053   1.937  0.1980 -0.2936  0.3288
 3378SOL    HW110512   5.341   4.059   2.013 -0.3177  0.6131  0.6755
 3378SOL    HW210513   5.213   3.994   1.964 -0.2292  0.3851  0.7434
 3379SOL     OW10514   5.411   2.524   4.452 -0.7188  0.2884 -0.2227
 3379SOL    HW110515   5.455   2.448   4.490  0.2598  1.1780  0.4690
 3379SOL    HW210516   5.383   2.575   4.528 -2.9264 -0.2093 -0.6356
 3380SOL     OW10517   1.471   2.588   0.746 -0.0808 -0.0702 -0.0436
 3380SOL    HW110518   1.454   2.494   0.740 -0.1396 -0.2213  1.8786
 3380SOL    HW210519   1.406   2.621   0.809 -0.4732  1.3954 -1.1481
 3381SOL     OW10520   2.030   5.938   0.388  0.1851 -0.3851  0.6548
 3381SOL    HW110521   2.074   5.939   0.473 -0.9428 -0.8199  1.2654
 3381SOL    HW210522   1.981   5.856   0.387 -0.6770  0.1147  0.0463
 3382SOL     OW10523   2.834   6.414   1.253  0.6271 -0.1979 -0.3078
 3382SOL    HW110524   2.867   6.327   1.275  1.8920 -0.1126 -1.7311
 3382SOL    HW210525   2.912   6.467   1.241 -0.0981  0.7525 -0.9665
 3383SOL     OW10526   6.793   5.743   0.622  0.0214 -0.4711 -0.5333
 3383SOL    HW110527   6.783   5.831   0.659  0.6411 -0.7542  0.3458
 3383SOL    HW210528   6.848   5.696   0.685 -0.0304 -1.3966 -1.1482
 3384SOL     OW10529   5.688   1.864   6.541  0.2941 -0.3651  0.0147
 3384SOL    HW110530   5.701   1.836   6.632 -3.0927  1.2631  1.1489
 3384SOL    HW210531   5.670   1.783   6.494  0.1531 -1.0420  1.1893
 3385SOL     OW10532   0.635   0.000   4.917 -0.2709  1.2074  0.2239
 3385SOL    HW110533   0.575  -0.001   4.992 -0.9933  0.4013 -0.3434
 3385SOL    HW210534   0.584  -0.037   4.846  1.0087  0.2163 -0.2033
 3386SOL     OW10535   1.077   5.415   5.636  0.3174  0.7360  0.1084
 3386SOL    HW110536   1.114   5.391   5.721  1.5089 -1.1920 -0.8602
 3386SOL    HW210537   1.131   5.367   5.573  0.6521  3.5044 -1.8869
 3387SOL     OW10538   2.511   6.292   3.659 -0.4552 -0.4716  0.2453
 3387SOL    HW110539   2.522   6.349   3.583  0.0349 -0.2830  0.4542
 3387SOL    HW210540   2.600   6.276   3.691 -0.7028  0.1734  1.3030
 3388SOL     OW10541   5.340   6.593   5.962 -0.2084  0.1508  0.3573
 3388SOL    HW110542   5.353   6.688   5.974  0.2053  0.2551 -0.7463
 3388SOL    HW210543   5.426   6.556   5.979 -0.2076  0.0491  0.1317
 3389SOL     OW10544   5.098   2.347   2.129 -0.5066 -0.4735 -0.2099
 3389SOL    HW110545   5.178   2.384   2.165 -1.2927  2.0312 -0.8810
 3389SOL    HW210546   5.030   2.369   2.193 -1.0311 -0.5610 -0.7276
 3390SOL     OW10547   0.702   0.426   2.217 -0.3250  0.3312 -0.0436
 3390SOL    HW110548   0.674   0.398   2.304  0.9074  0.5587  0.4513
 3390SOL    HW210549   0.630   0.401   2.159 -1.3932  0.6654  1.1128
 3391SOL     OW10550   5.025   4.603   6.125  0.0684 -0.5115  0.1022
 3391SOL    HW110551   4.936   4.609   6.089  0.8870 -0.7251 -2.1027
 3391SOL    HW210552   5.051   4.693   6.142 -0.4457 -0.4291  0.4862
 3392SOL     OW10553   1.792   5.019   2.935  0.0012 -0.8489  0.2589
 3392SOL    HW110554   1.746   5.062   3.008  0.1141  0.3948 -0.3795
 3392SOL    HW210555   1.865   4.973   2.977  0.3139  0.2018  0.9229
 3393SOL     OW10556   3.862   6.138   1.704 -0.6281 -0.0467 -0.0674
 3393SOL    HW110557   3.812   6.072   1.751 -0.7336 -0.4090 -0.6737
 3393SOL    HW210558   3.802   6.211   1.693 -0.0218  0.8303  2.0210
 3394SOL     OW10559   4.398   1.716   3.304  0.4799  0.1548  0.0017
 3394SOL    HW110560   4.332   1.782   3.284 -0.3425 -0.7103 -0.2462
 3394SOL    HW210561   4.372   1.640   3.250  0.6126 -0.8139  1.2618
 3395SOL     OW10562   6.008   5.761   5.513  0.5913  0.0691 -1.0773
 3395SOL    HW110563   5.949   5.749   5.588 -0.1852 -1.5211 -1.8791
 3395SOL    HW210564   6.068   5.686   5.518  3.5605  2.3279  0.4807
 3396SOL     OW10565   4.918   5.942   6.540 -0.7805  0.1086  0.0512
 3396SOL    HW110566   4.881   5.859   6.512 -1.1440 -0.0450  0.9577
 3396SOL    HW210567   4.982   5.918   6.608  0.9672  0.3696 -1.4077
 3397SOL     OW10568   6.101   1.052   1.034  0.2104  0.1977  0.0332
 3397SOL    HW110569   6.171   1.109   1.067  0.6543  0.8545 -1.9023
 3397SOL    HW210570   6.021   1.088   1.073  0.8094  0.1655  1.3443
 3398SOL     OW10571   6.076   4.455   5.688 -0.5894 -0.5782 -0.4694
 3398SOL    HW110572   6.074   4.369   5.647  1.0675 -0.2773 -1.2742
 3398SOL    HW210573   5.985   4.472   5.712 -1.0306 -2.3235 -0.7406
 3399SOL     OW10574   5.090   3.574   6.283 -0.1384 -0.1517 -0.4466
 3399SOL    HW110575   5.138   3.500   6.246 -1.4905 -1.6681  0.6830
 3399SOL    HW210576   4.999   3.558   6.260 -0.6121  0.4662  0.8842
 3400SOL     OW10577   4.449   2.427   4.700  0.2141  0.8245  0.0548
 3400SOL    HW110578   4.394   2.366   4.748  0.8439 -0.9179 -1.2991
 3400SOL    HW210579   4.537   2.414   4.736  0.4952  0.2907 -0.7856
 3401SOL     OW10580   3.649   4.604   6.373 -0.0844  0.7357 -0.1826
 3401SOL    HW110581   3.676   4.554   6.295  0.3033  0.8546 -0.1260
 3401SOL    HW210582   3.568   4.647   6.346 -0.5886 -0.1549 -0.1389
 3402SOL     OW10583   5.067   1.069   6.725  0.1705 -0.4467 -0.1444
 3402SOL    HW110584   4.990   1.091   6.672 -0.1246  0.5731  0.6700
 3402SOL    HW210585   5.040   0.990   6.773 -1.6645  1.6206  2.5436
 3403SOL     OW10586   6.837   2.452   4.483  0.5145 -0.2980  0.2854
 3403SOL    HW110587   6.751   2.494   4.472  1.0212  0.3792 -1.3808
 3403SOL    HW210588   6.818   2.358   4.478 -0.2726 -0.2027  1.1899
 3404SOL     OW10589   4.436   3.255   1.765 -0.6180  0.0831 -0.1375
 3404SOL    HW110590   4.375   3.182   1.754 -1.2901  0.5065  0.7194
 3404SOL    HW210591   4.484   3.258   1.682 -1.6117 -0.3852 -0.7517
 3405SOL     OW10592   5.608   3.475   1.757  0.1155  0.5360  0.6092
 3405SOL    HW110593   5.662   3.412   1.804 -0.9018  0.0412  1.1503
 3405SOL    HW210594   5.552   3.421   1.701 -0.3706  0.9852  0.6568
 3406SOL     OW10595   1.560   0.283   0.498  0.0747 -0.1511 -0.1987
 3406SOL    HW110596   1.612   0.206   0.520  0.1657 -0.0679 -0.1227
 3406SOL    HW210597   1.469   0.256   0.514  0.1924  0.1988  1.1719
 3407SOL     OW10598   3.948   2.126   5.711 -0.5307 -0.3244  0.4744
 3407SOL    HW110599   4.025   2.182   5.722 -0.3236 -0.6494  0.6939
 3407SOL    HW210600   3.983   2.041   5.686 -0.7887 -0.5815  0.9495
 3408SOL     OW10601   2.451   0.487   5.172 -0.3052 -0.1497  0.0033
 3408SOL    HW110602   2.517   0.465   5.237 -0.3726  0.5187  0.3073
 3408SOL    HW210603   2.491   0.464   5.088 -0.5257 -1.7600  0.3211
 3409SOL     OW10604   3.405   6.708   4.194  0.0626 -0.4089 -0.1915
 3409SOL    HW110605   3.441   6.767   4.128 -0.1312  0.1253  0.1756
 3409SOL    HW210606   3.315   6.693   4.167  0.0672 -0.4141 -0.2044
 3410SOL     OW10607   2.678   1.713   3.269  0.0439 -0.1051  0.0939
 3410SOL    HW110608   2.741   1.706   3.340  1.5721  0.5764 -1.1408
 3410SOL    HW210609   2.727   1.751   3.196 -1.5990 -0.2721 -1.1730
 3411SOL     OW10610   6.516   6.174   3.765  0.3244 -0.1943  0.2563
 3411SOL    HW110611   6.547   6.109   3.702  0.6405 -0.8905  1.1179
 3411SOL    HW210612   6.575   6.248   3.754 -1.4091  0.9449 -2.3676
 3412SOL     OW10613   0.202   1.488   5.599 -0.5220 -0.1494 -0.2377
 3412SOL    HW110614   0.138   1.504   5.668 -0.8654 -0.6448 -0.4360
 3412SOL    HW210615   0.287   1.503   5.641 -0.7836  2.9613 -0.5981
 3413SOL     OW10616   3.241   6.640   6.788 -0.1368 -0.7650  0.4759
 3413SOL    HW110617   3.292   6.641   6.707 -0.8039  0.0573  0.0555
 3413SOL    HW210618   3.185   6.563   6.780  0.9055 -1.5849  0.8702
 3414SOL     OW10619   4.186   0.893   5.064  0.4070 -0.1348  0.1736
 3414SOL    HW110620   4.139   0.857   5.139  0.1568  1.1428  0.6563
 3414SOL    HW210621   4.250   0.953   5.102  1.4497 -0.7427 -0.5586
 3415SOL     OW10622   5.967   5.501   3.116 -0.1957  0.0058 -0.7918
 3415SOL    HW110623   5.883   5.482   3.073 -1.7897 -2.3074  2.8029
 3415SOL    HW210624   5.953   5.585   3.160 -0.2682  0.1165 -1.0254
 3416SOL     OW10625   6.044   0.629   4.596 -0.2060 -0.5931  0.0102
 3416SOL    HW110626   6.007   0.717   4.590 -1.0215 -0.8029  1.5353
 3416SOL    HW210627   5.998   0.588   4.669  1.0753 -1.8370  0.1722
 3417SOL     OW10628   4.718   2.990   6.756 -0.0847 -0.0175 -0.5460
 3417SOL    HW110629   4.628   2.959   6.751 -0.1603  0.4027 -2.5800
 3417SOL    HW210630   4.719   3.069   6.702  1.4279  0.1986 -0.2475
 3418SOL     OW10631   2.980   6.515   6.768  0.0319  0.3261  0.5065
 3418SOL    HW110632   2.961   6.572   6.694 -2.6281  1.1177  1.6632
 3418SOL    HW210633   2.906   6.455   6.772  1.6789 -1.8135  0.6799
 3419SOL     OW10634   5.488   3.734   1.180  0.4466  0.2204  0.6755
 3419SOL    HW110635   5.517   3.742   1.271  0.7396  0.8183  0.5363
 3419SOL    HW210636   5.559   3.774   1.129  0.8290 -1.1133  0.0880
 3420SOL     OW10637   5.556   5.529   4.142  0.2846 -0.3109  0.1858
 3420SOL    HW110638   5.639   5.547   4.187  0.6555 -0.7445 -0.3109
 3420SOL    HW210639   5.548   5.434   4.143  0.1589 -0.3120 -0.4114
 3421SOL     OW10640   5.331   3.745   0.466  0.2410 -0.1117 -0.4765
 3421SOL    HW110641   5.367   3.672   0.517 -1.5349 -0.1515  0.8384
 3421SOL    HW210642   5.294   3.703   0.388  0.5187 -0.4389 -0.4330
 3422SOL     OW10643   6.471   5.620   4.136 -0.6547 -0.9252 -0.4964
 3422SOL    HW110644   6.559   5.613   4.173 -1.0831  0.7392  0.9425
 3422SOL    HW210645   6.421   5.552   4.183 -1.2935  1.4141  2.5274
 3423SOL     OW10646   4.403   4.152   4.223  0.0683 -0.3090 -0.4154
 3423SOL    HW110647   4.396   4.137   4.129  0.3928  0.4192 -0.5645
 3423SOL    HW210648   4.313   4.156   4.255 -0.1063  1.1573 -0.9929
 3424SOL     OW10649   4.646   0.672   4.448  0.2290 -0.0456 -0.0506
 3424SOL    HW110650   4.711   0.603   4.460  0.4811 -0.0528 -1.2454
 3424SOL    HW210651   4.672   0.740   4.510 -0.5326 -1.3343  1.7682
 3425SOL     OW10652   3.640   1.230   2.221 -0.5289  0.0881  0.2923
 3425SOL    HW110653   3.704   1.209   2.152  0.6158  0.6657  1.1385
 3425SOL    HW210654   3.685   1.295   2.275 -2.4378  1.6972  0.0403
 3426SOL     OW10655   0.563   4.648   4.832 -0.6373  0.6284  0.4491
 3426SOL    HW110656   0.591   4.560   4.855  0.0720  0.8774  0.5541
 3426SOL    HW210657   0.560   4.694   4.916 -1.3561  0.6081  0.4376
 3427SOL     OW10658   1.389   1.617   5.805 -0.2616 -0.0059  0.4475
 3427SOL    HW110659   1.347   1.560   5.869  0.6616  0.0848  1.1583
 3427SOL    HW210660   1.460   1.564   5.768  0.3294  0.5147  0.8020
 3428SOL     OW10661   1.493   3.729   4.051 -0.2330 -0.1755 -0.6004
 3428SOL    HW110662   1.405   3.764   4.036 -0.6463 -0.6345  0.6407
 3428SOL    HW210663   1.545   3.806   4.074 -0.8182 -0.1623  0.7549
 3429SOL     OW10664   3.089   0.113   2.929 -0.8174  0.4626 -0.2559
 3429SOL    HW110665   3.093   0.203   2.899 -1.9377  0.3582 -0.7718
 3429SOL    HW210666   3.014   0.111   2.988  0.9096  0.4973  2.0632
 3430SOL     OW10667   1.334   3.349   2.539 -0.0904  0.4572  0.4483
 3430SOL    HW110668   1.368   3.267   2.574 -2.0481 -0.3262  0.6435
 3430SOL    HW210669   1.332   3.336   2.444  2.5490  1.5296  0.1421
 3431SOL     OW10670   1.823   6.000   3.809 -0.0112 -0.4183  0.0923
 3431SOL    HW110671   1.763   5.934   3.776 -0.8522 -0.4759  1.6096
 3431SOL    HW210672   1.853   5.965   3.893  0.9431  0.3226  0.0788
 3432SOL     OW10673   5.080   4.499   1.253 -0.7474 -0.0450 -0.5477
 3432SOL    HW110674   5.114   4.534   1.172  1.4400 -0.6322  0.0334
 3432SOL    HW210675   5.094   4.404   1.246 -1.4343 -0.2083  0.1091
 3433SOL     OW10676   0.879   1.917   0.210  0.1784  0.0817  0.6644
 3433SOL    HW110677   0.800   1.936   0.260 -1.0152 -0.1567 -1.0500
 3433SOL    HW210678   0.883   1.986   0.143  2.0055  0.6838  1.3101
 3434SOL     OW10679   2.545   3.593   4.734  0.0572 -0.2237 -0.0153
 3434SOL    HW110680   2.614   3.533   4.763 -1.3173 -1.5273  0.7289
 3434SOL    HW210681   2.479   3.588   4.803 -0.2517  1.9622 -0.0809
 3435SOL     OW10682   3.822   4.949   3.133  0.4366 -0.2533 -0.3800
 3435SOL    HW110683   3.746   5.004   3.115 -0.3552 -1.2191 -0.0984
 3435SOL    HW210684   3.785   4.862   3.149  1.4338 -0.3113  1.8828
 3436SOL     OW10685   5.142   0.460   3.217 -0.2015 -0.2549 -0.3132
 3436SOL    HW110686   5.164   0.382   3.266 -0.8790 -0.0250  0.3745
 3436SOL    HW210687   5.223   0.484   3.172  0.0175 -1.3219 -0.5114
 3437SOL     OW10688   5.947   3.244   6.531  0.3061 -0.6951  0.5684
 3437SOL    HW110689   5.908   3.255   6.618 -0.1384  1.1400  0.1782
 3437SOL    HW210690   6.040   3.263   6.544  0.1382  0.1790  0.5526
 3438SOL     OW10691   0.616   4.131   3.450  0.1410 -0.2564  0.3233
 3438SOL    HW110692   0.652   4.213   3.415 -0.5145  0.5457  1.4493
 3438SOL    HW210693   0.579   4.087   3.374 -0.7048  1.1468 -0.1223
 3439SOL     OW10694   3.099   0.654   2.593 -0.4052  0.1544 -0.0814
 3439SOL    HW110695   3.007   0.631   2.586 -0.2957 -0.2848 -0.1393
 3439SOL    HW210696   3.101   0.729   2.652 -0.6051 -1.2924  1.8709
 3440SOL     OW10697   2.876   2.721   6.613 -0.3397 -0.4928  0.7148
 3440SOL    HW110698   2.845   2.808   6.589 -0.6326 -0.9584 -0.7051
 3440SOL    HW210699   2.960   2.711   6.567 -0.7161 -1.2643  0.1626
 3441SOL     OW10700   2.138   6.191   3.641 -0.0939  0.2166  0.3753
 3441SOL    HW110701   2.043   6.194   3.651 -0.0914  1.4377  0.1916
 3441SOL    HW210702   2.166   6.283   3.645  1.1714 -0.1647  1.2638
 3442SOL     OW10703   0.909   4.633   2.727 -0.2428 -0.2716 -0.0680
 3442SOL    HW110704   0.895   4.727   2.736  0.9778 -0.1253  0.5320
 3442SOL    HW210705   0.971   4.625   2.655  1.1297 -0.4540  1.0812
 3443SOL     OW10706   3.579   2.088   4.449  0.2053 -0.2214 -1.2552
 3443SOL    HW110707   3.487   2.077   4.471  0.7313 -0.4130  1.0881
 3443SOL    HW210708   3.607   2.002   4.418 -0.3132 -0.2560 -1.6277
 3444SOL     OW10709   5.174   1.338   6.805  0.1833  0.1410 -0.7535
 3444SOL    HW110710   5.227   1.373   6.734  1.4438  0.8257  0.4782
 3444SOL    HW210711   5.178   1.243   6.792  2.0643  0.1357 -0.5011
 3445SOL     OW10712   2.977   6.400   5.641 -0.5043 -0.1302  0.3799
 3445SOL    HW110713   2.959   6.369   5.729 -1.4648  0.0105  0.2389
 3445SOL    HW210714   2.916   6.472   5.627  1.0657  1.2666  0.3653
 3446SOL     OW10715   6.314   1.247   5.988  0.1109  0.1800 -0.4425
 3446SOL    HW110716   6.371   1.193   6.042 -1.1327 -1.2832 -0.5313
 3446SOL    HW210717   6.320   1.208   5.901 -1.7703 -0.6675 -0.2373
 3447SOL     OW10718   0.482   5.917   6.720 -0.2594  0.0632  0.4423
 3447SOL    HW110719   0.553   5.880   6.773 -0.9526 -1.2879  0.4611
 3447SOL    HW210720   0.527   5.964   6.650  0.6722 -1.4477 -0.0140
 3448SOL     OW10721   2.790   6.336   0.903 -0.2590  0.4424  0.7764
 3448SOL    HW110722   2.716   6.283   0.933 -0.8095  0.8637  0.1790
 3448SOL    HW210723   2.758   6.381   0.825  0.4729  1.0041  0.7855
 3449SOL     OW10724   2.065   6.596   0.200 -0.2107  0.2295 -0.0277
 3449SOL    HW110725   2.144   6.646   0.219  0.2843  0.2738 -2.0118
 3449SOL    HW210726   2.048   6.547   0.280  1.8254  0.2110  0.4343
 3450SOL     OW10727   4.002   3.781   1.636 -0.1645  0.2777 -0.2191
 3450SOL    HW110728   3.929   3.750   1.689  0.1859 -0.8159 -0.3513
 3450SOL    HW210729   4.004   3.876   1.649 -0.3983  0.0832  1.3136
 3451SOL     OW10730   6.642   3.545   6.162 -0.5433 -0.0591 -0.0817
 3451SOL    HW110731   6.663   3.537   6.255  0.0976 -0.9820 -0.2943
 3451SOL    HW210732   6.612   3.458   6.136  1.5262 -0.5101 -1.2570
 3452SOL     OW10733   5.818   1.515   1.640  0.6091 -0.0143 -0.7040
 3452SOL    HW110734   5.793   1.576   1.709  0.5462 -0.6125 -0.1970
 3452SOL    HW210735   5.873   1.567   1.581  1.8993  0.1125  0.5697
 3453SOL     OW10736   3.759   4.914   5.997  0.3940  0.0410 -0.3190
 3453SOL    HW110737   3.776   4.829   6.036  1.3091 -0.5711 -1.9688
 3453SOL    HW210738   3.845   4.954   5.986  0.0437  0.8111 -0.3583
 3454SOL     OW10739   6.559   4.335   3.245  0.3031  0.6624 -0.0889
 3454SOL    HW110740   6.484   4.336   3.304  1.0341 -2.6719  1.1182
 3454SOL    HW210741   6.629   4.293   3.295  1.3152 -1.2754 -2.8536
 3455SOL     OW10742   5.852   3.719   0.961  0.3310  0.1752 -0.4192
 3455SOL    HW110743   5.835   3.781   1.033  0.4456  0.0140 -0.2529
 3455SOL    HW210744   5.900   3.647   1.002  0.4856  0.1294 -0.6780
 3456SOL     OW10745   6.563   4.379   1.085 -0.2133 -0.6858 -0.0008
 3456SOL    HW110746   6.477   4.352   1.053 -0.2508 -0.0480 -0.4630
 3456SOL    HW210747   6.605   4.420   1.009  0.1714 -0.2447  0.4452
 3457SOL     OW10748   6.554   6.747   1.155  0.0600  0.8307 -0.4434
 3457SOL    HW110749   6.557   6.681   1.224  0.5009  0.9754 -0.3155
 3457SOL    HW210750   6.541   6.830   1.201 -2.4830  0.6566 -0.7361
 3458SOL     OW10751   2.890   2.142   2.221  0.2734 -0.4907  0.2088
 3458SOL    HW110752   2.959   2.172   2.162  1.2329  0.0077  1.5430
 3458SOL    HW210753   2.817   2.201   2.204  0.9824  0.4612  0.4216
 3459SOL     OW10754   1.149   1.150   6.439  0.1658 -0.2119 -0.1316
 3459SOL    HW110755   1.231   1.100   6.435  0.8029  0.7343  0.5817
 3459SOL    HW210756   1.166   1.228   6.386  0.8382  1.4528  2.3395
 3460SOL     OW10757   4.737   0.244   4.634  0.3519  0.1655 -0.0986
 3460SOL    HW110758   4.720   0.318   4.576  1.3845 -1.3460 -2.4704
 3460SOL    HW210759   4.832   0.245   4.647  0.4310 -0.9133 -0.4566
 3461SOL     OW10760   1.145   5.945   2.836 -0.4771  0.9646 -0.0335
 3461SOL    HW110761   1.049   5.945   2.838 -0.4674  0.8213  1.1834
 3461SOL    HW210762   1.170   6.031   2.870 -0.1771  0.7795  0.2192
 3462SOL     OW10763   3.702   6.685   5.291 -0.2458 -0.0521  0.4366
 3462SOL    HW110764   3.610   6.659   5.290 -0.4030  0.3879  1.5059
 3462SOL    HW210765   3.714   6.733   5.209 -0.9927 -0.0419  0.3261
 3463SOL     OW10766   1.181   6.257   0.508  0.0102  0.0057  0.4237
 3463SOL    HW110767   1.273   6.281   0.519 -0.1106  0.8071 -0.1647
 3463SOL    HW210768   1.182   6.185   0.445  0.1644  1.1373 -0.9527
 3464SOL     OW10769   2.482   4.554   1.419  0.5543 -0.4635  1.1623
 3464SOL    HW110770   2.477   4.558   1.323 -1.7707 -0.5046  1.2087
 3464SOL    HW210771   2.478   4.646   1.446 -1.5573 -0.5110  1.2123
 3465SOL     OW10772   4.482   2.701   2.894 -0.9644 -0.4258  0.5323
 3465SOL    HW110773   4.493   2.791   2.925 -1.7433 -0.4232  0.8049
 3465SOL    HW210774   4.572   2.668   2.887 -0.4928  1.0142 -1.5114
 3466SOL     OW10775   5.539   5.561   4.839  0.0626  0.0436  0.2690
 3466SOL    HW110776   5.603   5.625   4.871  0.1037  0.5937 -0.8567
 3466SOL    HW210777   5.464   5.571   4.897  0.8924 -0.4655  1.4840
 3467SOL     OW10778   6.503   3.064   3.242  0.0144  0.3976  0.2558
 3467SOL    HW110779   6.411   3.041   3.258 -0.4534  1.7103 -0.4426
 3467SOL    HW210780   6.508   3.080   3.148  1.4988 -1.8020 -0.1329
 3468SOL     OW10781   2.869   2.013   3.425 -0.3846  0.0137  0.0226
 3468SOL    HW110782   2.806   2.041   3.358 -0.0122  0.0557 -0.3160
 3468SOL    HW210783   2.837   2.052   3.506 -2.3845 -2.2608  0.4388
 3469SOL     OW10784   1.834   0.232   2.578  0.7651 -0.2907  0.1272
 3469SOL    HW110785   1.815   0.139   2.585 -1.1978 -0.1528 -2.0443
 3469SOL    HW210786   1.925   0.236   2.548  0.9462 -1.4800  0.4847
 3470SOL     OW10787   4.505   2.656   6.688 -0.2271 -0.0579  0.4099
 3470SOL    HW110788   4.491   2.581   6.746 -0.0586 -1.3948 -1.2009
 3470SOL    HW210789   4.444   2.722   6.719 -1.6565 -1.5040  0.7850
 3471SOL     OW10790   5.026   5.680   2.843  0.6654  0.1179  0.0305
 3471SOL    HW110791   5.121   5.678   2.853  0.6208  0.1836  0.4931
 3471SOL    HW210792   5.010   5.751   2.780  0.9043  0.2894  0.1622
 3472SOL     OW10793   2.596   0.179   6.621  0.3426  0.1179  0.1458
 3472SOL    HW110794   2.509   0.140   6.617  1.1759 -1.7032 -1.3321
 3472SOL    HW210795   2.621   0.171   6.713 -0.5411 -0.5287  0.3461
 3473SOL     OW10796   2.881   1.720   3.498  0.1751  0.2554 -0.5214
 3473SOL    HW110797   2.945   1.727   3.569  1.0099 -1.1835 -1.0819
 3473SOL    HW210798   2.900   1.794   3.441  1.6367 -0.3290 -0.8613
 3474SOL     OW10799   2.313   2.015   5.497  0.4116  0.1869 -0.2314
 3474SOL    HW110800   2.332   1.923   5.482 -1.7015 -0.7745  2.3851
 3474SOL    HW210801   2.218   2.021   5.496  0.4851  2.3100 -0.0587
 3475SOL     OW10802   3.898   3.818   5.400 -0.2230  0.0978 -0.0240
 3475SOL    HW110803   3.869   3.733   5.432 -0.8426 -0.3185 -1.6026
 3475SOL    HW210804   3.826   3.877   5.420 -1.3936 -0.5163 -2.0709
 3476SOL     OW10805   4.951   2.408   0.414  0.4124 -0.3173  0.1169
 3476SOL    HW110806   4.885   2.447   0.357  0.0450  1.0506  1.4015
 3476SOL    HW210807   5.032   2.455   0.394  0.0689  0.8771  1.3445
 3477SOL     OW10808   3.187   4.472   0.895  0.4844 -0.5562 -0.1992
 3477SOL    HW110809   3.141   4.545   0.937 -0.2936 -1.4776  0.5999
 3477SOL    HW210810   3.182   4.492   0.801 -0.0269  0.2432 -0.0134
 3478SOL     OW10811   3.069   3.891   5.632  0.0443  0.2285  0.2410
 3478SOL    HW110812   2.995   3.912   5.690  0.7630  1.1723  0.8455
 3478SOL    HW210813   3.031   3.835   5.564 -0.9712 -0.3094  1.2166
 3479SOL     OW10814   3.398   0.022   0.625  0.0238  0.0669  0.3100
 3479SOL    HW110815   3.455   0.001   0.551  0.1600 -0.4228  0.5462
 3479SOL    HW210816   3.400  -0.057   0.679  0.5699  0.7194  1.2595
 3480SOL     OW10817   4.902   4.958   2.619 -0.6315  0.6912 -0.0869
 3480SOL    HW110818   4.976   4.933   2.675 -1.8293 -1.7867  0.4892
 3480SOL    HW210819   4.861   5.031   2.665  0.6847  1.2652  0.2250
 3481SOL     OW10820   5.923   0.294   0.805  0.2333  0.1695  0.2494
 3481SOL    HW110821   5.871   0.255   0.735  0.5690 -0.1828  0.1886
 3481SOL    HW210822   5.864   0.355   0.848  0.6001  1.9979 -1.6564
 3482SOL     OW10823   6.745   6.584   6.054 -0.3134  0.1712  0.1665
 3482SOL    HW110824   6.711   6.644   5.988 -1.6768  0.1743  0.8342
 3482SOL    HW210825   6.668   6.557   6.104  0.4996 -0.8754  0.9061
 3483SOL     OW10826   5.163   6.405   4.574  0.1584  0.8094 -0.0845
 3483SOL    HW110827   5.086   6.443   4.618 -0.0698  0.5074 -0.2170
 3483SOL    HW210828   5.189   6.333   4.631 -0.7179 -0.1930 -0.9123
 3484SOL     OW10829   6.215   6.221   0.833 -0.4604 -0.1538  0.6378
 3484SOL    HW110830   6.219   6.128   0.812  0.5233 -0.0211  0.1923
 3484SOL    HW210831   6.123   6.237   0.854 -0.6693 -1.1855  0.5392
 3485SOL     OW10832   0.359   0.942   4.525 -0.1572 -0.1543  0.2496
 3485SOL    HW110833   0.271   0.971   4.503 -0.9494  0.5549  3.6586
 3485SOL    HW210834   0.380   0.990   4.606  3.4372 -0.1912 -0.5045
 3486SOL     OW10835   5.866   5.753   2.079 -0.2998 -0.0915 -0.1002
 3486SOL    HW110836   5.803   5.803   2.028  1.4330  2.8809  0.4108
 3486SOL    HW210837   5.948   5.759   2.030  0.5147 -0.3823  1.1617
 3487SOL     OW10838   4.288   6.394   0.908  0.6617  0.1008 -0.3231
 3487SOL    HW110839   4.293   6.460   0.839  1.9474  1.3995  0.9624
 3487SOL    HW210840   4.356   6.331   0.885  0.3893 -0.0367 -0.7813
 3488SOL     OW10841   3.544   2.329   2.712 -0.8479 -0.0335 -0.2818
 3488SOL    HW110842   3.542   2.242   2.752  0.1557 -0.6723 -1.5307
 3488SOL    HW210843   3.635   2.357   2.719 -1.3040  1.3049  0.8191
 3489SOL     OW10844   2.824   5.186   0.143 -0.5943  0.1042 -0.4479
 3489SOL    HW110845   2.918   5.186   0.160 -0.7601  0.3740  0.4963
 3489SOL    HW210846   2.794   5.100   0.171 -0.5548 -0.1727 -1.2282
 3490SOL     OW10847   3.353   3.534   4.264  0.3109 -0.2119 -0.8637
 3490SOL    HW110848   3.442   3.515   4.235  0.3436  0.5198 -1.2499
 3490SOL    HW210849   3.298   3.473   4.214  0.6072 -0.8248 -0.4550
 3491SOL     OW10850   4.642   5.311   1.290  0.5039 -0.1856  0.3162
 3491SOL    HW110851   4.566   5.279   1.341  1.6581 -0.5710  1.8722
 3491SOL    HW210852   4.612   5.308   1.199 -0.9203 -1.5966  0.7708
 3492SOL     OW10853   5.998   0.215   3.477 -0.6634  0.2746 -0.2881
 3492SOL    HW110854   5.990   0.272   3.554  0.8173  1.8970 -1.2465
 3492SOL    HW210855   5.966   0.130   3.506 -0.7609  1.0106  1.9190
 3493SOL     OW10856   6.335   3.078   6.386  0.2953  0.5052 -0.0026
 3493SOL    HW110857   6.327   3.054   6.479 -0.6179  1.5124  0.1934
 3493SOL    HW210858   6.417   3.036   6.358 -0.0255 -0.8045  0.9305
 3494SOL     OW10859   2.944   2.505   1.821 -0.5730  0.4093 -0.0259
 3494SOL    HW110860   2.913   2.592   1.845 -2.4669  0.2107 -1.5131
 3494SOL    HW210861   2.894   2.482   1.743 -0.1489 -2.0427  0.3327
 3495SOL     OW10862   2.384   5.564   1.979 -0.8932 -0.1332 -0.5427
 3495SOL    HW110863   2.327   5.624   2.028  0.2642  0.3116  0.2939
 3495SOL    HW210864   2.400   5.609   1.896 -0.9350  0.2155 -0.3637
 3496SOL     OW10865   1.852   1.346   2.367  0.1225 -0.5712  0.0586
 3496SOL    HW110866   1.798   1.331   2.289  2.1572 -1.4855 -1.2411
 3496SOL    HW210867   1.917   1.276   2.366  1.2198  0.3487  1.6836
 3497SOL     OW10868   4.087   4.989   3.164  0.2415  0.2063  0.3969
 3497SOL    HW110869   4.100   5.064   3.222 -1.6280 -0.8139  2.2699
 3497SOL    HW210870   3.993   4.989   3.145 -0.0783 -2.2973  1.5201
 3498SOL     OW10871   4.944   4.018   0.506 -0.1118 -0.0214  0.2585
 3498SOL    HW110872   4.873   4.065   0.549 -0.3681  0.3317 -0.5305
 3498SOL    HW210873   4.901   3.944   0.463 -0.2340  0.9132 -1.3187
 3499SOL     OW10874   0.439   4.366   3.513 -0.1222  0.3093  0.3554
 3499SOL    HW110875   0.395   4.340   3.432 -2.4807  0.1349  1.6084
 3499SOL    HW210876   0.513   4.306   3.520 -1.0312 -1.0137 -0.6985
 3500SOL     OW10877   0.140   5.940   2.204 -0.0199  0.0626 -0.0606
 3500SOL    HW110878   0.128   5.971   2.114  1.4596  0.4211 -0.1469
 3500SOL    HW210879   0.131   6.018   2.258  3.6308  0.7737 -0.2730
 3501SOL     OW10880   3.856   5.170   6.354 -0.7164 -0.4353 -0.0094
 3501SOL    HW110881   3.874   5.252   6.307 -0.1073  0.2684  1.3849
 3501SOL    HW210882   3.941   5.128   6.362 -0.1993  0.9376  3.0492
 3502SOL     OW10883   6.490   1.917   3.578 -0.3514 -0.5190  0.2241
 3502SOL    HW110884   6.564   1.977   3.573 -1.6949  1.1731 -0.4692
 3502SOL    HW210885   6.480   1.883   3.489 -2.8278  2.4663 -0.8111
 3503SOL     OW10886   2.267   0.049   0.836  0.2481  0.4154  0.0549
 3503SOL    HW110887   2.332  -0.010   0.874 -1.0263 -2.7395 -2.2023
 3503SOL    HW210888   2.184   0.022   0.875 -0.3821  0.6070 -1.1052
 3504SOL     OW10889   2.521   1.271   4.144 -0.2101 -0.3580  1.0300
 3504SOL    HW110890   2.561   1.185   4.154  2.7295  0.5952 -1.0091
 3504SOL    HW210891   2.523   1.288   4.050 -0.6368  1.9445  1.3587
 3505SOL     OW10892   2.868   3.368   6.671  0.4281  0.2325 -0.3844
 3505SOL    HW110893   2.890   3.443   6.726 -0.8192  1.2670 -1.2365
 3505SOL    HW210894   2.848   3.298   6.733  2.2580  0.3542  0.4285
 3506SOL     OW10895   6.728   4.414   0.491 -0.3928  0.0873 -0.2802
 3506SOL    HW110896   6.707   4.334   0.539  0.5383 -0.0486 -0.0740
 3506SOL    HW210897   6.785   4.385   0.420  0.5246  0.6448  0.2113
 3507SOL     OW10898   0.999   2.700   1.476 -0.1075  0.4123 -0.0741
 3507SOL    HW110899   0.980   2.609   1.495 -0.1958  0.4378 -0.0368
 3507SOL    HW210900   0.916   2.734   1.441  0.0390  0.3766 -0.4563
 3508SOL     OW10901   1.353   3.803   5.830 -0.3993 -0.1283  0.6493
 3508SOL    HW110902   1.384   3.893   5.825  0.1709 -0.3739 -1.0053
 3508SOL    HW210903   1.273   3.807   5.881 -0.7276  1.4138  0.0531
 3509SOL     OW10904   2.027   4.783   3.833  0.4363  0.7704  0.3273
 3509SOL    HW110905   2.088   4.808   3.902  0.7969  2.2728 -0.4887
 3509SOL    HW210906   2.063   4.701   3.798  1.9988  1.5741 -0.0810
 3510SOL     OW10907   0.318   3.013   3.931  0.1524  0.1248  0.2312
 3510SOL    HW110908   0.368   3.027   4.011  0.8545 -1.7201  0.1705
 3510SOL    HW210909   0.381   2.979   3.868 -0.4172  1.4102 -1.0893
 3511SOL     OW10910   1.869   1.455   6.724  0.3580 -0.2404  0.1426
 3511SOL    HW110911   1.882   1.501   6.807 -1.3477  3.2233 -1.2953
 3511SOL    HW210912   1.793   1.398   6.739 -0.7402  1.3074  0.6991
 3512SOL     OW10913   6.817   5.798   5.722  0.2183  0.0388  0.2567
 3512SOL    HW110914   6.864   5.865   5.673 -0.0138  1.3406  1.7382
 3512SOL    HW210915   6.817   5.721   5.665  1.4040  0.9751 -1.0464
 3513SOL     OW10916   2.805   4.257   6.472 -0.4793 -0.5111 -0.0708
 3513SOL    HW110917   2.784   4.349   6.455  0.4441 -0.6076 -1.9721
 3513SOL    HW210918   2.869   4.234   6.405 -0.4003 -2.4475  0.6061
 3514SOL     OW10919   3.766   1.693   5.683  0.1006  0.4054 -0.3890
 3514SOL    HW110920   3.808   1.674   5.600  2.1107  0.5953  0.5387
 3514SOL    HW210921   3.675   1.715   5.660  0.6073  0.4229 -2.4985
 3515SOL     OW10922   4.392   5.610   2.824 -0.0731 -0.1043 -0.1441
 3515SOL    HW110923   4.308   5.632   2.864 -1.4626 -2.1061 -1.7487
 3515SOL    HW210924   4.424   5.536   2.874  0.2518  0.0407 -0.1369
 3516SOL     OW10925   1.815   0.219   4.886  0.1904  0.1230  0.2966
 3516SOL    HW110926   1.888   0.161   4.867  0.1145  0.0243  0.3067
 3516SOL    HW210927   1.841   0.266   4.965 -0.6152 -1.3965  1.5282
 3517SOL     OW10928   2.505   3.411   5.732  0.2583  0.2180  0.0611
 3517SOL    HW110929   2.520   3.345   5.665  4.3754  2.3963 -1.5342
 3517SOL    HW210930   2.441   3.471   5.693  0.7456  0.1376 -0.8910
 3518SOL     OW10931   0.844   0.931   5.551  0.2641  0.0976 -0.1979
 3518SOL    HW110932   0.789   0.998   5.591 -0.5508 -0.3208 -0.5804
 3518SOL    HW210933   0.887   0.975   5.477 -0.4475  0.1450 -0.5893
 3519SOL     OW10934   3.155   2.237   3.252 -0.2294 -0.1361 -0.5168
 3519SOL    HW110935   3.088   2.252   3.186 -3.1373 -0.1388  2.1640
 3519SOL    HW210936   3.169   2.142   3.251 -0.5988 -0.1879 -0.8038
 3520SOL     OW10937   5.445   0.170   0.375  0.5777 -0.1769  0.8019
 3520SOL    HW110938   5.425   0.248   0.427 -1.4936  0.5410 -0.9363
 3520SOL    HW210939   5.425   0.195   0.285 -0.7246 -2.8483  0.2453
 3521SOL     OW10940   1.840   5.686   6.695  0.0897  0.5957  0.0069
 3521SOL    HW110941   1.815   5.634   6.772  0.7467  1.0001  0.5074
 3521SOL    HW210942   1.759   5.697   6.646 -0.3694  0.4325  0.7137
 3522SOL     OW10943   3.123   5.681   3.339  0.4158  0.1001 -0.2825
 3522SOL    HW110944   3.212   5.681   3.375 -0.4792 -0.4835  2.0872
 3522SOL    HW210945   3.112   5.593   3.304  0.7036  0.1159 -0.4170
 3523SOL     OW10946   3.976   5.333   4.289  0.6425  0.0287 -0.1362
 3523SOL    HW110947   3.934   5.268   4.345 -1.0165  1.4749  0.4220
 3523SOL    HW210948   4.048   5.368   4.341 -0.0820  0.4385  0.6162
 3524SOL     OW10949   3.072   6.829   5.628 -0.1051  0.4889 -0.1929
 3524SOL    HW110950   3.103   6.918   5.648  3.5649 -0.8495  0.8479
 3524SOL    HW210951   3.112   6.808   5.544 -1.9866  0.2010 -1.0582
 3525SOL     OW10952   0.546   2.543   0.877 -0.1794 -0.3722 -0.1467
 3525SOL    HW110953   0.587   2.602   0.814 -2.4064  1.4893  0.0200
 3525SOL    HW210954   0.569   2.580   0.963  0.9652 -1.5884  0.1022
 3526SOL     OW10955   0.919   1.876   4.472 -0.3766 -0.0279 -0.0848
 3526SOL    HW110956   0.843   1.898   4.418 -0.5862 -1.1718 -0.2818
 3526SOL    HW210957   0.920   1.943   4.540 -0.1851  1.3687 -1.4104
 3527SOL     OW10958   5.790   2.960   1.672 -0.4250  0.1148 -0.4928
 3527SOL    HW110959   5.879   2.992   1.659 -0.5617  0.4869 -0.5532
 3527SOL    HW210960   5.756   2.946   1.584 -0.2608 -0.5073 -0.4596
 3528SOL     OW10961   2.446   5.723   1.757  0.5819 -0.1506  0.3399
 3528SOL    HW110962   2.529   5.744   1.800  0.7514 -0.2111  0.0504
 3528SOL    HW210963   2.471   5.708   1.665  0.1500  0.5422  0.1043
 3529SOL     OW10964   3.583   4.200   3.433  0.5630 -0.3333  0.3996
 3529SOL    HW110965   3.487   4.194   3.430  0.2851  2.1068  1.8573
 3529SOL    HW210966   3.608   4.222   3.344 -0.5477  1.5488  0.4857
 3530SOL     OW10967   5.432   2.995   2.625 -0.0976  0.2181 -0.2056
 3530SOL    HW110968   5.437   2.902   2.645  1.0961  0.0250 -1.2533
 3530SOL    HW210969   5.491   3.037   2.687 -0.9972  0.3527  0.5797
 3531SOL     OW10970   5.297   4.224   2.418 -0.3513  0.3741  0.2470
 3531SOL    HW110971   5.319   4.134   2.440  0.4118  0.4253 -0.2766
 3531SOL    HW210972   5.331   4.276   2.491 -1.8603  0.1557  1.1543
 3532SOL     OW10973   6.387   1.611   6.454  0.2676  0.1851 -0.1567
 3532SOL    HW110974   6.352   1.697   6.475 -2.4921 -1.0209  0.6287
 3532SOL    HW210975   6.444   1.590   6.529  0.3816  1.0215 -0.0007
 3533SOL     OW10976   2.209   4.692   5.009 -0.2136 -0.5666  0.1079
 3533SOL    HW110977   2.137   4.710   5.069 -0.0904  1.0473 -0.1885
 3533SOL    HW210978   2.277   4.653   5.064 -0.5814 -0.2880  0.7651
 3534SOL     OW10979   4.705   5.055   2.140  0.1519  0.6814 -0.0442
 3534SOL    HW110980   4.610   5.050   2.153  0.1709  0.1565 -0.0881
 3534SOL    HW210981   4.741   5.058   2.228 -0.0320  4.2332  0.0638
 3535SOL     OW10982   2.796   1.453   4.440 -0.0148  0.8424  0.3296
 3535SOL    HW110983   2.713   1.432   4.483 -0.1579 -0.0511 -0.3620
 3535SOL    HW210984   2.863   1.426   4.503 -0.2363  0.6463  0.4820
 3536SOL     OW10985   4.175   1.252   6.804  0.4055  0.4935  0.0353
 3536SOL    HW110986   4.228   1.189   6.754  3.0421  1.0806  1.8841
 3536SOL    HW210987   4.238   1.315   6.838 -1.9342  3.1599 -0.2332
 3537SOL     OW10988   5.922   2.464   3.611 -0.6814  0.2066  0.4642
 3537SOL    HW110989   5.939   2.536   3.551 -0.5430 -0.7853 -0.7185
 3537SOL    HW210990   5.957   2.494   3.695 -1.9896  2.1205  0.3899
 3538SOL     OW10991   6.713   0.676   3.496 -0.0160 -0.5177 -0.2853
 3538SOL    HW110992   6.705   0.711   3.408  0.2913 -0.9394 -0.4860
 3538SOL    HW210993   6.622   0.668   3.527 -0.1274 -0.4269 -0.5894
 3539SOL     OW10994   5.286   4.554   6.244 -0.6168 -0.7502 -0.0793
 3539SOL    HW110995   5.203   4.559   6.196 -0.1897 -0.6774 -0.8392
 3539SOL    HW210996   5.346   4.608   6.193 -0.5718  0.7703  1.5164
 3540SOL     OW10997   5.761   3.581   4.327  0.2032 -0.4084  0.4572
 3540SOL    HW110998   5.699   3.569   4.398  1.9139  1.2936  2.3920
 3540SOL    HW210999   5.773   3.676   4.322  1.0777 -0.5820 -1.2598
 3541SOL     OW11000   3.889   1.832   4.552 -0.1684 -0.1303  0.8707
 3541SOL    HW111001   3.967   1.879   4.523  0.2016 -2.2539 -2.0452
 3541SOL    HW211002   3.921   1.772   4.620  0.7380 -0.8541 -0.1697
 3542SOL     OW11003   0.704   6.457   2.417  0.2371  0.6036  0.2559
 3542SOL    HW111004   0.776   6.499   2.371  0.2797  0.4159  0.1510
 3542SOL    HW211005   0.746   6.401   2.482  0.1990  0.0651 -0.1787
 3543SOL     OW11006   0.842   3.481   3.638  0.2806 -0.0242 -0.1450
 3543SOL    HW111007   0.900   3.411   3.666  0.0841  0.3547  1.2525
 3543SOL    HW211008   0.757   3.459   3.675  0.3374  1.2177  0.7856
 3544SOL     OW11009   0.274   6.363   6.621  0.6230  0.4880 -0.9397
 3544SOL    HW111010   0.246   6.432   6.561  0.5941  0.7993 -0.5760
 3544SOL    HW211011   0.363   6.388   6.646  1.0093 -0.1772 -1.6258
 3545SOL     OW11012   4.552   2.335   6.454 -0.7363  0.2755 -0.0393
 3545SOL    HW111013   4.565   2.429   6.447  0.3687  0.1022 -0.4427
 3545SOL    HW211014   4.469   2.326   6.501 -0.1551  1.4522  1.2847
 3546SOL     OW11015   4.225   0.124   0.567  0.7871  0.3778  0.0881
 3546SOL    HW111016   4.193   0.085   0.648  0.8478 -0.4828 -0.2800
 3546SOL    HW211017   4.308   0.164   0.590  0.9765 -0.1756  0.3832
 3547SOL     OW11018   4.144   2.542   4.514  0.5902 -0.1361  0.1398
 3547SOL    HW111019   4.059   2.522   4.475  1.1181  0.4877 -1.4014
 3547SOL    HW211020   4.124   2.564   4.605 -0.7047 -1.4837  0.2066
 3548SOL     OW11021   1.472   3.438   1.662 -0.0714  0.4854 -0.2619
 3548SOL    HW111022   1.403   3.378   1.635  0.6813  0.6299 -2.7194
 3548SOL    HW211023   1.430   3.524   1.664 -0.5471  0.2460  0.8266
 3549SOL     OW11024   4.258   2.234   3.715  0.0898 -0.1652 -0.3471
 3549SOL    HW111025   4.330   2.225   3.777  0.2103  0.7714 -0.3280
 3549SOL    HW211026   4.180   2.242   3.769  0.0061 -0.8798 -0.3600
 3550SOL     OW11027   6.732   3.509   0.933  0.2641 -0.3797 -0.0660
 3550SOL    HW111028   6.781   3.504   0.851  1.1196 -1.1570  0.4778
 3550SOL    HW211029   6.663   3.443   0.923 -1.5986  1.6413 -1.3826
 3551SOL     OW11030   0.835   1.248   5.442 -0.5269 -0.1753  0.6256
 3551SOL    HW111031   0.790   1.228   5.524 -1.7198 -0.6940 -0.1351
 3551SOL    HW211032   0.787   1.200   5.375 -0.0909  0.9026 -0.5063
 3552SOL     OW11033   4.099   4.943   1.789  0.0402 -0.4504  0.2320
 3552SOL    HW111034   4.093   4.911   1.699 -0.5758  0.7213 -0.1549
 3552SOL    HW211035   4.193   4.939   1.808  0.6456  2.1259 -1.5751
 3553SOL     OW11036   6.792   3.227   2.547 -0.0062  0.1865 -0.2404
 3553SOL    HW111037   6.850   3.151   2.537 -0.7586 -0.2647 -1.3088
 3553SOL    HW211038   6.798   3.274   2.464 -0.8434  0.3639 -0.2151
 3554SOL     OW11039   4.250   4.807   2.862 -0.1088 -0.3914  0.1677
 3554SOL    HW111040   4.235   4.891   2.820 -0.1514 -1.1960 -1.5353
 3554SOL    HW211041   4.163   4.779   2.893 -0.5197 -0.8087 -1.2962
 3555SOL     OW11042   5.080   6.785   0.307  0.5125 -0.0733  0.1524
 3555SOL    HW111043   5.154   6.762   0.363  0.7276 -0.4735 -0.2872
 3555SOL    HW211044   5.096   6.737   0.226 -0.3151 -0.2943  0.1105
 3556SOL     OW11045   4.475   1.854   3.536  0.0019  0.2403 -0.0772
 3556SOL    HW111046   4.464   1.806   3.454  4.0623  0.5890 -1.0703
 3556SOL    HW211047   4.440   1.796   3.603 -2.5117 -0.5073 -1.8672
 3557SOL     OW11048   0.820   0.367   5.127 -0.5179  0.2542 -0.5159
 3557SOL    HW111049   0.726   0.367   5.108 -0.4142 -0.6555 -1.0852
 3557SOL    HW211050   0.858   0.311   5.059  0.3767  0.2094  0.0074
 3558SOL     OW11051   0.274   2.163   0.920 -0.4965  0.1719  0.9389
 3558SOL    HW111052   0.203   2.226   0.918  0.3591  1.1553  0.3704
 3558SOL    HW211053   0.345   2.209   0.966 -0.2301 -0.7848  1.5042
 3559SOL     OW11054   0.493   3.028   4.150 -0.0245  0.0232  0.0547
 3559SOL    HW111055   0.469   2.986   4.233  0.5071  1.3241  0.8994
 3559SOL    HW211056   0.580   3.066   4.167 -0.4781  1.4377 -0.6632
 3560SOL     OW11057   3.577   0.027   3.767  0.0074 -0.2868  0.4428
 3560SOL    HW111058   3.542  -0.021   3.693 -0.6995 -0.8796  1.1443
 3560SOL    HW211059   3.662  -0.013   3.784  0.2928  0.0263 -0.1944
 3561SOL     OW11060   6.021   1.783   3.474 -0.0481  0.2332 -0.1388
 3561SOL    HW111061   5.968   1.714   3.435 -0.2197  0.0565  0.3953
 3561SOL    HW211062   6.076   1.815   3.402  0.5217 -0.9134 -0.2339
 3562SOL     OW11063   1.805   2.379   6.822 -0.2570 -0.3359  0.1710
 3562SOL    HW111064   1.768   2.295   6.848 -0.0631 -0.3386  0.4391
 3562SOL    HW211065   1.737   2.419   6.768 -1.2375  0.2588  1.7838
 3563SOL     OW11066   6.846   1.881   5.180 -0.4061  0.0324 -0.1667
 3563SOL    HW111067   6.775   1.874   5.116  0.0879  0.1383 -0.7254
 3563SOL    HW211068   6.804   1.862   5.264 -0.6720 -2.0210 -0.7202
 3564SOL     OW11069   4.540   1.868   2.969 -0.5133  0.0157 -0.7068
 3564SOL    HW111070   4.612   1.843   2.912 -1.5694  0.8385 -2.4868
 3564SOL    HW211071   4.502   1.786   2.998  0.6948 -0.4214 -0.2950
 3565SOL     OW11072   4.388   6.446   3.219 -0.4399 -0.2637 -0.5787
 3565SOL    HW111073   4.371   6.459   3.312  1.4711  0.9509 -0.3509
 3565SOL    HW211074   4.344   6.363   3.198 -3.6277  0.9738  0.5966
 3566SOL     OW11075   3.296   0.856   4.811 -0.0181  0.4363 -0.0709
 3566SOL    HW111076   3.229   0.919   4.786 -1.2974  0.2915  2.6778
 3566SOL    HW211077   3.321   0.881   4.900  1.2155 -1.4801  0.1787
 3567SOL     OW11078   6.505   0.887   4.218  0.0392 -0.3650  0.3613
 3567SOL    HW111079   6.575   0.887   4.153  1.4258 -1.0335  1.7834
 3567SOL    HW211080   6.535   0.947   4.286 -0.7362 -0.7154  1.0419
 3568SOL     OW11081   1.280   1.050   2.492 -0.5539  0.5037  0.2008
 3568SOL    HW111082   1.216   1.091   2.550 -0.9475 -0.4158  0.4320
 3568SOL    HW211083   1.297   0.964   2.531  1.8397  1.2370  0.8836
 3569SOL     OW11084   4.603   3.402   5.673 -0.0868  0.4813 -0.2044
 3569SOL    HW111085   4.508   3.399   5.674 -0.0724 -0.1190 -0.1946
 3569SOL    HW211086   4.630   3.311   5.689  0.4956  0.8536  1.0532
 3570SOL     OW11087   4.800   2.564   5.434  0.0660  0.2849  0.8340
 3570SOL    HW111088   4.849   2.639   5.470 -0.1049  1.2975 -0.8847
 3570SOL    HW211089   4.708   2.586   5.449 -0.0086  0.7480 -0.2149
 3571SOL     OW11090   2.374   3.782   4.269  0.6911  0.4651 -0.2619
 3571SOL    HW111091   2.429   3.711   4.236  1.1832  0.7399 -0.0439
 3571SOL    HW211092   2.403   3.795   4.359 -0.4266 -0.0732  0.1939
 3572SOL     OW11093   6.131   1.747   4.666 -0.0465  0.0410  0.0207
 3572SOL    HW111094   6.160   1.830   4.627  1.2148 -0.7626 -0.8154
 3572SOL    HW211095   6.162   1.752   4.757 -0.7532  0.8403  0.2336
 3573SOL     OW11096   6.612   4.010   1.060  0.3377  0.0053 -0.1543
 3573SOL    HW111097   6.619   4.073   1.131 -0.0994  0.3765 -0.4330
 3573SOL    HW211098   6.650   3.929   1.095 -1.3877 -0.3213  1.1175
 3574SOL     OW11099   5.597   6.114   0.452  0.0238 -0.3769 -0.3199
 3574SOL    HW111100   5.556   6.075   0.375 -0.4719  1.5115 -1.0705
 3574SOL    HW211101   5.599   6.207   0.433  2.6755 -0.1495  0.6630
 3575SOL     OW11102   3.082   1.832   1.944  0.3924 -0.1517  0.4558
 3575SOL    HW111103   3.012   1.881   1.902  0.7423  0.5066  0.6297
 3575SOL    HW211104   3.156   1.892   1.946  0.5314 -0.3343  1.5699
 3576SOL     OW11105   3.790   1.603   1.900  0.0783 -0.2846  0.4595
 3576SOL    HW111106   3.884   1.612   1.913  0.0779 -1.3592  1.3247
 3576SOL    HW211107   3.764   1.683   1.853  1.4420 -0.0800  0.0274
 3577SOL     OW11108   1.537   1.774   4.460  0.0215  0.3557 -0.4469
 3577SOL    HW111109   1.461   1.764   4.518 -0.0280  1.0578 -0.3756
 3577SOL    HW211110   1.563   1.685   4.439  0.7042  0.0491  1.5041
 3578SOL     OW11111   1.204   0.382   4.459  0.1191  0.8870  0.2007
 3578SOL    HW111112   1.246   0.378   4.374  1.4901  0.5957  0.8575
 3578SOL    HW211113   1.273   0.412   4.518 -0.7351  0.8615  1.2492
 3579SOL     OW11114   0.008   0.835   0.690 -0.6485 -0.5238 -0.5293
 3579SOL    HW111115   0.002   0.746   0.724 -1.0425 -0.0383  0.7203
 3579SOL    HW211116  -0.066   0.842   0.629 -2.7508 -0.0228  1.9087
 3580SOL     OW11117   2.713   0.108   0.034 -0.1983 -0.7586 -0.4809
 3580SOL    HW111118   2.657   0.100   0.111  2.1853 -1.8134  1.2888
 3580SOL    HW211119   2.747   0.197   0.037 -0.7139 -0.5494 -0.7795
 3581SOL     OW11120   0.231   6.766   6.401  0.0476  0.5309  0.8037
 3581SOL    HW111121   0.203   6.796   6.487 -1.1786 -1.0350  0.9955
 3581SOL    HW211122   0.172   6.694   6.380  0.9216  0.2626 -0.9435
 3582SOL     OW11123   5.888   2.649   5.464  0.0074  0.3192 -0.1086
 3582SOL    HW111124   5.923   2.738   5.467  1.2472 -0.1686  0.8535
 3582SOL    HW211125   5.833   2.643   5.542  0.5296  0.0306  0.2495
 3583SOL     OW11126   2.950   2.322   5.537  0.2086 -0.1261  0.5648
 3583SOL    HW111127   2.972   2.249   5.594 -1.4741  0.3086  1.8521
 3583SOL    HW211128   2.857   2.308   5.516  0.6194  0.0445 -1.6341
 3584SOL     OW11129   3.020   4.173   2.309  0.2457 -0.3463 -0.6349
 3584SOL    HW111130   2.978   4.095   2.345  3.6404 -1.8134  0.6181
 3584SOL    HW211131   3.037   4.229   2.385 -1.9701  1.6411 -1.4954
 3585SOL     OW11132   2.274   4.179   2.228 -0.2591 -0.1544  0.5487
 3585SOL    HW111133   2.336   4.204   2.297  0.7262 -1.0535  0.0049
 3585SOL    HW211134   2.305   4.094   2.197 -0.0666  0.6771 -1.7300
 3586SOL     OW11135   3.734   0.545   6.023 -0.1313 -0.1003 -0.0542
 3586SOL    HW111136   3.681   0.615   6.059  1.2239 -0.1268  2.1348
 3586SOL    HW211137   3.821   0.558   6.061  0.9288 -1.2467 -1.9224
 3587SOL     OW11138   4.205   5.006   2.147 -0.2078 -0.0312  0.3078
 3587SOL    HW111139   4.130   5.061   2.123 -1.0513 -0.2269  2.2966
 3587SOL    HW211140   4.166   4.930   2.188  1.0892 -0.1358  1.3814
 3588SOL     OW11141   6.611   0.602   2.453 -0.3854 -0.1943 -0.9944
 3588SOL    HW111142   6.567   0.523   2.483  1.8973 -0.9076  0.7993
 3588SOL    HW211143   6.565   0.674   2.496  1.0540 -1.0291  2.2554
 3589SOL     OW11144   5.183   5.701   4.327 -0.0331  0.0369 -0.4661
 3589SOL    HW111145   5.225   5.615   4.336  1.0509  0.5589 -0.4797
 3589SOL    HW211146   5.129   5.709   4.405  0.3244 -0.4046 -0.1698
 3590SOL     OW11147   1.595   0.095   4.513 -0.4491  0.0406 -0.3842
 3590SOL    HW111148   1.586   0.126   4.603 -0.1947 -0.1139 -0.3047
 3590SOL    HW211149   1.656   0.021   4.519 -3.4310 -2.6574 -0.0465
 3591SOL     OW11150   4.181   1.623   3.683  0.0168 -0.4305 -0.3004
 3591SOL    HW111151   4.263   1.623   3.733 -0.4323 -1.4539  0.4931
 3591SOL    HW211152   4.195   1.559   3.614 -0.6725 -1.9195  0.8808
 3592SOL     OW11153   0.089   3.098   2.095 -0.1412 -0.4753 -0.0756
 3592SOL    HW111154   0.166   3.072   2.045  0.0853  0.6991 -0.3729
 3592SOL    HW211155   0.066   3.020   2.146 -0.1515 -1.5810 -1.7028
 3593SOL     OW11156   0.787   4.329   3.356  0.4548  0.7052  0.3754
 3593SOL    HW111157   0.844   4.252   3.358 -0.0907  0.3013  0.4923
 3593SOL    HW211158   0.806   4.369   3.271  0.2710  0.0737  0.0252
 3594SOL     OW11159   3.317   0.033   2.128 -0.5449 -0.1353  0.0188
 3594SOL    HW111160   3.315  -0.040   2.066 -0.1156 -1.0383  1.0189
 3594SOL    HW211161   3.328  -0.010   2.214 -3.6178  0.8421  1.0489
 3595SOL     OW11162   1.439   4.364   6.474 -0.0185 -0.2925  0.3247
 3595SOL    HW111163   1.527   4.336   6.499 -0.3874 -1.0192  0.8457
 3595SOL    HW211164   1.407   4.411   6.551  0.0601  0.3195 -0.0144
 3596SOL     OW11165   1.667   3.934   2.475 -0.2437 -0.3014 -0.3050
 3596SOL    HW111166   1.701   3.916   2.387  0.0722  0.6161 -0.3850
 3596SOL    HW211167   1.718   3.878   2.532 -0.0121 -0.4394 -0.6413
 3597SOL     OW11168   3.502   3.151   2.132  0.2203 -0.0709  0.1341
 3597SOL    HW111169   3.427   3.114   2.086 -0.9618  1.2474  0.9178
 3597SOL    HW211170   3.474   3.158   2.223  1.4435  0.0813  0.5220
 3598SOL     OW11171   4.151   4.436   4.104  0.5327 -0.4489 -0.4753
 3598SOL    HW111172   4.136   4.351   4.144 -2.1635  0.4303  0.6266
 3598SOL    HW211173   4.107   4.430   4.019 -0.6310  0.1327  0.0606
 3599SOL     OW11174   1.829   5.094   3.535  0.9334 -0.5915 -0.9222
 3599SOL    HW111175   1.908   5.109   3.588  0.2083 -0.3445  0.1229
 3599SOL    HW211176   1.824   4.999   3.527  1.4841 -0.5976 -1.2306
 3600SOL     OW11177   5.770   3.669   2.659  0.5256  0.4802 -0.6049
 3600SOL    HW111178   5.807   3.623   2.734 -0.1277 -1.6506 -1.5061
 3600SOL    HW211179   5.714   3.604   2.616 -0.3852  2.1147 -2.0411
 3601SOL     OW11180   1.170   6.764   4.918  0.0010 -0.0311 -0.0174
 3601SOL    HW111181   1.207   6.838   4.870 -0.0002  0.1561  0.2657
 3601SOL    HW211182   1.090   6.742   4.871 -1.2731  1.6610  1.2237
 3602SOL     OW11183   6.117   4.426   6.038  0.0657  0.5178 -0.0542
 3602SOL    HW111184   6.036   4.403   5.994  0.5604  1.0058 -1.2577
 3602SOL    HW211185   6.175   4.458   5.968  1.7478 -1.0210  0.5447
 3603SOL     OW11186   1.167   4.481   2.997 -0.4834  0.0978 -0.6214
 3603SOL    HW111187   1.113   4.489   3.076 -0.5575 -0.7030 -0.5750
 3603SOL    HW211188   1.232   4.550   3.005 -1.6100  1.2167 -0.7719
 3604SOL     OW11189   6.568   1.830   2.075  0.0880  1.2705 -0.4044
 3604SOL    HW111190   6.502   1.800   2.137  0.5736 -0.0511 -0.4994
 3604SOL    HW211191   6.522   1.832   1.991  0.2734 -0.2029 -0.5739
 3605SOL     OW11192   1.989   2.197   1.867 -0.7780 -0.0294  0.2126
 3605SOL    HW111193   1.940   2.168   1.790 -1.5795 -0.8502  1.0043
 3605SOL    HW211194   2.077   2.212   1.835 -1.3568  0.7402 -1.0957
 3606SOL     OW11195   1.446   0.895   5.316 -0.2567 -0.8607 -0.1072
 3606SOL    HW111196   1.474   0.907   5.407  1.8731  0.3378 -0.8731
 3606SOL    HW211197   1.351   0.909   5.319  0.0658  1.6690  1.5554
 3607SOL     OW11198   5.784   0.825   5.594 -0.5826  0.0493  0.1634
 3607SOL    HW111199   5.831   0.791   5.671 -0.9353 -0.0442  0.3396
 3607SOL    HW211200   5.830   0.906   5.572  0.0856 -0.3898 -0.0833
 3608SOL     OW11201   6.210   5.689   4.789  0.1531 -0.4197 -0.0289
 3608SOL    HW111202   6.289   5.684   4.843  0.1062  1.8868  0.3509
 3608SOL    HW211203   6.241   5.721   4.704 -0.2091 -0.8600 -0.3320
 3609SOL     OW11204   0.954   3.579   1.278  0.1284 -0.0508 -0.1515
 3609SOL    HW111205   1.037   3.568   1.324  0.4660  1.5456 -0.3253
 3609SOL    HW211206   0.950   3.672   1.259 -0.0766 -0.5828 -3.1795
 3610SOL     OW11207   5.961   5.673   6.218 -0.5635 -0.3230 -0.2334
 3610SOL    HW111208   6.042   5.624   6.232 -1.2239 -1.9887 -1.8295
 3610SOL    HW211209   5.945   5.716   6.302  0.7884 -1.7476  0.8381
 3611SOL     OW11210   2.243   6.644   1.000 -0.1089  0.3317 -0.4183
 3611SOL    HW111211   2.303   6.637   1.074 -0.6283 -0.5829 -0.0657
 3611SOL    HW211212   2.181   6.712   1.026  0.9869  1.5921 -0.9636
 3612SOL     OW11213   1.621   0.160   1.728  0.3883  0.4915 -0.1449
 3612SOL    HW111214   1.551   0.146   1.791 -0.5481 -0.1744 -1.3024
 3612SOL    HW211215   1.576   0.185   1.647  1.3997 -1.0096 -1.2098
 3613SOL     OW11216   2.478   6.345   3.107  0.4397  1.0149 -0.6763
 3613SOL    HW111217   2.523   6.284   3.165 -0.5048  1.1285  0.2026
 3613SOL    HW211218   2.520   6.429   3.123  2.3742  0.4984 -2.5617
 3614SOL     OW11219   5.530   4.955   0.809 -0.3785 -0.0099 -0.0102
 3614SOL    HW111220   5.503   5.005   0.886 -0.5276 -0.2739  0.1115
 3614SOL    HW211221   5.527   5.018   0.737  1.0404  0.5773  0.4198
 3615SOL     OW11222   2.779   3.461   4.821 -0.2705 -0.2260  0.0028
 3615SOL    HW111223   2.779   3.456   4.916 -1.3601  1.9305  0.1839
 3615SOL    HW211224   2.859   3.509   4.799 -0.2341 -0.3418 -0.1167
 3616SOL     OW11225   4.760   0.982   2.438  0.0123  0.7894  0.2778
 3616SOL    HW111226   4.728   0.966   2.527 -1.7443  1.3450 -0.2183
 3616SOL    HW211227   4.794   1.072   2.441 -1.6982  1.4947  0.0001
 3617SOL     OW11228   6.818   2.620   6.034  0.0249  0.1877  0.0752
 3617SOL    HW111229   6.734   2.632   5.990 -0.4270 -0.9287  0.5814
 3617SOL    HW211230   6.847   2.534   6.005  0.1643 -0.1600  1.2207
 3618SOL     OW11231   4.461   0.063   2.626 -0.1795  0.1069 -0.6146
 3618SOL    HW111232   4.543   0.083   2.671 -0.0666  0.6951 -1.0733
 3618SOL    HW211233   4.400   0.038   2.696  0.7758 -1.7286 -0.3763
 3619SOL     OW11234   2.436   6.653   2.978 -0.0616  1.1796  0.2485
 3619SOL    HW111235   2.425   6.738   3.022  0.0017  1.5493 -0.4287
 3619SOL    HW211236   2.519   6.620   3.011  0.8713  2.2813 -0.9101
 3620SOL     OW11237   4.467   0.798   0.442  0.3828 -0.4117 -0.0141
 3620SOL    HW111238   4.483   0.731   0.508 -0.6813 -0.9993 -0.3356
 3620SOL    HW211239   4.383   0.837   0.465  0.6608  0.3454 -0.2301
 3621SOL     OW11240   4.253   1.345   3.656  0.2294  0.1858 -0.9427
 3621SOL    HW111241   4.165   1.320   3.685  1.1394 -0.6288  1.3610
 3621SOL    HW211242   4.277   1.278   3.592 -0.0803 -0.7672 -0.0893
 3622SOL     OW11243   0.562   1.493   2.419  0.6749 -0.2226 -0.0158
 3622SOL    HW111244   0.482   1.476   2.469  1.3326  0.3964  1.3016
 3622SOL    HW211245   0.617   1.543   2.479  1.3300  0.9592 -1.5490
 3623SOL     OW11246   5.435   6.293   3.749 -0.0668 -0.1723  0.2209
 3623SOL    HW111247   5.391   6.344   3.817  0.2133 -1.5594  1.5002
 3623SOL    HW211248   5.471   6.217   3.795  2.3809  0.1199 -1.0307
 3624SOL     OW11249   1.279   2.343   1.362  0.1421 -0.4400  0.3116
 3624SOL    HW111250   1.346   2.352   1.429 -1.2374  0.5496  1.6313
 3624SOL    HW211251   1.297   2.414   1.300  2.0903 -2.0246 -1.0606
 3625SOL     OW11252   4.603   5.434   1.875 -0.4280 -0.3494  0.0517
 3625SOL    HW111253   4.574   5.389   1.954 -0.2564 -0.6576 -0.0595
 3625SOL    HW211254   4.688   5.395   1.855 -0.3160 -0.0343 -0.0931
 3626SOL     OW11255   3.549   5.331   5.142  0.3447 -0.0119  0.3599
 3626SOL    HW111256   3.619   5.352   5.204  0.6263 -1.8960  0.7399
 3626SOL    HW211257   3.533   5.238   5.155  0.6172 -0.5712 -2.5941
 3627SOL     OW11258   4.790   6.598   4.991 -0.4070 -0.0735 -0.7704
 3627SOL    HW111259   4.744   6.557   4.918 -1.0214  0.4872 -0.7186
 3627SOL    HW211260   4.819   6.683   4.956 -1.2540  0.4699 -0.2029
 3628SOL     OW11261   5.007   1.709   6.625 -0.5755 -0.4801 -0.2144
 3628SOL    HW111262   5.098   1.694   6.602 -0.7971 -1.6654 -0.4266
 3628SOL    HW211263   4.981   1.630   6.673 -1.0954  0.4504  1.1135
 3629SOL     OW11264   0.231   1.046   1.323  0.3452 -0.3568  0.0881
 3629SOL    HW111265   0.296   1.114   1.335  0.5220 -0.5821  0.4186
 3629SOL    HW211266   0.174   1.079   1.253 -0.0993  0.5289  0.8413
 3630SOL     OW11267   0.436   5.218   4.993 -0.2290 -0.0665 -0.1177
 3630SOL    HW111268   0.367   5.154   5.009 -1.6069  1.0357 -1.4022
 3630SOL    HW211269   0.500   5.171   4.940 -1.2422 -0.3965 -1.0850
 3631SOL     OW11270   1.091   1.263   5.256 -0.6437 -0.2471 -0.0008
 3631SOL    HW111271   1.060   1.306   5.176 -0.4117 -1.5857 -0.8331
 3631SOL    HW211272   1.023   1.200   5.277  0.2356 -1.3602 -0.3534
 3632SOL     OW11273   5.215   1.139   4.590 -0.0234 -0.1507  0.0958
 3632SOL    HW111274   5.264   1.162   4.511  0.8793 -0.5983  0.5058
 3632SOL    HW211275   5.202   1.045   4.584 -1.2365  0.0183 -0.2115
 3633SOL     OW11276   6.554   2.944   2.239 -0.4194 -0.2625  0.0987
 3633SOL    HW111277   6.552   2.959   2.334  1.8011 -1.5032  0.4048
 3633SOL    HW211278   6.519   2.855   2.229  0.2811 -0.5257 -0.1029
 3634SOL     OW11279   6.355   3.782   6.789 -0.3583 -0.1239 -0.0094
 3634SOL    HW111280   6.296   3.726   6.838 -0.3126 -0.9615 -0.8876
 3634SOL    HW211281   6.403   3.831   6.856  0.9776 -2.5162  0.9180
 3635SOL     OW11282   4.781   1.792   0.824 -0.1259 -0.2872  0.2383
 3635SOL    HW111283   4.802   1.743   0.745  0.2502  0.4328 -0.1156
 3635SOL    HW211284   4.837   1.869   0.820  0.3226 -0.5284  1.5011
 3636SOL     OW11285   0.511   0.867   3.963  0.5110  0.1631 -0.0295
 3636SOL    HW111286   0.535   0.774   3.967 -0.1605 -0.1896 -2.6371
 3636SOL    HW211287   0.578   0.912   4.015  0.9404 -1.7275  1.1598
 3637SOL     OW11288   5.872   4.588   0.771  0.0193 -0.1422 -0.1050
 3637SOL    HW111289   5.814   4.567   0.698  1.0620  1.4628 -1.4540
 3637SOL    HW211290   5.954   4.614   0.730  0.3679  1.6523  1.5829
 3638SOL     OW11291   0.489   4.962   3.270 -0.0601  0.9508 -0.1111
 3638SOL    HW111292   0.538   4.918   3.340  1.3131  2.1636 -0.2440
 3638SOL    HW211293   0.557   4.991   3.209 -0.8571  3.2070 -0.0260
 3639SOL     OW11294   1.733   4.603   6.287  0.0281  0.2962 -0.6330
 3639SOL    HW111295   1.827   4.588   6.282  0.3327  2.1767 -1.2235
 3639SOL    HW211296   1.699   4.567   6.206  0.4892  1.1683 -1.2230
 3640SOL     OW11297   5.568   1.465   1.655 -0.0345 -0.0985  0.1712
 3640SOL    HW111298   5.663   1.461   1.642  0.0586 -1.5559  1.0713
 3640SOL    HW211299   5.537   1.525   1.587  1.5457  0.5426 -0.0169
 3641SOL     OW11300   1.516   2.154   6.845  0.1168 -0.0706  0.0081
 3641SOL    HW111301   1.610   2.138   6.835  0.2949  1.8108 -2.3986
 3641SOL    HW211302   1.474   2.075   6.812  0.8287 -0.8481  0.9179
 3642SOL     OW11303   5.113   5.933   2.529  0.1501 -0.4797  0.1415
 3642SOL    HW111304   5.021   5.932   2.556 -0.0530 -0.0165 -0.5173
 3642SOL    HW211305   5.157   5.878   2.594  0.0301  2.2155  2.7197
 3643SOL     OW11306   3.091   5.080   0.190 -0.0489  0.5522 -0.4022
 3643SOL    HW111307   3.087   4.986   0.169 -0.0794  0.5237 -0.2642
 3643SOL    HW211308   3.184   5.100   0.192  0.0022  0.2577  0.7893
 3644SOL     OW11309   5.581   0.801   5.979 -0.5203  0.3475  0.1187
 3644SOL    HW111310   5.669   0.774   6.005 -0.8654  0.0515  1.0019
 3644SOL    HW211311   5.522   0.743   6.027 -1.2227  1.2618  0.3902
 3645SOL     OW11312   0.640   2.980   5.436 -0.0761  0.1245  0.4293
 3645SOL    HW111313   0.556   3.007   5.399 -0.7734 -2.1590  0.1888
 3645SOL    HW211314   0.675   2.918   5.372  0.6058 -0.8280  1.6790
 3646SOL     OW11315   0.600   5.229   3.387  0.0969 -0.2463 -0.7828
 3646SOL    HW111316   0.583   5.190   3.302  0.3023 -1.5956 -0.2236
 3646SOL    HW211317   0.599   5.156   3.448  1.1175  0.5369  0.2204
 3647SOL     OW11318   5.821   4.264   4.722  0.1193 -0.4012  0.7449
 3647SOL    HW111319   5.749   4.203   4.733  0.7048 -1.0074  1.2775
 3647SOL    HW211320   5.807   4.331   4.788  0.5714 -1.0418  1.5011
 3648SOL     OW11321   0.227   3.469   3.022  0.4908  0.3997  0.0617
 3648SOL    HW111322   0.254   3.451   2.932  1.4683 -0.7982  0.5748
 3648SOL    HW211323   0.143   3.515   3.013  0.4503  0.0738 -1.4429
 3649SOL     OW11324   4.010   6.279   3.500  0.5553  0.4069 -0.2876
 3649SOL    HW111325   4.006   6.369   3.534 -1.4513  0.3803 -0.2991
 3649SOL    HW211326   3.937   6.274   3.438  1.2180 -0.9655 -0.9933
 3650SOL     OW11327   1.098   4.208   3.248 -0.1474  0.8998  0.2767
 3650SOL    HW111328   1.053   4.187   3.330 -1.1175  1.7623 -0.0130
 3650SOL    HW211329   1.027   4.228   3.187  0.5148 -0.5237 -1.0165
 3651SOL     OW11330   4.298   5.133   6.804 -0.2333  0.2789 -0.1630
 3651SOL    HW111331   4.237   5.206   6.797 -1.2556 -0.5632 -0.3701
 3651SOL    HW211332   4.332   5.137   6.893 -1.7118 -0.0859  0.4337
 3652SOL     OW11333   2.537   0.816   5.031  0.0238  0.1215 -0.5012
 3652SOL    HW111334   2.615   0.775   5.065 -0.4126 -2.0019 -1.8679
 3652SOL    HW211335   2.474   0.814   5.103  0.0853 -1.4977 -0.4640
 3653SOL     OW11336   2.294   1.132   3.139  0.2192  0.7075  0.2617
 3653SOL    HW111337   2.344   1.079   3.076 -1.0923  1.1143 -1.1915
 3653SOL    HW211338   2.336   1.218   3.135 -0.3146  0.9400 -0.6538
 3654SOL     OW11339   2.568   2.299   5.886 -0.0560 -0.0798 -0.0203
 3654SOL    HW111340   2.511   2.258   5.822  1.1427 -0.4814 -0.8644
 3654SOL    HW211341   2.556   2.248   5.966 -0.8995 -0.1200 -0.1658
 3655SOL     OW11342   5.970   5.175   6.436  0.3761 -0.6000  0.1330
 3655SOL    HW111343   5.903   5.198   6.371  0.3080  2.1820  1.0377
 3655SOL    HW211344   5.924   5.123   6.501 -0.2895 -0.7966 -0.4779
 3656SOL     OW11345   2.298   0.358   2.574  0.0382  0.3976 -0.0150
 3656SOL    HW111346   2.267   0.448   2.572  0.7681  0.6888  1.1312
 3656SOL    HW211347   2.392   0.364   2.586  0.1316 -0.5252 -0.1389
 3657SOL     OW11348   6.746   0.496   3.893  0.0318  0.2645  0.1391
 3657SOL    HW111349   6.763   0.514   3.986  0.4362  1.5213 -0.1632
 3657SOL    HW211350   6.832   0.503   3.851  0.2339 -2.3686 -0.0585
 3658SOL     OW11351   4.906   1.262   3.810 -0.3969  0.3741 -0.1979
 3658SOL    HW111352   4.898   1.357   3.808 -0.0024  0.4267  0.4116
 3658SOL    HW211353   4.981   1.242   3.754 -0.9994  0.3496 -1.0111
 3659SOL     OW11354   6.537   2.327   1.008  0.2200  0.3772  0.2451
 3659SOL    HW111355   6.561   2.309   0.917  2.6263  1.4280  0.5845
 3659SOL    HW211356   6.471   2.396   1.002 -1.6988 -1.4285 -0.7166
 3660SOL     OW11357   3.807   5.381   6.189  0.1313 -0.5244 -0.4874
 3660SOL    HW111358   3.836   5.453   6.245 -0.1195 -0.0540 -0.9549
 3660SOL    HW211359   3.813   5.416   6.100  0.2512 -1.1669 -0.7372
 3661SOL     OW11360   3.588   5.192   0.627 -0.1158 -0.5593 -0.7871
 3661SOL    HW111361   3.610   5.218   0.716  1.0056  1.5571 -1.5933
 3661SOL    HW211362   3.505   5.235   0.609  0.0213 -0.3674 -0.9776
 3662SOL     OW11363   1.360   3.761   0.692  0.4383  0.3032  0.7205
 3662SOL    HW111364   1.302   3.738   0.619 -1.6232  1.6246  1.8156
 3662SOL    HW211365   1.343   3.694   0.758  0.6513  0.3295  0.8006
 3663SOL     OW11366   3.818   3.640   1.785  0.2879  0.0276  0.1158
 3663SOL    HW111367   3.893   3.615   1.840  0.0740  0.5226  0.6431
 3663SOL    HW211368   3.813   3.571   1.719 -0.5681 -1.6171  1.7959
 3664SOL     OW11369   2.768   4.837   5.123  0.1892 -0.6997  0.5127
 3664SOL    HW111370   2.674   4.855   5.125  0.3344  0.0979  0.5135
 3664SOL    HW211371   2.789   4.809   5.212  0.3067  1.1020  1.0968
 3665SOL     OW11372   1.175   0.362   5.105 -0.1955 -0.1023 -0.5914
 3665SOL    HW111373   1.239   0.433   5.109 -0.0696 -0.1966 -0.9449
 3665SOL    HW211374   1.110   0.385   5.172 -1.2493  1.4053 -2.0339
 3666SOL     OW11375   1.878   2.531   2.178 -0.3042 -0.0526  0.0845
 3666SOL    HW111376   1.959   2.481   2.188  0.7342  1.1969 -1.6044
 3666SOL    HW211377   1.901   2.603   2.120 -2.2039  1.3762  1.0041
 3667SOL     OW11378   1.419   3.962   1.912  0.3696  0.6913 -0.2532
 3667SOL    HW111379   1.448   4.040   1.865  2.3988 -0.6101 -1.3302
 3667SOL    HW211380   1.469   3.962   1.993  0.6749  0.3225 -0.4381
 3668SOL     OW11381   0.890   6.498   6.035 -0.0368 -0.4107  0.1552
 3668SOL    HW111382   0.894   6.424   5.974  0.9751 -0.7959  0.6553
 3668SOL    HW211383   0.811   6.545   6.011  1.2278  0.5040 -2.7029
 3669SOL     OW11384   5.533   1.823   3.750  0.2225 -0.7108 -0.6552
 3669SOL    HW111385   5.622   1.816   3.784  0.1765  1.1664 -0.0039
 3669SOL    HW211386   5.543   1.864   3.664 -0.0503  1.1902  0.1563
 3670SOL     OW11387   2.437   3.238   5.441  0.1738  0.4183  0.2313
 3670SOL    HW111388   2.390   3.155   5.442  0.8609  0.0300  0.7999
 3670SOL    HW211389   2.519   3.219   5.395  0.4633  0.7007  0.6242
 3671SOL     OW11390   3.068   1.690   1.134 -0.6244 -0.4076 -0.3160
 3671SOL    HW111391   3.155   1.694   1.174 -0.1568 -0.6699 -1.2842
 3671SOL    HW211392   3.062   1.769   1.080 -1.3339  0.0513  0.4092
 3672SOL     OW11393   4.651   2.448   0.009 -0.0884  0.1201  0.4012
 3672SOL    HW111394   4.555   2.442   0.005 -0.1919  1.7349 -0.2981
 3672SOL    HW211395   4.669   2.472   0.099 -0.3937  0.4848  0.3681
 3673SOL     OW11396   2.572   4.651   6.276  0.0321 -0.5704  1.0102
 3673SOL    HW111397   2.477   4.642   6.268  0.1880 -0.8284 -1.5589
 3673SOL    HW211398   2.587   4.745   6.279 -0.2820 -0.5143  0.8274
 3674SOL     OW11399   0.904   4.499   1.498 -0.1948  0.2236  0.3960
 3674SOL    HW111400   0.863   4.452   1.571  0.2654 -2.4439 -0.9431
 3674SOL    HW211401   0.996   4.471   1.499  0.3191  1.7982  0.0378
 3675SOL     OW11402   6.195   3.308   3.287 -1.2885  0.4871 -0.0582
 3675SOL    HW111403   6.182   3.320   3.193 -2.8095  1.6067  0.2586
 3675SOL    HW211404   6.162   3.220   3.304  0.4438 -0.3696 -0.7670
 3676SOL     OW11405   2.270   5.327   5.019  0.1515 -0.6051 -0.4881
 3676SOL    HW111406   2.299   5.261   4.956  2.0154 -0.0619 -0.2383
 3676SOL    HW211407   2.174   5.322   5.016  0.2053 -3.4806 -0.3040
 3677SOL     OW11408   1.232   4.464   0.033  0.4686 -0.1204  0.1150
 3677SOL    HW111409   1.221   4.539   0.092 -0.6830  0.5204 -0.8447
 3677SOL    HW211410   1.239   4.503  -0.054  0.8802 -1.0914 -0.3001
 3678SOL     OW11411   4.261   2.471   5.017 -0.3314  0.4822  0.6464
 3678SOL    HW111412   4.203   2.427   5.080 -1.1333  0.5901 -0.0121
 3678SOL    HW211413   4.350   2.450   5.049 -0.7152 -0.1058  1.3715
 3679SOL     OW11414   4.390   3.712   3.278  0.1847  0.2687 -0.2587
 3679SOL    HW111415   4.357   3.699   3.190 -0.0254 -0.6977 -0.0453
 3679SOL    HW211416   4.433   3.798   3.275  0.1809  0.2441 -1.2906
 3680SOL     OW11417   2.683   5.152   4.393 -0.4757  0.0056 -0.1968
 3680SOL    HW111418   2.747   5.084   4.375 -0.8226 -0.3066 -0.2546
 3680SOL    HW211419   2.603   5.105   4.415 -0.3479  0.3761  1.1668
 3681SOL     OW11420   6.242   4.864   5.854  0.1234  0.2405 -0.2611
 3681SOL    HW111421   6.196   4.902   5.929  0.8964  0.0441  0.3157
 3681SOL    HW211422   6.255   4.772   5.877  2.9799  0.7906  0.7051
 3682SOL     OW11423   2.657   1.324   1.446  0.2015 -0.0204  0.7500
 3682SOL    HW111424   2.710   1.362   1.516  0.2788  0.1204  0.6167
 3682SOL    HW211425   2.600   1.261   1.490 -2.8932  3.1151  1.7038
 3683SOL     OW11426   2.756   2.866   2.802 -0.5185  0.0737  0.5554
 3683SOL    HW111427   2.690   2.914   2.853 -2.7933 -0.8064 -1.4060
 3683SOL    HW211428   2.764   2.782   2.846 -1.3693 -0.1371  0.3176
 3684SOL     OW11429   4.576   5.630   4.928  0.6853  0.6876  0.3679
 3684SOL    HW111430   4.499   5.610   4.876  0.7352  1.9533 -0.2243
 3684SOL    HW211431   4.649   5.589   4.881  0.7789  2.1084 -0.7743
 3685SOL     OW11432   5.818   3.494   3.205 -0.9618 -0.7609 -0.0080
 3685SOL    HW111433   5.896   3.499   3.261 -0.5490  2.4358 -0.6853
 3685SOL    HW211434   5.748   3.466   3.264  0.0486 -0.4119  1.4072
 3686SOL     OW11435   5.321   3.076   6.289 -0.0144 -0.2067 -0.1512
 3686SOL    HW111436   5.326   3.002   6.349 -1.3368 -1.6782 -1.7366
 3686SOL    HW211437   5.412   3.092   6.263  0.1897 -2.4479 -1.0550
 3687SOL     OW11438   6.616   5.197   4.516 -0.0245 -0.4194  0.1125
 3687SOL    HW111439   6.611   5.113   4.562 -0.4131  0.1177  1.0714
 3687SOL    HW211440   6.607   5.263   4.584 -0.3705  0.4098 -0.7083
 3688SOL     OW11441   2.827   1.643   2.305  0.0984 -0.6110 -0.1149
 3688SOL    HW111442   2.807   1.737   2.302  1.6603 -0.2345  0.5142
 3688SOL    HW211443   2.879   1.627   2.226  2.0439 -0.3654  1.0580
 3689SOL     OW11444   0.352   0.223   1.944  0.3102 -0.0957  0.1704
 3689SOL    HW111445   0.315   0.141   1.976  1.1363 -0.7213 -0.4300
 3689SOL    HW211446   0.297   0.246   1.869 -1.0688  0.9005  1.4264
 3690SOL     OW11447   3.700   0.842   4.236  0.4864 -0.3366 -0.7463
 3690SOL    HW111448   3.760   0.773   4.209 -0.2805 -1.4864  0.3875
 3690SOL    HW211449   3.626   0.835   4.175  0.0171 -1.1195 -0.1147
 3691SOL     OW11450   4.846   6.303   3.834  0.5837 -0.3580  0.3367
 3691SOL    HW111451   4.908   6.369   3.862 -0.2721  2.0169 -2.8225
 3691SOL    HW211452   4.899   6.237   3.790  1.1115  0.1908  0.1416
 3692SOL     OW11453   0.610   4.428   5.658  0.2741  0.2862 -0.1514
 3692SOL    HW111454   0.589   4.420   5.751  1.1173 -0.6764 -0.0190
 3692SOL    HW211455   0.678   4.362   5.643  0.1491  0.4165 -1.4554
 3693SOL     OW11456   1.025   4.132   5.153  0.2019  0.0909 -0.4583
 3693SOL    HW111457   1.015   4.206   5.093  1.0163  0.1864 -0.4853
 3693SOL    HW211458   1.000   4.056   5.101 -0.3705  0.3120 -0.5134
 3694SOL     OW11459   4.849   1.502   5.453  0.3995  0.1937 -0.7698
 3694SOL    HW111460   4.757   1.520   5.435  0.1482 -0.1919  0.0710
 3694SOL    HW211461   4.848   1.456   5.537  1.3618  0.2128 -0.7412
 3695SOL     OW11462   5.338   6.302   5.959  0.1714  0.3263  0.0964
 3695SOL    HW111463   5.360   6.395   5.972 -0.4248  0.4797  0.0548
 3695SOL    HW211464   5.293   6.277   6.040 -1.9057  0.7726 -0.8548
 3696SOL     OW11465   0.846   4.430   0.545 -0.0639  0.4754 -0.1428
 3696SOL    HW111466   0.850   4.484   0.625  1.7570 -0.1404  0.2186
 3696SOL    HW211467   0.786   4.478   0.488 -2.6551  0.1831  2.1009
 3697SOL     OW11468   3.611   5.683   5.727 -0.4807 -0.1744  0.0909
 3697SOL    HW111469   3.660   5.670   5.646  0.2719  0.8420  0.3660
 3697SOL    HW211470   3.520   5.663   5.703 -0.6181  2.0608 -1.5633
 3698SOL     OW11471   1.032   4.936   4.964 -0.6687  0.3367  0.0705
 3698SOL    HW111472   1.099   4.911   4.901 -2.2080  0.1056 -1.5447
 3698SOL    HW211473   1.078   4.936   5.049  0.5888 -3.2887 -0.4155
 3699SOL     OW11474   2.967   0.784   2.304  0.3597  0.1502  0.3946
 3699SOL    HW111475   2.881   0.826   2.299 -1.1602 -2.8512 -1.0204
 3699SOL    HW211476   2.973   0.751   2.394  1.7440  3.4010  1.6563
 3700SOL     OW11477   4.720   3.300   4.719 -0.3320  0.0920 -0.1732
 3700SOL    HW111478   4.736   3.212   4.686  0.6771 -0.5671  1.8821
 3700SOL    HW211479   4.682   3.286   4.806  0.1209  1.6610  0.3083
 3701SOL     OW11480   4.326   6.765   1.052 -0.5188  0.1025 -0.2969
 3701SOL    HW111481   4.331   6.791   1.144 -0.6166  0.1181 -0.2953
 3701SOL    HW211482   4.243   6.716   1.046 -0.5063  0.0907 -0.3734
 3702SOL     OW11483   3.349   6.359   3.841 -0.5496  0.2886  0.2659
 3702SOL    HW111484   3.346   6.264   3.827 -0.2427  0.2733  0.3152
 3702SOL    HW211485   3.385   6.370   3.929  1.0794  0.4939 -0.3931
 3703SOL     OW11486   6.327   1.362   0.448  0.2436  0.4208 -0.0889
 3703SOL    HW111487   6.289   1.431   0.394  2.1791  0.9234 -0.8901
 3703SOL    HW211488   6.305   1.281   0.401 -0.3453  0.6370 -0.1992
 3704SOL     OW11489   5.721   5.173   6.794 -0.1442 -0.0978  0.5105
 3704SOL    HW111490   5.746   5.101   6.736 -0.7172 -0.5710  0.8377
 3704SOL    HW211491   5.695   5.244   6.735 -0.3076 -0.4254  0.1877
 3705SOL     OW11492   4.475   0.654   5.725  0.1277 -0.3085 -0.0827
 3705SOL    HW111493   4.525   0.584   5.681  0.9861  0.3645 -0.1994
 3705SOL    HW211494   4.449   0.712   5.654  0.1978 -0.0310  0.1176
 3706SOL     OW11495   4.215   2.449   6.121 -0.3319 -0.2297  0.3150
 3706SOL    HW111496   4.226   2.540   6.149  0.6435 -0.2250 -0.0163
 3706SOL    HW211497   4.127   2.445   6.085 -0.0780  0.8214 -0.4775
 3707SOL     OW11498   1.309   2.549   1.158 -0.4932  0.5732 -0.8949
 3707SOL    HW111499   1.298   2.641   1.135  3.8024  1.6450  0.3693
 3707SOL    HW211500   1.298   2.502   1.076  0.2166  2.6016 -2.2309
 3708SOL     OW11501   4.139   5.412   0.429 -0.0433  0.6453  0.1377
 3708SOL    HW111502   4.064   5.356   0.407 -0.3708  1.6941 -1.6203
 3708SOL    HW211503   4.193   5.411   0.350  1.5533  0.3602  1.1779
 3709SOL     OW11504   1.252   2.473   0.917  0.3766 -0.0521  0.8551
 3709SOL    HW111505   1.168   2.516   0.903  0.3939  0.1124  1.2429
 3709SOL    HW211506   1.262   2.414   0.842  0.1738  0.3361  0.5238
 3710SOL     OW11507   4.165   2.989   6.667  0.2962 -0.5784  0.1304
 3710SOL    HW111508   4.104   3.048   6.711 -1.7055 -2.6075  0.2731
 3710SOL    HW211509   4.135   2.987   6.576 -0.8925 -2.7376  0.5120
 3711SOL     OW11510   5.211   0.260   5.905 -0.0298  0.1211  0.1284
 3711SOL    HW111511   5.281   0.304   5.857 -1.0330  3.3884  1.3539
 3711SOL    HW211512   5.139   0.254   5.843 -0.0629  0.8146  0.0868
 3712SOL     OW11513   6.670   4.874   4.048  0.6306  0.4098  1.1189
 3712SOL    HW111514   6.703   4.789   4.021 -0.4169  0.5942 -0.9590
 3712SOL    HW211515   6.745   4.933   4.039  0.9286  0.0113  0.9618
 3713SOL     OW11516   2.619   4.227   1.958  0.4850 -0.1618 -0.2607
 3713SOL    HW111517   2.687   4.276   2.005  0.7276  2.3972 -2.9352
 3713SOL    HW211518   2.537   4.259   1.995  0.6513 -1.4572  1.3209
 3714SOL     OW11519   5.517   0.736   3.329 -0.3914  0.6240 -0.0324
 3714SOL    HW111520   5.527   0.643   3.350 -1.2415  0.3941 -0.5407
 3714SOL    HW211521   5.582   0.752   3.261  0.4867  0.6816  0.8034
 3715SOL     OW11522   1.161   2.760   6.538  0.4517 -0.1528 -0.3287
 3715SOL    HW111523   1.138   2.844   6.498 -1.1123 -0.4733 -0.1425
 3715SOL    HW211524   1.132   2.767   6.628  0.9209 -0.6599 -0.1333
 3716SOL     OW11525   5.688   0.749   3.132  0.0841 -0.0765 -0.3202
 3716SOL    HW111526   5.727   0.665   3.109  0.6733  0.4860 -1.4514
 3716SOL    HW211527   5.763   0.807   3.148 -0.3074  0.0573  1.2292
 3717SOL     OW11528   0.540   3.975   3.212  0.8249  0.0153 -0.3117
 3717SOL    HW111529   0.592   4.021   3.146  1.4476 -0.1768  0.0393
 3717SOL    HW211530   0.573   3.886   3.211  1.4337  0.2053  0.8531
 3718SOL     OW11531   2.083   1.451   6.170  0.5237  0.2104  0.0320
 3718SOL    HW111532   2.078   1.525   6.231 -0.3665  0.2615 -0.0829
 3718SOL    HW211533   2.079   1.374   6.226  1.7394  0.2270  0.1751
 3719SOL     OW11534   5.274   5.232   2.307  0.5864  0.2879  0.1787
 3719SOL    HW111535   5.193   5.225   2.257  0.6979 -1.1902  0.1744
 3719SOL    HW211536   5.247   5.227   2.398  0.5845  0.8048  0.2083
 3720SOL     OW11537   1.413   6.670   2.690  0.2909  0.1504 -0.0288
 3720SOL    HW111538   1.479   6.605   2.714  0.7057 -0.0017 -1.5080
 3720SOL    HW211539   1.333   6.620   2.678  0.4247  0.0276 -0.3991
 3721SOL     OW11540   2.894   3.923   2.394  0.4368 -0.2853  0.1148
 3721SOL    HW111541   2.810   3.964   2.410  1.2340  1.4689  0.0461
 3721SOL    HW211542   2.911   3.870   2.472 -1.0577 -1.3119 -0.2148
 3722SOL     OW11543   1.514   6.005   0.861  0.0765  0.3137 -0.1935
 3722SOL    HW111544   1.422   5.997   0.887 -0.7070  0.0131 -2.7487
 3722SOL    HW211545   1.539   5.917   0.833  0.9080  0.5593 -0.2471
 3723SOL     OW11546   4.964   0.299   2.103 -0.4322 -0.2654  0.0315
 3723SOL    HW111547   4.869   0.298   2.085 -0.2779 -0.5838 -0.8103
 3723SOL    HW211548   4.985   0.208   2.123 -0.1623 -0.3534 -0.6157
 3724SOL     OW11549   5.314   4.588   5.153 -0.1831  0.1477  0.0024
 3724SOL    HW111550   5.268   4.654   5.101 -0.8476 -0.6969 -0.4956
 3724SOL    HW211551   5.323   4.628   5.240  3.3141  2.7677 -1.2806
 3725SOL     OW11552   3.984   1.619   4.695  0.1864  0.0865 -0.3264
 3725SOL    HW111553   4.047   1.675   4.740 -1.0768  1.7135 -0.4837
 3725SOL    HW211554   3.997   1.532   4.733  2.0565  0.5032  0.0906
 3726SOL     OW11555   5.148   3.571   4.671 -0.0765  0.2682  0.6165
 3726SOL    HW111556   5.124   3.603   4.758 -0.1036  1.4332  0.2044
 3726SOL    HW211557   5.224   3.624   4.647  0.3957 -0.5720  0.2424
 3727SOL     OW11558   1.800   3.691   1.412  0.2558  0.2321 -0.3495
 3727SOL    HW111559   1.784   3.736   1.495 -1.0049 -0.6077 -0.1192
 3727SOL    HW211560   1.778   3.756   1.345 -1.5666  0.0023 -0.0212
 3728SOL     OW11561   0.694   1.664   4.284 -0.3004  0.0386  1.0636
 3728SOL    HW111562   0.664   1.660   4.193  1.3868  0.1935  0.4574
 3728SOL    HW211563   0.690   1.757   4.306 -2.5013 -0.1758  1.8431
 3729SOL     OW11564   1.169   1.661   2.117  0.3516 -0.0299  0.5117
 3729SOL    HW111565   1.257   1.629   2.136  0.7461  0.7041 -0.0378
 3729SOL    HW211566   1.111   1.596   2.157  1.1333 -0.7402  0.5287
 3730SOL     OW11567   1.120   5.075   0.475 -0.6705 -0.7784  0.8828
 3730SOL    HW111568   1.162   4.990   0.485  0.3260 -0.3975  0.1050
 3730SOL    HW211569   1.136   5.099   0.384  0.2694  0.8607  1.4404
 3731SOL     OW11570   6.302   5.814   1.856  0.3315 -0.4488  0.6777
 3731SOL    HW111571   6.333   5.844   1.770  0.5542  1.3283  1.3231
 3731SOL    HW211572   6.345   5.873   1.918 -4.1089  2.2013  1.6753
 3732SOL     OW11573   6.464   2.688   6.137 -0.0021  0.0746 -1.2070
 3732SOL    HW111574   6.543   2.741   6.146 -0.3741  0.4823 -0.1322
 3732SOL    HW211575   6.494   2.604   6.102  1.2968 -0.7422  1.6207
 3733SOL     OW11576   1.132   1.739   2.810 -0.2019 -0.9185  0.2955
 3733SOL    HW111577   1.063   1.673   2.813 -1.4845  0.1709 -2.0353
 3733SOL    HW211578   1.210   1.695   2.842 -1.0576 -3.5133 -0.9551
 3734SOL     OW11579   1.084   0.751   2.347 -0.0292  0.6013 -0.5770
 3734SOL    HW111580   1.141   0.696   2.401 -1.2132 -0.3413 -0.2656
 3734SOL    HW211581   1.131   0.835   2.341  0.5658  0.4241  1.1109
 3735SOL     OW11582   0.810   4.283   2.561 -0.3211 -0.7842  0.1715
 3735SOL    HW111583   0.764   4.199   2.557  0.8484 -1.6298  2.4380
 3735SOL    HW211584   0.900   4.262   2.536 -0.3160  0.1014 -0.6077
 3736SOL     OW11585   6.729   5.740   6.309 -0.6724 -0.4383  0.0956
 3736SOL    HW111586   6.718   5.819   6.361  1.8837  0.5200 -0.6633
 3736SOL    HW211587   6.725   5.770   6.218  0.0724 -1.2063 -0.2031
 3737SOL     OW11588   1.551   0.117   4.825  0.5717  0.4252  0.3268
 3737SOL    HW111589   1.556   0.028   4.860  1.7450 -1.0415 -3.1013
 3737SOL    HW211590   1.623   0.164   4.868  0.5222 -0.5625  1.5123
 3738SOL     OW11591   2.168   3.604   3.856 -0.2181 -0.4813  0.1033
 3738SOL    HW111592   2.108   3.540   3.818  0.0917  0.4305 -2.0585
 3738SOL    HW211593   2.176   3.578   3.948 -1.2380 -2.6432 -0.3608
 3739SOL     OW11594   1.851   4.812   4.504 -0.1383 -0.8871  0.2753
 3739SOL    HW111595   1.910   4.740   4.527 -0.9826 -1.2101  1.5840
 3739SOL    HW211596   1.763   4.775   4.516 -0.6489 -0.5531 -2.0448
 3740SOL     OW11597   1.570   1.816   2.443  0.8323 -0.2783 -0.8038
 3740SOL    HW111598   1.646   1.811   2.501  1.2179 -1.2297 -1.3820
 3740SOL    HW211599   1.570   1.907   2.412  0.2097  0.4594  1.1914
 3741SOL     OW11600   6.369   3.564   2.985  0.5724  0.4628 -0.5380
 3741SOL    HW111601   6.446   3.571   3.042  0.4560  1.7906 -0.5103
 3741SOL    HW211602   6.294   3.568   3.045  0.4611  0.3940 -0.6706
 3742SOL     OW11603   0.670   4.113   1.025 -0.3414  0.0496 -0.2086
 3742SOL    HW111604   0.708   4.025   1.014  1.8293  1.1386 -2.7438
 3742SOL    HW211605   0.701   4.142   1.111  0.3057 -1.0569 -0.0440
 3743SOL     OW11606   5.431   3.017   2.024 -0.1505  0.3375  0.4877
 3743SOL    HW111607   5.359   3.078   2.040 -0.2348  0.5942 -0.7403
 3743SOL    HW211608   5.452   3.028   1.931  0.1982 -1.1083  0.3568
 3744SOL     OW11609   2.041   0.023   2.717  0.6282 -0.0369 -0.2818
 3744SOL    HW111610   2.093  -0.056   2.736 -0.3512 -1.2964 -2.4668
 3744SOL    HW211611   2.020   0.016   2.624 -2.3268  1.0969  0.2109
 3745SOL     OW11612   5.141   3.460   5.047 -0.5419 -0.0370 -0.0197
 3745SOL    HW111613   5.124   3.554   5.055 -1.4534 -0.1672 -0.2132
 3745SOL    HW211614   5.069   3.427   4.993 -0.1364 -0.8196 -0.1089
 3746SOL     OW11615   4.831   6.772   0.756 -0.4549 -0.2265 -0.7825
 3746SOL    HW111616   4.738   6.759   0.777 -0.4880  0.7728 -0.2474
 3746SOL    HW211617   4.832   6.844   0.694 -0.1400 -1.3995 -2.1906
 3747SOL     OW11618   3.846   5.193   3.806 -0.5578 -0.1317  0.6121
 3747SOL    HW111619   3.789   5.191   3.883 -0.8995 -0.0752  0.3614
 3747SOL    HW211620   3.935   5.186   3.842 -0.6720  0.6414  1.0645
 3748SOL     OW11621   5.628   3.520   0.893 -0.0685  0.2595  0.4879
 3748SOL    HW111622   5.706   3.575   0.896  0.0701  0.0531  0.6791
 3748SOL    HW211623   5.653   3.445   0.839  0.0740 -0.1299  1.0885
 3749SOL     OW11624   4.584   0.145   1.744  0.2268  0.0609  0.0632
 3749SOL    HW111625   4.584   0.072   1.682  1.9702  0.8756 -0.9284
 3749SOL    HW211626   4.494   0.146   1.778 -0.6578 -0.7177 -2.0604
 3750SOL     OW11627   5.651   4.814   2.881  0.0930  0.1347  0.0078
 3750SOL    HW111628   5.594   4.763   2.824  2.6768 -2.3772 -0.5746
 3750SOL    HW211629   5.619   4.796   2.970  0.4336 -1.9355 -0.2505
 3751SOL     OW11630   2.411   4.707   4.573 -0.1463 -0.1070  0.1262
 3751SOL    HW111631   2.329   4.745   4.541  0.1636  0.4108 -0.0659
 3751SOL    HW211632   2.438   4.765   4.644  1.0390  0.8500 -1.0632
 3752SOL     OW11633   3.227   2.891   0.289  0.2668  0.4768  0.4198
 3752SOL    HW111634   3.303   2.832   0.286 -0.2769 -0.2312 -2.6449
 3752SOL    HW211635   3.153   2.835   0.268 -0.9651  1.4353  1.9962
 3753SOL     OW11636   3.847   6.652   1.020 -0.2126  0.6140  0.0375
 3753SOL    HW111637   3.797   6.733   1.023 -1.0223  0.1103  0.3768
 3753SOL    HW211638   3.840   6.617   1.109  1.8602  1.1896  0.4909
 3754SOL     OW11639   6.502   0.334   2.553  0.1511 -0.1368 -0.2435
 3754SOL    HW111640   6.539   0.274   2.488  0.7931  0.1765 -0.1682
 3754SOL    HW211641   6.545   0.309   2.635 -0.8821 -0.7421  0.1439
 3755SOL     OW11642   4.593   3.311   1.511  0.5100 -0.1673 -0.2112
 3755SOL    HW111643   4.604   3.343   1.421 -0.1129  0.2661 -0.1394
 3755SOL    HW211644   4.659   3.359   1.561  0.1260  0.4108 -0.2492
 3756SOL     OW11645   1.575   1.088   1.190  0.2738 -0.2116 -0.1394
 3756SOL    HW111646   1.499   1.037   1.217 -0.7249  0.8565 -0.8384
 3756SOL    HW211647   1.560   1.176   1.226  0.6655  0.2753 -1.1028
 3757SOL     OW11648   0.320   4.192   2.164  0.3772  0.0430  0.1849
 3757SOL    HW111649   0.281   4.175   2.249  0.0777 -2.0201 -0.3060
 3757SOL    HW211650   0.370   4.112   2.144 -1.2890 -0.4402 -2.4660
 3758SOL     OW11651   2.106   6.273   1.940 -0.0271 -0.3123  0.3655
 3758SOL    HW111652   2.075   6.183   1.949 -1.8974  0.3512  1.1444
 3758SOL    HW211653   2.044   6.313   1.879  0.3147  0.6406  0.6395
 3759SOL     OW11654   1.090   3.003   4.553 -0.4015  0.3219  0.3183
 3759SOL    HW111655   1.104   3.060   4.628 -1.3054  1.6426 -0.4759
 3759SOL    HW211656   1.005   3.029   4.518 -0.0345 -0.2988 -1.1323
 3760SOL     OW11657   6.700   5.963   4.596  0.4969 -0.2661  0.2905
 3760SOL    HW111658   6.745   6.014   4.529  1.2182 -0.7138  0.4313
 3760SOL    HW211659   6.642   5.904   4.546 -0.1068  0.4541  0.1192
 3761SOL     OW11660   2.907   3.061   4.047  0.6439  0.1793  0.0924
 3761SOL    HW111661   2.917   3.087   3.956  0.2776  1.2426  0.3470
 3761SOL    HW211662   2.815   3.033   4.054  1.0373 -1.2804 -0.1861
 3762SOL     OW11663   2.789   1.608   6.080  0.8202  0.6056  0.3721
 3762SOL    HW111664   2.872   1.591   6.036  0.6076  2.0914 -0.6755
 3762SOL    HW211665   2.722   1.584   6.016  0.4894  1.4249  0.3987
 3763SOL     OW11666   0.813   0.446   4.177  0.1292  0.1807  0.5883
 3763SOL    HW111667   0.727   0.459   4.216  0.1348  0.8657  0.3928
 3763SOL    HW211668   0.810   0.358   4.139 -0.7951  0.5248 -0.1868
 3764SOL     OW11669   4.142   1.110   5.349  0.1935 -0.0114 -0.2296
 3764SOL    HW111670   4.062   1.132   5.397  0.1159 -0.1235 -0.3069
 3764SOL    HW211671   4.130   1.019   5.323 -0.3138  0.3903 -1.5286
 3765SOL     OW11672   6.245   6.096   1.286  0.2681  0.3225 -0.0383
 3765SOL    HW111673   6.295   6.116   1.207 -0.9755  1.4541 -0.5739
 3765SOL    HW211674   6.153   6.100   1.258 -0.1673 -1.6576  0.9231
 3766SOL     OW11675   2.563   1.242   1.145  0.3615 -0.0301  0.2374
 3766SOL    HW111676   2.503   1.168   1.144 -0.2503  0.4523 -0.1508
 3766SOL    HW211677   2.607   1.236   1.230  1.0952 -1.4207 -0.2193
 3767SOL     OW11678   6.649   2.388   1.872  0.3539  0.1434  0.3525
 3767SOL    HW111679   6.616   2.406   1.960 -0.0179 -0.1970  0.2823
 3767SOL    HW211680   6.744   2.391   1.881  0.3144  0.2052  0.7463
 3768SOL     OW11681   2.358   4.960   6.304 -0.4000 -0.2662 -0.3202
 3768SOL    HW111682   2.354   4.989   6.213 -0.0554  1.0898  0.0778
 3768SOL    HW211683   2.451   4.943   6.320 -0.5725 -1.4094 -0.4849
 3769SOL     OW11684   3.667   5.779   5.989 -0.1888  0.3775  0.3170
 3769SOL    HW111685   3.593   5.749   6.042 -1.6770  2.4122 -0.4758
 3769SOL    HW211686   3.642   5.759   5.899 -0.0038  1.4476  0.0111
 3770SOL     OW11687   5.082   0.756   0.677 -0.1129 -0.4071  0.3915
 3770SOL    HW111688   4.994   0.765   0.640  0.1912 -0.7826 -0.4435
 3770SOL    HW211689   5.141   0.784   0.607  0.4248  0.0929  1.0347
 3771SOL     OW11690   5.642   4.742   6.467  1.0514 -0.3402 -0.5344
 3771SOL    HW111691   5.614   4.742   6.375  0.7285 -0.1689 -0.4382
 3771SOL    HW211692   5.723   4.692   6.467  1.5288  0.4060 -1.0634
 3772SOL     OW11693   3.329   0.670   5.774 -0.1157 -0.0000 -0.1671
 3772SOL    HW111694   3.287   0.629   5.849 -0.8755 -0.0995 -0.6378
 3772SOL    HW211695   3.385   0.600   5.737 -1.5334 -0.7017 -1.0651
 3773SOL     OW11696   0.907   1.813   5.946 -0.0090 -0.4894 -0.2279
 3773SOL    HW111697   0.917   1.798   6.040  1.1211  1.3966  0.0209
 3773SOL    HW211698   0.896   1.726   5.908 -1.4414 -1.2136  1.7351
 3774SOL     OW11699   1.127   3.049   1.034  0.6941 -0.7762 -0.2078
 3774SOL    HW111700   1.218   3.079   1.028  0.8438 -0.9496  1.0034
 3774SOL    HW211701   1.102   3.066   1.125  0.3322 -2.9797  0.1618
 3775SOL     OW11702   4.040   6.131   3.136  0.2828 -0.0847  0.3968
 3775SOL    HW111703   4.085   6.137   3.221 -0.3496  0.1023  0.7299
 3775SOL    HW211704   4.109   6.143   3.071  0.8016 -0.3874  0.8865
 3776SOL     OW11705   1.592   3.206   0.927  0.3833  0.3940 -0.3479
 3776SOL    HW111706   1.634   3.196   1.012  0.4381 -0.2771 -0.4483
 3776SOL    HW211707   1.629   3.136   0.873 -0.7336 -0.1362 -0.4770
 3777SOL     OW11708   1.843   1.809   1.944  0.0949 -0.0178 -0.4470
 3777SOL    HW111709   1.834   1.804   2.039  1.6725  0.7952 -0.2171
 3777SOL    HW211710   1.900   1.735   1.921 -0.8500 -0.6361 -0.8759
 3778SOL     OW11711   3.473   0.492   4.547 -0.1735 -0.3661 -0.2770
 3778SOL    HW111712   3.464   0.410   4.596 -3.4985 -0.8442 -1.4361
 3778SOL    HW211713   3.394   0.542   4.569 -0.0127  0.9278 -2.3953
 3779SOL     OW11714   5.433   2.943   6.836 -0.1386  0.2912 -0.2531
 3779SOL    HW111715   5.435   2.851   6.860  1.0828  0.2592 -0.4339
 3779SOL    HW211716   5.380   2.984   6.904  1.2845 -0.1720  1.1927
 3780SOL     OW11717   6.009   1.549   2.894 -0.3657 -0.6440 -0.5073
 3780SOL    HW111718   6.005   1.503   2.978 -0.2951  0.6162  0.2133
 3780SOL    HW211719   5.968   1.489   2.832  0.1039 -1.8457  0.2991
 3781SOL     OW11720   1.753   5.434   2.606 -0.1845  0.0267 -0.0028
 3781SOL    HW111721   1.727   5.393   2.689 -0.4362  0.0577 -0.0656
 3781SOL    HW211722   1.740   5.528   2.620  3.0033  0.4374  1.1127
 3782SOL     OW11723   6.465   6.631   0.559  0.0079  0.4009  0.2176
 3782SOL    HW111724   6.543   6.587   0.591 -1.6492 -0.1856  3.9998
 3782SOL    HW211725   6.421   6.565   0.505  0.8662 -0.1674  0.1901
 3783SOL     OW11726   1.006   3.114   2.941 -0.7730 -0.5266  0.2618
 3783SOL    HW111727   0.955   3.144   2.865 -3.2044 -2.2102  1.0985
 3783SOL    HW211728   1.068   3.051   2.904 -1.4401 -0.7956 -0.4401
 3784SOL     OW11729   4.984   6.732   6.620 -0.0856 -0.4879 -0.1416
 3784SOL    HW111730   4.953   6.702   6.534  1.3325 -0.3059 -0.7509
 3784SOL    HW211731   4.906   6.766   6.663 -0.4630  1.9283 -2.4350
 3785SOL     OW11732   2.404   3.742   6.745  0.0838 -0.7471  0.2742
 3785SOL    HW111733   2.360   3.771   6.665  0.6586  3.0921  1.1202
 3785SOL    HW211734   2.336   3.742   6.811  0.2656 -0.3363  0.4676
 3786SOL     OW11735   1.429   5.422   4.247  0.6445  0.8707  0.4097
 3786SOL    HW111736   1.343   5.440   4.209  0.1019  1.7208  1.9461
 3786SOL    HW211737   1.487   5.409   4.172 -0.9994 -0.6658 -0.6710
 3787SOL     OW11738   4.146   1.050   2.615 -0.2874 -0.6697 -0.1542
 3787SOL    HW111739   4.161   1.142   2.593  0.4616 -0.5449  0.8118
 3787SOL    HW211740   4.101   1.014   2.539 -1.3087  0.6854 -0.2243
 3788SOL     OW11741   5.468   6.130   5.611 -0.4637 -0.1535 -0.5665
 3788SOL    HW111742   5.449   6.209   5.559 -0.9762 -0.0228 -0.1936
 3788SOL    HW211743   5.382   6.101   5.642 -0.1531 -0.1376  0.3421
 3789SOL     OW11744   2.208   4.502   2.685 -0.6967 -0.0160  0.1885
 3789SOL    HW111745   2.301   4.518   2.671 -0.4565  0.0944  1.7426
 3789SOL    HW211746   2.177   4.466   2.601  0.2148  2.1078 -1.1476
 3790SOL     OW11747   3.984   5.187   1.252  0.3175 -0.1069  0.2411
 3790SOL    HW111748   3.963   5.224   1.166 -0.2843  0.4698  0.6305
 3790SOL    HW211749   3.943   5.101   1.251 -1.3377  0.6306  0.6377
 3791SOL     OW11750   5.769   3.141   3.865 -0.6441  0.2381  0.1018
 3791SOL    HW111751   5.690   3.088   3.850 -0.8068  0.9018 -1.6256
 3791SOL    HW211752   5.808   3.149   3.779 -0.4492  2.6481  0.3621
 3792SOL     OW11753   3.074   1.035   2.374 -0.1689  0.4671  0.1807
 3792SOL    HW111754   3.010   1.025   2.445  0.1012 -0.6991  0.2795
 3792SOL    HW211755   3.085   1.129   2.365 -1.7031  0.6836  0.3344
 3793SOL     OW11756   5.608   3.669   2.011  0.0487  0.3775 -0.0794
 3793SOL    HW111757   5.688   3.715   2.035  1.5614 -1.2555 -1.6977
 3793SOL    HW211758   5.628   3.627   1.927 -2.5260 -0.0776 -0.5730
 3794SOL     OW11759   2.537   4.347   6.736  0.0379 -0.1263  0.5144
 3794SOL    HW111760   2.472   4.371   6.802 -1.0650 -0.3902 -0.4541
 3794SOL    HW211761   2.501   4.269   6.693  0.6936  0.0900 -0.4620
 3795SOL     OW11762   1.975   3.747   2.966 -0.3334 -0.7307  0.0597
 3795SOL    HW111763   1.886   3.714   2.957 -1.3816  2.0229 -0.7611
 3795SOL    HW211764   1.979   3.782   3.055 -0.6296  0.4693 -0.3704
 3796SOL     OW11765   3.154   5.165   5.151 -0.9812  0.0094  0.7515
 3796SOL    HW111766   3.071   5.136   5.113 -0.5630  1.2036 -1.2220
 3796SOL    HW211767   3.154   5.260   5.140  0.6406  0.0352  0.7170
 3797SOL     OW11768   0.813   2.392   4.766 -0.5922 -0.4727  0.4059
 3797SOL    HW111769   0.759   2.333   4.714  1.0027  0.7581 -2.9731
 3797SOL    HW211770   0.784   2.479   4.741  1.2137  0.1878  0.4616
 3798SOL     OW11771   6.297   5.826   2.573  0.1954  0.1055  0.4054
 3798SOL    HW111772   6.391   5.812   2.581 -0.0053 -1.5110  0.2387
 3798SOL    HW211773   6.283   5.849   2.482  0.2611 -1.3689  0.0007
 3799SOL     OW11774   6.481   3.674   4.040 -0.4364  0.2458 -0.2562
 3799SOL    HW111775   6.409   3.737   4.037 -0.9422 -0.2866  0.2656
 3799SOL    HW211776   6.438   3.589   4.049  0.2537  0.0635  1.9873
 3800SOL     OW11777   5.765   6.106   2.075 -0.0286  0.1209  0.0446
 3800SOL    HW111778   5.774   6.104   2.170  1.3351  1.5668 -0.0027
 3800SOL    HW211779   5.679   6.145   2.059  0.3513  1.2951  0.7274
 3801SOL     OW11780   2.803   6.692   0.861 -0.0627  0.2492 -0.6674
 3801SOL    HW111781   2.747   6.737   0.925  0.0400 -1.7353  0.9248
 3801SOL    HW211782   2.763   6.711   0.776 -2.0886  0.3976  0.2584
 3802SOL     OW11783   1.460   6.425   6.678 -0.2427 -0.1291 -0.3251
 3802SOL    HW111784   1.450   6.340   6.719  1.2060 -0.1578  0.0262
 3802SOL    HW211785   1.383   6.434   6.622 -1.1148 -1.0551  0.6781
 3803SOL     OW11786   1.975   0.831   3.012 -0.1019 -0.2249 -0.9722
 3803SOL    HW111787   1.989   0.750   3.061  0.4573 -0.9952 -2.3295
 3803SOL    HW211788   1.939   0.892   3.076  0.0749 -1.3427  0.2439
 3804SOL     OW11789   5.729   4.244   6.342  0.1777  0.0826 -0.7074
 3804SOL    HW111790   5.750   4.171   6.399 -0.8478 -2.4568 -3.3188
 3804SOL    HW211791   5.634   4.245   6.337  0.1507  1.7530 -0.6137
 3805SOL     OW11792   3.187   0.643   6.763  0.1590 -0.1709 -0.0187
 3805SOL    HW111793   3.107   0.657   6.813  0.3641  0.1740  0.2181
 3805SOL    HW211794   3.250   0.704   6.801  0.7929 -1.0455  0.3820
 3806SOL     OW11795   2.807   0.338   0.485 -0.1143  0.7747  0.0790
 3806SOL    HW111796   2.810   0.433   0.478 -0.6103  0.7460 -0.6318
 3806SOL    HW211797   2.771   0.322   0.573 -0.4550  1.2470  0.0273
 3807SOL     OW11798   0.455   6.362   4.034 -0.3184 -0.3177  0.0418
 3807SOL    HW111799   0.398   6.319   4.097 -0.4389  0.1035  0.2264
 3807SOL    HW211800   0.540   6.370   4.079 -0.6885  0.9409  0.5762
 3808SOL     OW11801   4.876   6.048   0.227  0.6625 -0.3042 -0.7208
 3808SOL    HW111802   4.951   6.084   0.276 -0.2466  0.3373  0.2443
 3808SOL    HW211803   4.800   6.075   0.277 -0.1819 -1.8183 -1.1412
 3809SOL     OW11804   4.992   3.621   2.569 -0.4463  0.4879  0.2371
 3809SOL    HW111805   4.927   3.684   2.539 -1.9777 -0.6937  0.9268
 3809SOL    HW211806   4.996   3.555   2.500  1.2137  1.3169 -0.5232
 3810SOL     OW11807   1.214   0.330   2.051  0.0036 -0.1842  0.4935
 3810SOL    HW111808   1.259   0.303   1.971  0.2423 -0.3501  0.6827
 3810SOL    HW211809   1.257   0.412   2.076  0.0222 -0.2059  0.5314
 3811SOL     OW11810   5.998   6.570   2.151  0.1014 -0.0844 -0.4836
 3811SOL    HW111811   5.963   6.631   2.217  0.7774 -0.1381 -0.0723
 3811SOL    HW211812   5.921   6.520   2.123  0.1012 -1.5808  1.8644
 3812SOL     OW11813   3.417   6.182   5.024  0.4121  0.3478 -0.0027
 3812SOL    HW111814   3.435   6.245   4.954  0.8779 -0.4942 -0.6560
 3812SOL    HW211815   3.345   6.221   5.073 -1.8871 -0.2993 -2.6278
 3813SOL     OW11816   0.355   2.400   1.319 -0.2929 -0.1745  0.7080
 3813SOL    HW111817   0.264   2.402   1.292 -0.1369 -0.1906  0.1826
 3813SOL    HW211818   0.393   2.480   1.283  0.4327 -1.2303 -0.9599
 3814SOL     OW11819   1.105   3.122   1.922 -1.4038 -0.7261 -0.0584
 3814SOL    HW111820   1.060   3.153   1.844  0.4661 -1.6871 -1.6120
 3814SOL    HW211821   1.048   3.146   1.994 -2.2125  2.1247 -1.4990
 3815SOL     OW11822   4.325   4.063   3.609  0.2498 -0.0920  0.8152
 3815SOL    HW111823   4.416   4.080   3.631 -0.1143  0.6364  1.8257
 3815SOL    HW211824   4.321   4.071   3.514  1.1150  0.4392  0.8155
 3816SOL     OW11825   4.878   3.959   4.984  0.2748 -0.3912 -0.0449
 3816SOL    HW111826   4.891   4.051   5.005 -3.6131  0.0547  1.1876
 3816SOL    HW211827   4.882   3.956   4.888 -2.4659  1.7369 -0.3313
 3817SOL     OW11828   5.738   5.464   2.984  0.0840 -0.6458  0.1191
 3817SOL    HW111829   5.658   5.412   2.975  0.1301 -0.6103 -0.5646
 3817SOL    HW211830   5.759   5.490   2.895  0.5357 -0.1629  0.3646
 3818SOL     OW11831   0.999   3.846   2.018 -0.2329 -0.4682 -0.1472
 3818SOL    HW111832   1.049   3.900   1.957 -2.4662  0.3885 -1.3540
 3818SOL    HW211833   0.935   3.800   1.962 -1.5001 -0.6626  1.3991
 3819SOL     OW11834   2.167   5.628   3.052 -0.1058 -0.9223 -0.0486
 3819SOL    HW111835   2.104   5.557   3.060 -0.7198 -0.5409 -1.2308
 3819SOL    HW211836   2.121   5.705   3.086 -0.0351 -0.7749 -0.2869
 3820SOL     OW11837   0.161   6.355   3.425 -0.4318  0.0428 -0.4564
 3820SOL    HW111838   0.221   6.417   3.465 -1.6378  1.4262 -0.7077
 3820SOL    HW211839   0.130   6.300   3.497 -1.1527  1.2934  0.2160
 3821SOL     OW11840   5.766   3.671   6.704  0.4545  0.6294 -0.3958
 3821SOL    HW111841   5.857   3.697   6.691  0.6272 -0.1923 -0.8839
 3821SOL    HW211842   5.763   3.643   6.796  1.0470 -0.6613 -0.7432
 3822SOL     OW11843   5.626   3.163   3.181 -0.0400 -0.0442 -0.0775
 3822SOL    HW111844   5.582   3.198   3.259  0.0608  3.6519 -1.4734
 3822SOL    HW211845   5.556   3.149   3.118  0.2027  0.2840 -0.4232
 3823SOL     OW11846   3.014   4.441   2.112 -0.0410  0.0344 -0.4147
 3823SOL    HW111847   2.924   4.410   2.120  0.0326  0.0856  0.9802
 3823SOL    HW211848   3.017   4.519   2.168  0.6844  0.4622 -1.0385
 3824SOL     OW11849   0.136   4.947   6.276 -0.2270 -0.6594 -0.2060
 3824SOL    HW111850   0.065   4.950   6.212  0.1272 -1.7948 -0.6957
 3824SOL    HW211851   0.140   5.035   6.313 -1.1540 -0.2800 -0.9718
 3825SOL     OW11852   4.189   5.203   0.626  0.3606  0.5341  0.3902
 3825SOL    HW111853   4.135   5.227   0.551 -0.7365  1.9442  1.5788
 3825SOL    HW211854   4.232   5.122   0.599 -0.1508  0.8904 -1.6697
 3826SOL     OW11855   0.174   5.269   6.674 -0.0957 -0.5232  0.0139
 3826SOL    HW111856   0.156   5.254   6.582 -0.5430 -0.4632  0.0900
 3826SOL    HW211857   0.226   5.349   6.676  1.8313 -1.6878 -0.3584
 3827SOL     OW11858   4.927   0.862   0.001 -0.9741  0.0665  0.4352
 3827SOL    HW111859   4.862   0.918   0.043 -0.4560  1.4707 -0.5393
 3827SOL    HW211860   4.877   0.810  -0.062 -1.3075  0.3348  0.4781
 3828SOL     OW11861   4.237   6.186   3.361 -0.0205 -0.0020 -0.2699
 3828SOL    HW111862   4.160   6.198   3.416 -0.1098  0.2210 -0.4393
 3828SOL    HW211863   4.294   6.260   3.383  0.1985 -0.2306 -0.0604
 3829SOL     OW11864   2.089   2.113   3.986  0.0739  0.0092 -0.8020
 3829SOL    HW111865   2.012   2.167   4.003  1.3800  1.2655  1.6685
 3829SOL    HW211866   2.096   2.056   4.062  0.8954 -0.9995 -1.5991
 3830SOL     OW11867   4.517   0.704   4.206 -0.2545 -0.2174  0.7223
 3830SOL    HW111868   4.438   0.758   4.205 -0.2439 -0.1827 -0.6156
 3830SOL    HW211869   4.545   0.703   4.298  1.1480  4.1237  0.5810
 3831SOL     OW11870   4.853   5.742   6.150 -0.4281 -0.2094 -0.3741
 3831SOL    HW111871   4.842   5.835   6.129  1.5942  0.1635  0.0499
 3831SOL    HW211872   4.947   5.730   6.158 -0.5799 -2.4971 -1.2260
 3832SOL     OW11873   0.271   3.627   6.340  0.3453 -0.1466  0.2951
 3832SOL    HW111874   0.193   3.591   6.381 -1.7439  1.8036 -1.6200
 3832SOL    HW211875   0.239   3.703   6.291  3.3287  0.2437 -1.3033
 3833SOL     OW11876   0.376   2.072   3.386 -0.1877  0.6857 -0.5523
 3833SOL    HW111877   0.403   2.161   3.408 -0.2101  0.4807  0.3332
 3833SOL    HW211878   0.356   2.076   3.292 -1.7455  2.0097 -0.2106
 3834SOL     OW11879   6.414   2.552   0.980 -0.3034 -0.3545 -0.0024
 3834SOL    HW111880   6.444   2.624   1.036 -2.5746 -0.1390  1.0405
 3834SOL    HW211881   6.362   2.596   0.913 -0.0418 -0.8904 -0.5642
 3835SOL     OW11882   3.756   6.530   2.746 -0.0698 -0.2370 -0.5519
 3835SOL    HW111883   3.749   6.523   2.841 -1.5114 -0.2344 -0.6246
 3835SOL    HW211884   3.730   6.620   2.726 -0.6460 -0.4900 -0.9941
 3836SOL     OW11885   1.529   3.367   5.249 -0.0555 -0.2747 -0.3452
 3836SOL    HW111886   1.597   3.300   5.242  0.1760 -0.0353 -0.4367
 3836SOL    HW211887   1.466   3.331   5.312 -0.7628 -1.2701 -1.5804
 3837SOL     OW11888   2.901   5.080   5.108 -0.1257  0.1923  0.3155
 3837SOL    HW111889   2.860   4.994   5.106 -1.3430  0.5413  3.2717
 3837SOL    HW211890   2.849   5.129   5.173  0.2966  3.2734 -1.4759
 3838SOL     OW11891   2.649   4.040   3.517 -0.4221  0.6993 -0.2773
 3838SOL    HW111892   2.615   4.115   3.471 -3.2998 -0.1077  0.3597
 3838SOL    HW211893   2.705   3.996   3.453 -0.9105  1.8715 -1.5619
 3839SOL     OW11894   5.412   4.222   2.872  0.1036  0.3173 -0.1060
 3839SOL    HW111895   5.489   4.167   2.860  0.3037  0.0402  2.0528
 3839SOL    HW211896   5.403   4.269   2.789  2.0694 -0.2832 -0.7123
 3840SOL     OW11897   0.228   6.304   2.143 -0.0246 -0.3057  0.3903
 3840SOL    HW111898   0.136   6.323   2.160 -0.0083  0.7200 -0.6057
 3840SOL    HW211899   0.269   6.307   2.230 -0.8480 -0.3659  0.7900
 3841SOL     OW11900   1.998   3.392   1.152  0.0070 -0.0417 -0.2484
 3841SOL    HW111901   2.068   3.456   1.167  0.2320 -0.1929 -0.6255
 3841SOL    HW211902   1.993   3.385   1.057  1.2646 -1.9600 -0.2246
 3842SOL     OW11903   0.107   3.236   4.207 -0.1264 -0.2092  0.2174
 3842SOL    HW111904   0.127   3.164   4.266 -0.0962  0.1057  0.5960
 3842SOL    HW211905   0.192   3.262   4.172  0.0388  0.5151  1.1105
 3843SOL     OW11906   5.970   0.596   3.323  0.0946  0.4856  0.7479
 3843SOL    HW111907   5.925   0.663   3.375 -0.5977  1.5063 -1.0805
 3843SOL    HW211908   6.013   0.645   3.253  0.5344 -0.8868  0.0177
 3844SOL     OW11909   2.722   5.441   0.185  0.2682 -0.0762  0.0592
 3844SOL    HW111910   2.770   5.359   0.174  1.6290  0.5675  0.8745
 3844SOL    HW211911   2.687   5.460   0.099  1.1674 -0.7928 -0.4830
 3845SOL     OW11912   4.314   0.248   3.667  0.4160  0.3903  0.1185
 3845SOL    HW111913   4.286   0.234   3.576 -1.8110 -4.0156  1.2328
 3845SOL    HW211914   4.406   0.223   3.667  0.0450 -1.1474 -0.7343
 3846SOL     OW11915   0.680   6.253   3.489 -0.2501  0.2304  0.0469
 3846SOL    HW111916   0.650   6.281   3.403 -0.3247 -0.5745 -0.1955
 3846SOL    HW211917   0.764   6.298   3.501  0.3964 -0.6453 -1.0097
 3847SOL     OW11918   0.536   3.021   6.778 -0.0517 -0.1325  0.0818
 3847SOL    HW111919   0.548   3.003   6.684  0.3250 -1.9151  0.4235
 3847SOL    HW211920   0.625   3.018   6.814  0.3477  4.3411  0.0079
 3848SOL     OW11921   0.123   0.358   6.586  0.2415 -0.0731 -0.4361
 3848SOL    HW111922   0.173   0.395   6.659 -1.0632 -0.7079  0.8287
 3848SOL    HW211923   0.183   0.363   6.511  1.6398  0.5631  0.6720
 3849SOL     OW11924   5.078   2.880   6.584  0.5434  0.3265  0.1798
 3849SOL    HW111925   5.059   2.793   6.548 -0.9884  1.1116 -1.0372
 3849SOL    HW211926   5.028   2.883   6.666  0.4601  0.1116  0.1392
 3850SOL     OW11927   1.923   0.470   0.171  0.2651 -0.5769  0.7460
 3850SOL    HW111928   1.986   0.491   0.101 -0.9752  0.1699 -0.1969
 3850SOL    HW211929   1.948   0.528   0.243  0.6849 -0.3032  0.3888
 3851SOL     OW11930   6.561   2.583   5.413  0.8226 -0.4344 -0.1354
 3851SOL    HW111931   6.537   2.503   5.460 -0.2254  0.3417  0.7022
 3851SOL    HW211932   6.606   2.636   5.479  1.5485 -0.3449 -0.6968
 3852SOL     OW11933   0.543   4.885   2.380 -0.1807  0.1061 -0.4230
 3852SOL    HW111934   0.521   4.905   2.471 -0.8054  0.0416 -0.5556
 3852SOL    HW211935   0.632   4.849   2.384 -0.2414  0.0122  0.1733
 3853SOL     OW11936   6.691   2.144   6.594 -0.4656 -0.4385  0.0619
 3853SOL    HW111937   6.722   2.217   6.541  0.6673 -0.2038  1.0130
 3853SOL    HW211938   6.655   2.185   6.672 -2.3182 -0.7684 -0.5760
 3854SOL     OW11939   0.465   2.766   6.383 -0.4651 -0.2785 -0.4260
 3854SOL    HW111940   0.427   2.764   6.295 -0.5707 -0.1500 -0.3837
 3854SOL    HW211941   0.431   2.687   6.425 -1.3893  0.2723 -0.0983
 3855SOL     OW11942   6.369   2.992   5.897 -0.3257 -0.0934 -0.0761
 3855SOL    HW111943   6.337   3.038   5.820  0.0040 -1.3266 -0.9698
 3855SOL    HW211944   6.461   2.972   5.877 -0.6224 -1.6670  0.0154
 3856SOL     OW11945   6.202   6.573   3.023 -0.5160 -0.5772 -0.0690
 3856SOL    HW111946   6.209   6.485   2.987 -0.6493 -0.5255 -0.2218
 3856SOL    HW211947   6.170   6.560   3.112 -1.0764 -0.6521 -0.2751
 3857SOL     OW11948   6.454   4.368   3.862 -1.2465  0.0289 -0.5617
 3857SOL    HW111949   6.448   4.425   3.938 -1.9514 -1.6105  0.6805
 3857SOL    HW211950   6.531   4.313   3.878 -0.9655  0.1490 -1.4074
 3858SOL     OW11951   3.785   3.365   5.357  0.1266  0.1022 -0.2624
 3858SOL    HW111952   3.840   3.306   5.410  0.3969  1.3987  0.9665
 3858SOL    HW211953   3.837   3.384   5.280  0.4900 -0.3956 -0.1446
 3859SOL     OW11954   6.337   1.481   2.285  0.3208 -0.2185  0.2616
 3859SOL    HW111955   6.314   1.559   2.336  1.5699 -0.1702  0.7818
 3859SOL    HW211956   6.288   1.410   2.327 -1.2794  0.3480 -0.5713
 3860SOL     OW11957   0.720   2.794   6.247  0.0021 -0.5758 -0.2238
 3860SOL    HW111958   0.668   2.828   6.174  0.8966  1.1279 -0.1128
 3860SOL    HW211959   0.656   2.778   6.317 -0.6942 -1.0270 -0.9494
 3861SOL     OW11960   3.865   3.916   3.064  0.1617  0.2646  0.8589
 3861SOL    HW111961   3.935   3.933   3.126 -0.7679  1.7891  1.5662
 3861SOL    HW211962   3.786   3.909   3.118 -0.6476  1.5053 -0.0886
 3862SOL     OW11963   0.426   6.561   3.174  0.0726 -0.1705 -0.1157
 3862SOL    HW111964   0.492   6.576   3.107  0.0571  0.6494  0.0361
 3862SOL    HW211965   0.345   6.545   3.125  0.1609 -0.0620 -0.2966
 3863SOL     OW11966   6.342   4.952   0.427 -0.1661  0.6193 -0.5767
 3863SOL    HW111967   6.433   4.936   0.453 -0.7712 -3.6211 -0.2395
 3863SOL    HW211968   6.349   4.993   0.340  2.0489  0.6720 -0.4472
 3864SOL     OW11969   4.023   4.652   1.651 -0.1261 -0.5595 -0.2790
 3864SOL    HW111970   3.961   4.671   1.580 -0.1364 -1.9485 -0.6799
 3864SOL    HW211971   4.095   4.712   1.636 -1.0567  0.5987 -0.2236
 3865SOL     OW11972   6.215   1.040   5.329  0.2214 -0.0628  0.6422
 3865SOL    HW111973   6.237   0.997   5.246 -0.9940 -0.3618  0.4661
 3865SOL    HW211974   6.262   1.123   5.326  0.0085  0.0234 -0.4430
 3866SOL     OW11975   4.281   0.850   1.273 -0.3851  0.3672  0.1416
 3866SOL    HW111976   4.262   0.770   1.225  0.5707 -0.6516  1.3719
 3866SOL    HW211977   4.212   0.911   1.248 -0.0523 -0.1570 -2.3037
 3867SOL     OW11978   2.596   6.523   3.471  0.2879  0.7444  0.0681
 3867SOL    HW111979   2.563   6.476   3.394 -0.7836  0.3573  0.7531
 3867SOL    HW211980   2.691   6.516   3.463  0.2567  1.8590 -1.9305
 3868SOL     OW11981   0.064   1.427   5.947  0.6754  0.1783  0.0502
 3868SOL    HW111982   0.035   1.463   6.031  0.4923  1.6851 -0.6090
 3868SOL    HW211983   0.042   1.496   5.883  1.7139 -0.4990 -1.0861
 3869SOL     OW11984   2.315   1.895   4.813  0.0102  0.0138 -0.1563
 3869SOL    HW111985   2.231   1.856   4.790 -0.0095  0.3193 -0.6107
 3869SOL    HW211986   2.356   1.914   4.729  0.2215  0.5395  0.0638
 3870SOL     OW11987   4.252   4.010   1.741 -0.0182  0.6051 -0.4430
 3870SOL    HW111988   4.251   4.042   1.651  0.0186 -3.7916 -2.2415
 3870SOL    HW211989   4.329   3.954   1.746  0.3544  1.2186  2.6072
 3871SOL     OW11990   2.439   4.006   0.011  0.1223  0.4198  0.8264
 3871SOL    HW111991   2.396   3.921   0.029  0.8755 -0.2257 -0.3412
 3871SOL    HW211992   2.369   4.060  -0.025 -0.2070  0.0641  0.9123
 3872SOL     OW11993   5.918   6.063   6.269  0.2319 -0.4243 -0.1821
 3872SOL    HW111994   5.852   6.083   6.202 -0.5132 -0.6360  0.4689
 3872SOL    HW211995   5.921   6.143   6.322 -0.7259 -0.9951  0.7730
 3873SOL     OW11996   0.955   6.558   3.136 -0.2212  0.0088  0.2585
 3873SOL    HW111997   1.005   6.522   3.209  0.6398 -1.1977 -0.8929
 3873SOL    HW211998   1.016   6.617   3.092  0.3714 -1.7295 -1.3517
 3874SOL     OW11999   6.281   3.271   0.600 -0.1094  0.1469 -0.1723
 3874SOL    HW112000   6.251   3.180   0.597  3.1940 -1.0567 -0.1596
 3874SOL    HW212001   6.235   3.313   0.527 -2.1978 -1.3274  0.2140
 3875SOL     OW12002   3.662   4.403   5.173  0.3584  0.3051  0.7215
 3875SOL    HW112003   3.716   4.440   5.244  0.5728 -0.1232  0.7858
 3875SOL    HW212004   3.705   4.320   5.152  0.4043  0.5204 -0.0489
 3876SOL     OW12005   0.659   3.784   2.418 -0.0557 -0.1551  0.7809
 3876SOL    HW112006   0.663   3.866   2.370 -0.1163  0.9078  2.5065
 3876SOL    HW212007   0.700   3.803   2.502  1.9693 -2.4981  0.4475
 3877SOL     OW12008   2.001   6.832   0.618  0.8296  0.2668 -0.6203
 3877SOL    HW112009   1.985   6.803   0.708  1.9886  0.2237 -0.4230
 3877SOL    HW212010   1.944   6.777   0.564  0.0760  0.3435  0.0855
 3878SOL     OW12011   4.224   5.701   0.509 -0.2077  0.9802 -0.8968
 3878SOL    HW112012   4.169   5.703   0.588  0.2955  1.0826 -0.5471
 3878SOL    HW212013   4.170   5.657   0.444 -0.2220 -0.0936 -0.1847
 3879SOL     OW12014   6.735   4.015   1.624 -0.1044 -0.2277  0.2436
 3879SOL    HW112015   6.782   3.936   1.600 -1.8275 -1.1885 -0.0863
 3879SOL    HW212016   6.787   4.053   1.695  0.8892 -1.5050  0.2290
 3880SOL     OW12017   3.966   2.215   6.472  0.1959 -0.2049 -0.3875
 3880SOL    HW112018   4.040   2.248   6.421 -0.5829 -0.6909 -1.9011
 3880SOL    HW212019   3.907   2.179   6.407 -1.1455 -0.2977  0.8360
 3881SOL     OW12020   6.678   0.738   4.936 -0.0687 -0.2913  1.0903
 3881SOL    HW112021   6.691   0.810   4.874 -0.7058  0.2124  1.5227
 3881SOL    HW212022   6.716   0.770   5.018  1.6268 -1.3234  0.7422
 3882SOL     OW12023   0.326   0.452   1.131 -0.1463 -0.0758  0.1622
 3882SOL    HW112024   0.258   0.507   1.169  1.7786  1.7749  1.1308
 3882SOL    HW212025   0.306   0.364   1.164 -1.7211  0.5039  0.8631
 3883SOL     OW12026   0.563   4.917   0.455 -0.4326  0.4183 -0.0501
 3883SOL    HW112027   0.587   4.996   0.502 -0.9017  0.7741 -0.3976
 3883SOL    HW212028   0.565   4.943   0.362 -1.1805  0.1903 -0.1349
 3884SOL     OW12029   2.080   4.551   4.804  0.1498 -0.1392 -0.2169
 3884SOL    HW112030   2.152   4.493   4.779 -0.5423 -1.3274  0.4402
 3884SOL    HW212031   2.114   4.599   4.880  0.8484  0.5864 -0.9746
 3885SOL     OW12032   5.775   0.336   5.030 -0.6424 -0.4110 -0.1806
 3885SOL    HW112033   5.806   0.319   5.119  1.5071 -0.3144 -0.8476
 3885SOL    HW212034   5.716   0.411   5.039  1.7609  1.4701  0.8570
 3886SOL     OW12035   0.589   5.327   4.590  1.2838 -0.2304  0.4117
 3886SOL    HW112036   0.565   5.355   4.679  0.3233 -1.8385  0.7020
 3886SOL    HW212037   0.583   5.231   4.593  0.8442 -0.2928 -1.4984
 3887SOL     OW12038   3.212   6.625   0.413 -0.2932  0.3889 -0.3451
 3887SOL    HW112039   3.250   6.675   0.342  0.4415  1.4525  0.7653
 3887SOL    HW212040   3.133   6.585   0.375 -1.5150  3.2182 -1.0088
 3888SOL     OW12041   1.251   5.946   0.918  0.6332  0.3775 -0.8674
 3888SOL    HW112042   1.284   5.906   0.999 -1.1899 -2.1660 -1.2687
 3888SOL    HW212043   1.170   5.990   0.944  0.9011  0.9927 -1.0474
 3889SOL     OW12044   6.650   5.252   6.460  0.1797 -0.5683  0.7210
 3889SOL    HW112045   6.728   5.241   6.405 -0.3544 -1.3701  0.1068
 3889SOL    HW212046   6.603   5.169   6.452  0.4249 -0.9735  2.9514
 3890SOL     OW12047   3.302   1.986   2.027 -0.5427 -0.1158 -0.4714
 3890SOL    HW112048   3.377   1.937   2.059 -2.0655 -0.5749  2.7868
 3890SOL    HW212049   3.333   2.027   1.946  2.8912 -0.9500  0.2576
 3891SOL     OW12050   1.646   5.053   1.612  0.0248  0.0790 -0.3109
 3891SOL    HW112051   1.566   5.040   1.663  0.0121  0.6821 -0.1659
 3891SOL    HW212052   1.716   5.058   1.678  0.2400 -0.8357 -0.4602
 3892SOL     OW12053   5.900   1.410   4.724  0.2954  0.2791  0.1891
 3892SOL    HW112054   5.899   1.319   4.753 -0.8809  0.4813  0.8514
 3892SOL    HW212055   5.904   1.405   4.629  2.6296 -0.4183  0.2518
 3893SOL     OW12056   3.947   2.775   6.545  0.1284  0.0798  0.3697
 3893SOL    HW112057   3.854   2.761   6.532 -0.6756  2.7124  2.4229
 3893SOL    HW212058   3.959   2.773   6.640  1.9000  1.0257  0.2153
 3894SOL     OW12059   4.267   4.050   2.019 -0.2019  0.2543  0.3801
 3894SOL    HW112060   4.206   3.976   2.007  0.4543 -0.4810  1.3657
 3894SOL    HW212061   4.293   4.074   1.931 -1.3016  0.0456 -0.0148
 3895SOL     OW12062   3.324   3.682   3.874  0.2849 -0.1668  0.0860
 3895SOL    HW112063   3.252   3.619   3.870  1.3092 -1.3513 -0.3794
 3895SOL    HW212064   3.286   3.763   3.840 -0.9913 -0.5950  0.4326
 3896SOL     OW12065   2.871   4.503   2.867  0.0713 -0.0481  0.1100
 3896SOL    HW112066   2.943   4.524   2.927 -0.6196 -0.1802  1.0018
 3896SOL    HW212067   2.853   4.585   2.821  0.8438 -0.0379 -0.1979
 3897SOL     OW12068   1.889   3.110   5.498 -0.7779  0.3933 -0.1280
 3897SOL    HW112069   1.849   3.067   5.423 -0.0079  0.8434 -0.8022
 3897SOL    HW212070   1.838   3.191   5.510 -0.2629  0.8247 -0.8075
 3898SOL     OW12071   0.137   1.744   6.612 -0.5900 -0.6055  0.0054
 3898SOL    HW112072   0.079   1.710   6.680  1.4811  1.2246  2.9435
 3898SOL    HW212073   0.218   1.694   6.622 -0.2819 -0.4146 -1.2916
 3899SOL     OW12074   1.144   1.658   5.453 -0.0236 -0.0297  0.1934
 3899SOL    HW112075   1.125   1.727   5.390  0.9881 -1.4939 -1.8134
 3899SOL    HW212076   1.060   1.615   5.468 -0.3952  0.7537  0.4065
 3900SOL     OW12077   5.510   3.257   1.324 -0.4383 -0.5152 -0.2285
 3900SOL    HW112078   5.468   3.190   1.271 -1.3782 -0.5087  0.4757
 3900SOL    HW212079   5.516   3.333   1.267  0.0889 -1.0159 -0.8430
 3901SOL     OW12080   0.935   1.280   5.920  0.2026  0.5860  0.1414
 3901SOL    HW112081   0.947   1.228   5.840 -0.9978  0.6776 -0.1195
 3901SOL    HW212082   0.921   1.215   5.989 -0.4228  0.5344 -0.0287
 3902SOL     OW12083   6.776   1.548   5.236 -0.2197 -0.0074  0.0508
 3902SOL    HW112084   6.750   1.502   5.156  1.3746 -0.0959 -0.4652
 3902SOL    HW212085   6.720   1.512   5.304 -0.0517 -1.6346 -0.6243
 3903SOL     OW12086   1.224   0.751   4.502 -0.0646  0.7629  0.0332
 3903SOL    HW112087   1.289   0.733   4.435  0.2124 -0.1573  0.5326
 3903SOL    HW212088   1.146   0.702   4.474  0.5364 -0.9287  1.1432
 3904SOL     OW12089   4.954   3.825   6.742 -0.2969  0.3051  0.1825
 3904SOL    HW112090   4.989   3.896   6.795 -1.1068 -0.2083  1.4746
 3904SOL    HW212091   4.965   3.747   6.797 -2.4993 -0.0136  0.2747
 3905SOL     OW12092   0.024   1.770   1.254 -0.2541 -0.4219  0.6820
 3905SOL    HW112093   0.044   1.733   1.340 -0.5975 -0.1768  0.8728
 3905SOL    HW212094   0.103   1.818   1.229  0.8698 -2.7033 -0.3654
 3906SOL     OW12095   4.430   5.487   6.640 -0.0657 -0.2685  0.0616
 3906SOL    HW112096   4.498   5.452   6.698  0.4875  0.2888 -0.2451
 3906SOL    HW212097   4.369   5.414   6.628  2.1760 -1.9461 -2.3234
 3907SOL     OW12098   6.588   2.187   6.109  0.4108  0.0538 -0.0044
 3907SOL    HW112099   6.588   2.101   6.065  0.0283  0.3240 -0.5518
 3907SOL    HW212100   6.576   2.166   6.201 -1.4371 -0.4248 -0.3059
 3908SOL     OW12101   1.299   3.376   6.270 -0.2250 -0.0301 -0.0537
 3908SOL    HW112102   1.315   3.442   6.202 -1.2534  2.9217  2.3747
 3908SOL    HW212103   1.380   3.372   6.320  0.4297 -1.9856 -1.1795
 3909SOL     OW12104   1.770   2.572   6.484  0.3711 -0.3355 -0.4794
 3909SOL    HW112105   1.728   2.545   6.403 -1.1853 -0.3128  0.2951
 3909SOL    HW212106   1.709   2.547   6.554 -0.5508  3.5955  0.4228
 3910SOL     OW12107   4.417   3.632   0.493 -0.0690  0.1653  0.2860
 3910SOL    HW112108   4.485   3.652   0.558 -0.0391  1.3422 -0.0859
 3910SOL    HW212109   4.464   3.586   0.424 -0.0376 -0.7960  0.9270
 3911SOL     OW12110   4.465   2.555   5.603 -0.4888 -0.1515 -0.2951
 3911SOL    HW112111   4.477   2.647   5.577 -0.8427  0.1073  0.4484
 3911SOL    HW212112   4.420   2.516   5.528  3.5159 -0.8381 -2.6005
 3912SOL     OW12113   2.566   5.616   0.323  0.3106  0.3738 -0.6661
 3912SOL    HW112114   2.473   5.602   0.307 -0.0606  0.9941  0.7814
 3912SOL    HW212115   2.608   5.535   0.293 -0.6101  0.2840 -1.8187
 3913SOL     OW12116   2.001   2.270   2.133 -0.0368  0.2856 -0.2235
 3913SOL    HW112117   1.999   2.196   2.195  1.0478  0.1848 -0.2970
 3913SOL    HW212118   1.978   2.230   2.049 -1.4172  0.4050  0.0634
 3914SOL     OW12119   6.215   6.266   6.040 -0.1073  0.2300 -0.6229
 3914SOL    HW112120   6.239   6.355   6.014 -0.1750  0.9115  1.4317
 3914SOL    HW212121   6.266   6.250   6.120 -0.6718 -1.2835 -0.5340
 3915SOL     OW12122   4.712   3.647   5.244 -0.0596  0.3611  0.4200
 3915SOL    HW112123   4.702   3.653   5.339 -1.7422  1.3854  0.2218
 3915SOL    HW212124   4.627   3.673   5.209  0.8414  1.0656 -1.3908
 3916SOL     OW12125   0.220   5.281   6.068  0.4847  0.0693  0.7661
 3916SOL    HW112126   0.178   5.254   6.150 -1.0607 -1.2192 -0.3927
 3916SOL    HW212127   0.190   5.371   6.055 -1.5815 -0.6316  0.2567
 3917SOL     OW12128   4.429   5.438   4.619  0.3104 -0.7198  0.2418
 3917SOL    HW112129   4.381   5.450   4.701 -0.6796  2.1581 -0.6208
 3917SOL    HW212130   4.362   5.411   4.556  0.3783  0.2671 -0.2838
 3918SOL     OW12131   1.673   2.596   1.707  0.1977 -0.4242  0.6244
 3918SOL    HW112132   1.683   2.600   1.802  0.9600 -1.6289  0.6202
 3918SOL    HW212133   1.681   2.503   1.686 -1.6705 -0.3860 -0.4634
 3919SOL     OW12134   6.490   4.731   0.577 -0.3313 -0.1421 -0.1917
 3919SOL    HW112135   6.475   4.649   0.530  0.6721 -0.4915  0.0845
 3919SOL    HW212136   6.452   4.716   0.663  0.7514 -0.7105  0.2101
 3920SOL     OW12137   2.337   4.447   0.935  0.0323  0.2641  0.8440
 3920SOL    HW112138   2.376   4.400   0.861 -0.2106 -0.0621  0.9155
 3920SOL    HW212139   2.367   4.399   1.012 -0.9028 -0.3030  0.8732
 3921SOL     OW12140   6.611   4.185   1.421 -0.0310 -0.4519  0.3771
 3921SOL    HW112141   6.542   4.231   1.469 -0.7401 -1.7939  0.6718
 3921SOL    HW212142   6.630   4.108   1.474 -0.2943 -1.5731 -1.1003
 3922SOL     OW12143   4.548   2.239   4.243 -0.5033  0.0382 -0.8325
 3922SOL    HW112144   4.498   2.163   4.213 -0.7053  0.2226 -0.9682
 3922SOL    HW212145   4.484   2.294   4.289 -0.4662  0.3596 -1.1588
 3923SOL     OW12146   1.815   6.163   3.543 -0.2620 -0.2879 -0.7927
 3923SOL    HW112147   1.837   6.128   3.629  0.5318 -0.1337 -0.9255
 3923SOL    HW212148   1.719   6.161   3.540 -0.4298  1.6278  0.9206
 3924SOL     OW12149   2.132   1.028   2.895 -0.3704  0.5685  0.1642
 3924SOL    HW112150   2.092   0.954   2.940 -0.3861  1.1614  1.1416
 3924SOL    HW212151   2.059   1.069   2.848 -0.5302  0.4914  0.3419
 3925SOL     OW12152   3.878   1.904   4.123 -0.0848  0.1446  0.5122
 3925SOL    HW112153   3.958   1.955   4.109  1.6072 -2.6341 -0.8327
 3925SOL    HW212154   3.816   1.937   4.058  1.1962  0.0353 -0.7857
 3926SOL     OW12155   1.345   4.057   0.044  0.5406 -0.6787 -0.4000
 3926SOL    HW112156   1.341   3.988  -0.023  0.6561 -2.0629  0.9662
 3926SOL    HW212157   1.399   4.020   0.113 -1.5929 -0.3075  1.5812
 3927SOL     OW12158   2.734   5.904   5.074 -0.0358 -0.3336  0.1461
 3927SOL    HW112159   2.792   5.980   5.080 -0.3535  0.0219 -1.0186
 3927SOL    HW212160   2.702   5.905   4.983  1.6043 -3.0794 -0.5686
 3928SOL     OW12161   1.765   4.236   3.935 -0.2550  0.8517  0.5283
 3928SOL    HW112162   1.700   4.166   3.936 -0.3856  0.9759  1.0021
 3928SOL    HW212163   1.842   4.197   3.977 -0.5732  1.2173  1.4774
 3929SOL     OW12164   5.390   4.599   3.967 -0.1053  0.1024  0.1271
 3929SOL    HW112165   5.456   4.641   3.912 -0.1597  2.3990  1.6752
 3929SOL    HW212166   5.357   4.669   4.022 -1.1201 -1.7726  2.0462
 3930SOL     OW12167   6.290   3.486   4.062  0.2109  0.3493  0.3501
 3930SOL    HW112168   6.266   3.405   4.107  2.5485 -0.5366  0.1582
 3930SOL    HW212169   6.257   3.474   3.973  0.9087 -0.6078  0.2060
 3931SOL     OW12170   1.220   0.024   5.323  0.2591  0.4445 -0.3551
 3931SOL    HW112171   1.291   0.033   5.386  0.6155  0.2482 -0.7177
 3931SOL    HW212172   1.258  -0.029   5.252 -0.9850 -1.7851  0.5634
 3932SOL     OW12173   1.746   4.561   3.828  0.1971 -0.1854 -0.0561
 3932SOL    HW112174   1.798   4.481   3.836  1.4356  0.1641 -3.0873
 3932SOL    HW212175   1.719   4.581   3.917  2.8685 -1.9900  1.3134
 3933SOL     OW12176   3.387   1.856   6.526  0.2350  0.0041  0.3699
 3933SOL    HW112177   3.407   1.851   6.432 -2.3236  2.4246 -0.4539
 3933SOL    HW212178   3.461   1.904   6.563  0.0264  1.4629 -0.9873
 3934SOL     OW12179   5.654   3.803   5.548 -0.0120 -0.2094  0.1552
 3934SOL    HW112180   5.623   3.718   5.516  0.3594 -0.7847  1.2736
 3934SOL    HW212181   5.587   3.832   5.609  0.2883 -0.1226  0.4461
 3935SOL     OW12182   5.466   3.382   5.251  0.5123  0.9739 -0.2981
 3935SOL    HW112183   5.442   3.328   5.326 -1.0421  0.6692 -0.9668
 3935SOL    HW212184   5.414   3.347   5.179  0.8551  2.1949 -1.1744
 3936SOL     OW12185   0.543   0.838   5.749  0.6922  0.0534  0.2230
 3936SOL    HW112186   0.531   0.893   5.826  3.4922  0.7060  0.2857
 3936SOL    HW212187   0.561   0.751   5.784 -2.0659 -0.6493  0.1437
 3937SOL     OW12188   3.121   4.417   1.442 -0.1779 -0.2007  0.1394
 3937SOL    HW112189   3.155   4.483   1.382 -0.8087 -0.2495 -0.2879
 3937SOL    HW212190   3.198   4.372   1.477  0.2443  0.6125  0.2662
 3938SOL     OW12191   2.530   5.600   5.432 -0.8614 -0.1504  0.1285
 3938SOL    HW112192   2.436   5.590   5.416 -1.1150 -1.4542  2.0430
 3938SOL    HW212193   2.536   5.624   5.524  0.6129  3.0045 -0.6652
 3939SOL     OW12194   4.572   5.697   3.459  0.3212  0.0571  0.6697
 3939SOL    HW112195   4.645   5.745   3.420  1.6023 -1.5903  0.9062
 3939SOL    HW212196   4.604   5.673   3.547 -0.3593 -0.9974  0.6451
 3940SOL     OW12197   3.415   6.501   4.981 -0.2262 -0.1227 -0.1652
 3940SOL    HW112198   3.497   6.474   5.022 -0.2357  0.7966  0.4769
 3940SOL    HW212199   3.409   6.447   4.902 -0.5300 -2.4429  1.3450
 3941SOL     OW12200   1.189   2.675   2.803 -0.0833 -0.1670  0.5684
 3941SOL    HW112201   1.103   2.687   2.764  0.2031  0.2499  0.0577
 3941SOL    HW212202   1.171   2.636   2.889 -0.7369 -0.7987  0.1601
 3942SOL     OW12203   1.132   1.860   6.522  0.1230  0.5580 -0.2472
 3942SOL    HW112204   1.136   1.893   6.611 -1.6621  0.3371 -0.0429
 3942SOL    HW212205   1.163   1.770   6.529  0.8840  0.8269 -0.0351
 3943SOL     OW12206   2.968   0.340   1.904 -0.3843 -0.2569 -0.1962
 3943SOL    HW112207   3.041   0.325   1.965  2.7428 -2.0309 -3.9001
 3943SOL    HW212208   2.932   0.253   1.888 -1.2354  0.1866 -0.7459
 3944SOL     OW12209   3.420   2.341   2.368 -0.0213  0.3273  0.5614
 3944SOL    HW112210   3.395   2.385   2.449 -1.9138  1.1869 -0.4298
 3944SOL    HW212211   3.344   2.287   2.345  0.6415 -0.2160 -0.4387
 3945SOL     OW12212   5.994   2.944   6.634 -0.2501 -0.1956 -1.0078
 3945SOL    HW112213   5.946   2.862   6.640 -0.2689 -0.1676 -0.7576
 3945SOL    HW212214   5.931   3.011   6.663  0.0348 -0.1956 -0.3825
 3946SOL     OW12215   6.776   5.228   5.827  0.2208 -0.0527  0.3718
 3946SOL    HW112216   6.786   5.228   5.923  1.9144  0.5284  0.2294
 3946SOL    HW212217   6.858   5.190   5.795 -0.0953  0.2864 -0.8736
 3947SOL     OW12218   5.665   5.714   3.431  0.0923 -0.4872 -0.4071
 3947SOL    HW112219   5.713   5.729   3.512 -0.5490 -0.1630 -0.0813
 3947SOL    HW212220   5.598   5.782   3.430 -0.9323 -1.4728 -0.4043
 3948SOL     OW12221   6.422   1.771   2.334 -0.1054 -0.0769 -0.7625
 3948SOL    HW112222   6.351   1.736   2.389  0.3480 -1.2137 -0.8690
 3948SOL    HW212223   6.492   1.792   2.396 -1.1323  2.7995 -0.4272
 3949SOL     OW12224   5.466   5.184   0.648 -0.2215 -0.2999  0.1010
 3949SOL    HW112225   5.545   5.231   0.622  0.7512 -1.5917  0.6409
 3949SOL    HW212226   5.395   5.231   0.603  0.9934 -0.0852 -1.7059
 3950SOL     OW12227   1.794   1.130   1.685 -0.7031  0.2919  0.8786
 3950SOL    HW112228   1.821   1.053   1.636 -0.6913  0.1847  1.0544
 3950SOL    HW212229   1.698   1.128   1.682 -0.6976  0.6535  0.2843
 3951SOL     OW12230   5.669   1.721   2.334 -0.2834  0.4028  0.3966
 3951SOL    HW112231   5.620   1.702   2.413 -0.7395  0.8282  0.2161
 3951SOL    HW212232   5.719   1.800   2.354  0.1895  0.0847  0.5121
 3952SOL     OW12233   1.889   4.977   3.258 -0.2135  0.2926 -0.0416
 3952SOL    HW112234   1.953   4.993   3.328  0.6981 -0.0035 -0.7943
 3952SOL    HW212235   1.923   4.901   3.211 -0.2765  1.1004 -1.4242
 3953SOL     OW12236   2.700   5.575   4.269  0.5589  0.0807 -0.5609
 3953SOL    HW112237   2.710   5.549   4.360 -0.6340 -0.1757 -0.4925
 3953SOL    HW212238   2.682   5.494   4.222  2.4397  0.0086 -1.2667
 3954SOL     OW12239   6.170   5.678   2.155 -0.0227  0.1697  0.4181
 3954SOL    HW112240   6.097   5.666   2.217 -1.0210 -0.6075 -0.8438
 3954SOL    HW212241   6.168   5.599   2.101  2.7215 -0.5804  1.2611
 3955SOL     OW12242   5.934   4.264   5.930 -0.3650 -0.5985  0.4123
 3955SOL    HW112243   5.859   4.227   5.978 -1.2747  0.0593 -0.4614
 3955SOL    HW212244   5.969   4.191   5.880 -0.4099 -0.9195  0.8437
 3956SOL     OW12245   2.485   4.518   2.643 -0.0158  0.2726  0.0254
 3956SOL    HW112246   2.548   4.586   2.618 -0.8086  1.7634  1.8050
 3956SOL    HW212247   2.534   4.458   2.699  0.6544 -0.5891 -1.4427
 3957SOL     OW12248   4.577   6.384   5.344  0.2276 -0.6687 -0.1102
 3957SOL    HW112249   4.615   6.296   5.352  0.2432 -0.7552 -0.9458
 3957SOL    HW212250   4.538   6.401   5.429  3.4730  0.1033  1.3555
 3958SOL     OW12251   2.903   1.389   6.563  0.0256 -0.2925 -0.3300
 3958SOL    HW112252   2.863   1.304   6.545 -0.8412  0.4648 -2.2213
 3958SOL    HW212253   2.891   1.439   6.483  1.2098  1.3748  0.4648
 3959SOL     OW12254   0.328   6.335   1.070  0.7179  0.0632  0.0652
 3959SOL    HW112255   0.423   6.331   1.081  0.9712 -1.0094 -1.9140
 3959SOL    HW212256   0.298   6.249   1.099  0.3730  0.3074  0.4344
 3960SOL     OW12257   4.169   5.950   0.295  0.5262  0.0187  0.0765
 3960SOL    HW112258   4.223   5.965   0.218  0.7396 -0.3285  0.1613
 3960SOL    HW212259   4.135   5.861   0.284 -1.0695  0.6703 -0.6276
 3961SOL     OW12260   6.396   4.135   2.600 -0.4667 -0.1510  0.2421
 3961SOL    HW112261   6.446   4.108   2.523 -1.3946 -0.7290 -0.1721
 3961SOL    HW212262   6.359   4.054   2.634 -0.3305  0.1456  1.1165
 3962SOL     OW12263   1.526   0.188   1.296 -0.3258 -0.0999  0.2460
 3962SOL    HW112264   1.594   0.253   1.279 -0.6101  0.0988 -0.1375
 3962SOL    HW212265   1.474   0.185   1.216 -0.8257 -0.1872  0.5666
 3963SOL     OW12266   0.604   5.278   0.170 -0.1643  0.0561 -0.4390
 3963SOL    HW112267   0.628   5.331   0.094 -0.1837 -0.8515 -1.1024
 3963SOL    HW212268   0.523   5.317   0.203 -0.7586 -0.1945 -1.5660
 3964SOL     OW12269   1.680   3.701   3.269  0.3175  0.0627 -0.4604
 3964SOL    HW112270   1.710   3.691   3.179  0.3106  1.8866 -0.7053
 3964SOL    HW212271   1.760   3.712   3.320  0.2369  2.5082 -0.7724
 3965SOL     OW12272   3.500   5.369   4.207  0.6229 -0.0727 -0.2986
 3965SOL    HW112273   3.586   5.407   4.191  1.0416 -0.3618  1.1172
 3965SOL    HW212274   3.499   5.350   4.301 -1.9941  2.4382  0.3230
 3966SOL     OW12275   2.458   1.493   2.531 -0.3568  0.1984  0.1189
 3966SOL    HW112276   2.476   1.575   2.487 -0.0861 -0.2277 -0.5848
 3966SOL    HW212277   2.532   1.436   2.509 -1.4300 -0.8349 -0.9691
 3967SOL     OW12278   6.481   0.670   1.893  0.4043  0.5378 -0.3491
 3967SOL    HW112279   6.526   0.658   1.977  0.4406  1.6478 -0.2014
 3967SOL    HW212280   6.453   0.761   1.893 -2.7333 -0.3108 -0.0143
 3968SOL     OW12281   1.861   1.342   6.407 -0.4547  0.7705 -0.1363
 3968SOL    HW112282   1.808   1.381   6.476 -0.2371 -0.3565  0.6960
 3968SOL    HW212283   1.951   1.345   6.441  0.1469  3.0594 -1.7081
 3969SOL     OW12284   2.452   5.514   2.858 -0.2797  0.0784  0.2703
 3969SOL    HW112285   2.530   5.569   2.865 -0.8572  0.6975  2.9145
 3969SOL    HW212286   2.475   5.434   2.904 -0.9627 -0.0298  0.4368
 3970SOL     OW12287   1.107   0.729   1.572 -0.4420 -0.0384  0.1443
 3970SOL    HW112288   1.133   0.776   1.651 -1.4583 -1.2264  1.2232
 3970SOL    HW212289   1.173   0.660   1.562 -0.3618  0.0591 -0.0196
 3971SOL     OW12290   3.136   3.749   5.180  0.4830 -0.5946  0.1904
 3971SOL    HW112291   3.083   3.730   5.102 -0.4000 -2.9886  1.2765
 3971SOL    HW212292   3.185   3.668   5.196  2.4238  0.6343  0.8411
 3972SOL     OW12293   2.418   0.673   3.906 -0.2736  0.7892 -0.1078
 3972SOL    HW112294   2.505   0.633   3.899 -1.0781 -0.9497 -0.7462
 3972SOL    HW212295   2.368   0.612   3.959 -2.0779 -0.0705 -2.6076
 3973SOL     OW12296   2.418   0.915   1.369 -0.5194  0.1559  0.0031
 3973SOL    HW112297   2.410   0.913   1.273 -2.3387  0.2737  0.1159
 3973SOL    HW212298   2.375   0.996   1.395  0.5427  0.4532  0.9033
 3974SOL     OW12299   1.827   3.601   3.757  0.8835 -0.3330  0.6382
 3974SOL    HW112300   1.866   3.677   3.713  1.2859  0.3118  2.0394
 3974SOL    HW212301   1.827   3.625   3.849  2.2106 -2.5620  1.2816
 3975SOL     OW12302   0.018   2.680   1.836 -0.3437  0.2467 -0.0570
 3975SOL    HW112303  -0.000   2.752   1.776  0.8550  0.7763  0.2044
 3975SOL    HW212304  -0.069   2.650   1.864 -1.0544 -0.9157 -3.0625
 3976SOL     OW12305   3.915   1.023   2.776 -0.1927 -0.3052  0.0384
 3976SOL    HW112306   3.946   0.973   2.852 -0.1458 -1.0061 -0.4259
 3976SOL    HW212307   3.989   1.023   2.716 -0.7231 -1.1014 -0.6437
 3977SOL     OW12308   4.937   4.876   6.745 -0.1082 -0.0145 -0.4510
 3977SOL    HW112309   4.908   4.836   6.827 -0.8020  1.4809  0.0784
 3977SOL    HW212310   4.869   4.853   6.682  0.1365 -0.6989 -0.4680
 3978SOL     OW12311   0.287   5.815   5.919 -0.0912  0.9505 -0.0648
 3978SOL    HW112312   0.283   5.746   5.853 -1.2817  1.6632 -0.7473
 3978SOL    HW212313   0.213   5.798   5.977  1.2161  0.0397  1.4238
 3979SOL     OW12314   5.228   6.196   4.756 -0.7776  0.2486  0.7274
 3979SOL    HW112315   5.194   6.108   4.770  1.2009 -0.4505  1.4767
 3979SOL    HW212316   5.308   6.199   4.807  2.6147  0.3632 -3.9812
 3980SOL     OW12317   4.978   6.560   4.402  0.0199 -0.3341  0.4623
 3980SOL    HW112318   4.966   6.653   4.419 -0.4389 -0.5045  1.0770
 3980SOL    HW212319   5.055   6.556   4.345 -0.0861  0.4315  0.2539
 3981SOL     OW12320   2.704   0.627   4.184  0.5343  0.7762  0.1654
 3981SOL    HW112321   2.680   0.548   4.136 -0.8337  1.0101  0.4465
 3981SOL    HW212322   2.739   0.686   4.117  0.3555  0.4208 -0.2483
 3982SOL     OW12323   6.723   5.242   5.558  0.1672  0.3256 -0.1794
 3982SOL    HW112324   6.721   5.260   5.652  0.5885  1.8402 -0.4231
 3982SOL    HW212325   6.638   5.272   5.526  0.4569  0.8927 -0.4367
 3983SOL     OW12326   5.349   4.797   2.245 -0.1876 -0.2900 -0.7767
 3983SOL    HW112327   5.286   4.821   2.178  0.4011 -2.0645 -2.0342
 3983SOL    HW212328   5.308   4.725   2.293 -1.4235  2.1327  2.1550
 3984SOL     OW12329   1.823   2.111   4.941  0.5358  0.5390 -0.1004
 3984SOL    HW112330   1.765   2.123   4.866 -0.2996 -2.2829 -0.0148
 3984SOL    HW212331   1.772   2.140   5.017  0.5183  1.2008 -0.3600
 3985SOL     OW12332   2.600   2.132   6.583 -0.0819  0.5196  0.1944
 3985SOL    HW112333   2.617   2.135   6.677 -0.3901 -2.7228  0.4826
 3985SOL    HW212334   2.542   2.056   6.572 -0.6233  1.2235 -2.5604
 3986SOL     OW12335   4.634   2.636   5.903  0.0937  0.1843 -0.3868
 3986SOL    HW112336   4.542   2.630   5.879  0.2596  0.2877 -1.0534
 3986SOL    HW212337   4.675   2.559   5.863  0.2824  0.0689  0.0126
 3987SOL     OW12338   3.019   1.655   5.938  0.2664  0.3913 -0.0505
 3987SOL    HW112339   3.067   1.731   5.903  1.5865 -0.4257 -0.1021
 3987SOL    HW212340   3.061   1.580   5.896 -0.6034 -0.4042  0.4768
 3988SOL     OW12341   2.392   1.834   2.198  0.1308  0.1815 -0.6093
 3988SOL    HW112342   2.298   1.843   2.185  0.5603  1.5615 -4.0263
 3988SOL    HW212343   2.422   1.923   2.217  0.7159 -0.3243  0.9203
 3989SOL     OW12344   6.748   3.777   0.561  0.5221  0.0330 -0.2355
 3989SOL    HW112345   6.697   3.767   0.641 -1.1370 -0.4785 -1.3064
 3989SOL    HW212346   6.833   3.810   0.590 -0.0589 -0.0937  1.7105
 3990SOL     OW12347   2.823   5.311   4.655  0.6114  0.3859 -0.6640
 3990SOL    HW112348   2.754   5.376   4.660 -0.1685 -0.4967  0.9866
 3990SOL    HW212349   2.794   5.249   4.588 -0.8415 -0.6224  0.8301
 3991SOL     OW12350   5.526   1.093   2.500  0.0299 -0.4503 -0.4436
 3991SOL    HW112351   5.509   1.118   2.409 -0.2141 -0.4162 -0.3884
 3991SOL    HW212352   5.513   0.998   2.502 -0.4203 -0.3877 -0.3420
 3992SOL     OW12353   2.768   2.020   4.283 -0.0779 -0.1926 -0.0835
 3992SOL    HW112354   2.769   1.925   4.289  2.6674 -0.3014 -1.1147
 3992SOL    HW212355   2.699   2.040   4.219  0.9242 -1.6742 -1.7041
 3993SOL     OW12356   0.755   6.227   1.684  0.3694 -0.0058 -0.1659
 3993SOL    HW112357   0.685   6.211   1.747 -1.0868  0.8695 -1.4644
 3993SOL    HW212358   0.744   6.159   1.617  0.9835 -0.0710 -0.2094
 3994SOL     OW12359   0.497   6.471   5.375  0.3118  0.4164  0.0755
 3994SOL    HW112360   0.480   6.447   5.466 -1.4707 -1.1699 -0.5932
 3994SOL    HW212361   0.577   6.424   5.353 -1.1012 -2.0879 -0.0991
 3995SOL     OW12362   3.543   4.136   4.265  0.0194  0.4465 -0.5844
 3995SOL    HW112363   3.506   4.121   4.352  1.4755  0.4891  0.0686
 3995SOL    HW212364   3.468   4.134   4.206 -0.9242 -0.1605  0.6043
 3996SOL     OW12365   3.056   1.629   2.779 -0.0003  0.7232  0.1293
 3996SOL    HW112366   2.967   1.599   2.794 -0.0549 -0.6071 -2.2002
 3996SOL    HW212367   3.047   1.719   2.748 -0.4500  0.8815  0.7121
 3997SOL     OW12368   2.889   0.199   2.584  0.0314  0.3003 -0.1146
 3997SOL    HW112369   2.905   0.108   2.606 -2.0401  0.5321  2.9231
 3997SOL    HW212370   2.793   0.206   2.577  0.1370  2.2157 -0.2323
 3998SOL     OW12371   0.679   0.392   2.944 -0.6405  0.3414  0.2472
 3998SOL    HW112372   0.644   0.311   2.980  0.3909 -0.5420 -0.6737
 3998SOL    HW212373   0.724   0.434   3.018  2.9117 -2.2555 -0.1489
 3999SOL     OW12374   5.868   5.365   3.431 -0.2038  0.1330  0.1691
 3999SOL    HW112375   5.910   5.297   3.378  0.1307  0.9456 -0.6348
 3999SOL    HW212376   5.835   5.319   3.508 -1.1895 -1.1808 -0.9903
 4000SOL     OW12377   1.571   5.742   0.779 -0.1139 -0.1095  0.3626
 4000SOL    HW112378   1.651   5.776   0.738  0.4816  1.2519  2.4654
 4000SOL    HW212379   1.584   5.648   0.781  1.1666  0.0392  0.0944
 4001SOL     OW12380   3.911   2.373   2.741 -0.4479  0.8289  0.3650
 4001SOL    HW112381   3.994   2.391   2.784  0.0542 -1.9471  0.6750
 4001SOL    HW212382   3.847   2.423   2.792  0.8686  2.4376  0.5496
 4002SOL     OW12383   5.054   1.885   1.262  0.3486 -0.5254  0.3233
 4002SOL    HW112384   5.093   1.837   1.189  0.8424  0.1370  0.1362
 4002SOL    HW212385   4.975   1.925   1.226  1.5417  1.3064 -0.3875
 4003SOL     OW12386   1.172   2.560   3.111  0.0665 -0.4167 -0.1651
 4003SOL    HW112387   1.230   2.546   3.037  1.3374  1.5744  0.3726
 4003SOL    HW212388   1.185   2.484   3.167 -0.8679 -1.9212 -1.8924
 4004SOL     OW12389   3.537   2.991   2.922  0.0363 -0.1132 -0.1226
 4004SOL    HW112390   3.630   2.994   2.899  0.1325  0.7786  0.3082
 4004SOL    HW212391   3.524   2.903   2.958  0.6157 -0.3836 -0.5576
 4005SOL     OW12392   2.573   5.621   5.734  0.2754 -0.0669  0.1671
 4005SOL    HW112393   2.664   5.648   5.723 -0.5967  2.4138 -2.1466
 4005SOL    HW212394   2.538   5.680   5.802  0.3425 -0.9701  1.0056
 4006SOL     OW12395   0.798   4.083   6.141 -0.0143 -0.1790  0.6072
 4006SOL    HW112396   0.825   3.991   6.146  0.6706 -0.1849 -1.8610
 4006SOL    HW212397   0.721   4.088   6.198 -0.9770 -2.6420 -0.3253
 4007SOL     OW12398   3.800   5.609   0.595  0.1783  0.0970 -0.3367
 4007SOL    HW112399   3.743   5.549   0.644  1.2092 -1.3867 -0.8853
 4007SOL    HW212400   3.802   5.574   0.506  0.5874  1.1154 -0.7478
 4008SOL     OW12401   0.202   5.548   0.339  0.1621 -0.0510  0.2750
 4008SOL    HW112402   0.262   5.474   0.343  1.8847  1.2901  1.0260
 4008SOL    HW212403   0.250   5.619   0.382 -1.7679  1.2587  0.3842
 4009SOL     OW12404   3.737   5.709   1.097 -0.0849 -0.6469 -0.4881
 4009SOL    HW112405   3.769   5.624   1.066  0.1871 -0.6089 -0.3179
 4009SOL    HW212406   3.714   5.756   1.017  1.3976 -0.2433 -0.7169
 4010SOL     OW12407   1.373   4.651   5.341 -0.1798  0.1635 -0.2668
 4010SOL    HW112408   1.446   4.676   5.284 -1.1330  0.2232 -1.5059
 4010SOL    HW212409   1.316   4.598   5.285  0.4326 -2.5970  1.5461
 4011SOL     OW12410   6.398   0.924   4.824 -0.0293  0.9329 -0.4764
 4011SOL    HW112411   6.396   0.839   4.778  0.7276 -0.1606  1.3896
 4011SOL    HW212412   6.489   0.951   4.820  0.4972 -0.2068  2.0328
 4012SOL     OW12413   0.276   2.722   4.407 -0.1247 -0.1632 -0.1951
 4012SOL    HW112414   0.237   2.678   4.483 -1.2515 -1.4008 -1.4324
 4012SOL    HW212415   0.268   2.659   4.336  1.6949  0.6364 -1.1756
 4013SOL     OW12416   5.977   4.482   2.912 -0.0057 -0.0636 -0.4253
 4013SOL    HW112417   5.960   4.490   3.006 -0.3492  0.9786 -0.5621
 4013SOL    HW212418   5.989   4.573   2.882  1.6518 -0.4732 -1.1159
 4014SOL     OW12419   1.938   1.630   5.167  0.0061  0.8465  0.4108
 4014SOL    HW112420   1.879   1.672   5.105  0.9149  1.1469 -0.2675
 4014SOL    HW212421   2.012   1.690   5.175  0.8522 -0.1374  0.2126
 4015SOL     OW12422   1.515   2.943   5.013 -0.7254 -0.3859  0.0304
 4015SOL    HW112423   1.442   2.967   5.070 -2.6952 -2.6226 -1.3481
 4015SOL    HW212424   1.582   2.909   5.072 -0.7681  1.6217  1.3208
 4016SOL     OW12425   2.756   4.272   4.911 -0.2576  0.2894 -0.1039
 4016SOL    HW112426   2.842   4.234   4.893  0.1942  1.0330  0.4245
 4016SOL    HW212427   2.775   4.346   4.968 -1.5027 -1.3741  2.6662
 4017SOL     OW12428   5.508   4.927   2.494 -0.1532  0.8096 -0.1129
 4017SOL    HW112429   5.593   4.969   2.499  0.6546 -0.7623 -0.0327
 4017SOL    HW212430   5.501   4.896   2.403 -0.1123 -0.0741  0.1702
 4018SOL     OW12431   6.114   5.917   1.622 -0.0549  0.0256  0.1338
 4018SOL    HW112432   6.112   5.877   1.534  1.8932 -0.8367  0.4377
 4018SOL    HW212433   6.062   5.997   1.612 -0.3068 -0.3022 -1.6665
 4019SOL     OW12434   4.862   5.702   4.039  0.2093 -0.5972 -0.2329
 4019SOL    HW112435   4.914   5.762   4.093  1.3464 -2.3908  0.7717
 4019SOL    HW212436   4.816   5.647   4.101 -1.2082 -0.4746 -1.1365
 4020SOL     OW12437   0.553   3.220   2.444  0.0117  0.3172  0.4422
 4020SOL    HW112438   0.610   3.196   2.372 -0.4640  2.1636 -0.6123
 4020SOL    HW212439   0.576   3.311   2.464 -2.0407  0.8747  0.4612
 4021SOL     OW12440   5.812   3.239   1.382  0.4205 -0.8416 -0.0270
 4021SOL    HW112441   5.729   3.258   1.339 -0.0174  0.4672  1.2979
 4021SOL    HW212442   5.800   3.151   1.418 -0.9054 -0.2093  1.1974
 4022SOL     OW12443   2.664   5.073   3.510 -0.2788  0.2597 -0.2945
 4022SOL    HW112444   2.707   5.027   3.581  1.2941  2.5556  0.3676
 4022SOL    HW212445   2.704   5.038   3.430  0.8063  0.3696  0.1793
 4023SOL     OW12446   4.164   5.442   4.513  0.4114 -0.3447  0.4344
 4023SOL    HW112447   4.143   5.397   4.595  0.5710  0.0290  0.6804
 4023SOL    HW212448   4.118   5.526   4.519  2.7838  0.9532  1.4408
 4024SOL     OW12449   4.933   0.430   1.099  0.3373 -0.3977 -0.0483
 4024SOL    HW112450   4.974   0.371   1.163 -0.2816 -0.8047 -0.0212
 4024SOL    HW212451   4.994   0.431   1.025  0.1829 -1.3767 -0.2084
 4025SOL     OW12452   1.756   2.147   0.567  0.4063  0.1097 -0.2784
 4025SOL    HW112453   1.737   2.183   0.480  3.2199  0.0457 -1.0027
 4025SOL    HW212454   1.784   2.223   0.619 -0.0277 -0.0576  0.2124
 4026SOL     OW12455   3.716   2.050   5.594 -0.0941  0.6017  0.1138
 4026SOL    HW112456   3.749   2.018   5.510  0.2310  2.9966 -0.7310
 4026SOL    HW212457   3.794   2.063   5.648 -0.3654 -2.1059  1.3363
 4027SOL     OW12458   1.126   2.784   6.825  0.0757 -0.5064 -0.4174
 4027SOL    HW112459   1.098   2.868   6.790  0.3665  0.0295  0.6071
 4027SOL    HW212460   1.187   2.806   6.895  0.5388 -1.5849 -0.4610
 4028SOL     OW12461   3.913   5.181   2.468  0.2962  0.2090  0.1893
 4028SOL    HW112462   3.837   5.229   2.502  0.1517 -0.1863  0.4335
 4028SOL    HW212463   3.875   5.109   2.417  0.5052  1.0481 -1.2174
 4029SOL     OW12464   1.607   6.261   4.187  0.5402  0.2432  0.7594
 4029SOL    HW112465   1.567   6.186   4.143 -0.0661  0.5465  0.7933
 4029SOL    HW212466   1.612   6.328   4.119  0.6839  0.3196  0.8447
 4030SOL     OW12467   1.573   3.652   5.903  0.2123 -0.2376 -0.1299
 4030SOL    HW112468   1.487   3.690   5.888  0.1668 -1.0678 -2.2006
 4030SOL    HW212469   1.628   3.687   5.833  1.6210  0.3205  1.1766
 4031SOL     OW12470   3.960   6.706   4.693  0.1863  0.1931 -0.1099
 4031SOL    HW112471   3.875   6.750   4.691  0.1597  0.1256 -0.4989
 4031SOL    HW212472   4.014   6.755   4.631 -0.1503 -0.9426 -1.3345
 4032SOL     OW12473   0.305   3.947   0.398  0.0636  0.2158  0.1924
 4032SOL    HW112474   0.224   3.984   0.364 -0.4696 -0.9082  0.1863
 4032SOL    HW212475   0.354   4.022   0.432 -0.4889  1.0442 -0.7879
 4033SOL     OW12476   1.427   5.937   6.610  0.1103  0.2719 -0.1801
 4033SOL    HW112477   1.356   5.884   6.574  0.2027 -1.5595  2.0902
 4033SOL    HW212478   1.382   6.006   6.659 -0.1043 -0.3577  0.5208
 4034SOL     OW12479   4.802   0.007   6.101 -0.3333  0.3434 -0.0315
 4034SOL    HW112480   4.762   0.093   6.115  0.1158  0.6617 -0.6735
 4034SOL    HW212481   4.839   0.012   6.013  0.7493 -0.0931  0.3925
 4035SOL     OW12482   2.008   4.132   4.029  0.1603  0.2327  0.2157
 4035SOL    HW112483   2.038   4.094   3.946 -0.3416  1.6329 -0.6360
 4035SOL    HW212484   2.047   4.076   4.096  1.2678 -0.4324 -0.9365
 4036SOL     OW12485   2.588   4.066   2.662 -0.2285  0.1922 -0.0681
 4036SOL    HW112486   2.652   4.114   2.609  1.2421  1.3823  2.5714
 4036SOL    HW212487   2.641   4.005   2.713 -1.3721  0.2217  1.1918
 4037SOL     OW12488   4.955   6.718   2.602 -0.2239  0.3182  0.0877
 4037SOL    HW112489   4.938   6.728   2.509 -2.6683  0.6115  0.4875
 4037SOL    HW212490   5.044   6.753   2.615 -0.1358  0.9704 -1.9893
 4038SOL     OW12491   0.334   6.005   4.464 -0.2998  0.1117 -0.0196
 4038SOL    HW112492   0.262   5.974   4.520 -1.8260  2.4977 -0.5379
 4038SOL    HW212493   0.406   5.946   4.485 -2.6913 -3.2561 -0.3843
 4039SOL     OW12494   1.425   5.433   3.612  0.0105 -0.2768 -0.0497
 4039SOL    HW112495   1.447   5.360   3.669  1.7237  0.1043 -0.1718
 4039SOL    HW212496   1.367   5.488   3.665  0.1287 -0.8295  0.6688
 4040SOL     OW12497   5.252   1.868   5.106 -0.4804 -0.0975  1.2430
 4040SOL    HW112498   5.211   1.955   5.104 -0.2129  0.1930 -3.2312
 4040SOL    HW212499   5.183   1.809   5.075 -0.0154 -1.1179  2.1268
 4041SOL     OW12500   2.096   5.744   2.593  0.5912  0.2415  0.0305
 4041SOL    HW112501   2.021   5.785   2.637  0.4132 -0.1497  0.0941
 4041SOL    HW212502   2.122   5.674   2.653  0.0712 -0.5882 -0.6880
 4042SOL     OW12503   4.327   2.731   6.177  0.2422  0.0461 -0.0601
 4042SOL    HW112504   4.267   2.795   6.216 -0.4925 -0.3887 -0.4673
 4042SOL    HW212505   4.411   2.750   6.218  0.0171  1.2148 -0.0881
 4043SOL     OW12506   3.059   3.968   6.210  1.1193  0.2586  0.6982
 4043SOL    HW112507   3.097   3.896   6.260  1.9454  0.5945  0.5690
 4043SOL    HW212508   3.115   3.977   6.134 -0.4682 -0.6335 -0.6336
 4044SOL     OW12509   3.406   0.260   5.904  0.2274  0.6597 -0.0014
 4044SOL    HW112510   3.344   0.332   5.908 -0.0253  0.6621 -2.2089
 4044SOL    HW212511   3.353   0.185   5.877  0.9343  0.3605 -0.6202
 4045SOL     OW12512   5.073   2.466   2.387 -0.0721 -0.0272  0.4105
 4045SOL    HW112513   5.143   2.402   2.399 -0.4662 -0.3741  0.8790
 4045SOL    HW212514   5.071   2.514   2.470 -0.8489 -0.4798  0.6628
 4046SOL     OW12515   3.955   1.409   6.657 -0.7456 -0.4797  0.1112
 4046SOL    HW112516   4.013   1.359   6.715 -0.6443 -0.0258  0.4053
 4046SOL    HW212517   3.983   1.500   6.668  0.6070 -0.5591 -2.1469
 4047SOL     OW12518   1.293   0.746   5.634  0.6445 -0.1460  0.2773
 4047SOL    HW112519   1.237   0.670   5.619  2.8305 -1.4673 -2.2939
 4047SOL    HW212520   1.373   0.709   5.672  1.0473  1.1738  0.7619
 4048SOL     OW12521   3.590   4.246   3.706 -0.0250  0.0572 -0.1364
 4048SOL    HW112522   3.609   4.244   3.612  1.2363  0.1648  0.0952
 4048SOL    HW212523   3.599   4.155   3.734  0.2442  0.1233 -0.0041
 4049SOL     OW12524   4.054   2.761   3.291  0.1577 -0.1711 -0.3459
 4049SOL    HW112525   4.077   2.790   3.379  0.6334 -0.5577 -0.3356
 4049SOL    HW212526   4.073   2.667   3.291  0.3226 -0.1466 -0.9096
 4050SOL     OW12527   3.748   1.886   5.113 -0.0413  0.2571 -0.2267
 4050SOL    HW112528   3.665   1.849   5.142  0.5470  0.2777  1.6219
 4050SOL    HW212529   3.803   1.810   5.096  0.3387  0.2370  1.0158
 4051SOL     OW12530   0.005   2.280   4.098  0.3790 -0.1371  0.6191
 4051SOL    HW112531   0.016   2.234   4.182 -0.4427 -0.2835  0.6542
 4051SOL    HW212532  -0.024   2.368   4.122  0.8367  0.0455  0.5101
 4052SOL     OW12533   1.492   6.093   2.645  0.0415 -0.4282  0.0317
 4052SOL    HW112534   1.581   6.061   2.630 -0.7503 -2.1953 -1.2685
 4052SOL    HW212535   1.479   6.087   2.739  1.4640  0.4259  0.3140
 4053SOL     OW12536   4.156   6.074   5.857 -0.5887  0.6881  0.5155
 4053SOL    HW112537   4.245   6.107   5.870 -0.6322  0.8785  0.3269
 4053SOL    HW212538   4.112   6.143   5.808 -0.0716 -0.5298 -1.7887
 4054SOL     OW12539   3.144   0.213   0.497 -0.2204  0.2476  0.2475
 4054SOL    HW112540   3.215   0.160   0.533 -0.0787  0.3588  0.1350
 4054SOL    HW212541   3.073   0.204   0.560 -0.0366  0.2976  0.4669
 4055SOL     OW12542   6.807   6.598   3.782  0.7616 -0.8221  0.1636
 4055SOL    HW112543   6.786   6.673   3.726 -0.5324 -0.1566  1.4663
 4055SOL    HW212544   6.902   6.601   3.791  0.7027  1.1449  0.7485
 4056SOL     OW12545   5.876   5.664   1.704 -0.1619  0.1693 -0.5093
 4056SOL    HW112546   5.948   5.601   1.699  1.3802  1.9057 -1.1308
 4056SOL    HW212547   5.831   5.641   1.786  1.2539 -0.7910  0.0542
 4057SOL     OW12548   5.847   0.660   2.306  0.3155  0.1918  0.3500
 4057SOL    HW112549   5.892   0.744   2.320  2.0321 -0.6266  0.1128
 4057SOL    HW212550   5.878   0.604   2.377 -1.3528 -0.0552  0.9017
 4058SOL     OW12551   1.841   1.826   2.912 -0.0356  0.3325 -0.5919
 4058SOL    HW112552   1.760   1.819   2.963  0.0081  1.0035 -0.4226
 4058SOL    HW212553   1.812   1.833   2.821 -0.1887  0.9182 -0.5037
 4059SOL     OW12554   2.051   0.464   5.394 -0.0378 -0.1708 -0.3064
 4059SOL    HW112555   1.974   0.416   5.424  0.0278 -0.4231 -0.5367
 4059SOL    HW212556   2.092   0.406   5.329 -0.9404  0.8994 -1.9131
 4060SOL     OW12557   5.622   2.670   5.655  0.7706  0.1623 -0.0845
 4060SOL    HW112558   5.562   2.648   5.726  1.7813  0.6705  0.9474
 4060SOL    HW212559   5.683   2.733   5.693  1.7206 -0.0391 -1.2196
 4061SOL     OW12560   2.475   2.366   2.703 -0.7878  0.5093  0.0210
 4061SOL    HW112561   2.490   2.460   2.699  2.3518  0.0611 -1.2134
 4061SOL    HW212562   2.486   2.336   2.612  2.5991 -1.5218  0.9516
 4062SOL     OW12563   6.105   2.971   2.006 -0.1809 -0.3119  0.0649
 4062SOL    HW112564   6.126   2.993   1.915  2.8132 -0.9482  0.4776
 4062SOL    HW212565   6.039   3.036   2.032  1.4955  2.2118 -1.5185
 4063SOL     OW12566   1.502   3.331   5.835  0.2315 -1.0102  0.6716
 4063SOL    HW112567   1.442   3.404   5.852  1.7621  0.3814  0.3314
 4063SOL    HW212568   1.445   3.254   5.830 -1.6729  0.3985 -0.8239
 4064SOL     OW12569   5.446   4.984   6.459 -0.8025  0.2158  0.2438
 4064SOL    HW112570   5.499   4.915   6.421 -1.0537  0.3224 -0.3265
 4064SOL    HW212571   5.457   5.058   6.399 -1.8404  0.1331 -0.0767
 4065SOL     OW12572   4.822   0.009   2.078  0.3053  0.4139 -0.0032
 4065SOL    HW112573   4.881  -0.050   2.030  0.4310  1.2135 -0.8563
 4065SOL    HW212574   4.735  -0.016   2.048  0.2175 -0.5440  1.0070
 4066SOL     OW12575   0.482   1.584   2.125 -0.4282  0.2897  0.5166
 4066SOL    HW112576   0.436   1.510   2.086  2.2403 -0.1118 -2.2033
 4066SOL    HW212577   0.505   1.554   2.213 -1.0562 -1.3470  0.1652
 4067SOL     OW12578   5.559   5.684   3.059  0.2956 -0.4212 -0.2060
 4067SOL    HW112579   5.588   5.660   3.146 -0.5539 -0.6625  0.0229
 4067SOL    HW212580   5.633   5.664   3.002  0.0462 -2.5087  0.1340
 4068SOL     OW12581   5.590   1.460   6.758  0.2821  0.4169 -0.0830
 4068SOL    HW112582   5.497   1.483   6.747  0.3974  0.9193  0.0209
 4068SOL    HW212583   5.619   1.440   6.669 -0.1420 -0.5825 -0.0182
 4069SOL     OW12584   4.595   5.988   4.051  0.0973  0.5582 -0.4636
 4069SOL    HW112585   4.537   6.016   4.121 -1.2798  0.5975 -1.5774
 4069SOL    HW212586   4.635   5.908   4.083 -0.7700  0.3949  0.2414
 4070SOL     OW12587   6.732   4.436   2.565  0.3226 -0.1483 -0.2394
 4070SOL    HW112588   6.693   4.521   2.584 -1.4279 -0.1970 -3.0232
 4070SOL    HW212589   6.695   4.377   2.631  0.8751  1.0340  1.1731
 4071SOL     OW12590   2.780   5.109   1.142 -0.2248 -0.0438  0.6807
 4071SOL    HW112591   2.692   5.118   1.178 -0.1622 -0.2886  0.8939
 4071SOL    HW212592   2.784   5.019   1.110  0.3078 -0.3804  1.6515
 4072SOL     OW12593   3.690   4.592   2.360 -0.1114 -0.2220  0.0617
 4072SOL    HW112594   3.766   4.640   2.395 -0.7115  1.9944 -1.4275
 4072SOL    HW212595   3.624   4.599   2.428 -0.6442  2.4008 -0.6218
 4073SOL     OW12596   5.861   3.504   2.325 -0.4681  0.0357 -0.3835
 4073SOL    HW112597   5.787   3.515   2.385 -1.3325  0.9425 -1.5598
 4073SOL    HW212598   5.820   3.475   2.243  0.5693 -0.1694 -0.8411
 4074SOL     OW12599   3.955   3.021   5.048 -0.4329 -0.3736  0.0630
 4074SOL    HW112600   3.985   3.108   5.020  0.1595 -0.5357  0.1700
 4074SOL    HW212601   4.035   2.969   5.052 -1.0563 -1.6670 -2.4794
 4075SOL     OW12602   2.891   4.730   5.338  0.3736 -0.0258 -0.5908
 4075SOL    HW112603   2.982   4.732   5.306 -0.0929 -0.9044 -2.0574
 4075SOL    HW212604   2.864   4.639   5.326 -0.2417 -0.1178  1.2609
 4076SOL     OW12605   0.235   2.483   4.870  0.3145  0.3834 -0.3341
 4076SOL    HW112606   0.285   2.562   4.850  0.3678  0.6716  0.8655
 4076SOL    HW212607   0.212   2.446   4.785  1.5729  0.8771 -0.9034
 4077SOL     OW12608   6.223   2.151   6.803 -0.3718  0.2983  0.9529
 4077SOL    HW112609   6.196   2.138   6.894 -0.2212 -1.2088  0.8117
 4077SOL    HW212610   6.253   2.065   6.775  1.8088  1.2303  0.1796
 4078SOL     OW12611   4.969   3.220   1.170  0.2591 -0.0364  0.7216
 4078SOL    HW112612   5.042   3.282   1.160  0.5227 -0.2181  1.4413
 4078SOL    HW212613   5.008   3.134   1.153  0.1153 -0.0888  0.6617
 4079SOL     OW12614   2.084   0.066   1.674 -0.0675  0.2046  0.2251
 4079SOL    HW112615   2.091   0.119   1.753 -0.6750  0.5582  0.0433
 4079SOL    HW212616   1.990   0.057   1.658  0.0098 -1.2101  0.4332
 4080SOL     OW12617   5.554   6.346   2.882  0.3157 -0.2691 -0.1286
 4080SOL    HW112618   5.617   6.345   2.953 -0.1175 -1.1758  0.2505
 4080SOL    HW212619   5.568   6.431   2.839 -0.6528  1.1573  2.1521
 4081SOL     OW12620   1.825   6.838   1.633 -0.6216  0.0354 -0.0874
 4081SOL    HW112621   1.783   6.910   1.681 -1.6326 -0.7223  0.2105
 4081SOL    HW212622   1.762   6.767   1.637 -0.4563 -0.2751 -2.0234
 4082SOL     OW12623   6.644   6.136   0.535 -0.1265 -0.0633  0.1285
 4082SOL    HW112624   6.636   6.068   0.601  0.1814  0.0599  0.2921
 4082SOL    HW212625   6.579   6.202   0.560 -0.8645 -0.5822 -0.3829
 4083SOL     OW12626   0.450   2.944   4.421 -0.0393  0.0233 -0.0164
 4083SOL    HW112627   0.527   2.922   4.473 -0.8249  2.5600  2.4274
 4083SOL    HW212628   0.411   2.860   4.400  2.0763 -1.2242  0.7002
 4084SOL     OW12629   3.406   4.545   1.112 -0.2795 -0.4027  0.6786
 4084SOL    HW112630   3.317   4.536   1.144 -0.5033 -0.0386  0.1742
 4084SOL    HW212631   3.404   4.623   1.056  0.2218 -0.7246  0.2008
 4085SOL     OW12632   1.313   2.783   4.118 -0.0954  0.1182 -0.0733
 4085SOL    HW112633   1.277   2.699   4.149  0.2972 -0.3831 -0.9293
 4085SOL    HW212634   1.266   2.849   4.168 -0.2232 -0.6268  0.8165
 4086SOL     OW12635   2.613   0.367   4.092 -0.3020  0.1329  0.1372
 4086SOL    HW112636   2.534   0.358   4.145 -2.1039 -0.6860 -2.4682
 4086SOL    HW212637   2.650   0.279   4.091 -0.0971  0.2185  0.3128
 4087SOL     OW12638   6.762   0.286   4.915  0.5282 -0.1726  0.1634
 4087SOL    HW112639   6.722   0.210   4.874  1.4817  0.5548 -2.3590
 4087SOL    HW212640   6.719   0.361   4.873 -0.3512  0.7539  2.5311
 4088SOL     OW12641   4.970   5.049   5.865 -0.3785 -0.3910 -0.2629
 4088SOL    HW112642   4.908   5.059   5.793 -2.5226  0.8537  1.6125
 4088SOL    HW212643   4.983   5.138   5.898  3.8587 -0.3211 -1.5833
 4089SOL     OW12644   5.128   4.057   5.157 -0.2707  0.0235  0.2495
 4089SOL    HW112645   5.050   4.026   5.203 -0.1400  0.4440  0.7730
 4089SOL    HW212646   5.127   4.152   5.171  1.3693 -0.1471  1.9417
 4090SOL     OW12647   3.910   3.038   1.596  0.0641  0.3338 -0.3898
 4090SOL    HW112648   3.986   3.019   1.651  0.2242  0.8932 -0.4064
 4090SOL    HW212649   3.901   3.133   1.601  0.1537  0.4081 -1.4236
 4091SOL     OW12650   5.333   5.460   4.588 -0.1755 -0.5250  0.1306
 4091SOL    HW112651   5.337   5.437   4.496  1.7486 -0.4674  0.1646
 4091SOL    HW212652   5.351   5.554   4.590 -0.4310 -0.4812  0.5531
 4092SOL     OW12653   5.398   2.179   5.483 -0.2989 -0.0094  0.1523
 4092SOL    HW112654   5.332   2.247   5.496 -0.2509 -0.0498  0.6147
 4092SOL    HW212655   5.350   2.097   5.498 -0.4782 -0.1066 -0.8944
 4093SOL     OW12656   1.330   1.998   0.600  0.5568 -0.7429  0.5752
 4093SOL    HW112657   1.256   1.945   0.628  0.9056 -2.0678 -0.9340
 4093SOL    HW212658   1.307   2.028   0.512  1.2054  0.0377  0.6581
 4094SOL     OW12659   1.959   0.322   1.365 -0.9315  0.2222 -0.3331
 4094SOL    HW112660   2.049   0.305   1.393 -0.0188  2.4625 -1.6543
 4094SOL    HW212661   1.956   0.291   1.274 -1.4953  0.1978 -0.3106
 4095SOL     OW12662   6.310   6.746   6.487 -0.6646  0.0013  0.0934
 4095SOL    HW112663   6.269   6.685   6.426 -3.0841  0.9997  0.6223
 4095SOL    HW212664   6.280   6.718   6.573  0.1202  0.5168  0.5416
 4096SOL     OW12665   4.951   2.741   0.419  0.2165 -0.0534  0.1107
 4096SOL    HW112666   4.855   2.741   0.422  0.2263 -0.1511  0.4649
 4096SOL    HW212667   4.974   2.825   0.378  0.0381  1.1959  2.4209
 4097SOL     OW12668   2.848   3.579   5.963  0.2953  0.6157  0.0271
 4097SOL    HW112669   2.802   3.626   6.032  2.3651  0.6503  1.4669
 4097SOL    HW212670   2.801   3.495   5.956  0.5711  0.2366  2.1494
 4098SOL     OW12671   2.952   4.586   1.034  0.1003  0.3343 -0.1562
 4098SOL    HW112672   2.884   4.649   1.060 -0.8820 -0.1549 -1.4162
 4098SOL    HW212673   2.907   4.526   0.975  1.0586 -1.4572  0.8528
 4099SOL     OW12674   4.457   5.241   5.538  0.0892  0.2658 -0.0206
 4099SOL    HW112675   4.507   5.287   5.606  0.6048 -1.8912  1.1337
 4099SOL    HW212676   4.522   5.218   5.472 -0.0471  0.5565 -0.2604
 4100SOL     OW12677   2.912   6.442   1.865  0.1624  0.7540 -0.0311
 4100SOL    HW112678   2.895   6.503   1.936  0.2787 -0.9874  1.5550
 4100SOL    HW212679   2.846   6.463   1.799 -2.2416  0.2142  2.0426
 4101SOL     OW12680   3.806   5.792   3.860  0.0315  0.4381 -0.6592
 4101SOL    HW112681   3.804   5.704   3.823  1.2820 -0.5415  1.4094
 4101SOL    HW212682   3.892   5.827   3.835  0.1423  0.4728 -0.2377
 4102SOL     OW12683   0.764   3.877   0.963 -0.1724 -0.1011 -0.1048
 4102SOL    HW112684   0.845   3.833   0.940 -1.1343 -2.7770  1.2579
 4102SOL    HW212685   0.717   3.886   0.880  0.8816  0.1982 -0.6878
 4103SOL     OW12686   1.569   6.255   1.150  0.5539  0.4077 -0.1590
 4103SOL    HW112687   1.577   6.241   1.056 -2.3150  2.5326 -0.8396
 4103SOL    HW212688   1.536   6.172   1.184 -0.4642  0.2869 -1.3993
 4104SOL     OW12689   1.209   3.863   1.482 -0.8785  0.2084 -0.3232
 4104SOL    HW112690   1.259   3.942   1.500  0.2424 -0.2010 -1.4851
 4104SOL    HW212691   1.174   3.876   1.394 -1.0897 -0.3864 -0.3362
 4105SOL     OW12692   3.833   3.493   4.693  0.2573 -0.6504 -0.3067
 4105SOL    HW112693   3.748   3.473   4.652  0.6607 -0.7994 -1.0881
 4105SOL    HW212694   3.892   3.507   4.619  0.6145  0.7950  0.2269
 4106SOL     OW12695   5.799   0.898   0.480  0.5377  0.5633  0.7704
 4106SOL    HW112696   5.839   0.854   0.406  1.0582  2.0557  0.1326
 4106SOL    HW212697   5.783   0.987   0.450  1.1933  1.3494  2.5868
 4107SOL     OW12698   1.320   3.755   3.192  0.0435  0.1015 -0.5558
 4107SOL    HW112699   1.320   3.773   3.098  1.9787  0.9249 -0.4480
 4107SOL    HW212700   1.364   3.830   3.231 -2.1774  0.5895  1.2350
 4108SOL     OW12701   5.022   4.268   3.101 -0.0096  0.3906  0.4225
 4108SOL    HW112702   4.957   4.202   3.079 -1.0063  0.9657  1.5111
 4108SOL    HW212703   5.053   4.301   3.017 -0.1661 -0.8151 -0.1163
 4109SOL     OW12704   1.465   1.798   2.774 -0.1559  0.8373  0.1871
 4109SOL    HW112705   1.433   1.710   2.793  1.1973  0.1057 -0.7177
 4109SOL    HW212706   1.403   1.832   2.709  0.2856 -0.1643 -0.7957
 4110SOL     OW12707   5.955   3.028   0.825 -0.6004  0.1458  0.2358
 4110SOL    HW112708   5.909   3.106   0.793  0.3586  0.7905  0.4128
 4110SOL    HW212709   5.937   3.027   0.919 -1.0060 -0.1232  0.1594
 4111SOL     OW12710   1.036   5.050   4.653 -0.0080  0.0275  0.3708
 4111SOL    HW112711   0.955   5.014   4.689 -0.8464 -0.7343 -2.0457
 4111SOL    HW212712   1.029   5.144   4.667 -1.0869 -0.0804  0.6117
 4112SOL     OW12713   1.052   1.335   1.875  0.4032  0.1408 -0.1953
 4112SOL    HW112714   1.008   1.417   1.895 -1.1580 -0.8447  0.6337
 4112SOL    HW212715   1.125   1.331   1.938  1.3706  1.4930 -1.1634
 4113SOL     OW12716   1.224   4.993   5.818 -0.3551  0.0898  0.0680
 4113SOL    HW112717   1.253   4.911   5.777  1.0127  0.8135 -0.4679
 4113SOL    HW212718   1.216   5.055   5.746 -2.6241  0.1393  0.2934
 4114SOL     OW12719   5.233   3.369   5.736  0.0720  0.0203 -0.2888
 4114SOL    HW112720   5.244   3.281   5.701  1.3297  0.7896 -1.9776
 4114SOL    HW212721   5.322   3.404   5.740 -0.2422  0.6871  1.8752
 4115SOL     OW12722   6.204   4.355   1.342 -0.0082  0.4391  0.2066
 4115SOL    HW112723   6.141   4.378   1.410 -0.1808 -0.7731  0.4783
 4115SOL    HW212724   6.283   4.330   1.390  0.7644  2.0586 -0.1343
 4116SOL     OW12725   3.541   1.488   5.371  0.3528  0.6447  0.0044
 4116SOL    HW112726   3.507   1.463   5.285 -1.5514 -3.2117  1.6372
 4116SOL    HW212727   3.466   1.528   5.415  0.1196 -0.9032  1.0788
 4117SOL     OW12728   0.384   5.656   2.748 -0.2241 -0.4806  0.5035
 4117SOL    HW112729   0.419   5.607   2.673  0.8190 -0.4072  0.9187
 4117SOL    HW212730   0.348   5.588   2.806  3.1750 -1.1282  2.1274
 4118SOL     OW12731   2.119   2.349   3.709 -0.5540  0.3053  0.0678
 4118SOL    HW112732   2.185   2.306   3.764 -1.4069 -0.3830  0.5774
 4118SOL    HW212733   2.044   2.290   3.711 -1.1721  1.0525 -0.5417
 4119SOL     OW12734   2.339   2.391   1.601 -0.3861 -0.2503  0.0052
 4119SOL    HW112735   2.270   2.330   1.631  0.5350 -1.2862  0.0883
 4119SOL    HW212736   2.355   2.365   1.510  0.9361 -1.0411  0.4405
 4120SOL     OW12737   5.831   3.664   3.534  0.5390 -0.1486  0.2961
 4120SOL    HW112738   5.913   3.708   3.558  0.1603  0.0872  1.2338
 4120SOL    HW212739   5.858   3.591   3.479  1.2579  0.7469 -0.5682
 4121SOL     OW12740   1.975   2.715   1.984 -0.1032  0.7941 -0.0473
 4121SOL    HW112741   2.008   2.803   1.999 -1.7365  1.7112 -1.4514
 4121SOL    HW212742   2.029   2.681   1.912 -0.1900  1.0904 -0.2551
 4122SOL     OW12743   5.268   0.601   6.628 -0.0586 -0.0960 -0.5482
 4122SOL    HW112744   5.312   0.675   6.670  0.0118 -0.0436 -0.7128
 4122SOL    HW212745   5.278   0.528   6.690  0.5055 -0.1593 -0.7103
 4123SOL     OW12746   1.376   3.147   1.915  0.1679 -0.2777  0.1934
 4123SOL    HW112747   1.292   3.104   1.901  0.6672 -0.7650 -1.6825
 4123SOL    HW212748   1.355   3.231   1.956 -1.0179 -1.2886  1.7574
 4124SOL     OW12749   3.772   4.363   3.863  0.2749  0.0523 -0.2706
 4124SOL    HW112750   3.775   4.392   3.955  2.4023 -0.0545 -0.2429
 4124SOL    HW212751   3.700   4.301   3.859 -0.3043  0.5987  1.1693
 4125SOL     OW12752   2.648   6.522   1.057 -0.2257 -0.2057  0.3944
 4125SOL    HW112753   2.685   6.458   1.118 -1.6458 -1.2656  0.2104
 4125SOL    HW212754   2.710   6.524   0.984  0.1202 -0.9786  0.6553
 4126SOL     OW12755   5.719   3.052   5.451  0.3162  0.3854 -0.0796
 4126SOL    HW112756   5.715   3.145   5.473 -1.8974  0.5196 -0.7997
 4126SOL    HW212757   5.667   3.009   5.519 -0.1147 -0.1022 -0.7070
 4127SOL     OW12758   4.333   0.062   1.289  0.0979 -0.4197  0.5716
 4127SOL    HW112759   4.295  -0.007   1.343 -0.3073 -1.5426 -1.0634
 4127SOL    HW212760   4.426   0.063   1.312 -0.4837  1.1259  3.3196
 4128SOL     OW12761   4.656   0.751   6.349  0.1957  0.7220 -0.3909
 4128SOL    HW112762   4.611   0.835   6.358  0.0515  0.5059  1.1537
 4128SOL    HW212763   4.636   0.704   6.430  0.2202 -0.8459 -1.2394
 4129SOL     OW12764   4.369   3.877   4.825  0.2860  0.4978 -0.5352
 4129SOL    HW112765   4.296   3.934   4.850  1.4212  1.6041  0.4103
 4129SOL    HW212766   4.439   3.937   4.801  2.4815 -0.2721  3.1365
 4130SOL     OW12767   0.899   1.993   1.079  0.0568  0.4961  0.7274
 4130SOL    HW112768   0.850   1.910   1.078 -0.1622  0.5589  2.5227
 4130SOL    HW212769   0.939   1.995   1.166  4.6599 -0.2994 -1.1080
 4131SOL     OW12770   1.452   0.742   3.946 -0.2507 -0.1985 -0.3437
 4131SOL    HW112771   1.368   0.764   3.988  0.1376 -1.0600  0.9618
 4131SOL    HW212772   1.461   0.648   3.961  0.4543 -0.3144 -1.4230
 4132SOL     OW12773   5.062   5.798   0.309 -0.5030  0.3425  0.0120
 4132SOL    HW112774   5.006   5.775   0.235 -0.2127 -0.7176  0.1099
 4132SOL    HW212775   5.001   5.823   0.378 -0.8325 -0.1727 -0.0888
 4133SOL     OW12776   3.804   4.027   1.687  0.4495 -0.1256 -0.0661
 4133SOL    HW112777   3.863   4.061   1.755  1.1213 -1.5334  0.0858
 4133SOL    HW212778   3.717   4.032   1.725  0.9171 -1.7924  1.3016
 4134SOL     OW12779   2.022   2.885   4.419 -0.2827  0.1844 -0.4015
 4134SOL    HW112780   1.934   2.848   4.408 -0.0273 -0.9887  1.2765
 4134SOL    HW212781   2.080   2.809   4.421  0.5863  0.8495  0.1828
 4135SOL     OW12782   5.345   3.553   1.868 -0.8111  0.1066 -0.2036
 4135SOL    HW112783   5.440   3.564   1.862 -0.7868 -0.7781 -2.0017
 4135SOL    HW212784   5.311   3.642   1.877  0.2069  0.3731  1.5776
 4136SOL     OW12785   6.366   5.467   0.046  0.7147  0.0601 -0.0170
 4136SOL    HW112786   6.450   5.471   0.092  0.7676  0.1083 -0.1182
 4136SOL    HW212787   6.302   5.488   0.114  0.5235 -2.6014  0.7438
 4137SOL     OW12788   3.732   0.660   6.704 -0.0914  0.1472 -0.4340
 4137SOL    HW112789   3.648   0.624   6.676 -0.2878  0.3981 -0.1780
 4137SOL    HW212790   3.726   0.753   6.685  0.0821  0.1873 -0.2953
 4138SOL     OW12791   5.837   3.994   6.784  0.6892  0.0960 -0.2819
 4138SOL    HW112792   5.895   3.918   6.779 -0.4749 -0.7399 -1.7260
 4138SOL    HW212793   5.823   4.020   6.693 -0.2533  1.0068  0.1089
 4139SOL     OW12794   3.878   4.733   6.274 -0.7211 -0.1391  0.4152
 4139SOL    HW112795   3.841   4.645   6.284 -0.2578 -0.4683 -0.6458
 4139SOL    HW212796   3.852   4.779   6.354  0.6176 -1.8094  1.9197
 4140SOL     OW12797   3.645   0.007   1.334 -1.0629  0.4431  0.1877
 4140SOL    HW112798   3.714  -0.059   1.333 -1.2726  0.1880 -1.9490
 4140SOL    HW212799   3.590  -0.015   1.259 -2.1139  2.0522  0.4373
 4141SOL     OW12800   0.763   5.299   5.076 -0.2767 -0.2237  0.1608
 4141SOL    HW112801   0.766   5.380   5.026 -0.3725  0.3898  1.1270
 4141SOL    HW212802   0.681   5.303   5.125 -0.8654 -1.4561 -0.6622
 4142SOL     OW12803   2.722   4.892   1.376  0.4978  0.1494  0.2955
 4142SOL    HW112804   2.707   4.866   1.285  0.1089  0.0846  0.3750
 4142SOL    HW212805   2.810   4.860   1.396  0.9812  1.0253 -0.3594
 4143SOL     OW12806   4.338   5.127   5.276  0.1084 -0.1955  0.0360
 4143SOL    HW112807   4.354   5.207   5.226 -0.1910 -0.0545  0.1646
 4143SOL    HW212808   4.417   5.117   5.329 -0.4118  0.7772  1.0462
 4144SOL     OW12809   3.761   0.199   6.776 -0.3764  0.6230  0.3302
 4144SOL    HW112810   3.803   0.260   6.715 -1.8146  0.0103 -1.3749
 4144SOL    HW212811   3.807   0.116   6.762  1.1640  1.0919  2.1972
 4145SOL     OW12812   0.928   5.466   2.527  0.3723 -0.1510 -0.2639
 4145SOL    HW112813   0.869   5.402   2.488 -1.1910  0.7263  0.5314
 4145SOL    HW212814   0.869   5.531   2.566  1.8878  1.1453 -0.0401
 4146SOL     OW12815   0.050   1.573   6.227  0.0291 -0.5940  0.8089
 4146SOL    HW112816   0.071   1.643   6.166 -1.7934 -1.2231 -0.6253
 4146SOL    HW212817   0.133   1.528   6.242  0.8231  0.5819  0.1360
 4147SOL     OW12818   2.675   6.276   5.677 -0.2384 -0.3856  0.1776
 4147SOL    HW112819   2.733   6.257   5.750  0.7225 -0.1542 -0.5093
 4147SOL    HW212820   2.645   6.366   5.693 -0.3780 -0.4887  0.5079
 4148SOL     OW12821   0.931   1.770   1.532 -0.2047 -0.1419 -0.0618
 4148SOL    HW112822   0.963   1.824   1.604 -0.9909  0.4317 -0.1316
 4148SOL    HW212823   0.886   1.697   1.576  1.3523 -1.0908  0.0411
 4149SOL     OW12824   3.070   6.695   3.346  0.3212 -0.3159 -0.7569
 4149SOL    HW112825   3.111   6.776   3.316 -0.7671  0.1569 -1.0139
 4149SOL    HW212826   3.115   6.626   3.297  0.3488  0.2382 -1.5216
 4150SOL     OW12827   0.469   2.842   1.422  0.0938  0.0911 -0.3895
 4150SOL    HW112828   0.504   2.905   1.486  1.0796 -0.1006 -0.7159
 4150SOL    HW212829   0.428   2.774   1.475 -1.2050  1.1042 -0.0327
 4151SOL     OW12830   0.776   0.074   2.386 -1.0544  0.4688 -0.3280
 4151SOL    HW112831   0.696   0.110   2.346 -1.2777  1.7704  1.1720
 4151SOL    HW212832   0.744   0.009   2.449 -0.7144 -1.4506 -2.0307
 4152SOL     OW12833   2.959   2.445   4.226 -0.4842 -0.5923  0.3003
 4152SOL    HW112834   2.870   2.449   4.192 -0.4732 -0.2917  0.3058
 4152SOL    HW212835   2.949   2.427   4.320 -0.5604  0.0510  0.4211
 4153SOL     OW12836   1.978   3.493   6.469  0.2735  0.0661 -0.1852
 4153SOL    HW112837   2.054   3.436   6.454 -0.3512 -0.8025 -0.0975
 4153SOL    HW212838   1.965   3.538   6.385  1.2438  0.6730 -0.0222
 4154SOL     OW12839   6.280   6.832   4.335  0.1595 -0.2445 -1.0349
 4154SOL    HW112840   6.221   6.836   4.410 -0.1820 -0.8430 -1.2620
 4154SOL    HW212841   6.361   6.872   4.365  0.8025 -2.4292  0.3768
 4155SOL     OW12842   4.260   0.295   2.238  0.4986 -1.0388  0.1019
 4155SOL    HW112843   4.335   0.354   2.239 -0.1712 -0.1731  0.4087
 4155SOL    HW212844   4.269   0.245   2.157  0.1705  0.6770 -1.0278
 4156SOL     OW12845   3.220   2.758   2.729  0.4122  0.2147  0.4141
 4156SOL    HW112846   3.280   2.683   2.731 -0.2021 -0.2953  0.0716
 4156SOL    HW212847   3.219   2.790   2.819 -0.4487 -1.1056  0.9112
 4157SOL     OW12848   5.657   4.933   5.866  0.4299 -0.6699  0.0108
 4157SOL    HW112849   5.610   4.866   5.817 -1.2214 -0.5769  1.3350
 4157SOL    HW212850   5.588   4.976   5.918  1.2034  2.7462 -1.5280
 4158SOL     OW12851   4.480   0.465   2.338  0.2065 -0.4868  0.4305
 4158SOL    HW112852   4.450   0.520   2.410  1.1164 -1.5154  1.6444
 4158SOL    HW212853   4.531   0.396   2.380  0.8344 -1.0815 -1.2140
 4159SOL     OW12854   2.440   6.774   2.465  0.4817 -0.3074  0.6466
 4159SOL    HW112855   2.495   6.735   2.397  0.9766  0.5972  0.5055
 4159SOL    HW212856   2.476   6.741   2.547  1.5900  0.6768  0.5810
 4160SOL     OW12857   3.520   5.839   4.278  0.2253 -0.2084  0.4655
 4160SOL    HW112858   3.475   5.918   4.248 -0.6390 -0.1076  1.9281
 4160SOL    HW212859   3.569   5.809   4.202 -1.2535  0.4444 -0.7983
 4161SOL     OW12860   3.513   0.125   3.322 -0.2738  0.2766  0.0742
 4161SOL    HW112861   3.426   0.086   3.315  0.4458 -1.2532 -0.8084
 4161SOL    HW212862   3.555   0.108   3.237  0.3749  2.3130 -0.0596
 4162SOL     OW12863   4.134   4.404   2.555 -0.5760  0.1871  0.5595
 4162SOL    HW112864   4.149   4.499   2.565  0.1231  0.3379 -1.3979
 4162SOL    HW212865   4.076   4.397   2.479  1.4520 -0.9917 -0.9927
 4163SOL     OW12866   4.583   1.338   4.527 -0.1184  0.0885 -0.2231
 4163SOL    HW112867   4.582   1.364   4.434 -0.3815 -0.1478 -0.2894
 4163SOL    HW212868   4.664   1.374   4.561 -0.9213  1.8735 -0.0744
 4164SOL     OW12869   1.270   6.719   3.871 -0.2391 -0.2238  0.0565
 4164SOL    HW112870   1.292   6.720   3.964 -0.9238  3.2759  0.3161
 4164SOL    HW212871   1.279   6.810   3.842  2.4061 -1.4690 -4.0133
 4165SOL     OW12872   2.327   1.062   0.743  0.0689 -0.0363  0.6819
 4165SOL    HW112873   2.318   1.037   0.835 -1.3370  0.7832  0.8005
 4165SOL    HW212874   2.317   0.980   0.695  3.7063 -1.0013  1.2851
 4166SOL     OW12875   2.818   5.757   5.785  0.4728 -0.3462  0.0430
 4166SOL    HW112876   2.864   5.722   5.861 -2.1264 -0.8336  1.5268
 4166SOL    HW212877   2.854   5.845   5.773  1.1307 -0.3659  1.6582
 4167SOL     OW12878   6.400   6.735   3.105 -0.2637  0.5296 -0.0248
 4167SOL    HW112879   6.439   6.712   3.190 -0.9544  0.5504  0.3060
 4167SOL    HW212880   6.324   6.678   3.098 -1.1612  1.6722  0.1312
 4168SOL     OW12881   6.476   2.272   5.449  0.4780  0.0118  0.1395
 4168SOL    HW112882   6.388   2.293   5.419  1.3366  1.2788 -1.6347
 4168SOL    HW212883   6.476   2.177   5.461 -1.1484  0.0154  0.3202
 4169SOL     OW12884   4.875   4.356   4.567 -0.2853 -0.0487  0.6130
 4169SOL    HW112885   4.872   4.343   4.472  1.8757 -1.2108  0.6467
 4169SOL    HW212886   4.829   4.280   4.603  0.5287 -0.5863  0.5271
 4170SOL     OW12887   0.924   2.618   1.131 -0.1236 -0.3149  0.0269
 4170SOL    HW112888   1.003   2.641   1.180 -0.2306  0.6362 -0.2112
 4170SOL    HW212889   0.956   2.564   1.058  0.2112 -0.5454  0.3403
 4171SOL     OW12890   2.730   1.276   3.124 -0.4889  0.5421 -0.0847
 4171SOL    HW112891   2.764   1.358   3.161 -0.5093  0.7401 -0.5002
 4171SOL    HW212892   2.794   1.210   3.149  1.1342  1.1694 -2.2625
 4172SOL     OW12893   1.358   5.615   2.689 -0.2530  0.4235 -0.4780
 4172SOL    HW112894   1.268   5.647   2.681 -0.7743 -0.6336  0.7555
 4172SOL    HW212895   1.389   5.608   2.599 -1.2161  1.3000 -0.8977
 4173SOL     OW12896   4.977   6.744   1.882 -0.5024  0.1548  0.2508
 4173SOL    HW112897   4.907   6.761   1.818 -0.3205 -2.2581 -0.6959
 4173SOL    HW212898   5.056   6.737   1.830  0.4012  2.0973  1.2421
 4174SOL     OW12899   4.910   6.175   3.175  0.1654  0.4431  0.0237
 4174SOL    HW112900   4.815   6.171   3.185  0.2895 -0.3433  1.0369
 4174SOL    HW212901   4.929   6.120   3.100 -0.2054  0.9260 -0.4331
 4175SOL     OW12902   0.668   3.529   4.662  0.0562 -0.4851  0.5604
 4175SOL    HW112903   0.675   3.442   4.623  1.2468 -0.2098  0.0783
 4175SOL    HW212904   0.602   3.574   4.609 -1.1630 -1.3379  1.3272
 4176SOL     OW12905   2.872   0.857   1.080  0.0355  0.1857 -0.8716
 4176SOL    HW112906   2.879   0.950   1.058  1.2666  0.7013  1.3540
 4176SOL    HW212907   2.832   0.856   1.167  2.5203 -1.1515  0.3758
 4177SOL     OW12908   5.912   0.534   4.813  0.1813 -0.1403  0.2245
 4177SOL    HW112909   5.873   0.453   4.845  0.9419 -0.3906  0.5346
 4177SOL    HW212910   6.003   0.531   4.844 -0.1957  1.6118  1.7378
 4178SOL     OW12911   2.065   3.958   2.024 -0.1342 -0.0284 -0.0146
 4178SOL    HW112912   2.130   3.962   1.955 -0.1198 -0.1770 -0.0111
 4178SOL    HW212913   1.998   4.022   1.999 -1.2643 -1.6297 -1.3538
 4179SOL     OW12914   4.514   2.393   5.086 -0.0294  0.1488 -0.3548
 4179SOL    HW112915   4.567   2.384   5.165 -0.3706 -0.6861 -0.2174
 4179SOL    HW212916   4.577   2.386   5.014 -0.0370 -1.8594 -0.2283
 4180SOL     OW12917   6.392   4.029   1.673  0.0745  0.8042 -0.5367
 4180SOL    HW112918   6.417   3.976   1.748  1.2313  1.2066 -0.6271
 4180SOL    HW212919   6.374   4.116   1.710  1.4279  1.2160 -0.8138
 4181SOL     OW12920   5.350   1.876   4.722  0.0662  0.3416  0.0278
 4181SOL    HW112921   5.354   1.827   4.804  0.3117 -2.7319 -1.6750
 4181SOL    HW212922   5.422   1.939   4.729 -0.3566  0.6733  2.3886
 4182SOL     OW12923   2.871   2.529   5.133 -0.3916 -0.3993 -0.2839
 4182SOL    HW112924   2.788   2.529   5.180  0.8426  0.9142  2.0862
 4182SOL    HW212925   2.859   2.594   5.063 -1.8248 -1.3968 -1.0272
 4183SOL     OW12926   4.930   5.536   6.670 -0.3078 -0.1737 -0.2433
 4183SOL    HW112927   4.894   5.591   6.601  0.3429  1.7947  0.9097
 4183SOL    HW212928   4.859   5.529   6.734 -0.8305 -1.8037 -0.9526
 4184SOL     OW12929   1.713   4.333   3.584 -0.2158  0.1304  0.1107
 4184SOL    HW112930   1.632   4.349   3.633 -0.3567  0.4871 -0.2333
 4184SOL    HW212931   1.776   4.395   3.620 -0.4216  0.6399 -0.4045
 4185SOL     OW12932   4.202   4.688   3.425 -0.4766 -0.3825 -0.4408
 4185SOL    HW112933   4.209   4.691   3.329  1.3954 -0.1480 -0.3257
 4185SOL    HW212934   4.109   4.708   3.442 -0.7369  0.1151 -2.1741
 4186SOL     OW12935   4.768   4.532   0.882  0.1111 -0.2052 -0.0082
 4186SOL    HW112936   4.823   4.460   0.914 -0.9029 -1.1091 -0.2540
 4186SOL    HW212937   4.705   4.490   0.823 -3.1579  0.1753  2.9414
 4187SOL     OW12938   3.000   4.951   0.745 -0.4393  0.1132  0.4158
 4187SOL    HW112939   2.916   4.913   0.770 -0.6143  0.2338  0.0254
 4187SOL    HW212940   3.009   5.028   0.801 -0.4877 -0.0187  0.6071
 4188SOL     OW12941   0.308   5.185   2.999  0.2636  0.6195 -0.8533
 4188SOL    HW112942   0.286   5.275   3.024  1.9497  0.4278  1.5511
 4188SOL    HW212943   0.396   5.191   2.963  0.6895 -0.1661  0.0370
 4189SOL     OW12944   2.537   1.186   0.610  0.2128 -0.2000  0.0725
 4189SOL    HW112945   2.504   1.177   0.520  1.0348 -0.6158 -0.1942
 4189SOL    HW212946   2.463   1.161   0.665 -0.3164  0.1119 -0.4878
 4190SOL     OW12947   6.580   5.430   3.900 -0.1847 -0.1415  0.4425
 4190SOL    HW112948   6.586   5.339   3.870  1.4629  0.0604  0.0243
 4190SOL    HW212949   6.554   5.424   3.992 -1.2439 -0.9677  0.1011
 4191SOL     OW12950   0.030   4.384   1.811 -0.7556 -0.2041 -0.1341
 4191SOL    HW112951   0.024   4.480   1.819  0.8052  0.0125 -1.1526
 4191SOL    HW212952   0.047   4.354   1.900  1.1365  0.7294 -0.1261
 4192SOL     OW12953   4.785   0.307   0.228  0.2622  0.1101 -0.6407
 4192SOL    HW112954   4.857   0.246   0.212  0.4684  0.8139 -2.5289
 4192SOL    HW212955   4.706   0.255   0.212  0.3672 -0.2354 -0.0811
 4193SOL     OW12956   5.860   2.305   2.172 -0.4279  0.3169 -0.0310
 4193SOL    HW112957   5.843   2.211   2.177 -0.3446  0.1024 -2.3907
 4193SOL    HW212958   5.951   2.310   2.141  0.4421  1.2571  2.4947
 4194SOL     OW12959   5.107   1.095   3.710  0.0278 -0.9759  0.6931
 4194SOL    HW112960   5.149   1.081   3.795  3.5009 -1.9641 -0.9883
 4194SOL    HW212961   5.171   1.146   3.660 -0.4655 -3.0367 -2.2824
 4195SOL     OW12962   1.242   5.267   2.791 -0.4147  0.0321  0.1732
 4195SOL    HW112963   1.297   5.208   2.740  1.2759  1.0145  0.7506
 4195SOL    HW212964   1.257   5.353   2.751 -0.1931  0.5823  1.3939
 4196SOL     OW12965   4.333   0.403   1.301 -0.6630 -0.1310 -0.4469
 4196SOL    HW112966   4.367   0.483   1.340  0.1257 -0.9940  0.7153
 4196SOL    HW212967   4.406   0.367   1.250 -0.0350 -1.5318  1.3398
 4197SOL     OW12968   5.412   1.325   1.095  0.0616  0.3739 -0.0531
 4197SOL    HW112969   5.344   1.372   1.144 -2.5321 -2.2378 -0.7724
 4197SOL    HW212970   5.494   1.352   1.135 -1.3944  3.3789  1.2379
 4198SOL     OW12971   2.379   1.217   5.189 -0.1207 -0.1155 -0.1924
 4198SOL    HW112972   2.365   1.203   5.096 -2.3000 -1.5537  0.2849
 4198SOL    HW212973   2.311   1.166   5.232  1.9680 -1.0358  2.2792
 4199SOL     OW12974   5.933   1.396   5.004 -0.1588 -0.3520  0.5347
 4199SOL    HW112975   5.919   1.313   4.958 -0.2320  0.4749 -0.9965
 4199SOL    HW212976   5.929   1.463   4.935  0.0635  0.9154  1.7078
 4200SOL     OW12977   1.691   2.153   4.707  0.7343 -0.0807  0.0900
 4200SOL    HW112978   1.688   2.120   4.617  0.8206 -1.5530  0.6072
 4200SOL    HW212979   1.626   2.223   4.709 -0.1727 -0.8644 -0.7988
 4201SOL     OW12980   3.928   0.885   6.007  0.1929  0.3733 -0.1194
 4201SOL    HW112981   3.937   0.976   6.035 -0.8662  0.3485  0.3186
 4201SOL    HW212982   3.960   0.885   5.917 -0.9926  1.4458 -0.5685
 4202SOL     OW12983   6.006   6.183   1.179 -0.6825 -0.2261 -0.1041
 4202SOL    HW112984   5.912   6.194   1.194 -0.3586  0.6146  1.6190
 4202SOL    HW212985   6.033   6.263   1.135 -0.7121 -0.2913 -0.2400
 4203SOL     OW12986   2.253   1.997   0.652  0.1163  0.1821  0.1947
 4203SOL    HW112987   2.163   1.975   0.675  0.4922 -1.3027  0.3454
 4203SOL    HW212988   2.254   1.998   0.557 -0.6329  2.8674  0.1306
 4204SOL     OW12989   1.337   6.807   6.714  0.1577 -0.2019 -0.9249
 4204SOL    HW112990   1.273   6.752   6.669 -0.8774  0.7446 -0.6386
 4204SOL    HW212991   1.350   6.882   6.655  0.3713  0.0287 -0.5869
 4205SOL     OW12992   0.848   0.815   3.949 -0.2292 -0.2349  0.6023
 4205SOL    HW112993   0.765   0.830   3.994  0.2082 -0.7084  1.5744
 4205SOL    HW212994   0.835   0.733   3.902 -0.4930 -0.0220  0.2912
 4206SOL     OW12995   5.321   2.892   4.078  0.3486  0.5815 -0.2622
 4206SOL    HW112996   5.407   2.850   4.069 -0.5121 -1.1581 -0.7281
 4206SOL    HW212997   5.304   2.891   4.172  0.1149 -0.6346 -0.3042
 4207SOL     OW12998   5.354   5.024   2.775  0.3867 -0.2121  0.1514
 4207SOL    HW112999   5.435   4.992   2.735  0.6678  0.2339  0.3523
 4207SOL    HW213000   5.289   5.021   2.704  0.5627 -0.6178  0.0038
 4208SOL     OW13001   5.399   1.758   3.038  0.0732  0.0836 -0.2959
 4208SOL    HW113002   5.333   1.774   3.105  1.5474 -1.1573  1.5408
 4208SOL    HW213003   5.447   1.841   3.031  1.0048 -0.2527  1.5147
 4209SOL     OW13004   5.675   2.649   2.269  0.6537  0.4452 -0.5430
 4209SOL    HW113005   5.614   2.709   2.312 -0.6687 -0.6868 -0.7616
 4209SOL    HW213006   5.718   2.702   2.202 -0.5060  1.1447 -0.7567
 4210SOL     OW13007   6.159   4.640   6.202  0.0189  0.0807  0.0567
 4210SOL    HW113008   6.153   4.558   6.153  0.2222 -0.3337  0.7041
 4210SOL    HW213009   6.210   4.698   6.146 -1.4216  0.2893 -1.0776
 4211SOL     OW13010   3.661   2.038   0.525  0.1406 -0.1128  0.2042
 4211SOL    HW113011   3.685   1.947   0.505 -1.0734 -1.0804  2.7843
 4211SOL    HW213012   3.713   2.060   0.602 -1.8542  0.2470  1.5028
 4212SOL     OW13013   1.646   4.141   5.248 -0.5817 -0.3124  0.2880
 4212SOL    HW113014   1.552   4.123   5.248 -0.5764 -0.5519 -1.8854
 4212SOL    HW213015   1.663   4.184   5.164  1.0120  1.2120  1.3124
 4213SOL     OW13016   2.265   0.632   5.061 -0.0128 -0.2838 -0.3982
 4213SOL    HW113017   2.267   0.705   5.122 -1.3317 -1.6848  1.4193
 4213SOL    HW213018   2.325   0.567   5.097 -0.1602 -0.8029 -1.0425
 4214SOL     OW13019   5.770   5.020   2.541  0.3132 -0.0621  0.0697
 4214SOL    HW113020   5.809   5.016   2.453 -0.5455 -1.5348 -0.2783
 4214SOL    HW213021   5.844   5.014   2.601  1.1268  2.8520 -0.4571
 4215SOL     OW13022   3.851   3.301   2.663  0.3660 -0.2629 -0.1278
 4215SOL    HW113023   3.811   3.288   2.749  1.1079 -0.7552  0.1440
 4215SOL    HW213024   3.944   3.310   2.681  0.4587  0.2207 -0.8277
 4216SOL     OW13025   5.460   2.026   4.198  0.1344  0.2911  0.2516
 4216SOL    HW113026   5.396   1.955   4.189  1.0211 -0.6562  1.2301
 4216SOL    HW213027   5.532   2.001   4.140 -0.5037  1.5421 -1.1388
 4217SOL     OW13028   1.351   2.525   5.824 -0.3560 -0.4125 -0.4723
 4217SOL    HW113029   1.440   2.556   5.841  0.0311 -2.3025  1.4444
 4217SOL    HW213030   1.351   2.501   5.732  0.9185  0.2591 -0.6721
 4218SOL     OW13031   0.860   5.335   5.887  0.4897  0.0368 -0.0569
 4218SOL    HW113032   0.945   5.380   5.889  0.5856  0.0564 -2.0322
 4218SOL    HW213033   0.882   5.244   5.866  0.0648 -0.1017  0.0943
 4219SOL     OW13034   0.006   6.448   5.233  0.0436 -0.5834 -0.3621
 4219SOL    HW113035  -0.025   6.392   5.304 -0.2413  0.4668  0.3741
 4219SOL    HW213036   0.079   6.400   5.194  0.2855 -1.1376  0.7317
 4220SOL     OW13037   0.790   5.774   2.521  0.0429  0.0432  0.3413
 4220SOL    HW113038   0.755   5.726   2.446  0.5385 -0.1643  0.2394
 4220SOL    HW213039   0.874   5.809   2.491 -0.4680  1.2633  0.3118
 4221SOL     OW13040   1.116   4.892   4.436 -0.5365  0.3707 -0.0274
 4221SOL    HW113041   1.055   4.871   4.365  0.4742 -1.3147 -0.4402
 4221SOL    HW213042   1.064   4.946   4.497 -2.4657 -1.0563 -0.3228
 4222SOL     OW13043   1.510   0.622   1.203  0.4551  0.3374 -0.1965
 4222SOL    HW113044   1.428   0.591   1.241  0.9892 -0.4866  0.3142
 4222SOL    HW213045   1.573   0.552   1.221  1.2263  0.8735 -0.7440
 4223SOL     OW13046   4.485   6.020   1.062  0.1726 -0.7609 -0.2093
 4223SOL    HW113047   4.410   6.033   1.119  0.4134  0.8951 -0.2169
 4223SOL    HW213048   4.557   5.997   1.122 -0.4109 -2.9272 -0.2550
 4224SOL     OW13049   1.391   2.080   2.102 -0.2489  0.1817 -0.4139
 4224SOL    HW113050   1.382   2.164   2.058  0.4514 -0.0738 -1.0577
 4224SOL    HW213051   1.351   2.094   2.188  0.1212  1.2574 -0.4017
 4225SOL     OW13052   6.735   6.626   5.715  0.2459  0.5654 -0.4262
 4225SOL    HW113053   6.643   6.648   5.703  0.1101  2.4610  2.8911
 4225SOL    HW213054   6.736   6.530   5.715 -1.3655  0.4759 -2.3213
 4226SOL     OW13055   3.883   5.571   6.026 -0.5816  0.1781 -0.0546
 4226SOL    HW113056   3.819   5.638   6.001 -0.2471  0.0098 -1.4121
 4226SOL    HW213057   3.960   5.621   6.052  0.1005  0.3711 -2.2226
 4227SOL     OW13058   4.651   0.414   4.230 -0.1578 -0.2438  0.2458
 4227SOL    HW113059   4.594   0.479   4.270 -0.4634 -0.6040  0.4109
 4227SOL    HW213060   4.602   0.332   4.238 -0.6603 -0.1810 -1.7158
 4228SOL     OW13061   2.200   5.345   0.931  0.7549 -0.5875 -0.0600
 4228SOL    HW113062   2.272   5.283   0.939  0.9295 -0.3082  0.6928
 4228SOL    HW213063   2.218   5.394   0.851  0.7085 -1.3752 -0.5655
 4229SOL     OW13064   5.366   4.601   4.619 -0.0287 -0.0794  0.5520
 4229SOL    HW113065   5.414   4.596   4.702  0.4432  1.4807  0.4049
 4229SOL    HW213066   5.277   4.625   4.645 -0.1996 -0.8170  0.6755
 4230SOL     OW13067   2.168   1.888   2.712  0.3065 -0.2034 -0.0053
 4230SOL    HW113068   2.139   1.869   2.623 -0.6253 -1.9327  0.6214
 4230SOL    HW213069   2.250   1.936   2.701 -0.2344  0.3831 -1.7792
 4231SOL     OW13070   2.246   1.617   5.241  0.7929 -0.0559 -0.1565
 4231SOL    HW113071   2.304   1.693   5.246  2.5328 -1.3352 -0.1556
 4231SOL    HW213072   2.227   1.607   5.148  1.2260 -0.0896 -0.2438
 4232SOL     OW13073   0.095   1.384   1.319 -0.2988 -0.0360  0.0885
 4232SOL    HW113074   0.132   1.413   1.236 -2.0681 -0.8800 -1.0427
 4232SOL    HW213075   0.111   1.457   1.379  2.2179  0.0363 -0.5858
 4233SOL     OW13076   4.173   2.098   5.016  0.2064 -0.5060  0.1024
 4233SOL    HW113077   4.104   2.073   4.955  0.0213 -2.1105  0.9413
 4233SOL    HW213078   4.181   2.025   5.076  1.6004  0.2959  0.9589
 4234SOL     OW13079   5.529   3.846   2.652 -0.2911 -0.1342 -0.0782
 4234SOL    HW113080   5.454   3.786   2.655 -0.8581  0.5664  0.2719
 4234SOL    HW213081   5.522   3.897   2.733  2.4369 -2.2019  1.6239
 4235SOL     OW13082   4.736   3.032   4.656 -0.3392  0.4573  0.3789
 4235SOL    HW113083   4.677   2.959   4.678  0.7610 -0.8494 -0.8181
 4235SOL    HW213084   4.817   3.012   4.702 -0.4499  1.6793  1.1422
 4236SOL     OW13085   4.446   4.475   2.883 -0.0085 -0.1690 -0.0716
 4236SOL    HW113086   4.491   4.408   2.832 -3.1308 -1.4084 -1.4903
 4236SOL    HW213087   4.356   4.443   2.889 -1.0665  2.7369  1.3685
 4237SOL     OW13088   1.747   1.876   3.207  0.0463  0.2566  0.8216
 4237SOL    HW113089   1.734   1.932   3.284 -0.8498  0.6956  0.3624
 4237SOL    HW213090   1.675   1.898   3.149  1.8102  1.4468 -1.0485
 4238SOL     OW13091   6.578   0.808   4.469  0.2687  0.4098 -0.3759
 4238SOL    HW113092   6.546   0.802   4.380  1.4210  2.1390 -0.9459
 4238SOL    HW213093   6.599   0.900   4.482 -0.0355  0.2392  1.7556
 4239SOL     OW13094   6.497   1.471   4.341 -0.2622 -0.1945  0.6589
 4239SOL    HW113095   6.423   1.454   4.398  0.4515  2.6173  2.6088
 4239SOL    HW213096   6.484   1.560   4.309  2.3042  0.4882  1.2298
 4240SOL     OW13097   1.704   0.414   2.780 -0.5951 -0.1001 -0.4809
 4240SOL    HW113098   1.725   0.337   2.728 -0.9547  1.0122 -2.3479
 4240SOL    HW213099   1.785   0.465   2.782 -0.2332 -0.6826  1.1047
 4241SOL     OW13100   0.359   5.322   5.663  0.1522 -0.1724 -0.5283
 4241SOL    HW113101   0.363   5.413   5.690 -0.2879 -0.5289  0.8400
 4241SOL    HW213102   0.446   5.303   5.628 -0.3941  1.3457 -2.9486
 4242SOL     OW13103   6.520   0.910   3.643 -0.2040  0.1968  0.1138
 4242SOL    HW113104   6.490   0.879   3.729  0.3347 -2.0790 -0.4469
 4242SOL    HW213105   6.604   0.951   3.659  0.8945 -2.0519  0.4876
 4243SOL     OW13106   2.084   5.856   3.150 -0.4216  0.7174  0.5205
 4243SOL    HW113107   1.992   5.882   3.145 -0.0929  1.6622 -1.1220
 4243SOL    HW213108   2.126   5.925   3.202 -0.4562  0.8074  0.4279
 4244SOL     OW13109   2.200   5.236   4.617  0.4107  0.7422  0.6293
 4244SOL    HW113110   2.198   5.234   4.521 -0.9591 -0.5137  0.6332
 4244SOL    HW213111   2.157   5.318   4.641  1.7270  1.5831  0.1891
 4245SOL     OW13112   0.258   6.468   1.316 -0.3199 -0.0808 -0.3949
 4245SOL    HW113113   0.222   6.553   1.290  0.6516 -0.1236 -1.9850
 4245SOL    HW213114   0.268   6.420   1.235  1.6377 -0.7240  0.1749
 4246SOL     OW13115   3.890   0.006   6.156  0.3580 -0.0928  0.7110
 4246SOL    HW113116   3.814   0.033   6.207  1.2901 -0.1379  2.1865
 4246SOL    HW213117   3.888  -0.090   6.158 -0.3032 -0.1192 -0.4520
 4247SOL     OW13118   4.015   3.254   4.903  0.3026  0.5229 -0.0211
 4247SOL    HW113119   4.107   3.239   4.881  0.6581  0.4735  1.4297
 4247SOL    HW213120   3.974   3.275   4.819  1.8617  1.6908 -0.5448
 4248SOL     OW13121   2.295   5.635   4.259 -0.0387 -0.1091 -0.1217
 4248SOL    HW113122   2.345   5.710   4.225  2.7292 -1.9255 -0.4427
 4248SOL    HW213123   2.285   5.578   4.183 -3.2889  0.3996 -0.2013
 4249SOL     OW13124   1.593   0.708   4.601 -0.0849 -0.0932 -0.5838
 4249SOL    HW113125   1.627   0.768   4.535 -0.6575 -0.2106 -0.9965
 4249SOL    HW213126   1.564   0.765   4.673  1.2099 -0.0130 -0.1118
 4250SOL     OW13127   5.313   0.300   1.138  0.4298  0.2114  0.0065
 4250SOL    HW113128   5.382   0.249   1.095  0.4706  0.1457  0.1499
 4250SOL    HW213129   5.244   0.306   1.072  0.2966 -0.2922  0.0970
 4251SOL     OW13130   0.138   1.016   0.852 -0.3935 -0.2307 -0.5718
 4251SOL    HW113131   0.087   0.957   0.796 -0.6223  0.0312 -0.6409
 4251SOL    HW213132   0.076   1.045   0.919 -0.1240 -0.5357 -0.1862
 4252SOL     OW13133   6.085   6.246   3.754 -0.5516 -0.1881 -0.3674
 4252SOL    HW113134   6.078   6.338   3.779 -1.8813 -0.4839  0.4930
 4252SOL    HW213135   6.153   6.244   3.687 -0.0246  1.3162  0.0793
 4253SOL     OW13136   5.864   5.463   4.793 -0.0552 -0.3864  0.0085
 4253SOL    HW113137   5.903   5.471   4.880 -0.8115 -0.0289  0.3304
 4253SOL    HW213138   5.854   5.553   4.762  1.5214 -0.5482 -1.0783
 4254SOL     OW13139   3.980   2.924   1.132 -0.4142 -0.0732 -0.0787
 4254SOL    HW113140   3.926   2.991   1.174 -0.9569 -1.4388  1.5015
 4254SOL    HW213141   3.961   2.933   1.039 -1.9407  0.7106  0.2815
 4255SOL     OW13142   5.868   0.528   6.513  0.4504  0.2598  0.2299
 4255SOL    HW113143   5.898   0.441   6.541  0.2220 -0.0581 -0.4897
 4255SOL    HW213144   5.774   0.517   6.499  0.7831  0.0148 -2.0727
 4256SOL     OW13145   0.939   0.369   3.420 -0.0678 -0.4682  0.9246
 4256SOL    HW113146   0.960   0.399   3.509 -1.9222  0.7128  1.0255
 4256SOL    HW213147   0.886   0.290   3.433 -1.4052  0.3951  0.9748
 4257SOL     OW13148   5.150   1.766   1.040 -0.2280  0.1394  0.0002
 4257SOL    HW113149   5.133   1.687   0.989  0.6972  0.0276 -0.1426
 4257SOL    HW213150   5.233   1.800   1.005 -1.0255  1.6438 -0.5229
 4258SOL     OW13151   2.699   0.514   1.707  0.2163 -0.2394 -0.4978
 4258SOL    HW113152   2.648   0.433   1.704  0.3916 -0.3377 -0.9736
 4258SOL    HW213153   2.758   0.508   1.631 -0.6332  0.9028 -1.2886
 4259SOL     OW13154   6.116   2.405   0.176  0.1182 -0.3114 -0.2939
 4259SOL    HW113155   6.137   2.462   0.103 -1.7696  0.3214 -0.3955
 4259SOL    HW213156   6.040   2.445   0.218  1.3082 -0.4749  2.2417
 4260SOL     OW13157   6.735   3.390   3.041  0.6010  0.4756  0.5615
 4260SOL    HW113158   6.777   3.336   2.973  0.1625  0.1358  0.5543
 4260SOL    HW213159   6.642   3.384   3.022  0.3352 -0.8964  2.1129
 4261SOL     OW13160   4.039   3.963   0.326 -0.2971 -0.1979  0.6520
 4261SOL    HW113161   4.020   4.052   0.356 -0.3911 -0.0718  0.2312
 4261SOL    HW213162   4.104   3.930   0.388  0.0653  0.3246  0.5641
 4262SOL     OW13163   4.123   1.856   1.636 -0.0595 -0.1907  0.0908
 4262SOL    HW113164   4.132   1.762   1.656 -0.6213 -0.4349 -0.7297
 4262SOL    HW213165   4.158   1.900   1.713 -0.7516 -1.0738  0.9491
 4263SOL     OW13166   1.412   3.109   6.232  0.3729 -0.0645  0.4254
 4263SOL    HW113167   1.353   3.184   6.232 -1.2543 -1.2723  1.0773
 4263SOL    HW213168   1.394   3.064   6.149  1.7878  0.5453 -0.2549
 4264SOL     OW13169   0.026   6.723   1.038  0.2520  0.4996  0.9594
 4264SOL    HW113170   0.030   6.670   0.959  1.2969  0.6035  0.9261
 4264SOL    HW213171  -0.067   6.743   1.050 -0.1097 -0.9356  0.7091
 4265SOL     OW13172   0.262   1.216   6.813 -0.1647 -0.2035 -0.4885
 4265SOL    HW113173   0.228   1.127   6.816  1.1192 -0.7023  2.1113
 4265SOL    HW213174   0.337   1.211   6.754  1.5711 -1.6193  1.6368
 4266SOL     OW13175   1.036   1.318   0.694  0.1456 -0.0862  0.3064
 4266SOL    HW113176   1.050   1.296   0.602  0.5227 -1.3032  0.6414
 4266SOL    HW213177   0.998   1.406   0.692  0.7573  0.1723 -0.9800
 4267SOL     OW13178   1.987   3.164   2.470 -0.2747  0.4402 -0.4415
 4267SOL    HW113179   1.956   3.192   2.384 -0.9133 -2.9004 -1.4299
 4267SOL    HW213180   2.072   3.123   2.453 -0.6317 -0.7106  0.4127
 4268SOL     OW13181   2.835   1.976   2.899 -0.1624 -0.1352  0.3357
 4268SOL    HW113182   2.816   2.070   2.888  0.2261 -0.0165  0.6315
 4268SOL    HW213183   2.751   1.938   2.924 -0.0370  0.3813  1.6462
 4269SOL     OW13184   5.824   5.747   5.726 -0.0419 -0.2672 -0.3069
 4269SOL    HW113185   5.740   5.756   5.681  0.5378 -0.2518 -1.4231
 4269SOL    HW213186   5.802   5.710   5.811 -1.0513 -1.6228 -1.1202
 4270SOL     OW13187   0.506   4.447   0.104  0.9094 -0.6695  0.4795
 4270SOL    HW113188   0.486   4.535   0.136 -1.0135 -0.6771 -0.5929
 4270SOL    HW213189   0.599   4.451   0.082  0.6290  1.4458 -0.5955
 4271SOL     OW13190   3.063   2.146   4.743  0.3245 -0.4036 -0.0441
 4271SOL    HW113191   3.083   2.195   4.664  0.7293  0.0768  0.3489
 4271SOL    HW213192   3.048   2.213   4.810  0.5419 -0.8106  0.4195
 4272SOL     OW13193   0.715   4.944   3.081  0.1079  0.4163  0.7846
 4272SOL    HW113194   0.704   4.855   3.112 -0.2745 -0.2928 -1.2420
 4272SOL    HW213195   0.777   4.937   3.008 -0.6360  1.6435 -0.0203
 4273SOL     OW13196   6.303   4.648   0.318 -1.2892 -0.3737  0.3768
 4273SOL    HW113197   6.299   4.735   0.356  0.5506  0.6265 -1.5416
 4273SOL    HW213198   6.379   4.607   0.359 -1.1161 -0.4214  0.0108
 4274SOL     OW13199   5.122   4.941   0.827 -0.2605  0.2589 -0.2721
 4274SOL    HW113200   5.052   4.992   0.867 -0.2223  0.5441 -0.5682
 4274SOL    HW213201   5.129   4.863   0.882 -0.7438  0.2743 -0.1822
 4275SOL     OW13202   5.995   0.828   4.941  0.6397  0.3972  0.2804
 4275SOL    HW113203   6.085   0.795   4.947  0.2193 -0.9812 -0.6705
 4275SOL    HW213204   5.972   0.819   4.849 -0.4975  0.7119  0.5238
 4276SOL     OW13205   0.179   6.296   5.107  0.2208  0.7175  0.2588
 4276SOL    HW113206   0.258   6.245   5.090 -0.0145  0.4800 -0.1392
 4276SOL    HW213207   0.129   6.292   5.025 -0.8137 -0.2335  0.8923
 4277SOL     OW13208   0.201   5.174   5.820 -0.2448  0.5527 -0.0234
 4277SOL    HW113209   0.197   5.222   5.903 -2.4189  1.4432 -0.5762
 4277SOL    HW213210   0.249   5.230   5.761  0.8540  0.1494  0.4683
 4278SOL     OW13211   0.036   2.349   0.883 -0.0164 -0.3124  0.5650
 4278SOL    HW113212   0.093   2.405   0.831 -0.1454  0.4514  1.2313
 4278SOL    HW213213  -0.040   2.333   0.826  0.8563 -1.3771 -0.3403
 4279SOL     OW13214   3.150   6.727   4.593  0.4184  0.6775 -0.2898
 4279SOL    HW113215   3.153   6.795   4.525  1.4506  1.9947  1.0225
 4279SOL    HW213216   3.077   6.752   4.649  0.4063  0.3438 -0.1552
 4280SOL     OW13217   3.647   3.399   3.562 -0.3681 -0.0568 -0.4857
 4280SOL    HW113218   3.699   3.471   3.525  1.9149 -0.5972  1.4561
 4280SOL    HW213219   3.707   3.353   3.619 -2.4550 -2.1022  0.2004
 4281SOL     OW13220   2.162   5.393   5.892 -0.2056  0.2918  0.0673
 4281SOL    HW113221   2.189   5.378   5.802  1.5024  0.1261  0.5722
 4281SOL    HW213222   2.224   5.457   5.926 -1.0568  0.6420  1.0188
 4282SOL     OW13223   4.823   2.430   1.410  0.0635 -0.2504  0.2095
 4282SOL    HW113224   4.747   2.464   1.364 -0.6357 -1.8556  0.1145
 4282SOL    HW213225   4.872   2.508   1.437 -1.4012  0.7962 -0.0616
 4283SOL     OW13226   5.806   6.000   5.843  0.6521 -0.1475 -0.0868
 4283SOL    HW113227   5.845   5.921   5.807  1.1413  0.0078  0.1000
 4283SOL    HW213228   5.811   6.065   5.773 -3.0191 -1.2382 -1.6020
 4284SOL     OW13229   6.781   4.271   6.223 -0.0477 -0.1892 -0.3902
 4284SOL    HW113230   6.796   4.331   6.150  2.1047 -0.4286 -0.2112
 4284SOL    HW213231   6.831   4.193   6.201 -1.8314 -1.4760 -0.0530
 4285SOL     OW13232   3.097   5.550   0.529  0.7098 -0.2257  0.0213
 4285SOL    HW113233   3.061   5.576   0.614  0.8735 -0.7094  0.2427
 4285SOL    HW213234   3.021   5.542   0.473  0.4424 -1.4136  0.5334
 4286SOL     OW13235   2.884   4.175   3.319  0.4701  0.2454 -0.2759
 4286SOL    HW113236   2.934   4.167   3.238  0.3965  0.0973 -0.3072
 4286SOL    HW213237   2.842   4.089   3.330 -0.4506  0.6282 -0.6888
 4287SOL     OW13238   6.642   2.285   6.806 -0.2616 -0.3951 -0.6656
 4287SOL    HW113239   6.659   2.203   6.853 -0.7824  0.2113  0.6103
 4287SOL    HW213240   6.691   2.351   6.854 -1.6354  0.4152 -0.3300
 4288SOL     OW13241   4.365   5.583   5.454 -0.9978  0.2730  0.3765
 4288SOL    HW113242   4.435   5.632   5.498 -1.1971  0.6779  0.2482
 4288SOL    HW213243   4.398   5.567   5.366 -1.0736  0.4862  0.3081
 4289SOL     OW13244   2.746   0.447   6.231 -0.0071  0.7975  0.2138
 4289SOL    HW113245   2.840   0.429   6.235  0.0250  0.7494 -0.5864
 4289SOL    HW213246   2.709   0.399   6.305  0.6162  0.9329  0.6203
 4290SOL     OW13247   4.464   4.103   5.137 -0.1491 -0.2719 -0.4590
 4290SOL    HW113248   4.488   4.010   5.137 -0.7900 -0.4532  0.9451
 4290SOL    HW213249   4.496   4.135   5.052 -0.0008 -1.7799 -1.0106
 4291SOL     OW13250   4.817   1.337   4.930  0.0111  0.2297 -0.1066
 4291SOL    HW113251   4.879   1.332   4.857 -0.6110 -0.2225 -0.6155
 4291SOL    HW213252   4.871   1.330   5.008  0.4110 -3.3950 -0.5254
 4292SOL     OW13253   4.850   5.839   3.297  0.3288  0.2595  0.4842
 4292SOL    HW113254   4.871   5.857   3.389 -0.5177  0.1147  0.7193
 4292SOL    HW213255   4.878   5.748   3.284  0.0435  0.1336  0.7315
 4293SOL     OW13256   4.788   1.960   3.822 -0.0053  0.6919  0.1222
 4293SOL    HW113257   4.873   2.004   3.820 -0.1894  1.1200  1.2367
 4293SOL    HW213258   4.805   1.875   3.861 -0.3347  1.3993  1.8918
 4294SOL     OW13259   6.118   1.187   3.226 -0.2830 -0.1738 -0.0408
 4294SOL    HW113260   6.135   1.191   3.320 -0.2059 -0.3557 -0.0457
 4294SOL    HW213261   6.203   1.166   3.188 -0.0368  1.1740 -0.2632
 4295SOL     OW13262   6.302   5.524   2.501  0.1635 -0.3488  0.1452
 4295SOL    HW113263   6.327   5.607   2.460 -2.1824  0.6130  0.4859
 4295SOL    HW213264   6.247   5.481   2.436 -0.6154 -0.4951  0.8807
 4296SOL     OW13265   1.653   3.019   3.186  0.0936 -0.0707 -0.1329
 4296SOL    HW113266   1.587   2.995   3.251  1.9999 -1.5713  1.3689
 4296SOL    HW213267   1.694   3.098   3.222  0.5696 -0.4107  0.0914
 4297SOL     OW13268   4.355   0.374   4.273 -0.2750  0.2351  0.2524
 4297SOL    HW113269   4.272   0.422   4.268  0.4012  1.4001 -4.0207
 4297SOL    HW213270   4.329   0.284   4.294 -2.2069  1.1402  2.1833
 4298SOL     OW13271   5.519   6.687   5.284  0.2339 -0.1946 -0.1626
 4298SOL    HW113272   5.433   6.722   5.262  0.6571 -0.0027 -1.6384
 4298SOL    HW213273   5.548   6.739   5.359 -0.1076  1.1191 -0.9155
 4299SOL     OW13274   1.872   3.090   6.145 -0.3803 -0.1419  0.2966
 4299SOL    HW113275   1.904   3.150   6.213 -0.3072  1.5436 -1.1449
 4299SOL    HW213276   1.783   3.122   6.125  0.0171  0.1245 -1.1619
 4300SOL     OW13277   0.158   0.542   2.847  0.4453  0.1889 -0.0932
 4300SOL    HW113278   0.143   0.635   2.865  0.5646 -0.1748  2.1677
 4300SOL    HW213279   0.245   0.524   2.883  0.7350 -0.6538 -1.1608
 4301SOL     OW13280   0.273   3.796   4.633  0.2939 -0.2341 -1.1130
 4301SOL    HW113281   0.288   3.883   4.595 -1.6053  0.3897 -0.5561
 4301SOL    HW213282   0.283   3.736   4.559 -1.3639  0.7696 -2.2375
 4302SOL     OW13283   0.925   2.325   6.691  0.2296  1.2016  0.4781
 4302SOL    HW113284   0.993   2.346   6.627  0.2054  1.2289  0.4610
 4302SOL    HW213285   0.939   2.388   6.762 -0.2749  1.7382  0.1137
 4303SOL     OW13286   1.906   0.765   4.506 -0.4141  0.0602  0.3147
 4303SOL    HW113287   1.899   0.843   4.562 -0.3725  0.1341  0.2172
 4303SOL    HW213288   1.825   0.765   4.455 -1.0048 -0.6633  1.2120
 4304SOL     OW13289   6.065   0.729   6.619 -0.0026 -0.1328  0.1673
 4304SOL    HW113290   5.995   0.671   6.590 -0.6166  0.8696 -0.4350
 4304SOL    HW213291   6.075   0.793   6.548 -1.1913  2.0964  1.8485
 4305SOL     OW13292   4.484   2.354   5.806  0.2934 -0.0278  0.4464
 4305SOL    HW113293   4.575   2.384   5.807  0.7527 -1.2805 -0.8612
 4305SOL    HW213294   4.444   2.404   5.736  0.2783 -0.2984  0.2611
 4306SOL     OW13295   1.675   5.443   1.422 -0.2301 -0.1593  0.2900
 4306SOL    HW113296   1.728   5.469   1.347  0.4824  1.1176  1.2030
 4306SOL    HW213297   1.660   5.349   1.409  0.0438 -0.0139 -1.3225
 4307SOL     OW13298   0.278   4.037   3.258 -0.0735  0.5724  0.3257
 4307SOL    HW113299   0.370   4.019   3.238  0.3301  1.3870  1.3451
 4307SOL    HW213300   0.232   3.957   3.232  0.9904 -0.0332  0.2452
 4308SOL     OW13301   4.129   5.586   2.937  0.0003  0.2830  0.0585
 4308SOL    HW113302   4.127   5.670   2.984 -1.4814 -0.2798  1.0591
 4308SOL    HW213303   4.079   5.602   2.857 -0.3400  0.3441  0.2813
 4309SOL     OW13304   3.149   0.701   5.173  0.0658  0.1685 -0.6353
 4309SOL    HW113305   3.154   0.659   5.087  3.6575 -3.2726  0.9203
 4309SOL    HW213306   3.138   0.628   5.234  0.5773  2.1446  1.9911
 4310SOL     OW13307   2.639   4.382   2.804 -0.2610  0.1583 -0.1901
 4310SOL    HW113308   2.734   4.387   2.797 -0.1259  0.5933  1.5134
 4310SOL    HW213309   2.623   4.323   2.877 -1.2038  2.0500  1.2133
 4311SOL     OW13310   3.095   3.326   5.617 -0.1954 -0.2460  0.7030
 4311SOL    HW113311   3.055   3.245   5.648 -0.6217  0.8551  3.2738
 4311SOL    HW213312   3.039   3.396   5.652  1.4946  1.2178  0.6381
 4312SOL     OW13313   5.741   3.273   5.623 -0.0386 -0.7327  0.8989
 4312SOL    HW113314   5.776   3.361   5.641 -1.3881 -0.7111  4.0909
 4312SOL    HW213315   5.797   3.214   5.675  1.3048 -1.9704 -1.7522
 4313SOL     OW13316   3.566   2.940   5.294  0.0487 -0.0998  0.2763
 4313SOL    HW113317   3.556   3.034   5.306  1.4073  0.0521  0.4510
 4313SOL    HW213318   3.661   2.926   5.293 -0.1271 -1.4944  0.4577
 4314SOL     OW13319   2.262   3.994   4.124 -0.0588  0.2976  0.2889
 4314SOL    HW113320   2.192   3.930   4.110 -0.0037  0.4904 -0.9690
 4314SOL    HW213321   2.336   3.942   4.153 -0.0391 -0.2076 -0.6466
 4315SOL     OW13322   6.190   4.937   6.527 -0.5986 -0.4485 -0.2398
 4315SOL    HW113323   6.138   4.872   6.480 -0.1226 -1.1169  0.1471
 4315SOL    HW213324   6.215   5.000   6.459  0.0407 -1.3800 -0.9024
 4316SOL     OW13325   5.577   1.430   6.467  0.1439 -0.4129  0.2050
 4316SOL    HW113326   5.610   1.517   6.444  0.8987 -0.5914  0.5683
 4316SOL    HW213327   5.593   1.377   6.388 -1.8069  0.1399 -0.6185
 4317SOL     OW13328   3.514   5.860   2.791  0.1032  0.0267 -0.3212
 4317SOL    HW113329   3.578   5.824   2.729  0.4650  1.0025 -0.5285
 4317SOL    HW213330   3.566   5.885   2.867 -0.2821 -0.7584  0.2202
 4318SOL     OW13331   4.834   5.143   3.960 -0.2028 -0.0544  0.0871
 4318SOL    HW113332   4.914   5.179   3.999  0.0321 -1.2182  0.7185
 4318SOL    HW213333   4.778   5.122   4.034  0.9735 -4.0163  0.0866
 4319SOL     OW13334   3.645   2.019   2.840 -0.6317 -0.0398 -0.2479
 4319SOL    HW113335   3.732   2.005   2.878 -0.0984  1.7015 -0.7286
 4319SOL    HW213336   3.642   1.959   2.765  0.3543  0.2092 -0.5057
 4320SOL     OW13337   5.126   4.437   3.315 -0.0617  0.2760  0.6629
 4320SOL    HW113338   5.190   4.453   3.246  0.9524 -0.8046  1.3019
 4320SOL    HW213339   5.072   4.366   3.281  0.1079  0.0982  0.7603
 4321SOL     OW13340   2.812   2.700   1.976 -0.0424  0.7372  0.2220
 4321SOL    HW113341   2.717   2.714   1.977 -0.2210 -0.4191  0.1502
 4321SOL    HW213342   2.844   2.750   2.052 -0.7140  1.0622  0.2994
 4322SOL     OW13343   4.933   1.405   3.210  0.3556  0.1346  0.5365
 4322SOL    HW113344   4.845   1.434   3.235  0.2631 -0.4134  0.8706
 4322SOL    HW213345   4.943   1.319   3.252  0.7599 -0.1532 -0.1232
 4323SOL     OW13346   5.142   3.816   4.445 -0.5744  0.2161 -0.7714
 4323SOL    HW113347   5.078   3.761   4.399  0.2547  0.0082 -1.7099
 4323SOL    HW213348   5.224   3.803   4.396  0.3357  0.0243  0.7397
 4324SOL     OW13349   3.892   5.089   1.733 -0.3566 -0.6534  0.9511
 4324SOL    HW113350   3.944   5.167   1.716 -1.1525 -0.3704 -0.3271
 4324SOL    HW213351   3.956   5.021   1.751  0.5517 -0.5093 -1.3566
 4325SOL     OW13352   3.996   2.055   4.805 -0.0023  0.2233  0.0220
 4325SOL    HW113353   3.901   2.041   4.809  0.0357 -0.0333  0.0319
 4325SOL    HW213354   4.030   1.976   4.765  0.2334  0.2139  0.2409
 4326SOL     OW13355   3.053   6.362   1.496  0.1924  0.2208 -0.3422
 4326SOL    HW113356   3.082   6.342   1.585 -1.8204  0.4423  0.4193
 4326SOL    HW213357   3.005   6.283   1.469 -0.3459  0.6717 -0.7091
 4327SOL     OW13358   2.142   2.157   2.554 -0.7484 -0.4097  0.1875
 4327SOL    HW113359   2.139   2.252   2.543  0.1540 -0.0951  2.1937
 4327SOL    HW213360   2.068   2.137   2.611  0.7488 -0.4264  2.2628
 4328SOL     OW13361   1.238   1.213   0.902  0.0942 -0.7176  0.2487
 4328SOL    HW113362   1.189   1.135   0.930 -1.4716  0.1987  0.1984
 4328SOL    HW213363   1.231   1.274   0.975  0.9383 -0.4499  0.1175
 4329SOL     OW13364   2.998   5.627   0.786 -0.6490  0.0374 -0.2790
 4329SOL    HW113365   3.008   5.645   0.880 -0.4972  1.2943 -0.5068
 4329SOL    HW213366   2.903   5.626   0.772 -0.7222 -1.7171  0.1361
 4330SOL     OW13367   5.286   3.176   3.505 -0.4810  0.4313 -0.3743
 4330SOL    HW113368   5.227   3.179   3.580  2.1440 -1.7523  2.0224
 4330SOL    HW213369   5.359   3.233   3.529  1.0970 -1.4224 -0.5246
 4331SOL     OW13370   0.240   1.767   5.523  0.0051 -0.1572  0.4473
 4331SOL    HW113371   0.297   1.844   5.522 -1.2583  0.8444 -0.8276
 4331SOL    HW213372   0.288   1.701   5.474  0.6399  0.2170  0.5570
 4332SOL     OW13373   1.960   2.770   6.506 -0.1810  0.5505 -0.0308
 4332SOL    HW113374   1.908   2.690   6.500 -0.5407  0.5919  1.9147
 4332SOL    HW213375   2.036   2.754   6.450 -1.0274 -0.5035 -0.9324
 4333SOL     OW13376   0.033   0.660   5.762  0.0469 -0.6057  0.1138
 4333SOL    HW113377   0.062   0.573   5.734 -1.0879 -0.5865 -1.2608
 4333SOL    HW213378   0.111   0.714   5.754  0.3318 -1.1216 -0.8180
 4334SOL     OW13379   4.945   4.453   2.140 -0.1786 -0.6956 -0.0925
 4334SOL    HW113380   4.903   4.380   2.186 -0.3903  0.3733  1.4925
 4334SOL    HW213381   4.947   4.524   2.205  1.5953  0.1633 -1.0283
 4335SOL     OW13382   6.374   2.091   1.979 -0.4892  0.1969 -0.4110
 4335SOL    HW113383   6.456   2.129   2.009 -1.1907  1.7677 -0.3766
 4335SOL    HW213384   6.381   1.998   2.000  0.3642  0.6823  1.6735
 4336SOL     OW13385   4.058   5.242   4.019 -0.1704  0.4755 -0.7810
 4336SOL    HW113386   4.010   5.227   4.100 -0.3287  2.5078 -0.4482
 4336SOL    HW213387   4.137   5.188   4.028 -0.9794 -0.6305 -0.0437
 4337SOL     OW13388   6.571   4.648   3.564  0.9034 -0.2340 -0.1108
 4337SOL    HW113389   6.589   4.715   3.630 -1.2315  1.2806 -0.9658
 4337SOL    HW213390   6.593   4.690   3.481 -1.7747  0.0076 -0.7824
 4338SOL     OW13391   1.712   3.897   4.911  0.2049  0.5457  0.0777
 4338SOL    HW113392   1.660   3.819   4.893 -0.1837  1.0171 -0.9431
 4338SOL    HW213393   1.770   3.905   4.835  0.4744  1.0613  0.3308
 4339SOL     OW13394   3.146   2.007   5.267  0.0723  0.0398 -0.2736
 4339SOL    HW113395   3.128   1.996   5.173  1.3927 -1.0306 -0.4318
 4339SOL    HW213396   3.093   1.939   5.309  0.1465 -0.0493 -0.3232
 4340SOL     OW13397   0.543   2.054   4.951 -0.5249 -0.0464  0.8050
 4340SOL    HW113398   0.501   2.126   4.998 -0.1985 -0.1999  1.3450
 4340SOL    HW213399   0.482   1.981   4.958  0.3039 -0.6233  2.6021
 4341SOL     OW13400   1.365   4.320   4.960 -0.3407 -0.1459 -0.2314
 4341SOL    HW113401   1.423   4.249   4.984 -1.1331 -0.3920  1.0197
 4341SOL    HW213402   1.423   4.393   4.938  0.4464 -0.7857 -0.2787
 4342SOL     OW13403   5.979   5.568   2.304  0.3397 -0.2009 -0.0937
 4342SOL    HW113404   5.939   5.562   2.391 -0.9070 -0.3297 -0.6474
 4342SOL    HW213405   6.000   5.477   2.281 -0.1597 -0.2682 -0.2918
 4343SOL     OW13406   0.417   3.345   0.463  0.0552 -0.2716  0.3479
 4343SOL    HW113407   0.431   3.252   0.481 -1.7191 -0.3844  1.3088
 4343SOL    HW213408   0.353   3.374   0.529 -0.9083  1.1646 -1.1388
 4344SOL     OW13409   3.571   2.215   1.199 -0.3652 -0.6911 -0.4504
 4344SOL    HW113410   3.659   2.248   1.219 -0.0833 -1.9844  0.5249
 4344SOL    HW213411   3.521   2.229   1.279 -0.8924 -0.5252 -0.8007
 4345SOL     OW13412   0.902   1.888   5.606 -0.0726  0.9547 -0.0817
 4345SOL    HW113413   0.819   1.843   5.612  0.7985 -0.7611 -0.3551
 4345SOL    HW213414   0.916   1.901   5.513  1.3997 -1.7042 -0.3346
 4346SOL     OW13415   4.472   0.369   0.050  0.4274 -0.4013 -0.3636
 4346SOL    HW113416   4.473   0.305   0.121 -0.4350  0.5319  0.5382
 4346SOL    HW213417   4.406   0.336  -0.011 -2.2082  0.9646  1.5084
 4347SOL     OW13418   4.768   3.704   6.539  0.3511  0.1862  0.2083
 4347SOL    HW113419   4.863   3.696   6.548  0.5329  1.3420 -0.4819
 4347SOL    HW213420   4.739   3.738   6.624  0.3948 -1.1988  0.8032
 4348SOL     OW13421   4.325   3.315   3.971  0.4610 -0.1829  0.0694
 4348SOL    HW113422   4.230   3.319   3.976  0.4861 -0.2802  0.6429
 4348SOL    HW213423   4.352   3.404   3.948  0.2517 -0.0759  0.2397
 4349SOL     OW13424   0.640   0.048   0.844 -0.1602 -0.4783 -0.3975
 4349SOL    HW113425   0.646   0.138   0.812  0.3843 -0.4282 -0.1649
 4349SOL    HW213426   0.584   0.054   0.921 -0.1835 -0.3470 -0.4236
 4350SOL     OW13427   2.672   6.036   1.483  0.2466 -0.2079 -0.2028
 4350SOL    HW113428   2.727   6.082   1.421  0.4450  1.4837  1.1475
 4350SOL    HW213429   2.733   5.995   1.544  0.0792  0.8828  0.7442
 4351SOL     OW13430   0.114   6.416   6.083  0.1659  0.3899  0.4265
 4351SOL    HW113431   0.054   6.489   6.096 -0.1992  0.2058 -0.1700
 4351SOL    HW213432   0.110   6.367   6.165 -1.8464 -0.5814 -0.1874
 4352SOL     OW13433   5.262   0.438   0.665 -0.1955 -0.4414  0.5435
 4352SOL    HW113434   5.238   0.528   0.686 -0.5480 -0.3875 -0.0576
 4352SOL    HW213435   5.296   0.443   0.575  0.2365 -0.8294  0.6817
 4353SOL     OW13436   4.768   1.946   5.484  0.0681  0.3167 -0.4092
 4353SOL    HW113437   4.851   1.899   5.486 -0.4101 -0.5635  1.8651
 4353SOL    HW213438   4.714   1.897   5.422  0.2576 -0.9761  0.4060
 4354SOL     OW13439   5.893   4.174   3.785  0.1044 -0.2697  0.5706
 4354SOL    HW113440   5.880   4.246   3.724  2.4517  0.3649  0.6973
 4354SOL    HW213441   5.947   4.111   3.736 -0.2176 -0.9887  1.1252
 4355SOL     OW13442   5.527   0.403   5.577 -0.0590 -0.1066  0.4512
 4355SOL    HW113443   5.514   0.455   5.498  1.6859 -0.5216 -0.1646
 4355SOL    HW213444   5.582   0.458   5.634 -1.7123  0.3953  1.6370
 4356SOL     OW13445   6.528   5.233   2.033  0.2247  0.0004 -0.2324
 4356SOL    HW113446   6.614   5.251   1.995  1.0370 -0.1222  1.4278
 4356SOL    HW213447   6.475   5.202   1.960  0.6389  2.9754 -1.9452
 4357SOL     OW13448   4.662   3.103   0.860  0.1346  0.1658  0.3175
 4357SOL    HW113449   4.651   3.184   0.911  2.7103  0.4991  0.4710
 4357SOL    HW213450   4.754   3.079   0.872 -0.2286 -2.0939 -0.7993
 4358SOL     OW13451   2.033   4.634   6.790 -0.3619 -0.0711 -0.4860
 4358SOL    HW113452   1.980   4.561   6.758  0.3449 -1.4375  1.2557
 4358SOL    HW213453   2.075   4.600   6.870  1.0473  1.8121 -0.3445
 4359SOL     OW13454   0.567   1.615   1.797  0.5408 -0.1434  0.3398
 4359SOL    HW113455   0.553   1.590   1.889 -1.4200 -0.4500  0.0031
 4359SOL    HW213456   0.555   1.710   1.796  0.3392 -0.1669  0.3789
 4360SOL     OW13457   6.088   1.309   0.151 -0.2637 -0.2075 -0.0202
 4360SOL    HW113458   6.133   1.272   0.075  0.2204  1.3335 -0.5293
 4360SOL    HW213459   6.127   1.265   0.226  1.5116  0.4557 -0.5033
 4361SOL     OW13460   4.119   1.820   4.860 -0.1515 -0.0981  0.2833
 4361SOL    HW113461   4.205   1.837   4.822 -0.2916  0.4895  0.2281
 4361SOL    HW213462   4.136   1.754   4.927  0.4829  0.6210  0.8451
 4362SOL     OW13463   0.572   5.383   5.889  0.3987 -0.4390 -0.3628
 4362SOL    HW113464   0.666   5.397   5.880  0.6692 -2.0068 -0.2485
 4362SOL    HW213465   0.546   5.345   5.805 -0.2962  0.6989 -0.6839
 4363SOL     OW13466   6.660   5.842   2.810  0.1100 -0.0213  0.1103
 4363SOL    HW113467   6.617   5.809   2.731 -1.3357 -2.7531  1.8688
 4363SOL    HW213468   6.597   5.827   2.880  2.2324 -0.0198  2.1621
 4364SOL     OW13469   0.899   1.086   1.975 -0.3292  0.4197  0.1009
 4364SOL    HW113470   0.838   1.081   1.901 -0.9957 -0.8929  0.7152
 4364SOL    HW213471   0.949   1.166   1.958 -1.8441  1.2557 -0.6911
 4365SOL     OW13472   2.887   5.182   5.638 -0.0406 -0.5072 -0.2741
 4365SOL    HW113473   2.812   5.161   5.694 -0.0244 -0.4901 -0.2460
 4365SOL    HW213474   2.874   5.274   5.614 -0.6221 -0.8036 -1.1757
 4366SOL     OW13475   2.095   5.084   3.642  0.0379  0.0135  0.1787
 4366SOL    HW113476   2.098   5.070   3.737  0.8959 -0.8606  0.0375
 4366SOL    HW213477   2.158   5.155   3.627 -1.2588  1.2694  0.4167
 4367SOL     OW13478   3.357   4.549   3.537  0.7588  0.2376  0.0532
 4367SOL    HW113479   3.379   4.521   3.449 -1.7320 -0.3184 -0.4614
 4367SOL    HW213480   3.308   4.630   3.525  0.7726  0.3956  0.9739
 4368SOL     OW13481   0.906   2.328   2.865 -0.9594  0.1555 -0.2078
 4368SOL    HW113482   0.815   2.304   2.885 -0.8760 -0.0529 -0.0753
 4368SOL    HW213483   0.957   2.289   2.936 -0.6574 -0.6116 -0.8311
 4369SOL     OW13484   2.900   6.209   0.337 -0.1636 -0.5949 -0.1099
 4369SOL    HW113485   2.908   6.167   0.251 -0.5199  0.1894 -0.5438
 4369SOL    HW213486   2.837   6.280   0.323 -0.7019 -0.8387  0.9580
 4370SOL     OW13487   1.019   4.414   4.371 -0.3460 -0.2537 -0.3669
 4370SOL    HW113488   0.940   4.439   4.418 -0.7075 -1.5938 -0.2120
 4370SOL    HW213489   1.030   4.321   4.391  2.1692  0.2569  0.8781
 4371SOL     OW13490   0.415   1.699   0.838  0.6121  0.2873  0.6167
 4371SOL    HW113491   0.378   1.613   0.817  0.6880  0.5295 -0.5915
 4371SOL    HW213492   0.340   1.752   0.864 -0.1575  1.0683 -2.7756
 4372SOL     OW13493   1.845   6.105   0.639 -0.1453 -0.1887  0.3404
 4372SOL    HW113494   1.921   6.119   0.695  0.7068 -0.3821 -0.7411
 4372SOL    HW213495   1.781   6.170   0.669 -0.7099 -1.8978  3.1976
 4373SOL     OW13496   5.052   3.813   3.475 -0.1662  0.2628  0.0520
 4373SOL    HW113497   5.073   3.906   3.490 -0.0549  0.1427  0.6652
 4373SOL    HW213498   5.135   3.775   3.446 -0.4161  0.5254 -1.0415
 4374SOL     OW13499   4.173   2.090   6.002  0.2805  0.3254 -0.6683
 4374SOL    HW113500   4.148   2.059   5.915  1.0677 -0.0752 -0.7624
 4374SOL    HW213501   4.249   2.146   5.986 -0.2006  1.1003 -0.3376
 4375SOL     OW13502   1.687   4.800   0.510  0.5540 -0.3715  0.7202
 4375SOL    HW113503   1.624   4.796   0.582 -0.0451 -0.2483  0.2195
 4375SOL    HW213504   1.639   4.765   0.435  1.2010 -0.5940  0.3999
 4376SOL     OW13505   2.438   0.976   1.696  0.0890 -0.4196 -0.0665
 4376SOL    HW113506   2.452   1.065   1.663  1.1199 -0.6781 -0.3807
 4376SOL    HW213507   2.398   0.929   1.623  2.4436 -1.0138 -1.0620
 4377SOL     OW13508   6.285   0.634   3.172  0.4142 -0.4625  0.4221
 4377SOL    HW113509   6.319   0.711   3.216 -0.4056  1.0886 -1.5281
 4377SOL    HW213510   6.266   0.663   3.083  2.6059 -3.5949 -1.2569
 4378SOL     OW13511   6.613   1.789   5.043  0.6000  0.6103 -1.6399
 4378SOL    HW113512   6.592   1.882   5.045 -1.7592  0.1325  0.2998
 4378SOL    HW213513   6.548   1.748   5.100  1.8108 -2.1976 -2.0936
 4379SOL     OW13514   3.086   1.576   4.183 -0.0473 -0.1183  0.4949
 4379SOL    HW113515   3.021   1.535   4.241  1.0446 -0.6079  1.4114
 4379SOL    HW213516   3.169   1.536   4.209  0.4037 -0.7879 -1.8257
 4380SOL     OW13517   6.298   0.723   2.639 -0.1153  0.2990 -0.4906
 4380SOL    HW113518   6.225   0.760   2.588 -0.5802 -0.6583 -0.5310
 4380SOL    HW213519   6.294   0.629   2.622  0.3544  0.0871  0.5190
 4381SOL     OW13520   4.588   1.278   0.219 -0.1831  0.4763  0.3292
 4381SOL    HW113521   4.496   1.274   0.244 -0.5157  0.0824 -0.8955
 4381SOL    HW213522   4.623   1.191   0.238 -0.7096 -0.1740 -1.5102
 4382SOL     OW13523   3.130   1.376   2.071  0.1126 -0.5723  0.4054
 4382SOL    HW113524   3.140   1.351   1.979  0.7146 -2.0407  0.8460
 4382SOL    HW213525   3.212   1.349   2.112 -0.0608  0.2710  1.3482
 4383SOL     OW13526   4.683   6.804   1.117  0.1049  0.0977  0.2168
 4383SOL    HW113527   4.633   6.760   1.048 -2.4531  1.5259  1.0617
 4383SOL    HW213528   4.689   6.895   1.089  0.5617  0.3455  1.0707
 4384SOL     OW13529   4.459   2.926   0.969  0.3597 -0.5028 -0.2342
 4384SOL    HW113530   4.527   2.984   0.935 -0.6044 -0.6634 -2.6154
 4384SOL    HW213531   4.377   2.974   0.953 -0.3679 -1.9714 -1.1482
 4385SOL     OW13532   3.777   1.709   0.157  0.3699  0.0059  0.2306
 4385SOL    HW113533   3.730   1.650   0.097 -1.8378  1.1852  0.6915
 4385SOL    HW213534   3.803   1.783   0.102  0.0709  0.1842  0.3257
 4386SOL     OW13535   1.087   3.620   3.889  0.3141  0.1207  0.6168
 4386SOL    HW113536   1.011   3.657   3.932  0.5675 -0.3722  1.5204
 4386SOL    HW213537   1.099   3.534   3.930  2.2140  0.7710  1.5413
 4387SOL     OW13538   6.023   0.297   1.946 -0.0785 -0.0584  0.4401
 4387SOL    HW113539   6.112   0.263   1.945  0.4027  1.1363 -1.1076
 4387SOL    HW213540   6.001   0.304   2.039  1.3165 -0.6297  0.8408
 4388SOL     OW13541   0.365   3.360   4.102  0.5251 -0.3942 -0.4695
 4388SOL    HW113542   0.451   3.356   4.061  0.0999  1.3660 -1.6095
 4388SOL    HW213543   0.334   3.449   4.086 -0.6557 -0.3300  1.7107
 4389SOL     OW13544   4.576   3.516   3.363 -0.5175 -0.0242 -0.0196
 4389SOL    HW113545   4.532   3.564   3.292  1.0465 -0.0085 -1.0356
 4389SOL    HW213546   4.666   3.550   3.362 -0.8432  1.1964  3.1219
 4390SOL     OW13547   0.578   4.024   2.614 -0.0499  0.2392 -0.1583
 4390SOL    HW113548   0.488   4.052   2.633  0.5543  0.9441  1.8788
 4390SOL    HW213549   0.585   3.937   2.653 -0.2741 -0.4888 -1.6744
 4391SOL     OW13550   0.814   6.584   1.039  0.0519  0.5405  0.7799
 4391SOL    HW113551   0.779   6.618   1.122  0.6388  1.1613  0.7925
 4391SOL    HW213552   0.866   6.657   1.005 -0.1875  0.2864 -0.1404
 4392SOL     OW13553   1.383   0.124   1.839  0.1351 -0.1418  0.0433
 4392SOL    HW113554   1.352   0.073   1.914 -1.5676 -2.4951 -2.1120
 4392SOL    HW213555   1.333   0.092   1.765  0.5904  3.1971 -1.9304
 4393SOL     OW13556   1.018   4.470   3.226 -0.0978 -1.0045 -0.3430
 4393SOL    HW113557   1.084   4.434   3.285  2.1824 -0.5594 -2.4581
 4393SOL    HW213558   0.998   4.557   3.262  1.3802 -0.6601 -0.3045
 4394SOL     OW13559   4.932   1.047   4.515  0.2007 -0.3312 -0.2532
 4394SOL    HW113560   4.943   1.128   4.465  2.1411  0.1500  0.8429
 4394SOL    HW213561   4.970   0.979   4.460 -0.4630 -0.3423 -0.7145
 4395SOL     OW13562   6.816   2.839   4.397  0.3882  0.0460 -0.1920
 4395SOL    HW113563   6.834   2.836   4.491  0.5594 -0.3973 -0.2354
 4395SOL    HW213564   6.722   2.855   4.391  0.5435  1.0678  0.0430
 4396SOL     OW13565   6.810   6.032   3.493 -0.7969 -0.2607 -0.2148
 4396SOL    HW113566   6.864   5.976   3.549 -0.9432 -0.0152  0.1759
 4396SOL    HW213567   6.818   6.119   3.531  0.7291  0.3235 -1.7696
 4397SOL     OW13568   5.510   6.758   1.944 -0.0158 -0.3309 -0.2101
 4397SOL    HW113569   5.463   6.688   1.898 -1.6331  2.4585 -3.1985
 4397SOL    HW213570   5.441   6.808   1.987  1.0294 -0.0565  1.2110
 4398SOL     OW13571   1.231   2.028   0.308 -0.2331  0.1614  0.3797
 4398SOL    HW113572   1.235   2.073   0.223 -1.2528  0.7928  0.6470
 4398SOL    HW213573   1.176   1.952   0.292 -0.5272  0.3472  0.4954
 4399SOL     OW13574   0.189   1.497   5.332  0.3719  0.0017 -0.2822
 4399SOL    HW113575   0.098   1.520   5.316 -0.6869 -2.6207  1.2768
 4399SOL    HW213576   0.192   1.476   5.426  2.5001 -0.3893 -0.3833
 4400SOL     OW13577   0.137   0.669   6.734  0.1759  0.0129  0.2766
 4400SOL    HW113578   0.073   0.624   6.790 -0.8445 -0.0493 -0.8982
 4400SOL    HW213579   0.221   0.633   6.761 -0.5214 -1.9055  0.0493
 4401SOL     OW13580   6.063   3.401   5.948  0.0524 -0.5872  0.1296
 4401SOL    HW113581   6.017   3.484   5.964 -0.7088 -0.7791 -0.9702
 4401SOL    HW213582   5.995   3.334   5.952  0.5183 -1.0665  0.1501
 4402SOL     OW13583   5.704   5.032   6.167  0.0825 -0.4352 -0.7556
 4402SOL    HW113584   5.620   5.026   6.121 -0.4551 -0.3409  0.1988
 4402SOL    HW213585   5.732   4.941   6.179 -0.6651 -0.5286  0.3312
 4403SOL     OW13586   6.687   4.546   3.132 -0.3448  0.2330 -0.3182
 4403SOL    HW113587   6.620   4.484   3.159  0.5382 -0.9163 -0.7079
 4403SOL    HW213588   6.752   4.543   3.203 -0.5531  1.1342 -0.0750
 4404SOL     OW13589   6.455   1.972   4.842  1.0078  0.2491  0.3024
 4404SOL    HW113590   6.452   2.060   4.880 -0.2112  0.3497  0.0327
 4404SOL    HW213591   6.425   1.984   4.752 -2.4078 -0.8226  1.1441
 4405SOL     OW13592   6.363   5.842   1.316  0.1728 -0.3985  0.1921
 4405SOL    HW113593   6.284   5.790   1.329 -0.1999  0.3568  1.0402
 4405SOL    HW213594   6.331   5.933   1.311  1.0498  0.0158  1.5192
 4406SOL     OW13595   1.969   3.553   1.625  0.3239 -0.4668 -0.0573
 4406SOL    HW113596   1.983   3.532   1.533 -0.4770  1.4572 -0.6666
 4406SOL    HW213597   1.876   3.535   1.640  0.1429  0.4657 -0.0022
 4407SOL     OW13598   6.785   5.053   1.373 -0.5224 -0.5471  0.5088
 4407SOL    HW113599   6.860   5.054   1.432 -1.4477  1.1937  1.7485
 4407SOL    HW213600   6.709   5.047   1.431 -1.3895 -2.8453 -0.7368
 4408SOL     OW13601   6.324   4.154   3.752  0.0981  0.2268  0.1790
 4408SOL    HW113602   6.353   4.239   3.785  0.6172 -0.0396  0.4346
 4408SOL    HW213603   6.404   4.114   3.718 -0.0299 -0.4045  0.6137
 4409SOL     OW13604   4.856   2.933   1.725  0.2431 -0.6931  0.4538
 4409SOL    HW113605   4.799   3.008   1.744  0.9527  0.1749 -0.6985
 4409SOL    HW213606   4.797   2.858   1.723 -0.4582 -0.2213  1.8531
 4410SOL     OW13607   3.715   2.514   0.638  0.2826 -0.3297 -0.4588
 4410SOL    HW113608   3.677   2.496   0.552  0.7883 -0.0810 -0.7373
 4410SOL    HW213609   3.808   2.496   0.628  0.2415 -0.9751  0.2319
 4411SOL     OW13610   4.173   2.231   6.271 -0.5963 -0.5923  0.2435
 4411SOL    HW113611   4.148   2.177   6.196  1.2905 -2.6838  1.0181
 4411SOL    HW213612   4.197   2.315   6.232 -2.6306 -0.5524 -1.1041
 4412SOL     OW13613   4.743   4.452   0.309  0.4541 -0.2829  0.1805
 4412SOL    HW113614   4.826   4.440   0.357  0.5345  1.6077  0.5946
 4412SOL    HW213615   4.736   4.547   0.297 -0.2362 -0.6045 -2.4232
 4413SOL     OW13616   5.198   2.219   6.284  0.1559  0.0421  0.0541
 4413SOL    HW113617   5.230   2.309   6.275 -0.3315  0.1766 -0.3935
 4413SOL    HW213618   5.143   2.206   6.207 -1.6466  0.1415  1.2644
 4414SOL     OW13619   2.201   4.293   3.872  0.5735  0.2278  0.0090
 4414SOL    HW113620   2.150   4.268   3.949  0.9383  0.8780  0.4720
 4414SOL    HW213621   2.292   4.293   3.903  1.0880 -2.4100 -1.1633
 4415SOL     OW13622   5.159   3.949   1.174  0.3469 -0.2316 -0.2361
 4415SOL    HW113623   5.190   3.864   1.143 -2.1075 -0.6906 -1.7697
 4415SOL    HW213624   5.216   4.013   1.132  1.2762 -1.0791 -0.2841
 4416SOL     OW13625   3.707   4.410   6.147 -0.5435  0.4084  0.0974
 4416SOL    HW113626   3.705   4.406   6.051 -0.8863 -0.8109  0.1277
 4416SOL    HW213627   3.672   4.325   6.174  1.6389 -0.1838  1.2921
 4417SOL     OW13628   0.010   3.882   5.560  0.5948 -0.1961 -0.5224
 4417SOL    HW113629   0.079   3.934   5.600  0.4032  0.5719 -1.1678
 4417SOL    HW213630  -0.062   3.943   5.545 -0.3669 -1.0430  0.4259
 4418SOL     OW13631   4.440   1.832   3.824 -0.2861 -0.1796 -0.1823
 4418SOL    HW113632   4.346   1.848   3.828 -0.0058  2.1878 -1.3227
 4418SOL    HW213633   4.480   1.917   3.843  1.5929 -0.7298 -1.3981
 4419SOL     OW13634   1.730   1.991   0.249 -0.5240 -0.2335 -0.4198
 4419SOL    HW113635   1.759   1.984   0.340 -0.1040  0.3304 -0.5077
 4419SOL    HW213636   1.637   1.966   0.251 -0.1355 -1.7495 -0.0868
 4420SOL     OW13637   5.936   5.476   4.484  0.1663 -0.2294 -0.1559
 4420SOL    HW113638   6.002   5.544   4.472 -0.1716  0.3613  1.1773
 4420SOL    HW213639   5.879   5.509   4.553 -0.9124 -1.1963 -0.5385
 4421SOL     OW13640   4.402   0.313   4.006  0.6152 -0.3323 -0.3000
 4421SOL    HW113641   4.314   0.324   3.968  0.6527  2.0195  0.1441
 4421SOL    HW213642   4.394   0.350   4.094  2.1867  0.4680 -0.4672
 4422SOL     OW13643   6.299   0.187   2.361  0.0528 -0.4100 -0.0533
 4422SOL    HW113644   6.276   0.276   2.333  1.2378  0.8223  2.5535
 4422SOL    HW213645   6.239   0.130   2.312 -0.8957  1.8108 -1.6444
 4423SOL     OW13646   3.827   3.519   6.052 -0.6866 -0.3294 -0.2523
 4423SOL    HW113647   3.845   3.425   6.049 -1.0250 -0.4214  0.3489
 4423SOL    HW213648   3.887   3.557   5.988 -1.1326 -1.0353 -1.1015
 4424SOL     OW13649   2.125   5.201   3.062  0.3538  0.3500 -0.1932
 4424SOL    HW113650   2.105   5.290   3.033  0.5587  0.6230  0.4786
 4424SOL    HW213651   2.113   5.147   2.984 -2.5261  0.5329  0.0086
 4425SOL     OW13652   1.485   0.899   6.185 -0.9598  0.1682 -0.4303
 4425SOL    HW113653   1.440   0.907   6.100 -0.7533  0.7540 -0.4831
 4425SOL    HW213654   1.578   0.896   6.163 -0.6671  3.4864 -0.0662
 4426SOL     OW13655   0.450   2.912   2.173  0.1588 -0.1091  0.0172
 4426SOL    HW113656   0.395   2.947   2.243 -0.3589 -0.1284 -0.3743
 4426SOL    HW213657   0.397   2.844   2.133 -0.3923  1.2752 -1.7281
 4427SOL     OW13658   4.358   1.331   6.002  0.0395 -0.2622  0.0046
 4427SOL    HW113659   4.310   1.327   6.084 -1.1571  1.3078 -0.5794
 4427SOL    HW213660   4.389   1.422   5.997 -1.0538  0.0537 -1.8756
 4428SOL     OW13661   4.914   3.067   0.882 -0.2757 -0.2521 -0.3023
 4428SOL    HW113662   4.961   3.013   0.945  0.6366  0.9681  0.1032
 4428SOL    HW213663   4.960   3.053   0.799 -0.0431 -0.0971 -0.1988
 4429SOL     OW13664   4.432   1.876   5.841  0.5669  0.3189 -0.1731
 4429SOL    HW113665   4.463   1.919   5.921  0.8350  0.2718 -0.2491
 4429SOL    HW213666   4.456   1.784   5.854  0.5795  0.3059 -0.2917
 4430SOL     OW13667   3.874   4.628   0.387 -0.5590 -0.4147  0.2204
 4430SOL    HW113668   3.865   4.723   0.388  0.3971 -0.3014 -0.3188
 4430SOL    HW213669   3.894   4.607   0.296 -2.6710 -1.3492 -0.0977
 4431SOL     OW13670   3.172   2.441   1.956 -0.4670  0.4653 -0.1540
 4431SOL    HW113671   3.142   2.360   1.997  0.3885  0.1744 -0.0902
 4431SOL    HW213672   3.110   2.456   1.884  0.8607 -1.6786 -1.8810
 4432SOL     OW13673   0.553   4.268   6.461  0.1130 -0.1590  0.2298
 4432SOL    HW113674   0.647   4.275   6.474  0.3803  0.9549 -1.7574
 4432SOL    HW213675   0.543   4.199   6.395 -0.5661 -0.9056  1.0812
 4433SOL     OW13676   6.022   1.357   2.252  0.1092  0.6567  0.3914
 4433SOL    HW113677   5.936   1.325   2.280  0.9902 -0.5199  1.9206
 4433SOL    HW213678   6.013   1.452   2.253 -1.3086  0.5467  0.0721
 4434SOL     OW13679   5.498   4.397   5.028 -0.2582 -0.2682  0.2574
 4434SOL    HW113680   5.432   4.456   5.064 -2.5624 -1.9676 -0.8962
 4434SOL    HW213681   5.469   4.309   5.055  0.6611 -1.1965 -1.5469
 4435SOL     OW13682   1.513   6.213   3.608 -0.0054 -0.4646  0.7079
 4435SOL    HW113683   1.490   6.278   3.540  2.3425  0.5566  0.7820
 4435SOL    HW213684   1.442   6.219   3.671 -0.9252  0.4924 -0.3555
 4436SOL     OW13685   1.299   6.597   3.459 -0.2527 -0.4332  0.0894
 4436SOL    HW113686   1.366   6.565   3.520 -0.8129 -1.4250  0.1921
 4436SOL    HW213687   1.273   6.682   3.496 -0.7105 -1.1007  1.3461
 4437SOL     OW13688   4.282   0.089   4.334 -0.2536 -0.0887 -0.0861
 4437SOL    HW113689   4.281   0.089   4.429  0.0665  0.3124 -0.0751
 4437SOL    HW213690   4.234   0.011   4.308  0.1356 -0.4910  0.4081
 4438SOL     OW13691   2.269   0.702   5.866  0.2874 -0.1972  0.5990
 4438SOL    HW113692   2.341   0.753   5.830 -0.0302  0.0392  0.3045
 4438SOL    HW213693   2.313   0.632   5.916  0.7182  0.1435  0.7060
 4439SOL     OW13694   1.815   4.036   4.629  0.2477  0.5196 -0.0964
 4439SOL    HW113695   1.741   4.006   4.576  0.0932 -0.7140  0.7582
 4439SOL    HW213696   1.776   4.094   4.694 -0.0876 -0.6120  0.7365
 4440SOL     OW13697   2.269   4.972   6.015  0.1695 -0.0833 -0.7739
 4440SOL    HW113698   2.309   5.057   5.997  0.2387  0.2979  0.9944
 4440SOL    HW213699   2.179   4.981   5.983 -0.0515  0.9561  0.0479
 4441SOL     OW13700   6.589   3.944   3.198 -0.2895 -0.0684 -0.0893
 4441SOL    HW113701   6.666   3.993   3.166  1.4790 -2.2005  0.6623
 4441SOL    HW213702   6.583   3.966   3.291 -0.8184  0.3427 -0.2148
 4442SOL     OW13703   0.502   6.732   4.140 -0.1300 -0.4435  0.3420
 4442SOL    HW113704   0.547   6.683   4.209  0.0752 -2.5977 -1.2266
 4442SOL    HW213705   0.433   6.780   4.186 -0.9013 -2.8873  1.9459
 4443SOL     OW13706   3.217   5.373   4.818  0.0007 -0.3514  0.7934
 4443SOL    HW113707   3.123   5.352   4.823 -0.6464  1.2864 -2.1904
 4443SOL    HW213708   3.258   5.295   4.783 -1.3594  0.6834 -3.8294
 4444SOL     OW13709   0.732   4.861   0.795 -0.1745  0.0412 -0.1715
 4444SOL    HW113710   0.716   4.941   0.845  0.1743 -0.0160  0.0375
 4444SOL    HW213711   0.728   4.791   0.860 -0.2272 -0.0849 -0.3106
 4445SOL     OW13712   1.654   6.795   1.345 -0.3142 -0.3220  0.1557
 4445SOL    HW113713   1.606   6.875   1.324 -0.6249 -0.2027  1.2335
 4445SOL    HW213714   1.607   6.725   1.299 -1.4972 -0.1952  1.1112
 4446SOL     OW13715   5.792   0.710   6.333 -0.2022 -0.0911 -0.1119
 4446SOL    HW113716   5.844   0.660   6.397 -1.2432 -1.9895 -0.6495
 4446SOL    HW213717   5.701   0.689   6.355 -0.6161  0.1948 -1.4623
 4447SOL     OW13718   1.268   4.485   4.297 -0.6302 -0.7413  0.3535
 4447SOL    HW113719   1.180   4.450   4.307 -0.5444 -1.1255 -0.1499
 4447SOL    HW213720   1.290   4.467   4.205 -0.5671  0.6087  0.0875
 4448SOL     OW13721   6.074   3.316   1.964 -0.2347  0.1844 -0.4740
 4448SOL    HW113722   6.068   3.258   2.040 -0.7394  1.0983  0.1982
 4448SOL    HW213723   6.126   3.390   1.994  0.9558 -0.1922 -1.5190
 4449SOL     OW13724   6.253   1.986   6.155 -0.2358  0.2167  0.2545
 4449SOL    HW113725   6.311   1.919   6.193 -0.6419 -0.5883 -0.5133
 4449SOL    HW213726   6.259   1.972   6.061  1.5563  2.8543 -0.1189
 4450SOL     OW13727   4.706   4.295   6.078 -0.4559  0.3156  0.2939
 4450SOL    HW113728   4.649   4.278   6.003  1.1939  0.7704 -1.1354
 4450SOL    HW213729   4.768   4.361   6.046  0.4141  0.3840  2.0203
 4451SOL     OW13730   2.877   2.083   0.324  0.2101  0.2356  0.6340
 4451SOL    HW113731   2.909   2.156   0.270 -0.2694 -0.0972 -0.1212
 4451SOL    HW213732   2.844   2.125   0.403 -1.6178  1.0579 -0.4886
 4452SOL     OW13733   6.135   5.246   3.745  0.5904 -0.1117  0.1876
 4452SOL    HW113734   6.130   5.341   3.734 -2.8857 -0.2525 -0.6785
 4452SOL    HW213735   6.204   5.218   3.686  0.6474  1.7658 -0.6959
 4453SOL     OW13736   1.116   6.492   1.961 -0.9339  0.7557  0.1576
 4453SOL    HW113737   1.094   6.399   1.954 -0.2178  0.6011 -0.2265
 4453SOL    HW213738   1.046   6.538   1.914 -0.6325  0.3141 -0.7360
 4454SOL     OW13739   2.228   3.156   3.397  0.4168 -0.2855 -0.0496
 4454SOL    HW113740   2.157   3.121   3.452  0.5261  0.1287  0.3629
 4454SOL    HW213741   2.189   3.164   3.310 -0.5373  1.3437  0.4731
 4455SOL     OW13742   5.010   5.195   2.233  0.4215  0.4014  0.6077
 4455SOL    HW113743   4.950   5.140   2.283  1.3868 -1.3731 -0.0976
 4455SOL    HW213744   4.993   5.172   2.141  1.4278  0.6227  0.3487
 4456SOL     OW13745   5.047   0.704   2.952  0.6229  0.1409  0.3757
 4456SOL    HW113746   5.014   0.749   3.030 -0.1482 -0.1242  0.2095
 4456SOL    HW213747   5.136   0.737   2.941  1.2124 -0.7420  2.1016
 4457SOL     OW13748   3.631   4.422   2.891  0.1879  0.1353  0.0545
 4457SOL    HW113749   3.675   4.339   2.876 -0.7087 -0.2160 -0.7435
 4457SOL    HW213750   3.617   4.426   2.986 -1.3768 -1.4906 -0.0553
 4458SOL     OW13751   5.274   2.459   4.220  0.6124  0.3559 -0.2373
 4458SOL    HW113752   5.322   2.493   4.296  1.6552 -1.0837 -0.2102
 4458SOL    HW213753   5.330   2.481   4.145 -1.0811  3.0720 -0.8679
 4459SOL     OW13754   1.003   1.317   4.810  0.4171  0.0678 -0.3304
 4459SOL    HW113755   0.957   1.299   4.728  0.1020  0.2358 -0.1955
 4459SOL    HW213756   1.095   1.305   4.790  0.2531 -1.2738 -0.3537
 4460SOL     OW13757   1.640   3.371   4.961  0.1344 -0.1618 -0.2498
 4460SOL    HW113758   1.634   3.337   5.051  0.1973  0.0904 -0.1473
 4460SOL    HW213759   1.691   3.306   4.914 -0.8737 -0.8788 -0.3933
 4461SOL     OW13760   5.927   6.548   5.246  0.1808  0.1327 -0.1914
 4461SOL    HW113761   5.867   6.546   5.171  0.1233 -2.1784 -0.1634
 4461SOL    HW213762   6.011   6.575   5.209 -0.3114  1.0633 -0.6682
 4462SOL     OW13763   5.646   0.943   4.622 -0.3173  0.1299  0.3046
 4462SOL    HW113764   5.598   0.902   4.550 -0.6997 -0.9247  1.1417
 4462SOL    HW213765   5.583   1.002   4.663  0.1136  1.2986 -0.6459
 4463SOL     OW13766   5.846   2.559   5.178  0.4852 -0.2226 -0.1200
 4463SOL    HW113767   5.837   2.654   5.174 -0.0071 -0.2787 -0.3912
 4463SOL    HW213768   5.834   2.537   5.270 -2.0133 -0.2737 -0.4099
 4464SOL     OW13769   2.756   2.130   4.591  1.1506  0.2564 -0.0341
 4464SOL    HW113770   2.798   2.055   4.633  0.7166  0.5202  0.8791
 4464SOL    HW213771   2.712   2.093   4.515  1.2754 -0.3521  0.1852
 4465SOL     OW13772   1.769   1.365   0.268  0.4375 -0.5379 -0.4501
 4465SOL    HW113773   1.721   1.289   0.301  0.1591  0.3056  1.2147
 4465SOL    HW213774   1.835   1.381   0.335  0.7826  0.4250 -1.0066
 4466SOL     OW13775   1.326   3.012   5.183  0.1073 -0.2775  0.0464
 4466SOL    HW113776   1.262   3.067   5.230  1.3484 -1.3031  3.2511
 4466SOL    HW213777   1.332   2.933   5.237  1.2610 -1.8736 -2.2924
 4467SOL     OW13778   4.892   0.201   1.505 -0.2167 -0.2300 -0.1086
 4467SOL    HW113779   4.798   0.199   1.485 -0.3175 -1.9409  0.3591
 4467SOL    HW213780   4.897   0.173   1.597  0.7470  0.0725 -0.0591
 4468SOL     OW13781   4.697   4.441   1.192 -0.0432 -0.5749  0.5243
 4468SOL    HW113782   4.771   4.449   1.252  0.2458 -1.3898  0.2861
 4468SOL    HW213783   4.731   4.390   1.118 -0.9558 -1.3885  0.6364
 4469SOL     OW13784   4.332   6.063   4.808  0.3354  0.6519  0.0630
 4469SOL    HW113785   4.424   6.040   4.826  0.7584  2.4057  0.2546
 4469SOL    HW213786   4.337   6.144   4.758 -1.0232 -1.1740 -3.3123
 4470SOL     OW13787   4.029   2.624   3.648 -0.3832  0.1877  0.4040
 4470SOL    HW113788   4.088   2.697   3.630 -0.1831  0.0254  0.4002
 4470SOL    HW213789   4.070   2.577   3.721 -0.8226  0.4286  0.8178
 4471SOL     OW13790   4.527   4.195   2.224  0.1107  0.4804 -0.2403
 4471SOL    HW113791   4.476   4.175   2.146  1.4693  0.8947 -1.2874
 4471SOL    HW213792   4.499   4.131   2.289 -1.4626  0.4888 -0.8745
 4472SOL     OW13793   6.254   0.457   2.602  0.3093 -0.6636 -0.6231
 4472SOL    HW113794   6.186   0.393   2.622 -0.4747 -0.1190 -1.4724
 4472SOL    HW213795   6.331   0.404   2.578  0.1079 -1.2812  0.0855
 4473SOL     OW13796   0.697   2.819   2.619  0.1387 -0.3468 -0.6356
 4473SOL    HW113797   0.693   2.912   2.640  1.0659 -0.2924 -0.6479
 4473SOL    HW213798   0.649   2.811   2.536 -1.7735 -0.2425  0.4100
 4474SOL     OW13799   6.103   3.973   1.695 -0.4866  0.1326  0.3452
 4474SOL    HW113800   6.199   3.977   1.699 -0.4359 -1.2311  2.3150
 4474SOL    HW213801   6.074   4.001   1.782 -1.7848 -0.7668  0.2375
 4475SOL     OW13802   0.870   6.714   4.847 -0.3014  0.0413 -0.1436
 4475SOL    HW113803   0.802   6.770   4.885  0.4885 -0.1649  1.6659
 4475SOL    HW213804   0.841   6.625   4.867 -0.3251 -0.1182 -0.8549
 4476SOL     OW13805   3.667   6.067   4.424  0.1016  0.7771  0.0590
 4476SOL    HW113806   3.672   5.997   4.359 -2.6891  0.7551 -0.2409
 4476SOL    HW213807   3.636   6.143   4.374 -1.6774  0.8738  1.2227
 4477SOL     OW13808   5.470   3.496   5.772  0.1679 -0.0767 -0.0220
 4477SOL    HW113809   5.564   3.478   5.766  0.0722 -0.8166  0.4974
 4477SOL    HW213810   5.464   3.586   5.802  0.7149 -0.0695  0.0738
 4478SOL     OW13811   0.765   0.592   0.344 -0.3139  0.0702  0.0762
 4478SOL    HW113812   0.672   0.582   0.364 -0.0845  1.0827  1.9002
 4478SOL    HW213813   0.809   0.560   0.422  0.7679  1.8468  0.2538
 4479SOL     OW13814   6.832   2.788   4.739 -0.3431  0.4774  0.0875
 4479SOL    HW113815   6.834   2.881   4.759 -1.2108  0.4640  0.2592
 4479SOL    HW213816   6.802   2.746   4.819  0.3509  0.0084  0.1157
 4480SOL     OW13817   1.527   6.018   4.105  0.3739  0.0310 -0.1440
 4480SOL    HW113818   1.447   5.990   4.149  0.3784  0.4161  0.1082
 4480SOL    HW213819   1.593   5.954   4.133  0.5393  0.6580  0.9643
 4481SOL     OW13820   6.611   1.469   1.482  0.4714 -1.0910 -0.3804
 4481SOL    HW113821   6.619   1.496   1.390  1.1968 -0.1148 -0.0457
 4481SOL    HW213822   6.547   1.398   1.480 -1.0466  0.2142 -1.3882
 4482SOL     OW13823   0.174   3.083   2.498  0.0344  0.6182  0.1761
 4482SOL    HW113824   0.248   3.024   2.514  0.2643  0.7435 -0.4229
 4482SOL    HW213825   0.195   3.127   2.416 -1.7848 -1.0043 -1.2262
 4483SOL     OW13826   4.719   2.093   0.629  0.2055  0.3087  0.1351
 4483SOL    HW113827   4.641   2.116   0.578 -0.3165 -2.8621 -0.7132
 4483SOL    HW213828   4.685   2.068   0.715  0.5319  0.9173  0.4431
 4484SOL     OW13829   2.376   3.837   5.400  0.0107 -0.7109  0.2928
 4484SOL    HW113830   2.406   3.746   5.400  1.8613 -0.1424  0.9928
 4484SOL    HW213831   2.446   3.886   5.358 -1.0785  0.3834 -0.3187
 4485SOL     OW13832   2.918   6.835   4.694  0.2506 -0.0381 -0.4705
 4485SOL    HW113833   2.920   6.923   4.731  1.1442  0.1909 -1.0154
 4485SOL    HW213834   2.828   6.825   4.661  0.1787  0.7369 -0.5440
 4486SOL     OW13835   0.903   0.829   0.971 -0.3891 -0.1910 -0.0084
 4486SOL    HW113836   0.821   0.783   0.984 -0.8412  1.0704  2.0870
 4486SOL    HW213837   0.880   0.922   0.976  1.1572  0.1911  0.8444
 4487SOL     OW13838   3.493   0.239   0.349  0.3868 -0.6219 -0.1500
 4487SOL    HW113839   3.411   0.215   0.306  0.3514 -0.6645 -0.0596
 4487SOL    HW213840   3.551   0.264   0.277 -0.0301  0.3893 -0.1516
 4488SOL     OW13841   0.829   6.067   5.987 -0.4787  0.4732  0.2654
 4488SOL    HW113842   0.828   6.065   6.083  0.3920 -0.7995  0.2593
 4488SOL    HW213843   0.769   5.998   5.961  1.4825 -1.1690 -0.0751
 4489SOL     OW13844   1.401   4.648   2.943  0.1983 -0.0781  0.1005
 4489SOL    HW113845   1.399   4.553   2.952  1.0247  0.0005  1.4285
 4489SOL    HW213846   1.479   4.666   2.889  0.2054 -0.1404  0.0905
 4490SOL     OW13847   0.294   3.022   5.788  0.3973  0.3009  0.4082
 4490SOL    HW113848   0.336   2.940   5.762 -1.4693 -0.6154  0.0718
 4490SOL    HW213849   0.257   3.004   5.874  0.4244  0.9648  0.5634
 4491SOL     OW13850   1.467   0.587   5.401 -0.0702  0.4367 -0.3321
 4491SOL    HW113851   1.391   0.639   5.374  0.2331  1.4208  0.5997
 4491SOL    HW213852   1.541   0.646   5.389  0.5419 -0.4435 -1.0308
 4492SOL     OW13853   3.825   6.262   5.960 -0.4767 -0.3123  0.7560
 4492SOL    HW113854   3.800   6.354   5.956 -0.9637 -0.4060  1.4031
 4492SOL    HW213855   3.827   6.233   5.869  0.2495  0.4802  0.5188
 4493SOL     OW13856   3.186   4.683   1.676  0.1247 -0.1781  0.2179
 4493SOL    HW113857   3.241   4.672   1.753 -0.0458 -2.0947  0.1072
 4493SOL    HW213858   3.164   4.594   1.649  0.5604  0.4084 -2.3174
 4494SOL     OW13859   2.688   3.646   2.169 -0.4637  0.4050  0.6204
 4494SOL    HW113860   2.722   3.556   2.173 -1.4330  0.0461  1.2011
 4494SOL    HW213861   2.595   3.635   2.149 -0.7084  1.2580  1.2682
 4495SOL     OW13862   4.194   6.630   4.892  0.2109  0.0112 -0.0598
 4495SOL    HW113863   4.267   6.573   4.870 -0.1568 -0.7907  0.7318
 4495SOL    HW213864   4.166   6.600   4.978 -1.6784 -0.3525 -0.7580
 4496SOL     OW13865   3.514   2.605   0.379  0.5292 -0.6951  0.3676
 4496SOL    HW113866   3.488   2.513   0.380  0.2662 -0.6283 -0.3519
 4496SOL    HW213867   3.476   2.641   0.459  1.1556 -1.3441  0.9824
 4497SOL     OW13868   6.692   1.404   1.029  0.6501  0.2904 -0.0487
 4497SOL    HW113869   6.690   1.483   0.976  0.7080  0.6416  0.4690
 4497SOL    HW213870   6.781   1.401   1.064  0.8040 -0.2707 -0.4566
 4498SOL     OW13871   4.929   3.417   0.383  0.3952  0.0218  0.5793
 4498SOL    HW113872   4.964   3.501   0.414  1.4085 -0.3135  0.3950
 4498SOL    HW213873   4.884   3.438   0.301 -0.6368  0.6036  1.2722
 4499SOL     OW13874   5.109   6.021   6.029  0.2905 -0.2330  0.1108
 4499SOL    HW113875   5.168   6.015   6.105  0.7852 -2.3504 -0.3745
 4499SOL    HW213876   5.058   6.100   6.045  2.5964  1.1870  1.0369
 4500SOL     OW13877   5.693   1.838   0.668 -0.5522 -0.0313  0.5757
 4500SOL    HW113878   5.732   1.765   0.619  1.1156  1.0848  0.1662
 4500SOL    HW213879   5.673   1.800   0.754 -0.6039 -1.2095  0.0666
 4501SOL     OW13880   3.533   6.542   4.629  0.2738 -0.6291 -0.0164
 4501SOL    HW113881   3.457   6.532   4.572  0.7611 -1.9845 -0.4785
 4501SOL    HW213882   3.608   6.534   4.570  0.8121  1.2097  0.3483
 4502SOL     OW13883   5.946   0.196   5.732  0.3298 -0.0244  0.9080
 4502SOL    HW113884   6.000   0.172   5.657 -0.7180  0.4351 -0.0126
 4502SOL    HW213885   5.906   0.115   5.761 -0.1993 -0.0147  0.2145
 4503SOL     OW13886   6.505   2.776   2.737  0.3759 -0.5031  0.3746
 4503SOL    HW113887   6.421   2.814   2.762  1.2140  1.1115  0.8696
 4503SOL    HW213888   6.516   2.702   2.797  0.0502  0.2714  1.4255
 4504SOL     OW13889   4.088   3.316   3.766 -0.0051 -0.1262  0.2968
 4504SOL    HW113890   4.128   3.403   3.759  0.2772 -0.2565  0.2822
 4504SOL    HW213891   3.994   3.333   3.767  0.0418  0.1624  0.0279
 4505SOL     OW13892   3.965   3.802   3.585  0.3333 -0.1882 -0.2369
 4505SOL    HW113893   4.048   3.833   3.621 -0.3307 -0.4202  1.5961
 4505SOL    HW213894   3.912   3.881   3.574 -0.0823 -0.2790  1.0074
 4506SOL     OW13895   6.517   5.530   2.769  0.1207  0.3939 -0.4307
 4506SOL    HW113896   6.434   5.484   2.779  1.0728 -1.4370 -0.6042
 4506SOL    HW213897   6.555   5.494   2.689  2.0383 -0.4142  0.7602
 4507SOL     OW13898   2.987   1.106   5.428  0.2476 -0.2776 -0.1088
 4507SOL    HW113899   2.982   1.011   5.418  0.3194 -0.6746  2.8397
 4507SOL    HW213900   3.049   1.133   5.360 -0.9432 -2.0729 -2.0477
 4508SOL     OW13901   4.297   2.526   2.401  0.0030 -0.2740 -0.0813
 4508SOL    HW113902   4.342   2.519   2.485 -0.9249 -1.2821  0.3499
 4508SOL    HW213903   4.303   2.619   2.379  3.4557 -0.4981 -0.7194
 4509SOL     OW13904   4.661   3.741   6.791 -0.4399  0.2593 -0.0999
 4509SOL    HW113905   4.600   3.754   6.864  0.1198  0.8460  0.2689
 4509SOL    HW213906   4.746   3.770   6.825  0.3438 -1.8227 -0.1456
 4510SOL     OW13907   0.953   6.285   0.669  0.5337  0.2071 -0.0914
 4510SOL    HW113908   1.038   6.267   0.629  0.3414  0.0281 -0.4240
 4510SOL    HW213909   0.890   6.274   0.598  0.2320  0.3383  0.1532
 4511SOL     OW13910   2.678   0.849   6.620 -0.5871  0.1461 -0.2542
 4511SOL    HW113911   2.676   0.759   6.588  0.6561 -0.3343  0.9298
 4511SOL    HW213912   2.591   0.884   6.599 -1.6659 -1.8366  0.6877
 4512SOL     OW13913   3.206   1.059   2.107  0.1951  0.1798  0.0420
 4512SOL    HW113914   3.146   1.057   2.032 -0.2692  1.6653  0.3479
 4512SOL    HW213915   3.232   1.150   2.114  1.9855 -0.3313  0.3469
 4513SOL     OW13916   6.549   6.147   1.785 -0.1449 -0.0250 -0.1765
 4513SOL    HW113917   6.601   6.166   1.707  0.6573 -0.5057  0.2310
 4513SOL    HW213918   6.592   6.196   1.856 -1.5142  1.3106 -0.2131
 4514SOL     OW13919   5.347   4.335   4.461  0.4501  0.1786  0.0071
 4514SOL    HW113920   5.273   4.313   4.518  0.6023  0.7073  0.4160
 4514SOL    HW213921   5.373   4.251   4.423 -0.4779  0.0138 -0.2944
 4515SOL     OW13922   6.733   3.762   3.981  0.2681 -0.3649  0.2990
 4515SOL    HW113923   6.645   3.724   3.988  0.8282 -1.7558  0.0538
 4515SOL    HW213924   6.718   3.857   3.982 -1.3871 -0.5454 -1.5328
 4516SOL     OW13925   2.038   0.451   3.810  0.4885 -0.3921 -0.7452
 4516SOL    HW113926   2.124   0.412   3.792  0.5817 -1.2914  1.3523
 4516SOL    HW213927   2.055   0.517   3.877 -0.6145 -1.5632  0.7358
 4517SOL     OW13928   3.144   5.231   6.674  0.5564 -0.3887  0.2718
 4517SOL    HW113929   3.088   5.308   6.663 -0.7854 -1.5753 -2.0455
 4517SOL    HW213930   3.084   5.160   6.697  1.1637 -1.4781 -1.2793
 4518SOL     OW13931   6.653   2.637   3.531 -0.7280 -0.5854  0.1609
 4518SOL    HW113932   6.632   2.632   3.624  3.0510 -0.4772  1.1719
 4518SOL    HW213933   6.724   2.574   3.519  1.1071  1.6807 -1.8716
 4519SOL     OW13934   3.768   3.061   6.244  0.3064 -0.0343 -0.5206
 4519SOL    HW113935   3.682   3.083   6.209  0.7170 -1.7808 -2.9394
 4519SOL    HW213936   3.823   3.136   6.222 -0.7494  1.6980  2.2201
 4520SOL     OW13937   5.059   2.925   1.373 -0.3097 -0.7213 -0.3167
 4520SOL    HW113938   4.977   2.878   1.359 -1.5159  1.2741 -0.3094
 4520SOL    HW213939   5.099   2.929   1.286  0.3510 -2.6361 -0.1345
 4521SOL     OW13940   1.976   0.827   0.017  0.1490  0.6132 -0.0151
 4521SOL    HW113941   1.944   0.881  -0.056  2.1273  2.2857  0.2711
 4521SOL    HW213942   2.006   0.746  -0.025 -1.4092  0.3361 -0.6537
 4522SOL     OW13943   6.120   0.044   1.829 -0.4350 -0.1390 -0.2267
 4522SOL    HW113944   6.035   0.081   1.804  0.1584 -0.4051 -2.9461
 4522SOL    HW213945   6.183   0.089   1.773  0.9734 -1.3336  0.3504
 4523SOL     OW13946   4.548   4.295   0.408  0.5603 -0.0484  0.1018
 4523SOL    HW113947   4.479   4.322   0.346  0.1030  1.2061  1.1219
 4523SOL    HW213948   4.625   4.346   0.382  0.3634  0.4921  0.5637
 4524SOL     OW13949   1.098   3.690   4.477  0.1387 -0.0707 -0.5096
 4524SOL    HW113950   1.147   3.735   4.408  0.7768 -0.4758 -0.3275
 4524SOL    HW213951   1.146   3.609   4.491 -0.5621 -0.4496 -0.2869
 4525SOL     OW13952   0.672   2.196   0.819 -0.7346  0.2516 -0.2935
 4525SOL    HW113953   0.597   2.236   0.862 -1.1844 -0.2218 -0.6086
 4525SOL    HW213954   0.652   2.102   0.819  0.1746  0.0475  0.2128
 4526SOL     OW13955   2.493   3.035   5.735 -0.3072  0.2769 -0.3367
 4526SOL    HW113956   2.581   3.073   5.733 -0.3954  0.6026  1.0828
 4526SOL    HW213957   2.506   2.946   5.770 -0.4726  0.0799 -0.7657
 4527SOL     OW13958   3.896   3.591   0.534  0.2292 -0.2865  0.0328
 4527SOL    HW113959   3.886   3.636   0.618 -0.6142 -2.6717  1.2788
 4527SOL    HW213960   3.817   3.614   0.485 -1.6343 -2.5262  1.7730
 4528SOL     OW13961   2.515   4.625   3.390  0.5513 -0.0254 -0.4058
 4528SOL    HW113962   2.430   4.584   3.378  0.3802 -0.5278  2.0561
 4528SOL    HW213963   2.495   4.717   3.409  0.4587 -0.3510  1.1668
 4529SOL     OW13964   5.398   2.716   3.239  0.5697  0.5882  0.1679
 4529SOL    HW113965   5.417   2.789   3.299 -0.0478 -0.0002  1.0999
 4529SOL    HW213966   5.458   2.647   3.267 -1.4380 -0.5913  1.8328
 4530SOL     OW13967   6.250   4.915   4.600 -0.3258  0.4653 -0.5070
 4530SOL    HW113968   6.158   4.891   4.589 -0.1413  0.0563 -1.2641
 4530SOL    HW213969   6.289   4.896   4.514  0.1099  2.2090 -0.7327
 4531SOL     OW13970   5.048   6.112   2.941  0.0329  0.5796  0.2503
 4531SOL    HW113971   5.079   6.044   2.881 -2.2172  0.6747 -1.1704
 4531SOL    HW213972   5.008   6.178   2.884 -0.9499  1.3745  1.7790
 4532SOL     OW13973   2.725   2.518   6.491  0.5592  0.0676 -0.6777
 4532SOL    HW113974   2.768   2.573   6.557 -1.6896 -2.4969  3.3777
 4532SOL    HW213975   2.774   2.436   6.494  0.3831 -0.1167 -2.3034
 4533SOL     OW13976   5.851   3.679   4.699  0.4003  0.5520 -0.0082
 4533SOL    HW113977   5.808   3.733   4.633  0.1552  1.3905  0.8105
 4533SOL    HW213978   5.849   3.590   4.664 -1.0164  0.7578 -0.4707
 4534SOL     OW13979   5.937   0.670   5.757  0.3245 -0.2145  0.2539
 4534SOL    HW113980   5.945   0.586   5.711  0.9822 -1.1934  2.0434
 4534SOL    HW213981   6.018   0.677   5.808 -0.1521  1.0616  0.8682
 4535SOL     OW13982   5.814   2.806   6.119  0.1976  0.2603 -0.0586
 4535SOL    HW113983   5.860   2.869   6.176  2.2297 -0.2037 -1.0780
 4535SOL    HW213984   5.882   2.743   6.095 -1.7798 -2.4254  0.9636
 4536SOL     OW13985   6.746   4.224   1.186  0.8676  0.2345 -0.0857
 4536SOL    HW113986   6.704   4.216   1.271 -1.0842  2.1161 -0.7792
 4536SOL    HW213987   6.691   4.286   1.138  2.0770 -0.5176 -2.6100
 4537SOL     OW13988   5.987   5.073   1.528  0.7272  0.1083 -0.5227
 4537SOL    HW113989   5.958   5.162   1.545  0.9096 -0.0970  1.0090
 4537SOL    HW213990   5.922   5.038   1.466  0.3011  1.0902 -0.6384
 4538SOL     OW13991   5.251   4.121   5.946 -0.3187  0.2099  0.0457
 4538SOL    HW113992   5.308   4.144   6.020 -2.0750  1.3753  1.0971
 4538SOL    HW213993   5.256   4.026   5.940  2.2575  0.3000 -0.3705
 4539SOL     OW13994   4.904   1.405   1.581  0.5938 -0.2202  0.4167
 4539SOL    HW113995   4.826   1.373   1.536 -0.3663 -0.3988  2.1355
 4539SOL    HW213996   4.973   1.342   1.559  0.3449  0.0678 -1.3099
 4540SOL     OW13997   5.147   6.737   0.012 -0.1574  0.2824  0.3056
 4540SOL    HW113998   5.225   6.772  -0.031  0.6217 -0.8839  0.6987
 4540SOL    HW213999   5.081   6.730  -0.057  0.4518  0.2463 -0.2782
 4541SOL     OW14000   1.678   3.173   3.435 -0.5081  0.3948 -0.4844
 4541SOL    HW114001   1.752   3.213   3.389 -0.5161  1.3879  0.3335
 4541SOL    HW214002   1.718   3.123   3.506 -0.6241  0.9204 -0.0504
 4542SOL     OW14003   3.988   4.660   0.649  0.1049 -0.4809  0.0519
 4542SOL    HW114004   3.911   4.694   0.692  0.4052  2.0832 -1.2382
 4542SOL    HW214005   3.966   4.661   0.555  2.4584  2.9998 -0.6703
 4543SOL     OW14006   0.506   2.141   3.945 -0.0757  0.2874 -0.1446
 4543SOL    HW114007   0.414   2.162   3.928 -0.0905 -0.9636 -1.8669
 4543SOL    HW214008   0.549   2.226   3.952 -0.6642  1.0360 -3.6576
 4544SOL     OW14009   3.412   0.908   0.117 -0.7727  0.2262  0.3714
 4544SOL    HW114010   3.421   0.919   0.212 -3.2527  0.1867  0.6885
 4544SOL    HW214011   3.442   0.818   0.101 -1.9111 -0.3781  1.4280
 4545SOL     OW14012   3.449   4.229   2.117 -0.0004  0.5135 -0.2706
 4545SOL    HW114013   3.518   4.203   2.178 -0.4945 -2.2158 -0.7256
 4545SOL    HW214014   3.483   4.207   2.031  0.3885  3.6242 -1.0288
 4546SOL     OW14015   3.871   4.449   5.360  0.6778 -0.2690  0.5917
 4546SOL    HW114016   3.944   4.467   5.420 -0.0656  1.3094  1.0742
 4546SOL    HW214017   3.794   4.485   5.404 -0.2937 -1.2951 -0.2201
 4547SOL     OW14018   1.956   6.173   4.117 -0.0339  0.4870  0.0561
 4547SOL    HW114019   1.994   6.222   4.043 -1.7438  0.6280 -0.7781
 4547SOL    HW214020   1.961   6.081   4.089  1.8316  0.2663  0.9898
 4548SOL     OW14021   2.663   1.273   2.501 -0.1411 -0.2330 -0.0913
 4548SOL    HW114022   2.591   1.251   2.441 -0.8346  0.0653  0.6074
 4548SOL    HW214023   2.698   1.188   2.528 -0.6287 -0.4075  0.0194
 4549SOL     OW14024   1.801   0.517   1.479 -0.0546  0.3070  0.0813
 4549SOL    HW114025   1.857   0.439   1.485 -2.5017 -1.4771  1.7185
 4549SOL    HW214026   1.851   0.586   1.522  1.4233 -0.8508  0.2888
 4550SOL     OW14027   2.616   1.385   3.463 -0.1741 -0.3194 -0.4841
 4550SOL    HW114028   2.708   1.411   3.464 -0.1372 -0.1392 -2.9850
 4550SOL    HW214029   2.618   1.292   3.487  0.2058  0.4560  3.1028
 4551SOL     OW14030   6.624   4.964   0.315 -0.7810  0.4618  0.3615
 4551SOL    HW114031   6.646   5.044   0.363  1.3652 -0.2193  0.6305
 4551SOL    HW214032   6.637   4.988   0.223 -0.1937  0.4618  0.4384
 4552SOL     OW14033   1.421   5.446   1.179 -0.1577  0.3911 -0.8960
 4552SOL    HW114034   1.397   5.538   1.166  2.8299  1.6594  1.4148
 4552SOL    HW214035   1.514   5.442   1.158  0.2947 -1.5879  1.0840
 4553SOL     OW14036   3.231   0.230   5.627  0.0019  0.5503 -0.6505
 4553SOL    HW114037   3.283   0.288   5.683  1.2444 -0.5479 -0.5995
 4553SOL    HW214038   3.296   0.188   5.571 -1.0184  0.1905 -1.5980
 4554SOL     OW14039   2.324   1.813   3.097  0.0626  0.1195  0.1057
 4554SOL    HW114040   2.347   1.894   3.053 -0.4079 -0.1567 -0.6665
 4554SOL    HW214041   2.241   1.786   3.057  0.6372 -1.1896 -0.2831
 4555SOL     OW14042   1.319   6.574   5.990 -0.3580 -0.0262  0.2405
 4555SOL    HW114043   1.278   6.639   6.046  0.1161 -0.5799  1.2643
 4555SOL    HW214044   1.411   6.575   6.015 -0.4483 -1.5391  0.7547
 4556SOL     OW14045   0.371   2.066   2.648 -0.2436  0.3192  0.1395
 4556SOL    HW114046   0.331   2.110   2.723  2.3499 -0.3202  2.0772
 4556SOL    HW214047   0.407   1.985   2.685  1.4468  0.1470 -1.7074
 4557SOL     OW14048   1.490   2.042   5.495 -0.1105 -0.3048 -0.3121
 4557SOL    HW114049   1.493   1.950   5.522  0.4686 -0.8280 -2.0145
 4557SOL    HW214050   1.477   2.038   5.400 -1.6280  1.4011 -0.2420
 4558SOL     OW14051   3.564   3.016   3.907  0.2874 -0.0457 -0.2382
 4558SOL    HW114052   3.505   2.965   3.852 -0.5385  0.1704  0.4265
 4558SOL    HW214053   3.652   2.992   3.877 -0.1114 -1.0254 -0.6562
 4559SOL     OW14054   3.849   4.724   6.648 -0.0811 -0.0204  0.6981
 4559SOL    HW114055   3.776   4.683   6.694 -0.4132 -1.0998 -0.7269
 4559SOL    HW214056   3.809   4.767   6.573  0.8689 -2.2740 -1.2327
 4560SOL     OW14057   4.990   6.418   2.942  0.4093  0.0093  0.4196
 4560SOL    HW114058   5.079   6.453   2.942 -0.0581  1.3481 -1.1879
 4560SOL    HW214059   4.962   6.424   2.850 -1.5051  0.1198  0.9691
 4561SOL     OW14060   5.582   3.031   5.879 -0.0762  0.2826 -0.2989
 4561SOL    HW114061   5.672   3.060   5.869 -0.1930  0.6510 -0.2765
 4561SOL    HW214062   5.550   3.076   5.956 -0.3457  0.3151 -0.4271
 4562SOL     OW14063   1.135   4.557   1.027 -0.5505 -0.1638  0.4095
 4562SOL    HW114064   1.170   4.565   0.939  2.0996 -0.3782  1.3520
 4562SOL    HW214065   1.044   4.529   1.015 -0.5146  0.6366 -2.2197
 4563SOL     OW14066   3.658   0.913   0.304  0.5757  0.0845 -0.1710
 4563SOL    HW114067   3.663   0.846   0.235 -1.5668 -1.0865  0.7382
 4563SOL    HW214068   3.666   0.864   0.386  1.1971  1.2344  0.4791
 4564SOL     OW14069   5.978   3.545   1.803  0.5768 -0.3440  0.3083
 4564SOL    HW114070   5.982   3.461   1.848  0.0202 -0.4197  0.2204
 4564SOL    HW214071   6.042   3.538   1.732  1.9076 -0.0060  1.4422
 4565SOL     OW14072   4.235   6.019   5.251  0.5200 -0.2827 -0.0753
 4565SOL    HW114073   4.324   6.052   5.238 -0.8176  3.3543 -1.0526
 4565SOL    HW214074   4.231   6.001   5.345  2.7535 -2.3557 -0.2693
 4566SOL     OW14075   0.305   4.493   5.936 -0.6611 -0.4573  0.3737
 4566SOL    HW114076   0.382   4.547   5.919 -0.0495 -1.1663  0.8313
 4566SOL    HW214077   0.263   4.533   6.012 -1.6015  0.8170 -0.7802
 4567SOL     OW14078   0.974   6.344   5.446  0.1720 -0.3041 -0.4309
 4567SOL    HW114079   1.029   6.418   5.420 -0.1101 -0.2573 -0.8817
 4567SOL    HW214080   1.034   6.269   5.444  0.2253 -0.2526 -0.9203
 4568SOL     OW14081   2.189   6.165   6.075  0.6461  0.5858  0.1027
 4568SOL    HW114082   2.120   6.193   6.136  1.2396  0.6023  0.7719
 4568SOL    HW214083   2.150   6.177   5.988 -0.3898  0.0927  0.4820
 4569SOL     OW14084   0.173   1.178   2.110  0.4020  0.4526  0.1637
 4569SOL    HW114085   0.095   1.230   2.133  0.8932  1.3435 -0.1284
 4569SOL    HW214086   0.149   1.132   2.030  0.5566  1.6579 -0.6081
 4570SOL     OW14087   4.127   6.721   5.585 -0.2170  0.0045 -0.3280
 4570SOL    HW114088   4.040   6.718   5.545 -0.9554  1.0226  1.1024
 4570SOL    HW214089   4.141   6.813   5.606  1.1232 -0.1818 -0.3247
 4571SOL     OW14090   6.185   3.991   1.280 -0.1471 -0.0357  0.0085
 4571SOL    HW114091   6.150   4.063   1.228 -2.7797 -0.6893  0.7055
 4571SOL    HW214092   6.116   3.972   1.344  2.6993  0.4928  3.6272
 4572SOL     OW14093   2.096   1.723   2.918 -0.1990  0.4366  0.0569
 4572SOL    HW114094   2.131   1.787   2.856 -0.1945 -1.5228 -2.0701
 4572SOL    HW214095   2.007   1.752   2.935 -0.4265  0.6615 -1.4108
 4573SOL     OW14096   1.814   1.865   4.691 -0.1579 -0.1160 -0.2556
 4573SOL    HW114097   1.723   1.843   4.711  0.2010 -0.8274  0.6961
 4573SOL    HW214098   1.819   1.959   4.706 -1.3081  0.4263 -2.7375
 4574SOL     OW14099   0.522   4.331   1.075  0.3370 -0.0666 -0.0800
 4574SOL    HW114100   0.574   4.346   1.154 -0.7626 -1.8854  1.0499
 4574SOL    HW214101   0.569   4.262   1.028  0.8546  0.8370 -0.9276
 4575SOL     OW14102   3.945   2.670   5.003 -0.2267 -0.2611  0.6272
 4575SOL    HW114103   4.020   2.700   5.054  1.5539 -4.4281  0.9245
 4575SOL    HW214104   3.893   2.619   5.064 -1.6005 -0.0641 -0.3289
 4576SOL     OW14105   1.313   2.949   2.154 -0.0453  0.0375 -0.2963
 4576SOL    HW114106   1.335   2.858   2.135 -0.4567  0.0336 -0.7650
 4576SOL    HW214107   1.367   2.999   2.093 -0.0010  0.1008 -0.2060
 4577SOL     OW14108   2.486   0.293   3.025  0.2304  0.1325  0.7429
 4577SOL    HW114109   2.555   0.359   3.020  0.6183 -0.3498 -1.4875
 4577SOL    HW214110   2.407   0.340   2.998  0.1719  0.0971  0.8536
 4578SOL     OW14111   5.896   1.943   6.143 -0.2274  0.3312  0.6450
 4578SOL    HW114112   5.892   2.001   6.218  0.0371  0.2290  0.7397
 4578SOL    HW214113   5.969   1.976   6.091 -0.4250  0.4180  0.4168
 4579SOL     OW14114   6.634   4.211   0.123  0.1444 -0.3001 -0.1914
 4579SOL    HW114115   6.665   4.290   0.079 -0.3796 -0.2458 -0.4778
 4579SOL    HW214116   6.546   4.235   0.155 -0.3288 -0.9982 -0.9393
 4580SOL     OW14117   4.910   6.735   2.327 -0.2891  0.9743 -0.5549
 4580SOL    HW114118   4.869   6.797   2.268 -0.8079  1.1056 -0.0639
 4580SOL    HW214119   4.877   6.649   2.299 -1.7177  1.1556  0.4548
 4581SOL     OW14120   1.153   5.141   6.047  0.3739  0.1804 -0.5626
 4581SOL    HW114121   1.190   5.076   5.988  0.5235 -0.9052  0.6760
 4581SOL    HW214122   1.215   5.144   6.120 -0.5183  0.4567  0.1966
 4582SOL     OW14123   0.921   6.365   4.727  0.2287 -0.4625 -0.3585
 4582SOL    HW114124   0.825   6.365   4.730  0.1926 -0.1828 -1.3385
 4582SOL    HW214125   0.947   6.326   4.811 -0.7230  0.2321  0.2862
 4583SOL     OW14126   0.887   4.828   2.061  0.0315  0.5673  0.2897
 4583SOL    HW114127   0.844   4.907   2.095 -1.0651  0.5165 -0.9219
 4583SOL    HW214128   0.820   4.760   2.065  0.1010  0.3759 -1.2182
 4584SOL     OW14129   1.089   2.536   4.557  1.0577  0.3727  0.0274
 4584SOL    HW114130   1.091   2.490   4.641  1.6673  1.1816  0.4792
 4584SOL    HW214131   1.151   2.608   4.569  2.0699 -0.1899 -1.5167
 4585SOL     OW14132   6.420   3.805   2.194 -0.3667  0.4020  0.1847
 4585SOL    HW114133   6.490   3.869   2.184  0.5459 -0.7225 -0.9138
 4585SOL    HW214134   6.340   3.852   2.172  0.2605  1.2145 -0.3900
 4586SOL     OW14135   0.802   6.115   2.643 -0.0777 -0.1475  0.3783
 4586SOL    HW114136   0.755   6.090   2.564 -1.2322  1.1852  0.6027
 4586SOL    HW214137   0.774   6.051   2.709  0.8245 -1.2108 -0.2214
 4587SOL     OW14138   4.070   5.881   3.814 -0.1270 -0.0223 -0.3736
 4587SOL    HW114139   4.097   5.972   3.802  0.7879 -0.1388  0.6093
 4587SOL    HW214140   4.114   5.854   3.895 -0.9013 -1.1410 -0.3024
 4588SOL     OW14141   2.979   4.681   2.240 -0.0525  0.0012  0.6220
 4588SOL    HW114142   3.031   4.761   2.234  0.5165 -0.3178  1.2552
 4588SOL    HW214143   2.894   4.704   2.201  1.4281 -0.2572 -3.1367
 4589SOL     OW14144   6.006   2.095   5.594 -0.0367 -0.7218  0.6970
 4589SOL    HW114145   5.960   2.176   5.615  1.5877  0.2868  0.5190
 4589SOL    HW214146   5.970   2.068   5.510 -0.3750 -0.0198  0.6082
 4590SOL     OW14147   1.615   4.919   4.904  0.5021  0.2083  0.0546
 4590SOL    HW114148   1.644   4.952   4.819 -0.5881 -0.5212 -0.6272
 4590SOL    HW214149   1.632   4.992   4.965  0.2916  1.1522 -0.9771
 4591SOL     OW14150   6.626   4.111   5.973  0.3261 -0.1897 -0.4796
 4591SOL    HW114151   6.627   4.206   5.969  1.0856 -0.1845 -0.2560
 4591SOL    HW214152   6.542   4.089   6.014 -0.0060  0.3638 -0.8595
 4592SOL     OW14153   5.079   5.141   6.586 -0.1368  0.3234 -0.4763
 4592SOL    HW114154   5.155   5.124   6.641 -1.4061  0.6736  1.4504
 4592SOL    HW214155   5.070   5.062   6.532  0.0231 -0.8795  1.1919
 4593SOL     OW14156   3.838   2.969   0.098 -0.3357  0.2334  0.2190
 4593SOL    HW114157   3.815   2.898   0.158 -0.3402  0.9610  1.0879
 4593SOL    HW214158   3.754   3.000   0.064 -0.4030  0.5174  0.6437
 4594SOL     OW14159   3.809   1.999   5.963  0.0906  0.7105 -0.0596
 4594SOL    HW114160   3.735   2.038   5.917 -0.0506  0.1244 -0.3441
 4594SOL    HW214161   3.838   1.928   5.906 -0.3465 -0.2896  0.9126
 4595SOL     OW14162   5.941   3.428   3.767  0.1249  0.6788  0.1688
 4595SOL    HW114163   5.916   3.342   3.733 -1.4834  0.0336  2.6960
 4595SOL    HW214164   6.007   3.459   3.706  1.3939 -2.7194 -0.4446
 4596SOL     OW14165   2.299   6.484   6.267 -0.1806 -0.1808  0.2973
 4596SOL    HW114166   2.285   6.457   6.176 -0.3672  0.4556  0.1333
 4596SOL    HW214167   2.304   6.402   6.316 -1.7882 -0.5252 -0.0423
 4597SOL     OW14168   1.309   0.460   6.360 -0.0549  0.2722  0.6101
 4597SOL    HW114169   1.376   0.399   6.330 -0.1925 -0.0318  0.9060
 4597SOL    HW214170   1.354   0.544   6.367  0.0422  0.2825 -0.1577
 4598SOL     OW14171   6.221   3.247   4.177  0.0569  0.7568 -0.0576
 4598SOL    HW114172   6.131   3.226   4.150  0.3379  0.6960 -0.9816
 4598SOL    HW214173   6.220   3.236   4.272 -0.6109 -0.4427 -0.1743
 4599SOL     OW14174   1.460   4.193   5.505 -0.4327 -0.1892 -0.1467
 4599SOL    HW114175   1.398   4.263   5.484  0.2783 -0.2700 -3.0236
 4599SOL    HW214176   1.451   4.131   5.432  0.7888 -1.7928  0.9897
 4600SOL     OW14177   1.841   3.343   4.582  0.4861  0.0385  0.2456
 4600SOL    HW114178   1.894   3.402   4.635  1.1549 -1.3539  1.1669
 4600SOL    HW214179   1.761   3.331   4.633  0.7650 -0.6145  0.5370
 4601SOL     OW14180   0.739   4.752   0.004  0.4481 -0.4359  0.0898
 4601SOL    HW114181   0.775   4.790   0.085 -0.8069  0.5310  0.2141
 4601SOL    HW214182   0.806   4.771  -0.062  2.0640 -2.2813  1.0746
 4602SOL     OW14183   2.615   3.985   5.309  0.1443  0.3798  0.6598
 4602SOL    HW114184   2.604   4.079   5.300 -0.8938  0.2975  0.9378
 4602SOL    HW214185   2.687   3.975   5.372  0.2985  0.9751  0.5861
 4603SOL     OW14186   5.884   0.243   1.147  0.1444  0.4124 -0.3970
 4603SOL    HW114187   5.788   0.238   1.148  0.1022  1.1267  0.8378
 4603SOL    HW214188   5.904   0.303   1.075 -0.5645  3.3560  1.6886
 4604SOL     OW14189   6.354   0.363   1.045 -0.1446  0.4110  0.1112
 4604SOL    HW114190   6.299   0.414   1.105 -0.5867 -0.4786  0.4785
 4604SOL    HW214191   6.316   0.378   0.959  0.8847  2.2198 -0.0673
 4605SOL     OW14192   3.174   3.734   2.823 -0.9242 -0.3757  0.3965
 4605SOL    HW114193   3.225   3.704   2.748 -0.9047 -1.8916  0.9850
 4605SOL    HW214194   3.233   3.794   2.869 -0.5661 -0.2355 -0.2306
 4606SOL     OW14195   6.337   6.750   5.277  0.4785 -0.1771 -0.4418
 4606SOL    HW114196   6.322   6.841   5.256 -1.3343 -0.1524  0.7051
 4606SOL    HW214197   6.430   6.736   5.260  0.1745  0.9863 -3.6998
 4607SOL     OW14198   1.729   3.586   1.105  0.5393 -0.4231 -0.1556
 4607SOL    HW114199   1.736   3.600   1.010  0.3184  1.6208  0.0709
 4607SOL    HW214200   1.817   3.557   1.131  0.5747 -1.0972 -0.9970
 4608SOL     OW14201   0.534   2.313   3.517 -0.2019 -0.1591 -0.3844
 4608SOL    HW114202   0.584   2.380   3.471 -0.8107 -1.2368 -2.7937
 4608SOL    HW214203   0.517   2.350   3.604 -0.0396  2.5577 -1.4255
 4609SOL     OW14204   4.515   1.601   3.010  0.0521 -0.0955  0.5164
 4609SOL    HW114205   4.444   1.544   2.982 -0.3268  0.2776  0.7079
 4609SOL    HW214206   4.595   1.553   2.988 -0.2616 -0.6341  0.5473
 4610SOL     OW14207   0.498   2.152   0.327  0.1909 -0.1898  0.0136
 4610SOL    HW114208   0.478   2.163   0.234 -0.6325 -0.3822  0.1582
 4610SOL    HW214209   0.448   2.221   0.370  0.0592 -0.5000  0.3638
 4611SOL     OW14210   4.217   4.950   1.260 -0.3381  0.2316  0.1914
 4611SOL    HW114211   4.307   4.934   1.288 -0.6089 -1.0204  0.3858
 4611SOL    HW214212   4.190   4.869   1.217 -1.9710 -0.1240  1.7427
 4612SOL     OW14213   5.306   2.708   2.080 -0.1587 -0.3333  0.3555
 4612SOL    HW114214   5.216   2.734   2.101  0.1291  0.8459  0.2049
 4612SOL    HW214215   5.340   2.780   2.027  1.0935 -0.4439  0.9756
 4613SOL     OW14216   0.583   6.415   5.987  0.2050  0.3890 -0.7190
 4613SOL    HW114217   0.618   6.426   5.898 -0.6020  1.4744 -0.9332
 4613SOL    HW214218   0.507   6.357   5.975  0.6421 -0.2174 -0.5862
 4614SOL     OW14219   4.035   3.497   1.848 -0.0816  0.4070 -0.2486
 4614SOL    HW114220   4.094   3.472   1.777 -1.8180  0.9416 -1.9693
 4614SOL    HW214221   4.092   3.512   1.923  2.1255  2.0769 -2.1293
 4615SOL     OW14222   4.581   4.456   2.255  0.4067  0.2836 -0.0592
 4615SOL    HW114223   4.540   4.479   2.338  0.2435 -0.7841  0.1660
 4615SOL    HW214224   4.566   4.362   2.245  2.0356  0.0181 -0.3915
 4616SOL     OW14225   1.760   0.677   6.027  0.4731  0.1452 -0.6270
 4616SOL    HW114226   1.840   0.699   5.979  0.5943  1.7115  0.2325
 4616SOL    HW214227   1.750   0.747   6.091 -0.0171 -1.5418  1.2463
 4617SOL     OW14228   3.211   3.292   3.175  0.3217  0.0420  0.5385
 4617SOL    HW114229   3.255   3.207   3.174 -1.7804 -1.1442 -1.4407
 4617SOL    HW214230   3.280   3.355   3.157  1.8743 -1.2656  1.6692
 4618SOL     OW14231   5.265   2.857   4.394  0.3707  1.0640 -0.5728
 4618SOL    HW114232   5.239   2.778   4.441  1.7508  0.5988 -0.5420
 4618SOL    HW214233   5.187   2.912   4.396 -1.5018 -1.2730 -2.7845
 4619SOL     OW14234   5.343   3.727   4.016 -0.4327  0.1594  0.2075
 4619SOL    HW114235   5.297   3.666   4.073 -2.8999  1.7852  0.1570
 4619SOL    HW214236   5.339   3.811   4.062 -0.0508  0.9502 -1.1211
 4620SOL     OW14237   0.447   2.202   6.099  0.2339  0.0536  0.0278
 4620SOL    HW114238   0.437   2.297   6.088  0.5922  0.0327 -0.5156
 4620SOL    HW214239   0.531   2.191   6.143  0.3186 -0.0182 -0.1484
 4621SOL     OW14240   5.129   0.920   4.346  0.2682  0.5694  0.0210
 4621SOL    HW114241   5.138   0.843   4.290 -1.0746 -0.0139  0.5740
 4621SOL    HW214242   5.125   0.884   4.435 -2.4029  1.0585  0.1725
 4622SOL     OW14243   4.453   1.181   1.638  0.4947 -0.0198 -0.3926
 4622SOL    HW114244   4.391   1.194   1.709  1.3644  2.0962  0.0479
 4622SOL    HW214245   4.483   1.091   1.648 -1.1458 -0.5030  0.4583
 4623SOL     OW14246   5.712   3.774   5.968 -0.1605 -0.1766 -0.4349
 4623SOL    HW114247   5.656   3.846   5.939  1.1907  0.3872 -1.7561
 4623SOL    HW214248   5.668   3.739   6.045 -1.6033  1.1243 -0.6272
 4624SOL     OW14249   1.533   4.512   0.578  0.1601  0.1405  0.2952
 4624SOL    HW114250   1.518   4.418   0.563 -0.3899  0.0856  1.1018
 4624SOL    HW214251   1.480   4.555   0.511 -0.1062 -0.1223  0.3315
 4625SOL     OW14252   6.462   2.781   0.247  0.1739  0.7212 -0.2533
 4625SOL    HW114253   6.463   2.877   0.240 -1.1930  0.6615 -1.9488
 4625SOL    HW214254   6.397   2.753   0.182 -0.2844 -1.3003  0.9923
 4626SOL     OW14255   1.310   5.866   6.122  0.3089 -0.0897  0.0121
 4626SOL    HW114256   1.400   5.841   6.142 -0.0969 -1.8243 -0.1946
 4626SOL    HW214257   1.315   5.959   6.102  1.7325  0.3080  1.9477
 4627SOL     OW14258   4.633   2.994   2.744 -0.5070 -0.5998  0.2937
 4627SOL    HW114259   4.643   3.015   2.836  0.9778 -1.2102  0.2873
 4627SOL    HW214260   4.686   2.916   2.731 -1.6175 -1.2010 -0.8377
 4628SOL     OW14261   0.008   6.730   4.721  0.5597  0.7243  0.3734
 4628SOL    HW114262  -0.006   6.705   4.630  0.7061 -1.4357  0.8726
 4628SOL    HW214263  -0.058   6.797   4.738  0.1551  0.7602 -1.1632
 4629SOL     OW14264   4.784   3.108   2.511 -0.0977  0.0107 -0.0642
 4629SOL    HW114265   4.714   3.048   2.537  0.1914 -0.0846  0.4951
 4629SOL    HW214266   4.785   3.102   2.415 -0.9822  0.1585 -0.0972
 4630SOL     OW14267   5.950   2.163   3.773  0.8665  0.5882  0.0057
 4630SOL    HW114268   5.879   2.216   3.739  1.5505  1.3772 -0.2101
 4630SOL    HW214269   6.026   2.187   3.721  1.3091 -0.2096  0.2622
 4631SOL     OW14270   6.816   4.391   1.525 -0.5090  0.5381 -0.4192
 4631SOL    HW114271   6.759   4.326   1.482  1.2275 -0.6267 -1.1174
 4631SOL    HW214272   6.849   4.346   1.603 -0.2989  1.0660 -0.2005
 4632SOL     OW14273   4.708   0.516   0.393  0.9366 -0.8389  0.0560
 4632SOL    HW114274   4.644   0.557   0.335  1.1908  0.5915  0.7471
 4632SOL    HW214275   4.751   0.450   0.339 -0.4521 -1.1521 -0.6899
 4633SOL     OW14276   2.110   0.452   5.746 -0.0243 -0.8318 -0.1035
 4633SOL    HW114277   2.097   0.533   5.794  2.1587 -0.8783  0.6432
 4633SOL    HW214278   2.024   0.433   5.709 -0.4534  2.1632 -0.8975
 4634SOL     OW14279   2.970   3.388   3.348 -0.2708  0.6010  0.0975
 4634SOL    HW114280   2.932   3.403   3.262  0.9630  2.4764 -0.1741
 4634SOL    HW214281   3.041   3.326   3.333 -0.4650  0.4292 -0.1182
 4635SOL     OW14282   6.245   2.711   6.347 -0.0914  0.0677 -0.2707
 4635SOL    HW114283   6.161   2.673   6.323 -0.1469 -0.8166  1.1657
 4635SOL    HW214284   6.307   2.676   6.283 -0.3825 -1.4503  0.2390
 4636SOL     OW14285   2.117   0.260   6.624  0.2765 -0.3462  0.1582
 4636SOL    HW114286   2.036   0.288   6.580  0.7904  0.5138 -0.2934
 4636SOL    HW214287   2.127   0.321   6.697 -0.0565 -1.1565  0.8974
 4637SOL     OW14288   5.199   0.274   5.449  0.4197 -0.3941 -0.1461
 4637SOL    HW114289   5.105   0.288   5.461  0.0662 -0.8432 -2.0825
 4637SOL    HW214290   5.240   0.336   5.509 -1.1267  3.0909 -2.3395
 4638SOL     OW14291   5.494   1.429   4.480 -0.6118  0.0853  0.1746
 4638SOL    HW114292   5.554   1.388   4.418 -1.4798  1.3471 -1.5561
 4638SOL    HW214293   5.430   1.360   4.499  0.5183 -0.8082  0.9414
 4639SOL     OW14294   3.098   3.554   1.609  0.0938  0.2901 -0.6613
 4639SOL    HW114295   3.039   3.503   1.664  0.2460  1.8442  1.0565
 4639SOL    HW214296   3.054   3.559   1.525 -0.6223 -1.3501 -0.4297
 4640SOL     OW14297   4.458   4.856   2.539 -0.4089 -0.6129  0.0036
 4640SOL    HW114298   4.407   4.900   2.607 -0.9669 -0.6343 -0.3952
 4640SOL    HW214299   4.482   4.926   2.478 -0.0366 -0.6198  0.1378
 4641SOL     OW14300   5.631   3.910   0.157  0.2651  0.7114 -0.2993
 4641SOL    HW114301   5.636   3.814   0.146  2.1972  0.7304  0.2180
 4641SOL    HW214302   5.547   3.924   0.200  0.0103 -0.7674 -0.2460
 4642SOL     OW14303   6.315   5.036   4.135  0.1259 -0.7469 -0.4920
 4642SOL    HW114304   6.376   5.105   4.162  0.2219 -0.5653 -1.1353
 4642SOL    HW214305   6.229   5.078   4.138 -0.1055 -1.3043  1.4088
 4643SOL     OW14306   2.798   4.418   2.515 -0.3303  0.1930  0.6328
 4643SOL    HW114307   2.857   4.491   2.533 -1.0345  0.8861  0.1573
 4643SOL    HW214308   2.746   4.446   2.440 -1.0101 -0.5556  0.8051
 4644SOL     OW14309   2.356   2.901   4.759  0.4551 -0.5352  0.7632
 4644SOL    HW114310   2.297   2.903   4.684 -0.2486 -2.4341  1.1993
 4644SOL    HW214311   2.443   2.919   4.721 -0.0629 -0.1415 -0.2777
 4645SOL     OW14312   5.403   4.980   5.962 -0.4739 -0.0862  0.6426
 4645SOL    HW114313   5.340   5.017   5.901 -1.3991 -0.6135  1.2504
 4645SOL    HW214314   5.366   4.895   5.987  1.2916 -1.1874 -0.2603
 4646SOL     OW14315   6.418   6.270   0.651 -0.5420  0.0512  0.1256
 4646SOL    HW114316   6.367   6.282   0.571 -1.1272 -0.5406  0.4034
 4646SOL    HW214317   6.354   6.247   0.718 -0.2384  1.8838  1.1185
 4647SOL     OW14318   1.466   0.768   3.162 -0.3256  0.0287  0.0849
 4647SOL    HW114319   1.469   0.863   3.150  1.4421 -0.0053 -0.0874
 4647SOL    HW214320   1.528   0.735   3.098  2.3639 -0.8815  2.9241
 4648SOL     OW14321   0.442   4.923   5.830  0.2064  0.3889 -0.3680
 4648SOL    HW114322   0.428   5.007   5.873 -0.6296  0.1299 -0.1171
 4648SOL    HW214323   0.499   4.943   5.756 -0.0791  1.1867 -0.3774
 4649SOL     OW14324   3.089   6.736   5.032 -0.5000  0.1887  0.2200
 4649SOL    HW114325   3.134   6.799   4.975  0.8217 -1.7026 -0.9521
 4649SOL    HW214326   3.015   6.784   5.068 -0.7489  1.8176 -2.2239
 4650SOL     OW14327   3.956   6.656   0.738  0.1279 -0.4951  0.0643
 4650SOL    HW114328   3.937   6.664   0.831  0.3858 -1.4952  0.2121
 4650SOL    HW214329   3.885   6.705   0.695 -0.5834 -0.8944  0.7494
 4651SOL     OW14330   0.492   4.205   0.348  0.1203 -0.0815 -0.3477
 4651SOL    HW114331   0.511   4.273   0.283  3.4689 -1.3925 -0.9623
 4651SOL    HW214332   0.524   4.242   0.431 -0.2160 -0.0519 -0.2283
 4652SOL     OW14333   4.552   0.535   3.535  0.0414  0.4496 -0.5204
 4652SOL    HW114334   4.530   0.471   3.468  1.1246  1.0879 -1.5260
 4652SOL    HW214335   4.642   0.562   3.514  0.7208  0.0726  1.6741
 4653SOL     OW14336   6.424   5.197   1.398  0.0938 -0.3337 -0.5605
 4653SOL    HW114337   6.358   5.157   1.342 -1.3607  2.9521 -1.4273
 4653SOL    HW214338   6.386   5.194   1.486 -1.0918  1.1186 -0.9824
 4654SOL     OW14339   5.507   4.713   5.775 -0.2596 -0.2291  0.2718
 4654SOL    HW114340   5.581   4.690   5.831 -0.0967  0.7722  0.4827
 4654SOL    HW214341   5.493   4.636   5.720  0.7631 -0.5233  0.4202
 4655SOL     OW14342   4.114   2.455   2.985 -0.3193 -0.4430 -0.4885
 4655SOL    HW114343   4.109   2.519   2.914 -0.5975 -0.4013 -0.4327
 4655SOL    HW214344   4.203   2.465   3.020 -0.2008 -0.4259 -0.7928
 4656SOL     OW14345   4.309   2.118   1.524 -0.1539  0.0577  0.0730
 4656SOL    HW114346   4.360   2.052   1.571 -2.1132 -2.3066 -0.9391
 4656SOL    HW214347   4.339   2.112   1.434 -2.4026 -1.7023 -0.6361
 4657SOL     OW14348   2.108   2.746   5.372 -0.2675  0.2223 -0.3644
 4657SOL    HW114349   2.097   2.814   5.305 -3.7240 -0.3055 -0.5133
 4657SOL    HW214350   2.090   2.791   5.455 -0.0670 -0.0185 -0.1874
 4658SOL     OW14351   0.013   4.687   1.725  0.4923  0.2890  0.5880
 4658SOL    HW114352   0.084   4.626   1.709  0.6436  0.8553 -1.1862
 4658SOL    HW214353   0.057   4.771   1.741  0.2503  0.2798  1.3417
 4659SOL     OW14354   0.082   4.974   4.031  0.0203 -0.3986 -0.1235
 4659SOL    HW114355   0.039   5.056   4.056  0.8255  0.1297 -0.4636
 4659SOL    HW214356   0.121   4.992   3.946  3.3385  0.0680  1.3365
 4660SOL     OW14357   1.295   4.925   5.114 -0.3981 -0.4535  0.4073
 4660SOL    HW114358   1.364   4.861   5.096 -0.7528 -0.7588  0.1220
 4660SOL    HW214359   1.298   4.986   5.041 -1.7254 -1.5965 -0.6677
 4661SOL     OW14360   0.185   0.233   4.009  0.0712  0.1260  0.2835
 4661SOL    HW114361   0.095   0.243   3.979  0.0179  0.1249  0.4468
 4661SOL    HW214362   0.221   0.322   4.007  0.1798  0.0786 -0.1375
 4662SOL     OW14363   4.165   4.327   1.177 -0.2417  0.4751  0.1569
 4662SOL    HW114364   4.258   4.334   1.197  0.1755 -0.0341 -1.4627
 4662SOL    HW214365   4.123   4.388   1.238  1.3105  2.0164 -0.2084
 4663SOL     OW14366   3.856   5.356   6.686  0.2926 -0.6889 -0.3003
 4663SOL    HW114367   3.891   5.404   6.761  0.1253 -0.3863 -0.4163
 4663SOL    HW214368   3.819   5.423   6.629  0.2464 -0.9355 -0.5638
 4664SOL     OW14369   0.801   0.564   3.786 -0.7304  0.0394 -0.2390
 4664SOL    HW114370   0.865   0.493   3.783 -1.7172 -0.8939  0.2881
 4664SOL    HW214371   0.815   0.613   3.705  0.4621 -0.2894 -0.2590
 4665SOL     OW14372   4.545   4.565   6.040 -0.0494 -0.7406  1.0312
 4665SOL    HW114373   4.506   4.556   6.127  0.6252 -2.3169  1.1978
 4665SOL    HW214374   4.470   4.583   5.982 -0.3990  1.4320  2.0256
 4666SOL     OW14375   6.576   2.503   2.127 -0.1924 -0.0023 -0.1841
 4666SOL    HW114376   6.528   2.584   2.149  1.5047  0.2865  3.1238
 4666SOL    HW214377   6.551   2.441   2.196  0.4911 -1.4534 -1.1931
 4667SOL     OW14378   4.570   6.798   3.875 -0.2452  0.1380  0.0169
 4667SOL    HW114379   4.563   6.893   3.874  0.9164  0.3336  2.7509
 4667SOL    HW214380   4.656   6.780   3.837 -0.1264  0.2357  0.2398
 4668SOL     OW14381   3.669   5.841   1.597  1.2648 -0.2595  0.0729
 4668SOL    HW114382   3.643   5.774   1.533 -0.1965  0.8360 -0.5154
 4668SOL    HW214383   3.757   5.867   1.569  0.0635  1.3748 -2.5920
 4669SOL     OW14384   1.672   2.249   3.854 -0.6606  0.7290  0.4130
 4669SOL    HW114385   1.742   2.283   3.911 -1.0616  0.5755  1.0122
 4669SOL    HW214386   1.610   2.321   3.847 -2.1260 -0.1817  2.6901
 4670SOL     OW14387   5.995   1.617   1.446  0.0393  0.9637 -0.0805
 4670SOL    HW114388   5.948   1.664   1.377  1.2106 -0.7899 -2.1664
 4670SOL    HW214389   6.086   1.642   1.435  0.4070 -0.2691  0.0374
 4671SOL     OW14390   0.318   6.727   6.760  0.4336 -0.2841 -0.2258
 4671SOL    HW114391   0.390   6.663   6.761  0.6027 -0.0907  0.0006
 4671SOL    HW214392   0.239   6.673   6.755  0.5836 -0.5039 -0.2794
 4672SOL     OW14393   6.215   1.601   0.366  0.3273 -0.2919  0.2451
 4672SOL    HW114394   6.257   1.665   0.423  0.1595 -0.1562  0.2178
 4672SOL    HW214395   6.233   1.631   0.277  0.4520 -0.4139  0.2307
 4673SOL     OW14396   0.643   1.771   5.564  0.0072 -0.2466  0.0406
 4673SOL    HW114397   0.559   1.814   5.582  0.0280  0.4608 -1.4361
 4673SOL    HW214398   0.623   1.677   5.566 -0.7229 -0.0921  0.1192
 4674SOL     OW14399   4.722   6.148   5.352 -0.2562 -0.5166 -0.2808
 4674SOL    HW114400   4.764   6.215   5.299 -0.3691 -0.4609 -0.2993
 4674SOL    HW214401   4.734   6.067   5.303 -2.2384 -0.1457 -1.4656
 4675SOL     OW14402   0.055   1.161   1.158 -0.0347  0.6596  0.5071
 4675SOL    HW114403  -0.024   1.148   1.105 -0.1716  0.6942  0.7012
 4675SOL    HW214404   0.033   1.235   1.215  0.7649  1.8398 -0.6508
 4676SOL     OW14405   6.392   5.279   2.632  0.0094  0.3148  0.1865
 4676SOL    HW114406   6.355   5.211   2.575 -1.0971 -1.1753  2.5305
 4676SOL    HW214407   6.357   5.361   2.597 -0.6623 -0.5402 -1.2469
 4677SOL     OW14408   4.568   3.636   1.794 -0.1016  0.2729  0.6800
 4677SOL    HW114409   4.587   3.594   1.878 -1.0331 -0.7663  0.3980
 4677SOL    HW214410   4.654   3.653   1.756  0.3245  0.7292  1.8275
 4678SOL     OW14411   1.325   3.030   1.512  0.8691  0.2088  0.3358
 4678SOL    HW114412   1.252   2.968   1.516  0.6437  0.4709  0.2879
 4678SOL    HW214413   1.392   2.991   1.568  0.9009 -0.3037 -0.0530
 4679SOL     OW14414   2.086   2.234   0.247 -0.2923 -0.7945 -0.1015
 4679SOL    HW114415   2.078   2.161   0.308  1.5529 -0.2638  0.8755
 4679SOL    HW214416   2.038   2.306   0.289 -0.5693 -0.9375 -0.1738
 4680SOL     OW14417   2.214   6.523   3.335 -0.3923  0.5929 -0.1199
 4680SOL    HW114418   2.124   6.542   3.363  0.7038  1.8575  3.0301
 4680SOL    HW214419   2.256   6.609   3.332  1.1357 -0.1121  0.2599
 4681SOL     OW14420   5.464   2.905   4.581 -0.1113 -0.1100  0.0319
 4681SOL    HW114421   5.428   2.973   4.638 -0.6070 -0.4776  0.1618
 4681SOL    HW214422   5.413   2.912   4.500  0.3884  0.2118 -0.2601
 4682SOL     OW14423   0.633   2.358   6.343 -0.1887  0.0690 -0.0622
 4682SOL    HW114424   0.616   2.360   6.249 -0.4242 -0.6301 -0.0383
 4682SOL    HW214425   0.669   2.271   6.359 -2.2072 -0.6600  0.8265
 4683SOL     OW14426   0.376   1.580   1.612 -0.2721 -0.2579  0.0184
 4683SOL    HW114427   0.439   1.600   1.681  0.6060  2.1435 -1.3395
 4683SOL    HW214428   0.290   1.592   1.654  0.1777 -1.2529  1.2769
 4684SOL     OW14429   4.434   4.830   4.711  0.2281  0.0307  0.4205
 4684SOL    HW114430   4.388   4.810   4.629 -0.3835  2.6989  0.0352
 4684SOL    HW214431   4.407   4.760   4.771 -1.0563 -0.7607 -1.0104
 4685SOL     OW14432   3.616   3.662   1.981 -0.0307 -0.1329  0.0690
 4685SOL    HW114433   3.680   3.663   1.910 -0.6212 -2.1082 -0.5618
 4685SOL    HW214434   3.625   3.575   2.020 -2.1213 -0.3627  0.1305
 4686SOL     OW14435   2.514   0.148   0.700 -0.2968 -0.0861 -0.0008
 4686SOL    HW114436   2.562   0.229   0.714 -0.0143 -0.0905 -0.8585
 4686SOL    HW214437   2.439   0.153   0.759 -0.2823  0.7964 -0.0454
 4687SOL     OW14438   5.145   0.301   4.868  0.9534 -0.2121 -0.2775
 4687SOL    HW114439   5.214   0.363   4.844  1.2876 -0.0350  1.0415
 4687SOL    HW214440   5.185   0.244   4.934  0.0313 -0.5151  0.0432
 4688SOL     OW14441   4.149   4.028   4.581  0.0747  0.3377  0.1278
 4688SOL    HW114442   4.136   4.037   4.486  3.1546 -0.2869 -0.4506
 4688SOL    HW214443   4.128   3.937   4.600  2.1877 -0.3374 -0.5539
 4689SOL     OW14444   2.481   0.839   5.760 -0.3883  0.6095 -0.3611
 4689SOL    HW114445   2.496   0.919   5.710 -0.4716  3.5314  3.8565
 4689SOL    HW214446   2.568   0.800   5.768 -0.1394  0.9228 -1.3287
 4690SOL     OW14447   2.217   4.596   0.404  0.8955  0.3382 -0.4708
 4690SOL    HW114448   2.216   4.641   0.320 -0.0987  1.9629  0.3572
 4690SOL    HW214449   2.163   4.518   0.390 -0.7633  1.5084 -0.8948
 4691SOL     OW14450   5.246   0.700   4.229  0.0376 -0.3200 -0.0694
 4691SOL    HW114451   5.337   0.678   4.248  0.0867 -1.1034 -1.1613
 4691SOL    HW214452   5.245   0.716   4.135 -1.0570 -0.7930 -0.1400
 4692SOL     OW14453   6.616   0.254   1.047 -0.0050 -0.0038 -0.0327
 4692SOL    HW114454   6.537   0.308   1.042  1.6619  2.5236 -1.1794
 4692SOL    HW214455   6.618   0.222   1.137 -1.3279  1.5288  0.5974
 4693SOL     OW14456   3.792   3.024   4.830  0.9300 -0.1307 -0.0916
 4693SOL    HW114457   3.844   3.017   4.910  2.1103 -1.1855 -0.9088
 4693SOL    HW214458   3.831   3.097   4.782  1.3027 -0.5536 -0.4423
 4694SOL     OW14459   5.091   3.353   5.293 -0.9906 -0.1477  0.3333
 4694SOL    HW114460   5.094   3.400   5.210 -2.7945  0.8626  0.7832
 4694SOL    HW214461   5.146   3.404   5.352 -0.3849 -0.4015 -0.0042
 4695SOL     OW14462   1.367   4.922   1.263  0.0765  0.6594  0.0497
 4695SOL    HW114463   1.285   4.925   1.213 -0.0803  0.2562  0.2795
 4695SOL    HW214464   1.413   5.001   1.237 -0.0653  0.5275 -0.6282
 4696SOL     OW14465   0.837   4.227   4.909  0.1084 -0.2774  0.3414
 4696SOL    HW114466   0.853   4.184   4.825 -0.8633  0.1571 -0.0844
 4696SOL    HW214467   0.918   4.274   4.928 -0.4097  1.5708 -1.5476
 4697SOL     OW14468   3.622   0.659   1.587 -0.1219  0.1920 -0.7089
 4697SOL    HW114469   3.596   0.664   1.495 -0.4048  1.5964 -0.5694
 4697SOL    HW214470   3.622   0.750   1.617 -0.4306 -0.2836  0.7910
 4698SOL     OW14471   3.765   5.499   3.877  0.2493 -0.1402 -0.3095
 4698SOL    HW114472   3.673   5.480   3.863  0.4779 -2.6926  1.1627
 4698SOL    HW214473   3.810   5.456   3.804  0.3092  0.9267 -0.9145
 4699SOL     OW14474   1.159   4.451   1.452  0.4963 -0.0880  0.3524
 4699SOL    HW114475   1.178   4.368   1.408 -1.9186 -0.4119 -0.2244
 4699SOL    HW214476   1.187   4.518   1.388 -3.4614 -0.5460 -2.1895
 4700SOL     OW14477   2.577   5.295   2.971 -0.1448  0.0280  0.7824
 4700SOL    HW114478   2.586   5.233   2.900 -0.0789  0.6072  0.2730
 4700SOL    HW214479   2.606   5.248   3.049  0.3636 -0.4180  0.3251
 4701SOL     OW14480   0.245   0.870   2.297 -0.9787 -0.6123  0.1843
 4701SOL    HW114481   0.265   0.963   2.289  2.2853 -1.0649  1.4932
 4701SOL    HW214482   0.254   0.835   2.208  0.4488 -0.0921  0.1117
 4702SOL     OW14483   4.803   4.012   3.935  0.5983 -0.0250  0.0891
 4702SOL    HW114484   4.792   4.044   4.025  0.3145 -0.4857  0.2214
 4702SOL    HW214485   4.868   3.942   3.942  0.1695 -0.4318  0.0200
 4703SOL     OW14486   1.427   6.023   1.205  0.4929  0.0978  0.1950
 4703SOL    HW114487   1.400   5.943   1.160  1.8287  0.2885 -1.0407
 4703SOL    HW214488   1.367   6.090   1.172  1.3877  0.2126 -1.3243
 4704SOL     OW14489   2.914   3.684   6.406  0.1933  0.4014 -0.4709
 4704SOL    HW114490   2.958   3.599   6.398  0.3753  0.6275 -2.1407
 4704SOL    HW214491   2.945   3.719   6.489 -1.6729 -2.1481  1.4596
 4705SOL     OW14492   3.697   6.751   4.763 -0.3979  0.2029 -0.2569
 4705SOL    HW114493   3.636   6.681   4.740 -0.9171  0.4022  0.4927
 4705SOL    HW214494   3.709   6.743   4.858 -2.1876  2.4614  0.2592
 4706SOL     OW14495   4.532   0.150   6.273 -0.3290 -0.6279  0.1434
 4706SOL    HW114496   4.607   0.146   6.333 -1.2827 -0.8381  1.3521
 4706SOL    HW214497   4.553   0.221   6.213 -0.5289  1.4493  2.3830
 4707SOL     OW14498   2.207   1.339   2.643  0.5139 -0.2964 -0.2990
 4707SOL    HW114499   2.207   1.276   2.571 -2.5586 -0.6860 -0.1084
 4707SOL    HW214500   2.234   1.421   2.603 -2.3251 -0.2090 -2.3393
 4708SOL     OW14501   6.279   2.093   5.614 -0.0060  0.2510 -0.4349
 4708SOL    HW114502   6.271   2.161   5.681  0.6256  0.8419 -0.9391
 4708SOL    HW214503   6.189   2.071   5.591 -0.2386  1.5824 -0.9131
 4709SOL     OW14504   3.515   0.505   1.827  0.3930 -0.3939 -0.3831
 4709SOL    HW114505   3.427   0.523   1.793  0.9934  2.2821 -0.7345
 4709SOL    HW214506   3.502   0.493   1.921 -0.2070  1.4592 -0.2010
 4710SOL     OW14507   1.743   1.132   4.188 -0.1628 -0.3355 -0.3532
 4710SOL    HW114508   1.772   1.163   4.274  0.4149 -0.5208 -0.4795
 4710SOL    HW214509   1.682   1.200   4.159  0.3879  0.2336 -0.2219
 4711SOL     OW14510   0.608   3.562   5.624 -0.0062  0.0599  0.4521
 4711SOL    HW114511   0.575   3.602   5.543  0.9890  0.6784  0.3285
 4711SOL    HW214512   0.530   3.529   5.668 -0.6641  0.5406 -0.3225
 4712SOL     OW14513   0.775   4.920   5.943  0.1424  0.5789  0.1357
 4712SOL    HW114514   0.790   4.828   5.924  1.4229  1.2769 -2.7759
 4712SOL    HW214515   0.680   4.931   5.933  0.0245 -0.3380  0.1704
 4713SOL     OW14516   0.240   5.803   0.685 -0.2808 -0.0271  0.3650
 4713SOL    HW114517   0.274   5.809   0.596 -0.3651 -0.7970  0.2752
 4713SOL    HW214518   0.192   5.885   0.698 -0.2874  0.0823 -0.3025
 4714SOL     OW14519   6.390   0.139   1.569  0.2217 -0.3068 -0.8993
 4714SOL    HW114520   6.458   0.097   1.622 -1.4277 -2.1395 -0.0973
 4714SOL    HW214521   6.435   0.209   1.523  2.3774 -0.6362  0.5635
 4715SOL     OW14522   3.862   2.630   2.315 -0.0162  0.4917 -0.5718
 4715SOL    HW114523   3.900   2.561   2.370  0.0559  2.1833  1.6161
 4715SOL    HW214524   3.770   2.633   2.342  0.1813  1.8163 -0.0108
 4716SOL     OW14525   1.882   4.177   1.953  0.4897 -0.4867 -0.0140
 4716SOL    HW114526   1.961   4.229   1.966 -0.1869  0.3408  0.9389
 4716SOL    HW214527   1.835   4.222   1.882  1.5660 -1.8712 -1.7078
 4717SOL     OW14528   0.500   3.232   5.935  0.0351  0.1554 -0.0755
 4717SOL    HW114529   0.552   3.297   5.982  1.0208 -0.5273 -0.2049
 4717SOL    HW214530   0.564   3.176   5.892 -0.8257 -0.3001 -0.7867
 4718SOL     OW14531   2.237   0.642   1.213 -0.1992  0.4722  0.3408
 4718SOL    HW114532   2.229   0.579   1.142 -0.6515  0.9710 -0.0643
 4718SOL    HW214533   2.148   0.651   1.248 -0.0942  0.6926  0.5593
 4719SOL     OW14534   3.280   5.663   0.093 -0.6030  0.5809  0.1793
 4719SOL    HW114535   3.204   5.656   0.034  0.4159 -1.8500 -0.9993
 4719SOL    HW214536   3.296   5.572   0.120  0.5421  1.3361  2.2082
 4720SOL     OW14537   6.196   2.509   6.778 -0.1258 -0.3370 -0.3966
 4720SOL    HW114538   6.261   2.469   6.720 -2.4938 -3.0471 -1.3637
 4720SOL    HW214539   6.143   2.564   6.720 -1.5845 -1.9010 -0.6222
 4721SOL     OW14540   0.037   5.444   5.127  0.0403  0.2283 -0.4039
 4721SOL    HW114541   0.122   5.432   5.085  0.6427 -0.6879  0.9975
 4721SOL    HW214542   0.034   5.536   5.150 -0.0667  0.6269 -1.8987
 4722SOL     OW14543   3.241   0.112   4.881  0.1706 -0.5832 -0.2094
 4722SOL    HW114544   3.308   0.053   4.915 -0.1111 -0.6868  0.1752
 4722SOL    HW214545   3.289   0.177   4.830  0.6044 -0.3824  0.4519
 4723SOL     OW14546   2.730   1.668   5.073  0.2914  0.5480 -0.9261
 4723SOL    HW114547   2.648   1.717   5.078 -0.4810 -0.7928  0.4027
 4723SOL    HW214548   2.704   1.581   5.044  1.1664 -0.0788  0.1154
 4724SOL     OW14549   0.100   4.600   1.459  0.1398  0.5275  0.0895
 4724SOL    HW114550   0.073   4.510   1.472  1.5631 -0.1152 -1.0428
 4724SOL    HW214551   0.184   4.607   1.503  0.0976  1.2642  0.0719
 4725SOL     OW14552   0.086   3.928   4.360  0.0796  0.6756 -0.2577
 4725SOL    HW114553   0.112   3.900   4.272  0.5741  2.6975 -0.8087
 4725SOL    HW214554   0.159   3.983   4.390 -0.3540  0.5132  1.1828
 4726SOL     OW14555   6.833   2.822   3.422  0.3238  0.2680 -0.5291
 4726SOL    HW114556   6.826   2.727   3.424 -0.2694  0.2898 -1.1299
 4726SOL    HW214557   6.820   2.849   3.513 -0.9541 -0.1446 -0.5681
 4727SOL     OW14558   4.624   2.929   0.662  0.2460  0.0663 -0.2314
 4727SOL    HW114559   4.638   3.001   0.723 -0.4539 -0.4892  0.5994
 4727SOL    HW214560   4.656   2.852   0.708  0.2341 -0.2855 -0.7993
 4728SOL     OW14561   3.779   4.045   4.655  0.0596  0.0147 -0.3734
 4728SOL    HW114562   3.816   4.049   4.743  1.6745 -1.2180 -0.9407
 4728SOL    HW214563   3.725   3.966   4.655 -1.6552  1.1377  0.0809
 4729SOL     OW14564   2.770   2.470   2.947  0.2339  0.3793 -0.6331
 4729SOL    HW114565   2.749   2.531   3.019  0.5436 -0.9153  0.6039
 4729SOL    HW214566   2.801   2.526   2.877 -1.9786  1.8829 -0.5199
 4730SOL     OW14567   6.519   1.273   1.165  0.2436  0.0766 -0.0535
 4730SOL    HW114568   6.569   1.230   1.235  0.2363 -1.1163 -0.7602
 4730SOL    HW214569   6.586   1.305   1.105  0.2098 -0.0295 -0.1475
 4731SOL     OW14570   0.634   2.079   3.591 -0.0442 -0.5056  0.3429
 4731SOL    HW114571   0.577   2.058   3.665  0.0847  0.2946  0.6769
 4731SOL    HW214572   0.605   2.165   3.562  1.3596  0.1857  0.8902
 4732SOL     OW14573   0.793   1.762   2.242 -0.7841 -0.3454  0.2810
 4732SOL    HW114574   0.727   1.828   2.259  0.2508  1.1166 -1.1077
 4732SOL    HW214575   0.839   1.752   2.326 -3.4529 -2.3400  1.6569
 4733SOL     OW14576   1.118   1.216   2.655  0.8379  0.1593 -0.2770
 4733SOL    HW114577   1.189   1.277   2.638 -0.1078  1.0320 -1.2884
 4733SOL    HW214578   1.040   1.271   2.660  0.1756 -0.8118  0.4065
 4734SOL     OW14579   0.301   5.467   4.907 -0.0874  0.3118 -0.3149
 4734SOL    HW114580   0.354   5.391   4.929  0.7126  0.8127 -0.4786
 4734SOL    HW214581   0.229   5.432   4.855 -0.7327 -0.5745  1.0926
 4735SOL     OW14582   0.953   1.957   1.335 -0.3543 -0.8329  0.2163
 4735SOL    HW114583   0.931   1.891   1.401 -2.0215  1.1715  1.7946
 4735SOL    HW214584   0.991   2.029   1.384  1.4240 -0.5410 -1.4646
 4736SOL     OW14585   5.869   1.390   0.294  0.1709  0.0660  0.2765
 4736SOL    HW114586   5.946   1.410   0.240 -0.1113  0.2068 -0.0784
 4736SOL    HW214587   5.901   1.397   0.384  0.5323  0.2894  0.1356
 4737SOL     OW14588   6.428   4.602   2.128  0.5075 -0.0292  0.1343
 4737SOL    HW114589   6.463   4.554   2.203 -0.6765 -1.2159 -0.0398
 4737SOL    HW214590   6.364   4.662   2.166  0.3014 -0.2470  0.1347
 4738SOL     OW14591   2.193   2.145   1.049 -0.2380 -0.3761 -0.2642
 4738SOL    HW114592   2.195   2.190   0.965 -2.2839 -0.4704 -0.3977
 4738SOL    HW214593   2.102   2.152   1.078  0.5274  0.1796  2.2304
 4739SOL     OW14594   5.293   2.820   0.810  0.4110  0.1864  0.3763
 4739SOL    HW114595   5.255   2.834   0.897  0.4601  0.0134  0.4252
 4739SOL    HW214596   5.220   2.789   0.757  0.6443 -0.9035  0.6632
 4740SOL     OW14597   5.646   6.792   1.714 -0.0521 -0.3501  0.9712
 4740SOL    HW114598   5.594   6.746   1.649  0.1308  0.3794  0.2982
 4740SOL    HW214599   5.607   6.768   1.798 -0.1245 -1.5041  0.6180
 4741SOL     OW14600   0.812   6.380   2.781  0.7491 -0.3385 -0.0560
 4741SOL    HW114601   0.839   6.304   2.728  2.7595 -0.4852  1.0998
 4741SOL    HW214602   0.761   6.342   2.853  0.4971 -0.4233 -0.2750
 4742SOL     OW14603   4.394   5.807   3.920 -0.3593  0.8250  0.1180
 4742SOL    HW114604   4.383   5.734   3.860 -1.0304  0.0011  1.2075
 4742SOL    HW214605   4.403   5.884   3.863 -3.6364  0.4819 -1.0802
 4743SOL     OW14606   4.872   6.152   4.106  0.0863  0.5442  0.4945
 4743SOL    HW114607   4.918   6.235   4.102 -1.2231  1.2931  0.5283
 4743SOL    HW214608   4.840   6.147   4.196  0.5513 -0.2361  0.6305
 4744SOL     OW14609   0.151   4.041   5.806  0.3751 -0.5193 -0.8165
 4744SOL    HW114610   0.198   3.968   5.846  1.0717  0.4534  0.2056
 4744SOL    HW214611   0.220   4.103   5.782 -0.3180  2.1752  3.1296
 4745SOL     OW14612   2.593   1.565   5.858  0.0737  0.1853  0.6337
 4745SOL    HW114613   2.501   1.575   5.834  0.2815 -0.5657 -0.5726
 4745SOL    HW214614   2.638   1.638   5.815  0.0203  0.7537  1.5035
 4746SOL     OW14615   5.989   1.121   4.896 -0.4017 -0.2356 -0.1330
 4746SOL    HW114616   6.083   1.129   4.879 -0.6114 -0.5252 -1.5511
 4746SOL    HW214617   5.979   1.033   4.933 -0.2734 -0.7697 -1.3332
 4747SOL     OW14618   2.778   0.322   4.828 -0.0496  0.3345  0.1792
 4747SOL    HW114619   2.842   0.315   4.898  0.9968  2.6104 -0.4867
 4747SOL    HW214620   2.829   0.319   4.747 -1.0230 -0.0710 -0.4474
 4748SOL     OW14621   3.632   1.394   0.642  0.4812  0.0854  0.2157
 4748SOL    HW114622   3.617   1.444   0.562  2.2115  0.2371 -0.0690
 4748SOL    HW214623   3.728   1.385   0.647  0.3365 -1.2371  1.4663
 4749SOL     OW14624   0.903   1.531   5.419 -0.2152 -0.2017 -0.7103
 4749SOL    HW114625   0.884   1.437   5.412 -0.5911 -0.1420 -0.5032
 4749SOL    HW214626   0.896   1.563   5.329  1.5773 -0.6755 -1.0606
 4750SOL     OW14627   4.742   2.569   1.862  0.0332  0.5228 -0.5636
 4750SOL    HW114628   4.750   2.601   1.952 -0.4258 -1.3120  0.1797
 4750SOL    HW214629   4.665   2.614   1.827 -0.6317  0.2217  0.4597
 4751SOL     OW14630   2.630   4.335   3.764  0.2198 -0.4159 -0.7084
 4751SOL    HW114631   2.545   4.346   3.722 -2.3301  0.4444  3.9172
 4751SOL    HW214632   2.623   4.251   3.810  2.0168 -0.4496 -0.4227
 4752SOL     OW14633   1.164   6.039   5.207 -0.4171 -0.3715 -0.0537
 4752SOL    HW114634   1.122   6.099   5.269 -0.5108 -1.8601  1.4142
 4752SOL    HW214635   1.233   6.091   5.167 -0.7321  0.8280  0.8816
 4753SOL     OW14636   5.790   6.087   3.025  0.4988 -0.2996 -0.6145
 4753SOL    HW114637   5.883   6.104   3.016  0.8405  0.2343  2.5538
 4753SOL    HW214638   5.752   6.173   3.044 -0.7370 -0.4614 -2.1710
 4754SOL     OW14639   5.585   3.073   1.790 -0.4562  0.0055 -0.4186
 4754SOL    HW114640   5.532   3.038   1.718  0.9080 -1.3661 -0.8100
 4754SOL    HW214641   5.675   3.048   1.768  0.2026  1.0665  0.9144
 4755SOL     OW14642   5.596   1.664   1.306  0.0156  0.1772 -0.4525
 4755SOL    HW114643   5.544   1.745   1.304  0.3634  0.4143 -0.1422
 4755SOL    HW214644   5.618   1.653   1.399 -0.2505 -0.4189 -0.4565
 4756SOL     OW14645   3.123   4.280   2.633 -1.2085 -0.0811  0.0079
 4756SOL    HW114646   3.122   4.230   2.714  0.0247 -2.9261 -1.6000
 4756SOL    HW214647   3.116   4.372   2.661  0.4102 -0.8499  3.3808
 4757SOL     OW14648   2.631   5.470   3.198 -0.3869  0.2145 -0.3239
 4757SOL    HW114649   2.538   5.470   3.172 -0.4353  0.4163 -0.1588
 4757SOL    HW214650   2.637   5.402   3.264 -0.7321  1.1666  0.7294
 4758SOL     OW14651   3.053   2.356   0.889  0.6360  0.3889  0.6183
 4758SOL    HW114652   3.069   2.446   0.914 -2.3074  1.8003 -1.8933
 4758SOL    HW214653   3.119   2.338   0.821 -1.2161  2.2848 -1.8916
 4759SOL     OW14654   6.675   6.392   4.514 -0.3758  0.4029  0.1326
 4759SOL    HW114655   6.658   6.422   4.603  0.4982 -0.9656  0.8000
 4759SOL    HW214656   6.591   6.360   4.483 -0.2280 -1.3596  1.4028
 4760SOL     OW14657   5.011   0.248   4.628  0.0938  0.3769 -0.7142
 4760SOL    HW114658   5.077   0.199   4.578  0.5824  0.3085 -0.0104
 4760SOL    HW214659   5.053   0.267   4.712 -0.3712  1.3263 -0.6763
 4761SOL     OW14660   3.568   6.502   2.235  0.0215 -0.5072  0.3981
 4761SOL    HW114661   3.645   6.542   2.276  0.7867 -0.7268 -0.7548
 4761SOL    HW214662   3.602   6.463   2.154 -1.1948 -1.1789  0.1890
 4762SOL     OW14663   5.168   3.937   6.544  0.2162 -0.7486  0.2276
 4762SOL    HW114664   5.245   3.879   6.549  0.4139 -0.4023  1.8952
 4762SOL    HW214665   5.102   3.893   6.597 -0.9353 -1.2604 -1.5606
 4763SOL     OW14666   6.808   2.460   0.108  0.4202  0.2615  0.0420
 4763SOL    HW114667   6.836   2.479   0.019  0.9528 -0.3398  0.0672
 4763SOL    HW214668   6.798   2.545   0.150  2.9338  0.5424  0.2277
 4764SOL     OW14669   6.789   3.743   5.812 -0.1947  0.0839  0.1352
 4764SOL    HW114670   6.694   3.738   5.802 -0.2223  0.2800  0.3013
 4764SOL    HW214671   6.817   3.811   5.752 -0.2283  0.4447  0.5259
 4765SOL     OW14672   2.010   4.530   5.866 -0.6036 -0.2527  0.3284
 4765SOL    HW114673   2.057   4.447   5.861  0.1736  0.0963  1.3558
 4765SOL    HW214674   2.065   4.585   5.921 -1.3498  0.7837  0.0708
 4766SOL     OW14675   4.570   3.476   1.249  0.2025  0.6040  0.1346
 4766SOL    HW114676   4.483   3.463   1.286 -0.4717 -0.5177 -1.6785
 4766SOL    HW214677   4.598   3.561   1.282 -0.2602 -0.3204  3.1628
 4767SOL     OW14678   1.944   0.689   6.382 -0.0313  0.3190  0.0544
 4767SOL    HW114679   1.895   0.759   6.339 -1.6869  0.7810  2.4961
 4767SOL    HW214680   1.954   0.719   6.472  1.7595 -1.3503  0.4669
 4768SOL     OW14681   5.813   4.016   3.508 -0.0956 -0.4400  0.2065
 4768SOL    HW114682   5.871   3.966   3.451 -0.0933  0.6834 -0.8207
 4768SOL    HW214683   5.779   4.086   3.452 -0.9128  0.0734  1.3136
 4769SOL     OW14684   1.782   4.072   3.385 -0.9394 -0.2763 -0.1855
 4769SOL    HW114685   1.751   3.995   3.338 -2.1562 -0.4041  0.7730
 4769SOL    HW214686   1.736   4.069   3.469  0.9234  0.1015  0.9038
 4770SOL     OW14687   3.051   6.300   2.760 -0.3964  0.9413 -0.1114
 4770SOL    HW114688   2.959   6.293   2.783 -0.0567 -0.0705  1.1303
 4770SOL    HW214689   3.097   6.292   2.844  1.0119 -3.8350 -1.0213
 4771SOL     OW14690   5.909   5.521   3.823  0.1427 -0.1791 -0.1389
 4771SOL    HW114691   5.925   5.600   3.875  0.4154 -0.3264  0.0043
 4771SOL    HW214692   5.978   5.521   3.757  1.3636 -1.3098  1.0611
 4772SOL     OW14693   3.116   0.848   0.110  0.0806  0.5531 -0.1401
 4772SOL    HW114694   3.053   0.910   0.073  0.5411  1.4255  0.5150
 4772SOL    HW214695   3.168   0.899   0.171  0.7904 -0.3786  0.0667
 4773SOL     OW14696   5.980   2.303   6.716  0.7056  0.0399  0.4091
 4773SOL    HW114697   5.998   2.368   6.647  0.3479  0.2943  0.5577
 4773SOL    HW214698   6.064   2.293   6.761  1.2072 -0.8409 -0.6660
 4774SOL     OW14699   5.312   3.166   4.463 -0.0818 -0.1397 -0.2624
 4774SOL    HW114700   5.401   3.152   4.432 -0.2052  1.6452 -1.6092
 4774SOL    HW214701   5.259   3.170   4.383 -0.8922  1.6658  0.3045
 4775SOL     OW14702   2.986   1.040   1.589 -0.2266  0.4886  0.1344
 4775SOL    HW114703   2.901   0.998   1.582 -1.3970  2.8867 -2.1314
 4775SOL    HW214704   3.045   0.984   1.538 -1.6336  1.2031 -2.4608
 4776SOL     OW14705   0.913   0.536   1.530 -0.3945  0.3789  0.3451
 4776SOL    HW114706   0.965   0.616   1.534 -1.2538  0.9201  1.0411
 4776SOL    HW214707   0.978   0.465   1.530  0.3576  1.0148  1.9168
 4777SOL     OW14708   2.866   3.981   3.036  0.0491 -0.3332  0.1409
 4777SOL    HW114709   2.851   3.959   2.944 -1.5026 -3.2308  0.9585
 4777SOL    HW214710   2.883   4.075   3.036 -2.5466  0.3001 -2.8343
 4778SOL     OW14711   3.385   2.826   4.090 -0.3304  0.0366 -0.2284
 4778SOL    HW114712   3.302   2.825   4.042 -1.2123  1.2741  1.1843
 4778SOL    HW214713   3.427   2.909   4.064 -0.1648  0.0496  0.0719
 4779SOL     OW14714   1.194   1.371   1.124  0.0023 -0.0326 -0.4913
 4779SOL    HW114715   1.269   1.431   1.118  1.6135 -2.0066 -1.2666
 4779SOL    HW214716   1.222   1.304   1.186 -0.9756 -1.0322 -1.1016
 4780SOL     OW14717   2.940   3.474   2.745  0.4467 -0.4501  0.0958
 4780SOL    HW114718   3.020   3.478   2.691  1.3368  0.4276  1.4183
 4780SOL    HW214719   2.972   3.482   2.835 -1.2531  1.9449  0.5743
 4781SOL     OW14720   4.119   4.137   5.725  0.2505 -0.2051  0.3980
 4781SOL    HW114721   4.152   4.214   5.772 -1.4090  1.3178 -0.7653
 4781SOL    HW214722   4.042   4.170   5.678  1.5800 -1.6375 -3.1096
 4782SOL     OW14723   1.110   5.239   4.373  0.2488  0.4147 -0.9039
 4782SOL    HW114724   1.147   5.216   4.288 -0.8162  2.3628 -1.9476
 4782SOL    HW214725   1.186   5.250   4.430  1.0617  0.6610 -2.0061
 4783SOL     OW14726   3.364   1.532   4.328  0.2379  0.2097  1.0528
 4783SOL    HW114727   3.410   1.546   4.411  0.4420 -1.8249  1.3283
 4783SOL    HW214728   3.355   1.437   4.321  0.8580  0.2710 -1.5989
 4784SOL     OW14729   5.375   3.356   0.313 -0.0899  0.3136  0.6156
 4784SOL    HW114730   5.349   3.427   0.255  1.2067 -0.8694 -1.5213
 4784SOL    HW214731   5.409   3.400   0.391  0.5378  2.0286 -0.5654
 4785SOL     OW14732   1.395   1.053   5.017  0.2967  0.1373  0.1932
 4785SOL    HW114733   1.353   1.075   4.934 -0.4680  0.1065  0.5626
 4785SOL    HW214734   1.416   1.138   5.057 -0.2894  0.1698  0.4394
 4786SOL     OW14735   2.574   6.433   4.917 -0.3205 -0.1782  0.0133
 4786SOL    HW114736   2.581   6.528   4.907  0.5256 -0.1327  0.8850
 4786SOL    HW214737   2.656   6.399   4.881 -0.1961 -0.4944  0.5798
 4787SOL     OW14738   6.189   1.347   5.057 -0.1954  0.0631 -0.1874
 4787SOL    HW114739   6.238   1.301   4.990 -0.1094 -0.3534  0.1549
 4787SOL    HW214740   6.097   1.340   5.030 -0.2885 -1.2389  0.4067
 4788SOL     OW14741   0.048   0.094   6.589 -0.4807  0.2161  0.1150
 4788SOL    HW114742   0.028   0.094   6.495  1.2415  0.1577 -0.2994
 4788SOL    HW214743   0.078   0.183   6.607  0.7827 -0.2051  0.1994
 4789SOL     OW14744   4.747   4.932   6.039 -0.0908 -0.2758  0.1941
 4789SOL    HW114745   4.728   5.019   6.074  0.4233 -0.2838  0.4936
 4789SOL    HW214746   4.821   4.945   5.980  0.0394 -0.5275  0.3017
 4790SOL     OW14747   6.825   3.711   5.248 -0.5885 -0.5852  0.8192
 4790SOL    HW114748   6.887   3.663   5.194  0.5948  1.4337  0.2753
 4790SOL    HW214749   6.875   3.737   5.326 -0.7215  0.9768  0.4239
 4791SOL     OW14750   4.374   0.710   1.495  0.3324  0.1425  0.1749
 4791SOL    HW114751   4.329   0.765   1.431  0.5835  0.8773  0.6194
 4791SOL    HW214752   4.437   0.660   1.444 -1.4467 -1.4548 -0.5854
 4792SOL     OW14753   4.517   3.694   5.006 -0.1470  0.5749  0.1785
 4792SOL    HW114754   4.488   3.733   4.923  0.2997  1.2235  0.3221
 4792SOL    HW214755   4.606   3.664   4.989  0.0419  0.9482  0.4981
 4793SOL     OW14756   0.715   6.046   3.904  0.7025 -0.9357  0.0351
 4793SOL    HW114757   0.638   6.102   3.915 -0.6316 -2.6834  0.1381
 4793SOL    HW214758   0.740   6.059   3.813  1.1222  0.6333  0.3458
 4794SOL     OW14759   5.873   4.237   2.982  0.1299 -0.3366  0.5558
 4794SOL    HW114760   5.789   4.282   2.973 -0.5178 -1.6708 -0.4044
 4794SOL    HW214761   5.935   4.291   2.933 -0.2222  0.4696  0.9790
 4795SOL     OW14762   0.226   5.099   5.163 -0.1208  0.8177  0.1365
 4795SOL    HW114763   0.142   5.131   5.198 -1.0156  0.0319 -1.2059
 4795SOL    HW214764   0.201   5.027   5.104  1.6900 -1.7752  2.2699
 4796SOL     OW14765   2.448   4.365   3.570 -0.0333  0.0256  0.5852
 4796SOL    HW114766   2.355   4.344   3.568 -0.0047 -0.2415  1.6143
 4796SOL    HW214767   2.485   4.318   3.496 -1.0300  1.7814 -1.1289
 4797SOL     OW14768   0.493   2.588   5.276  0.2911  0.2060  0.4807
 4797SOL    HW114769   0.487   2.656   5.209 -0.8065  0.3776  0.7393
 4797SOL    HW214770   0.572   2.540   5.253 -0.3423 -0.0812 -1.2573
 4798SOL     OW14771   2.277   0.115   0.540 -0.4954  0.4275  0.4452
 4798SOL    HW114772   2.354   0.143   0.591  0.8883 -1.0628 -0.7175
 4798SOL    HW214773   2.215   0.086   0.606  0.4180  0.5328  1.3885
 4799SOL     OW14774   3.254   6.034   2.953 -0.0815 -0.2635  0.1273
 4799SOL    HW114775   3.350   6.044   2.950 -0.0296 -0.9135 -2.0323
 4799SOL    HW214776   3.226   6.051   2.863 -2.2224  1.6677  1.0818
 4800SOL     OW14777   5.302   0.859   2.968  0.0037 -0.1237 -0.4034
 4800SOL    HW114778   5.279   0.886   2.879 -0.7195  2.1041  0.3702
 4800SOL    HW214779   5.366   0.924   2.997 -0.4908 -0.2317  1.0178
 4801SOL     OW14780   0.125   1.907   1.561 -0.4969 -0.2965 -0.3702
 4801SOL    HW114781   0.053   1.959   1.599 -0.1855  0.4012 -0.7057
 4801SOL    HW214782   0.172   1.873   1.636  0.1254  1.0852 -0.1020
 4802SOL     OW14783   0.400   0.564   2.956 -0.0044  0.3019 -0.0442
 4802SOL    HW114784   0.468   0.503   2.926  1.5669  0.4119  2.9331
 4802SOL    HW214785   0.443   0.649   2.958 -0.5175  0.5563  0.8967
 4803SOL     OW14786   5.842   4.498   4.013 -0.0314 -0.0176  0.5837
 4803SOL    HW114787   5.826   4.505   3.919  1.8136 -1.1979  0.1263
 4803SOL    HW214788   5.824   4.406   4.034  1.7643 -0.3458  0.8764
 4804SOL     OW14789   6.696   0.927   4.002  0.1225  0.2722 -0.2431
 4804SOL    HW114790   6.747   0.859   3.959  1.0211 -0.5994  2.0685
 4804SOL    HW214791   6.760   0.993   4.028 -0.4697  1.0317 -0.6547
 4805SOL     OW14792   1.920   0.011   2.070 -0.0423  0.4427  0.4760
 4805SOL    HW114793   1.864   0.006   1.992 -1.2573 -0.2931  1.3587
 4805SOL    HW214794   1.996  -0.042   2.048 -0.6548 -0.2649  0.0111
 4806SOL     OW14795   3.305   1.408   6.046  0.2341  0.4725 -0.6421
 4806SOL    HW114796   3.257   1.415   5.963  0.5252  0.1915 -0.8365
 4806SOL    HW214797   3.388   1.365   6.022  0.2258  0.1900 -0.1685
 4807SOL     OW14798   4.439   1.400   1.868 -0.0338  0.5774  0.1506
 4807SOL    HW114799   4.373   1.332   1.884 -0.7989  1.5323  1.2895
 4807SOL    HW214800   4.522   1.354   1.869 -0.3989 -0.1356  2.5360
 4808SOL     OW14801   1.469   2.704   3.370  0.6055 -0.1374  0.4448
 4808SOL    HW114802   1.441   2.630   3.423  0.2798 -0.1837  0.2050
 4808SOL    HW214803   1.394   2.763   3.368  0.5750 -0.1882 -0.0649
 4809SOL     OW14804   4.068   1.182   4.979 -0.0494 -0.2490 -0.0224
 4809SOL    HW114805   4.013   1.176   5.057  0.3639 -0.4287  0.2637
 4809SOL    HW214806   4.113   1.097   4.975  0.1451 -0.1366 -0.2936
 4810SOL     OW14807   3.975   4.450   5.104 -0.0232 -0.1593 -0.0293
 4810SOL    HW114808   4.012   4.538   5.110 -1.0811  0.4242 -1.4096
 4810SOL    HW214809   3.936   4.435   5.190  0.8681  0.3699  0.4934
 4811SOL     OW14810   2.824   1.511   2.855  0.3942  0.2899  0.2846
 4811SOL    HW114811   2.737   1.510   2.814  0.1210  2.0316  0.7454
 4811SOL    HW214812   2.812   1.465   2.938  0.2290 -0.5310 -0.1728
 4812SOL     OW14813   6.837   2.480   2.369 -0.4072  0.2740  0.0041
 4812SOL    HW114814   6.807   2.403   2.418 -1.2597 -1.0197 -2.3592
 4812SOL    HW214815   6.764   2.542   2.376 -1.6308 -0.8906 -1.5694
 4813SOL     OW14816   3.356   1.241   4.285 -0.4020 -0.6010 -0.0893
 4813SOL    HW114817   3.435   1.229   4.233 -1.4844 -0.7868 -1.7493
 4813SOL    HW214818   3.297   1.171   4.257 -1.4905  0.0512  0.4781
 4814SOL     OW14819   3.689   1.787   4.350 -0.2467 -0.1232  0.2609
 4814SOL    HW114820   3.730   1.735   4.420 -1.1727 -1.6171 -0.2554
 4814SOL    HW214821   3.761   1.835   4.310  0.7687 -1.4741  0.3937
 4815SOL     OW14822   2.889   0.359   1.286 -0.3777 -0.1281  0.0303
 4815SOL    HW114823   2.875   0.432   1.226 -1.6105 -1.7122 -1.7443
 4815SOL    HW214824   2.814   0.361   1.345 -0.2926  0.1555  0.1312
 4816SOL     OW14825   6.467   1.526   0.891  0.1040 -0.2537 -0.1837
 4816SOL    HW114826   6.490   1.434   0.883  0.2406 -0.1197 -1.5516
 4816SOL    HW214827   6.378   1.532   0.856 -0.0322  0.0863  0.2074
 4817SOL     OW14828   2.341   2.383   1.239  0.3241  0.3348 -0.2211
 4817SOL    HW114829   2.261   2.339   1.267  1.0453 -0.2431  0.9986
 4817SOL    HW214830   2.317   2.476   1.236 -0.5240  0.1250 -0.3868
 4818SOL     OW14831   5.157   0.070   4.465  0.0038  0.1348  0.5992
 4818SOL    HW114832   5.091   0.025   4.412 -1.8510  1.5976  1.5303
 4818SOL    HW214833   5.177   0.149   4.415  0.2531  0.2079  0.8148
 4819SOL     OW14834   5.060   3.960   1.593  0.4036  0.2990 -0.1511
 4819SOL    HW114835   5.012   4.003   1.523 -0.2145 -0.3718 -0.1473
 4819SOL    HW214836   5.152   3.975   1.572  0.2401 -0.3598 -1.4172
 4820SOL     OW14837   6.811   0.288   2.329  0.5689 -0.2889 -0.1101
 4820SOL    HW114838   6.857   0.363   2.293 -1.2947  0.5454 -0.8620
 4820SOL    HW214839   6.725   0.289   2.288  0.2022 -2.4037  0.4317
 4821SOL     OW14840   5.704   2.242   6.740 -0.3470 -0.4850  0.4159
 4821SOL    HW114841   5.658   2.284   6.814 -0.5199 -1.2818  0.7757
 4821SOL    HW214842   5.796   2.262   6.755 -0.3749 -0.6853  0.8874
 4822SOL     OW14843   3.409   4.034   6.517  0.2749 -0.2699 -0.1203
 4822SOL    HW114844   3.488   3.988   6.544  1.0856 -1.0980 -3.3638
 4822SOL    HW214845   3.376   3.983   6.443 -2.1316  1.2262 -0.2086
 4823SOL     OW14846   4.828   2.318   4.532 -0.3859 -0.3088  0.7775
 4823SOL    HW114847   4.751   2.263   4.523 -0.1106 -0.8562  1.6598
 4823SOL    HW214848   4.897   2.258   4.561  0.3661  0.1762  0.0395
 4824SOL     OW14849   5.561   0.200   5.821 -0.0880  0.3892  0.0800
 4824SOL    HW114850   5.580   0.284   5.778 -2.4091  1.4899  1.0526
 4824SOL    HW214851   5.542   0.140   5.749 -0.6299  1.3206 -0.5734
 4825SOL     OW14852   1.066   6.473   0.377  0.0222 -0.1217 -0.4604
 4825SOL    HW114853   0.985   6.482   0.428  0.9590  1.1140  0.8698
 4825SOL    HW214854   1.113   6.402   0.420  0.9171  1.0728  0.6143
 4826SOL     OW14855   1.868   4.020   5.867 -0.0844  0.4363 -0.1860
 4826SOL    HW114856   1.873   4.047   5.959 -0.9147 -1.0478  0.3261
 4826SOL    HW214857   1.953   4.046   5.830  0.0726  1.4999  0.8518
 4827SOL     OW14858   4.676   4.268   3.165  0.3686 -0.4244  0.1392
 4827SOL    HW114859   4.612   4.278   3.094  1.2470  3.2109 -0.3002
 4827SOL    HW214860   4.758   4.299   3.128  1.5698 -1.3494  1.8851
 4828SOL     OW14861   3.342   5.707   5.166  0.0247 -0.1664  0.2813
 4828SOL    HW114862   3.295   5.760   5.101  1.7882  0.4665 -0.5468
 4828SOL    HW214863   3.402   5.769   5.208  1.6003 -1.3174 -0.1733
 4829SOL     OW14864   1.384   2.946   6.005  0.5037 -0.3172  0.0961
 4829SOL    HW114865   1.325   2.893   5.951 -0.5497  0.1373  0.7716
 4829SOL    HW214866   1.450   2.884   6.037 -1.3031 -1.4874  1.7362
 4830SOL     OW14867   5.013   4.017   6.243  0.7595 -0.3140 -0.1923
 4830SOL    HW114868   5.088   3.958   6.239 -0.9620 -2.6383  0.1784
 4830SOL    HW214869   4.937   3.961   6.226 -0.8721  2.0947 -1.4207
 4831SOL     OW14870   0.074   1.076   4.117  0.0150 -0.4373 -0.2696
 4831SOL    HW114871   0.073   1.064   4.213  0.8174 -0.4154 -0.2497
 4831SOL    HW214872   0.166   1.086   4.096 -0.1896 -0.1018 -1.0151
 4832SOL     OW14873   3.693   5.967   1.829  0.1098  0.7433  0.4911
 4832SOL    HW114874   3.608   5.989   1.867  0.1231  1.3432  0.1830
 4832SOL    HW214875   3.673   5.931   1.743  0.2348  3.1120 -0.6274
 4833SOL     OW14876   6.079   2.992   1.328  0.1109 -0.0692  0.0117
 4833SOL    HW114877   6.064   3.044   1.406  1.3064  1.1922 -0.5458
 4833SOL    HW214878   6.137   2.921   1.357  1.1576  0.8117  0.1684
 4834SOL     OW14879   4.014   0.732   4.648  0.5352 -0.2031 -0.2033
 4834SOL    HW114880   3.960   0.676   4.703  0.6332 -1.6057 -1.4671
 4834SOL    HW214881   4.103   0.701   4.663  0.9459  1.4064  1.0726
 4835SOL     OW14882   2.566   0.450   5.499  0.8762  0.0114 -0.6178
 4835SOL    HW114883   2.481   0.443   5.542  0.4452 -1.6299 -1.6274
 4835SOL    HW214884   2.630   0.450   5.571  0.0880 -0.3207  0.0975
 4836SOL     OW14885   2.664   2.636   3.979 -0.4600 -0.2059 -0.0306
 4836SOL    HW114886   2.755   2.626   3.950 -0.6570  0.8284 -1.0851
 4836SOL    HW214887   2.647   2.558   4.032  1.2491 -0.0886  0.7772
 4837SOL     OW14888   3.933   1.302   0.214 -0.4127  0.1273  0.1232
 4837SOL    HW114889   3.847   1.262   0.227 -0.1449 -0.7080 -0.5380
 4837SOL    HW214890   3.992   1.227   0.201  0.4753  0.6724  0.9155
 4838SOL     OW14891   1.119   0.637   0.405 -0.1512  0.2777  0.2700
 4838SOL    HW114892   1.155   0.576   0.341  0.1933 -0.4489  1.1219
 4838SOL    HW214893   1.083   0.580   0.474  0.0617  1.0265  1.0197
 4839SOL     OW14894   2.701   6.038   1.175 -0.2319 -0.0285 -0.3661
 4839SOL    HW114895   2.639   6.080   1.115 -0.1019 -1.1191 -1.2868
 4839SOL    HW214896   2.785   6.043   1.130 -0.0978 -0.6994 -0.1966
 4840SOL     OW14897   4.192   0.031   2.922  0.0196 -0.0943  0.0833
 4840SOL    HW114898   4.151   0.013   2.838  1.3965  0.2724 -0.7104
 4840SOL    HW214899   4.250  -0.044   2.937 -2.8780 -2.0347  2.5612
 4841SOL     OW14900   4.497   3.514   6.109 -0.0691 -0.3492  0.3224
 4841SOL    HW114901   4.407   3.515   6.075  0.6381  0.4650 -1.6935
 4841SOL    HW214902   4.551   3.533   6.032  1.9041 -1.7013  1.2901
 4842SOL     OW14903   5.928   6.345   6.377 -0.2853  0.2411  0.5649
 4842SOL    HW114904   5.894   6.415   6.321  1.2898  2.3909  2.1225
 4842SOL    HW214905   5.882   6.357   6.460  0.8710  0.2233  1.2281
 4843SOL     OW14906   6.077   1.810   1.815  0.3562 -0.1391  0.0155
 4843SOL    HW114907   6.083   1.735   1.874  1.5674 -0.1848 -0.1479
 4843SOL    HW214908   6.135   1.789   1.742 -0.0799  0.5127 -0.5316
 4844SOL     OW14909   3.847   3.096   3.984 -0.0664  0.1174  0.4319
 4844SOL    HW114910   3.847   3.124   3.893 -2.2069  0.5664  0.5283
 4844SOL    HW214911   3.934   3.119   4.016  1.0515 -0.8307 -1.6933
 4845SOL     OW14912   1.446   6.157   5.334  0.0166 -0.4781  0.4065
 4845SOL    HW114913   1.376   6.145   5.397 -0.0765 -0.8725  0.2305
 4845SOL    HW214914   1.517   6.199   5.383  0.1286 -1.2284  0.8929
 4846SOL     OW14915   1.537   4.502   4.863 -0.4020 -0.2097 -0.3041
 4846SOL    HW114916   1.469   4.562   4.833 -0.7548  0.0198  0.8908
 4846SOL    HW214917   1.590   4.484   4.785 -1.5209  0.0113 -1.1342
 4847SOL     OW14918   0.904   4.613   5.929 -0.1459 -0.4943 -0.0320
 4847SOL    HW114919   0.960   4.688   5.948  0.8023 -1.3489  0.6549
 4847SOL    HW214920   0.964   4.539   5.922 -1.0907 -1.2518 -0.3722
 4848SOL     OW14921   5.529   0.963   0.907 -0.0641  0.0964  0.5008
 4848SOL    HW114922   5.542   1.050   0.869 -2.2771  0.4117  0.3082
 4848SOL    HW214923   5.506   0.908   0.832  0.0529 -0.3534  0.7930
 4849SOL     OW14924   0.643   3.080   3.520 -0.1846 -0.0960  0.0279
 4849SOL    HW114925   0.567   3.055   3.467  0.0027 -0.7460  0.0564
 4849SOL    HW214926   0.716   3.030   3.483  0.1893  0.3635  0.1376
 4850SOL     OW14927   4.911   1.830   6.139  0.3825  0.4380  0.4654
 4850SOL    HW114928   4.967   1.889   6.088  0.6451 -0.6909 -0.5876
 4850SOL    HW214929   4.969   1.793   6.204  0.6645 -0.0544 -0.0577
 4851SOL     OW14930   0.348   3.521   2.530 -0.1716  0.1986  0.2192
 4851SOL    HW114931   0.361   3.615   2.514  0.3279  0.1033  0.0521
 4851SOL    HW214932   0.263   3.502   2.492  0.4657  0.2337 -1.3097
 4852SOL     OW14933   3.790   0.512   3.460  0.3040 -0.5217 -0.4789
 4852SOL    HW114934   3.739   0.511   3.380 -0.1288 -1.1242 -0.2025
 4852SOL    HW214935   3.880   0.526   3.431  0.2222 -1.2411 -1.1088
 4853SOL     OW14936   1.546   4.173   4.691  0.5376  0.2924  0.4931
 4853SOL    HW114937   1.511   4.113   4.625 -1.1884 -1.0491  2.4804
 4853SOL    HW214938   1.505   4.257   4.672  1.0071  0.2522 -0.8050
 4854SOL     OW14939   5.308   1.315   3.626  0.0656 -0.1059 -0.2193
 4854SOL    HW114940   5.293   1.392   3.681  0.9661 -0.1509  0.1018
 4854SOL    HW214941   5.252   1.329   3.550 -0.9984  0.0750  0.5861
 4855SOL     OW14942   1.455   5.350   5.782 -0.2392 -0.0766 -0.2624
 4855SOL    HW114943   1.487   5.321   5.867  0.6357 -0.5578 -0.7329
 4855SOL    HW214944   1.521   5.413   5.752 -1.2013  1.0841 -0.0378
 4856SOL     OW14945   5.556   5.921   1.597 -0.3122  0.5243 -0.1330
 4856SOL    HW114946   5.649   5.912   1.576 -0.2180 -1.4310  0.8122
 4856SOL    HW214947   5.511   5.898   1.515  0.0269  1.0775 -0.4807
 4857SOL     OW14948   0.048   3.482   3.904  0.0501 -0.1720  0.2521
 4857SOL    HW114949  -0.029   3.435   3.937  0.6511 -1.0573  0.4172
 4857SOL    HW214950   0.020   3.515   3.819 -0.9169  0.5739  0.8327
 4858SOL     OW14951   3.325   0.176   1.404  0.0360 -0.8347 -0.1902
 4858SOL    HW114952   3.349   0.114   1.474  1.2056  0.1543  0.3210
 4858SOL    HW214953   3.393   0.243   1.408  0.3816 -0.9555 -2.5547
 4859SOL     OW14954   4.314   5.766   3.451 -0.1045 -0.5238 -0.1211
 4859SOL    HW114955   4.405   5.751   3.479  0.2956  1.7311 -0.0175
 4859SOL    HW214956   4.280   5.678   3.434  1.8166 -1.5004  0.6742
 4860SOL     OW14957   1.402   6.511   1.814  0.1956  0.1704  0.0350
 4860SOL    HW114958   1.434   6.468   1.735  0.8711 -0.0126  0.4032
 4860SOL    HW214959   1.333   6.569   1.783 -0.8108 -1.2397 -0.4730
 4861SOL     OW14960   4.573   6.356   0.454 -0.1463 -0.6610  0.2612
 4861SOL    HW114961   4.480   6.379   0.464 -0.2145 -1.1247  0.7558
 4861SOL    HW214962   4.603   6.410   0.381 -1.3186 -1.9510 -1.2769
 4862SOL     OW14963   5.247   0.946   1.974  0.2605 -0.1888 -0.1074
 4862SOL    HW114964   5.336   0.951   2.011 -0.0019 -0.3171  0.5667
 4862SOL    HW214965   5.236   1.027   1.925  1.2205 -0.7428 -1.2950
 4863SOL     OW14966   0.310   2.628   6.002  0.3152  0.2136  0.0699
 4863SOL    HW114967   0.247   2.695   6.029  0.2234 -0.2673  1.1243
 4863SOL    HW214968   0.263   2.573   5.940  0.0572  0.5256 -0.0106
 4864SOL     OW14969   2.040   3.162   4.492  0.8704 -0.6460  0.1003
 4864SOL    HW114970   2.033   3.069   4.513  0.6743 -0.5187  0.6147
 4864SOL    HW214971   1.964   3.202   4.534  2.2012  0.0889  1.9336
 4865SOL     OW14972   0.130   4.601   4.819 -0.1334  0.0045 -0.4411
 4865SOL    HW114973   0.042   4.566   4.827  0.2451 -0.7243  0.7807
 4865SOL    HW214974   0.178   4.564   4.893  0.4491  2.7562  0.6789
 4866SOL     OW14975   4.673   5.706   1.859  0.3494  0.1792  0.1658
 4866SOL    HW114976   4.614   5.632   1.844 -0.8761  1.0590  0.5300
 4866SOL    HW214977   4.727   5.710   1.780  2.0767 -2.5244  1.0688
 4867SOL     OW14978   0.177   4.354   2.770 -0.0684 -0.1096  0.1276
 4867SOL    HW114979   0.084   4.348   2.792  0.0900  3.0830  2.1663
 4867SOL    HW214980   0.180   4.410   2.692  0.1825 -0.0077  0.2114
 4868SOL     OW14981   0.023   1.030   2.964  0.7714  0.6655  0.2276
 4868SOL    HW114982  -0.062   1.020   2.923  0.6109 -0.3798  0.7794
 4868SOL    HW214983   0.077   1.073   2.898 -0.0671  0.9649 -0.2728
 4869SOL     OW14984   4.726   4.858   3.508 -0.0319  0.0621  0.4360
 4869SOL    HW114985   4.781   4.906   3.447  0.8474 -1.8474 -0.3495
 4869SOL    HW214986   4.641   4.850   3.463  0.2057 -0.1734  0.0195
 4870SOL     OW14987   3.872   6.816   5.491 -0.2797  0.0406 -0.2898
 4870SOL    HW114988   3.819   6.753   5.443 -1.7142  1.9442 -1.3567
 4870SOL    HW214989   3.812   6.854   5.555  1.0575 -0.9649  1.6671
 4871SOL     OW14990   6.015   6.147   3.988 -0.7698  0.0145 -0.3778
 4871SOL    HW114991   6.064   6.068   4.010 -2.1791 -0.2266  2.2780
 4871SOL    HW214992   6.055   6.179   3.907  1.3107 -2.1505 -0.2856
 4872SOL     OW14993   1.999   3.341   2.685 -0.1439 -0.4456 -0.0004
 4872SOL    HW114994   1.978   3.283   2.611  1.0649 -0.9333  0.0134
 4872SOL    HW214995   2.023   3.424   2.643  0.8091 -0.8041 -0.1946
 4873SOL     OW14996   2.930   3.942   3.963  0.2663  0.0967  0.0683
 4873SOL    HW114997   2.889   3.994   3.894  0.0370  1.6199  1.3023
 4873SOL    HW214998   2.883   3.858   3.961  0.1697  0.1633 -1.4955
 4874SOL     OW14999   6.566   1.621   3.893 -0.0048  0.1874 -0.1284
 4874SOL    HW115000   6.599   1.547   3.944 -0.0941 -0.3399 -0.8233
 4874SOL    HW215001   6.622   1.694   3.918  1.3102 -0.5483 -0.8234
 4875SOL     OW15002   1.245   2.692   5.553  0.3456 -0.3500  0.3012
 4875SOL    HW115003   1.156   2.718   5.529  0.4433 -1.4018 -1.4055
 4875SOL    HW215004   1.248   2.598   5.534  1.5689 -0.5052  1.1554
 4876SOL     OW15005   0.829   2.378   3.735  0.3004  0.1211  0.1785
 4876SOL    HW115006   0.798   2.457   3.691  0.8836  0.7858  0.9330
 4876SOL    HW215007   0.819   2.308   3.670 -0.2393  0.8060 -0.4887
 4877SOL     OW15008   5.354   3.596   0.181 -0.2901 -0.4430 -0.1682
 4877SOL    HW115009   5.341   3.690   0.180 -0.0216 -0.3887  0.8881
 4877SOL    HW215010   5.323   3.567   0.094 -2.4633  0.3386  0.2805
 4878SOL     OW15011   1.805   5.105   1.846  0.4996  0.0434  0.4428
 4878SOL    HW115012   1.840   5.183   1.889  1.0560  0.1365 -0.1580
 4878SOL    HW215013   1.780   5.047   1.919 -2.4205  1.7761  0.9761
 4879SOL     OW15014   1.869   4.332   0.092 -0.4122 -0.3172  0.1446
 4879SOL    HW115015   1.958   4.299   0.105 -0.4804 -0.5080  0.1219
 4879SOL    HW215016   1.843   4.366   0.177 -0.0393  0.4180 -0.0180
 4880SOL     OW15017   4.782   1.066   0.179  0.3558 -0.4069  0.1481
 4880SOL    HW115018   4.767   1.018   0.260  0.6194 -0.8325 -0.0486
 4880SOL    HW215019   4.861   1.118   0.196 -0.1528  0.2551  0.4915
 4881SOL     OW15020   1.696   4.871   1.194 -0.0724 -0.2681  0.7272
 4881SOL    HW115021   1.613   4.824   1.201 -0.6910  0.8143  0.8716
 4881SOL    HW215022   1.672   4.959   1.166  0.6987  1.0314  3.7769
 4882SOL     OW15023   4.715   5.095   3.265  0.0502 -0.0138 -0.0818
 4882SOL    HW115024   4.705   5.002   3.283 -0.4555  0.0555  0.0123
 4882SOL    HW215025   4.766   5.099   3.184  1.5187 -0.3512  0.7914
 4883SOL     OW15026   1.020   1.650   0.398 -0.2319  0.0054  0.0139
 4883SOL    HW115027   0.963   1.573   0.408 -0.1381  0.1737  2.3693
 4883SOL    HW215028   0.964   1.716   0.359 -1.3133 -0.2385  1.0986
 4884SOL     OW15029   2.407   1.629   3.644  0.0823  0.5943  0.0025
 4884SOL    HW115030   2.425   1.634   3.738  2.0682 -1.6048 -0.1760
 4884SOL    HW215031   2.469   1.690   3.604  0.7516 -0.0737  0.0029
 4885SOL     OW15032   5.678   1.642   6.349  0.6637 -0.7740  0.5337
 4885SOL    HW115033   5.765   1.642   6.310  0.5896  0.4041  0.3480
 4885SOL    HW215034   5.628   1.705   6.298 -1.1520 -3.3562 -1.1845
 4886SOL     OW15035   2.346   3.602   0.743  0.0986  0.0487  0.3862
 4886SOL    HW115036   2.325   3.694   0.729  0.0898  0.2641  1.6912
 4886SOL    HW215037   2.316   3.558   0.663 -1.4592  0.9340  0.4402
 4887SOL     OW15038   3.500   3.568   2.782  0.5160  0.0848 -0.2888
 4887SOL    HW115039   3.440   3.590   2.711  1.4582 -1.2735 -1.5908
 4887SOL    HW215040   3.446   3.523   2.847  0.1856 -1.9052 -1.8317
 4888SOL     OW15041   3.124   2.201   2.100 -0.2962 -0.1784  0.3483
 4888SOL    HW115042   3.134   2.205   2.195 -1.5893  0.0949  0.4903
 4888SOL    HW215043   3.181   2.130   2.072 -2.7473 -2.9081  1.7799
 4889SOL     OW15044   0.880   4.951   1.227  0.1076 -0.2496 -0.0165
 4889SOL    HW115045   0.913   4.977   1.314  0.2255  1.1233 -0.4446
 4889SOL    HW215046   0.831   5.027   1.196 -0.1667 -0.8272 -1.0493
 4890SOL     OW15047   1.281   3.395   0.278  0.1746 -0.0136 -0.4025
 4890SOL    HW115048   1.216   3.325   0.286  1.4087 -1.3054 -1.1296
 4890SOL    HW215049   1.365   3.351   0.292  0.8842  1.6971  0.9311
 4891SOL     OW15050   5.324   5.440   6.470  0.7799  0.0053 -0.5617
 4891SOL    HW115051   5.229   5.432   6.455  0.5735  1.3434 -0.0827
 4891SOL    HW215052   5.333   5.436   6.565  1.3658 -1.4636 -0.6564
 4892SOL     OW15053   6.128   6.469   1.361 -0.7305 -0.2195 -0.0938
 4892SOL    HW115054   6.041   6.438   1.384 -0.2288 -0.8558  1.0284
 4892SOL    HW215055   6.188   6.409   1.406  0.3006 -0.2343 -1.4170
 4893SOL     OW15056   5.717   0.991   3.642 -0.1640 -0.4330 -0.0062
 4893SOL    HW115057   5.635   1.034   3.614 -0.2975 -0.4019  0.4311
 4893SOL    HW215058   5.754   1.050   3.707 -0.7836 -1.3738  1.2444
 4894SOL     OW15059   1.587   5.733   1.266 -0.5535  0.6980 -0.1134
 4894SOL    HW115060   1.500   5.755   1.232 -0.5208  1.2061  0.1331
 4894SOL    HW215061   1.614   5.657   1.214 -0.2561  1.8120 -1.6402
 4895SOL     OW15062   4.070   5.733   5.360 -0.1285  0.1148  0.2937
 4895SOL    HW115063   4.158   5.736   5.322 -0.2923  1.1340 -0.0279
 4895SOL    HW215064   4.062   5.644   5.393 -1.0006 -1.9588 -4.5529
 4896SOL     OW15065   0.463   5.778   3.070  0.2576  0.2243  0.2860
 4896SOL    HW115066   0.478   5.861   3.115 -0.4693  0.6174 -0.1782
 4896SOL    HW215067   0.397   5.798   3.004 -1.2934 -1.1231  1.3524
 4897SOL     OW15068   3.447   4.076   5.381  0.3005  0.2517  0.3047
 4897SOL    HW115069   3.368   4.023   5.373  1.2229 -1.2701  0.7520
 4897SOL    HW215070   3.416   4.163   5.404 -1.2594 -0.1921 -0.0070
 4898SOL     OW15071   1.563   2.909   1.154  0.3368  0.2779  0.2625
 4898SOL    HW115072   1.518   2.982   1.197  0.8173 -0.0221  1.3108
 4898SOL    HW215073   1.552   2.836   1.215 -0.0290 -0.5080 -0.7105
 4899SOL     OW15074   5.643   1.645   3.342  0.2568 -0.0435 -0.1859
 4899SOL    HW115075   5.554   1.663   3.372  0.0784 -1.1382 -0.0429
 4899SOL    HW215076   5.652   1.699   3.263 -0.6652 -0.2007 -0.4119
 4900SOL     OW15077   5.353   2.033   3.147  0.0961  0.3546  0.5278
 4900SOL    HW115078   5.275   1.979   3.142  1.1369 -1.2219  0.4207
 4900SOL    HW215079   5.326   2.112   3.194 -1.4772 -0.2690  0.7102
 4901SOL     OW15080   5.276   0.777   2.285  0.5888 -0.2141  0.1274
 4901SOL    HW115081   5.187   0.782   2.319  0.1332  0.9326 -1.1445
 4901SOL    HW215082   5.271   0.713   2.214  0.5750  0.4109 -0.4521
 4902SOL     OW15083   1.853   5.354   5.882  0.0824  0.5442 -0.0002
 4902SOL    HW115084   1.948   5.350   5.888  0.1210  1.1113 -0.1463
 4902SOL    HW215085   1.825   5.390   5.967  0.0686  1.2817 -0.3161
 4903SOL     OW15086   2.632   0.780   2.331  0.1961  0.0796  0.0792
 4903SOL    HW115087   2.669   0.868   2.319  1.6248 -0.5945 -0.8895
 4903SOL    HW215088   2.567   0.772   2.261 -0.8544  0.7905  0.9459
 4904SOL     OW15089   6.349   5.769   4.547  0.5864 -0.6276  0.1839
 4904SOL    HW115090   6.418   5.759   4.481 -1.2189 -1.1377 -1.7120
 4904SOL    HW215091   6.335   5.864   4.552  3.2924 -0.2007  2.7433
 4905SOL     OW15092   5.240   1.051   3.161 -0.1035 -0.0429  0.3569
 4905SOL    HW115093   5.200   0.977   3.116  1.6276 -0.9668  0.2587
 4905SOL    HW215094   5.258   1.019   3.249  0.8527  0.1793  0.2533
 4906SOL     OW15095   5.936   1.967   0.962  0.2166 -0.4354 -0.0784
 4906SOL    HW115096   5.901   1.990   0.875 -0.4037 -1.7119 -0.1947
 4906SOL    HW215097   5.883   2.017   1.023  0.4921  0.2842 -0.4131
 4907SOL     OW15098   3.655   1.881   4.689  0.6301 -0.2932 -0.4308
 4907SOL    HW115099   3.704   1.940   4.746 -1.4680  1.5580 -0.3738
 4907SOL    HW215100   3.698   1.886   4.605 -0.1948  2.4161 -0.7694
 4908SOL     OW15101   2.713   0.060   1.401  0.4724  0.0128 -0.0967
 4908SOL    HW115102   2.788   0.109   1.369 -1.7058  1.7466 -3.0001
 4908SOL    HW215103   2.733  -0.032   1.381  1.9342  0.3889 -0.4410
 4909SOL     OW15104   4.796   1.925   1.085  0.7687 -0.4476 -0.4590
 4909SOL    HW115105   4.794   1.864   1.011  1.5473 -0.3127 -0.5953
 4909SOL    HW215106   4.709   1.964   1.086  0.1351 -1.8129 -0.1643
 4910SOL     OW15107   1.493   6.702   4.387  0.3503 -0.5601  0.0230
 4910SOL    HW115108   1.531   6.781   4.426  1.3401 -0.3901 -1.2151
 4910SOL    HW215109   1.399   6.711   4.402  0.4838  0.6459  0.2655
 4911SOL     OW15110   2.257   0.293   3.754 -0.3329  0.0648 -0.1001
 4911SOL    HW115111   2.346   0.289   3.719 -0.0501 -0.3156  0.6371
 4911SOL    HW215112   2.215   0.213   3.724 -0.6027  0.4938 -0.8908
 4912SOL     OW15113   0.362   4.822   6.363  0.4603 -0.3007  0.2988
 4912SOL    HW115114   0.379   4.854   6.451  0.0083 -2.7452  1.3366
 4912SOL    HW215115   0.278   4.863   6.339 -0.3907 -1.0982  1.7960
 4913SOL     OW15116   1.380   6.153   5.080 -0.1172  0.3637 -0.4136
 4913SOL    HW115117   1.421   6.234   5.048 -0.1242  1.4069  1.9459
 4913SOL    HW215118   1.422   6.138   5.165 -1.7518 -0.8257  0.2270
 4914SOL     OW15119   2.264   5.081   1.296  0.0013  0.0612 -0.6460
 4914SOL    HW115120   2.318   5.015   1.254 -0.6915 -0.7683 -0.2660
 4914SOL    HW215121   2.278   5.068   1.390 -0.6094  0.0431 -0.5541
 4915SOL     OW15122   4.757   1.612   5.866  0.1062  0.1476 -0.2265
 4915SOL    HW115123   4.793   1.700   5.855 -0.2958  0.1648 -1.6099
 4915SOL    HW215124   4.810   1.557   5.809 -0.7440 -0.1883 -0.7050
 4916SOL     OW15125   1.847   3.245   3.946  0.2151  0.4078  0.1375
 4916SOL    HW115126   1.902   3.257   4.023 -2.1931  0.6308  1.9161
 4916SOL    HW215127   1.845   3.150   3.932  1.3508  0.4218 -0.2234
 4917SOL     OW15128   3.515   6.383   3.168  0.8563  0.0565  0.5439
 4917SOL    HW115129   3.486   6.313   3.109 -0.9018  1.2147 -0.0364
 4917SOL    HW215130   3.532   6.339   3.251  0.6802 -1.1943 -0.0603
 4918SOL     OW15131   6.778   1.305   1.732  0.3692 -0.5109  0.8235
 4918SOL    HW115132   6.689   1.269   1.734  0.7338 -1.4642  0.6372
 4918SOL    HW215133   6.813   1.275   1.648  1.4192 -1.5507  1.6075
 4919SOL     OW15134   6.191   2.625   4.268 -0.5647 -0.0183  0.3928
 4919SOL    HW115135   6.183   2.672   4.185  0.3174  0.7395  0.7202
 4919SOL    HW215136   6.114   2.652   4.318 -0.7403  0.0591  0.0822
 4920SOL     OW15137   3.915   5.366   5.612  0.3027  0.2724  0.2216
 4920SOL    HW115138   3.918   5.287   5.667 -0.5152 -0.9543 -1.3848
 4920SOL    HW215139   3.937   5.438   5.671  4.7696 -1.4476  1.1056
 4921SOL     OW15140   4.094   6.778   1.680 -0.2665  0.0035 -0.1094
 4921SOL    HW115141   4.031   6.713   1.710 -0.6684  0.7263  0.6531
 4921SOL    HW215142   4.135   6.810   1.759  0.4449  0.1706 -0.5367
 4922SOL     OW15143   1.119   3.320   3.112 -0.1221 -0.4183 -0.9159
 4922SOL    HW115144   1.213   3.334   3.123 -0.0446 -2.0741  1.0259
 4922SOL    HW215145   1.113   3.243   3.055 -0.2423 -1.2999  0.2616
 4923SOL     OW15146   6.330   6.076   3.951  0.0107  0.2570  0.0397
 4923SOL    HW115147   6.362   5.986   3.943 -0.6765  0.0228 -0.1451
 4923SOL    HW215148   6.378   6.124   3.884  1.8045  0.4560  1.3775
 4924SOL     OW15149   0.771   4.398   4.603  0.2634 -0.0712 -0.3860
 4924SOL    HW115150   0.726   4.367   4.525  1.9116 -0.3641 -1.2813
 4924SOL    HW215151   0.703   4.405   4.670 -1.1197 -0.1911 -1.7321
 4925SOL     OW15152   3.300   6.744   0.181 -0.6210  0.1034 -0.1506
 4925SOL    HW115153   3.252   6.723   0.101  0.0918  0.0681 -0.5780
 4925SOL    HW215154   3.281   6.837   0.196  0.6438  0.6105 -1.3770
 4926SOL     OW15155   3.652   0.704   3.027  0.2142  0.0429  0.3919
 4926SOL    HW115156   3.613   0.791   3.035 -0.2799 -0.1398  0.0810
 4926SOL    HW215157   3.576   0.645   3.023  0.5468 -0.4216  0.8160
 4927SOL     OW15158   1.220   2.199   0.084 -0.1098  0.2913  0.0749
 4927SOL    HW115159   1.277   2.276   0.082  1.7761 -1.0404  0.0013
 4927SOL    HW215160   1.137   2.232   0.118  0.6403  2.3406  0.0788
 4928SOL     OW15161   5.938   1.631   2.226 -0.3963  0.1766  0.3433
 4928SOL    HW115162   5.958   1.724   2.214 -0.9263 -0.0189 -2.8666
 4928SOL    HW215163   5.855   1.631   2.274 -0.3540  1.3462  0.4615
 4929SOL     OW15164   3.787   5.559   2.841  0.0043 -0.4958  0.8583
 4929SOL    HW115165   3.842   5.484   2.821 -0.8792 -1.4159  1.7219
 4929SOL    HW215166   3.761   5.594   2.756  3.7407  1.4789  0.3017
 4930SOL     OW15167   2.382   3.045   4.174 -0.5803 -0.3449  0.6313
 4930SOL    HW115168   2.288   3.035   4.161 -0.9203  0.3404  2.2491
 4930SOL    HW215169   2.416   2.956   4.171 -1.1736 -0.5429 -0.5970
 4931SOL     OW15170   0.990   3.264   4.974  0.2453 -0.5396  0.4295
 4931SOL    HW115171   0.977   3.249   5.067  1.4899 -0.6518  0.6018
 4931SOL    HW215172   1.044   3.342   4.969 -0.2394 -0.2304 -0.2306
 4932SOL     OW15173   2.204   1.065   4.208 -0.0661 -0.5898 -0.5640
 4932SOL    HW115174   2.129   1.010   4.186  1.3191 -2.0369 -1.9385
 4932SOL    HW215175   2.280   1.015   4.177  1.4002  1.2683 -0.1330
 4933SOL     OW15176   1.915   6.277   5.598 -0.9033 -0.5934  0.5363
 4933SOL    HW115177   1.996   6.227   5.589  0.3680  1.6207 -1.3589
 4933SOL    HW215178   1.942   6.361   5.634 -2.4059  0.1007  0.1443
 4934SOL     OW15179   4.771   0.990   2.734 -0.2128 -0.0341  1.2128
 4934SOL    HW115180   4.830   1.040   2.678  0.2251  0.2715  1.9198
 4934SOL    HW215181   4.790   1.022   2.823 -1.5736  0.1820  1.4376
 4935SOL     OW15182   5.307   2.629   1.718 -0.2533 -0.0297  0.0627
 4935SOL    HW115183   5.270   2.544   1.741 -0.1546 -0.1587 -0.2523
 4935SOL    HW215184   5.235   2.677   1.678 -1.0109  0.9404  2.3882
 4936SOL     OW15185   0.206   1.274   2.403  0.9119  0.5115  0.4219
 4936SOL    HW115186   0.220   1.214   2.329 -1.2923  0.0052  0.3496
 4936SOL    HW215187   0.271   1.247   2.468  2.0168  0.1003 -0.8103
 4937SOL     OW15188   0.855   0.790   1.630 -0.5705  0.1570  0.3500
 4937SOL    HW115189   0.820   0.719   1.683  1.4632 -2.3649 -1.4121
 4937SOL    HW215190   0.950   0.779   1.635 -0.1922  2.5428 -0.3444
 4938SOL     OW15191   6.260   1.440   4.512  0.6791  0.6632 -0.1811
 4938SOL    HW115192   6.201   1.504   4.471 -1.7692 -2.3370 -1.7468
 4938SOL    HW215193   6.223   1.425   4.599 -1.4439 -1.6063 -1.3488
 4939SOL     OW15194   0.198   5.778   2.961  0.1370  1.0951  0.5035
 4939SOL    HW115195   0.146   5.703   2.931  0.2051  1.1496  0.2508
 4939SOL    HW215196   0.207   5.764   3.056  0.8617  0.3407  0.3327
 4940SOL     OW15197   4.097   2.497   3.288  0.0048  0.0929  0.0955
 4940SOL    HW115198   4.097   2.506   3.193 -0.9726 -2.4361 -0.2210
 4940SOL    HW215199   4.168   2.434   3.306 -1.5065 -1.4963  0.7317
 4941SOL     OW15200   6.808   2.502   5.605  0.2799 -0.1082 -0.3117
 4941SOL    HW115201   6.804   2.574   5.542 -0.8102 -1.5098 -1.9121
 4941SOL    HW215202   6.899   2.472   5.602  0.5709  0.7240 -0.1488
 4942SOL     OW15203   6.654   1.687   0.495 -0.5841 -0.0124  0.1976
 4942SOL    HW115204   6.698   1.645   0.421  0.3205  0.7458  0.2943
 4942SOL    HW215205   6.620   1.614   0.546  2.8382 -0.8340  1.5374
 4943SOL     OW15206   0.539   3.601   0.704 -0.0910 -0.1670 -0.4838
 4943SOL    HW115207   0.487   3.645   0.638 -0.0900 -0.9305 -1.0045
 4943SOL    HW215208   0.628   3.598   0.667 -0.1796 -0.9828 -0.6549
 4944SOL     OW15209   0.939   4.594   6.708  0.4695 -0.6928 -0.1004
 4944SOL    HW115210   0.962   4.648   6.632  0.7075 -3.0616 -1.8004
 4944SOL    HW215211   1.024   4.562   6.740  0.2408 -1.1356  0.0600
 4945SOL     OW15212   5.896   5.857   6.446  0.2208  0.3476  0.8868
 4945SOL    HW115213   5.930   5.929   6.394  0.8803 -1.0272 -0.6765
 4945SOL    HW215214   5.803   5.878   6.460 -0.3582  0.1247 -2.0798
 4946SOL     OW15215   1.312   6.757   4.147 -0.3745  0.3315  0.2777
 4946SOL    HW115216   1.315   6.678   4.200 -1.6180  0.0075 -0.1150
 4946SOL    HW215217   1.399   6.796   4.157 -0.2651 -0.2320  1.7502
 4947SOL     OW15218   2.121   3.010   4.211 -0.3719  0.6527  0.1474
 4947SOL    HW115219   2.064   3.084   4.188 -1.1105  0.2837  0.7531
 4947SOL    HW215220   2.081   2.972   4.289  0.4798  0.1259  0.3423
 4948SOL     OW15221   0.239   3.225   3.764  0.0566 -0.1182  0.1348
 4948SOL    HW115222   0.309   3.218   3.698 -1.5616 -2.9180 -1.4437
 4948SOL    HW215223   0.263   3.161   3.831 -1.0900 -1.3089 -0.5633
 4949SOL     OW15224   1.928   0.447   4.613 -0.1692 -0.2108 -0.1820
 4949SOL    HW115225   1.946   0.537   4.586 -0.3439  0.3061  1.3662
 4949SOL    HW215226   1.879   0.455   4.695 -0.9865 -1.7045 -0.4828
 4950SOL     OW15227   0.351   2.791   5.559 -0.6578 -0.1332 -0.7826
 4950SOL    HW115228   0.394   2.756   5.637  1.8877  1.2486 -1.4553
 4950SOL    HW215229   0.304   2.716   5.522 -0.7728 -1.1556  1.2810
 4951SOL     OW15230   2.053   1.922   4.229 -0.1459 -0.4507  0.3975
 4951SOL    HW115231   1.961   1.942   4.215 -0.2069 -1.6743 -1.2635
 4951SOL    HW215232   2.065   1.928   4.324 -2.2450 -1.5400  0.7778
 4952SOL     OW15233   5.685   3.985   1.870  0.4125  0.0303 -0.2550
 4952SOL    HW115234   5.645   3.975   1.783 -1.6054 -1.7081  0.8067
 4952SOL    HW215235   5.734   3.905   1.883 -1.6955 -1.0928  1.3292
 4953SOL     OW15236   3.259   3.943   0.505  0.1734  0.3084 -0.3233
 4953SOL    HW115237   3.301   3.979   0.584  0.7090  0.9269 -0.8807
 4953SOL    HW215238   3.192   4.007   0.483 -0.2322 -0.0562 -0.1568
 4954SOL     OW15239   3.039   5.084   2.810 -0.1543  0.6714  0.3615
 4954SOL    HW115240   3.114   5.049   2.856 -0.4162 -0.2253  0.1194
 4954SOL    HW215241   2.963   5.042   2.851 -0.4374  0.5285 -0.2889
 4955SOL     OW15242   5.729   3.268   0.388  0.1807 -0.0763  0.0019
 4955SOL    HW115243   5.735   3.240   0.296 -1.9996 -0.8697  0.0455
 4955SOL    HW215244   5.643   3.238   0.417  0.1797  1.5135  1.8708
 4956SOL     OW15245   2.838   6.277   5.881  0.3996  0.1298  0.1878
 4956SOL    HW115246   2.836   6.356   5.936  2.3058  1.3049 -1.2695
 4956SOL    HW215247   2.792   6.211   5.932  0.3073  1.6958  2.2850
 4957SOL     OW15248   2.091   3.833   5.816  0.2873 -0.3594  0.4753
 4957SOL    HW115249   2.036   3.868   5.746 -1.8535 -2.3552  1.0177
 4957SOL    HW215250   2.104   3.741   5.793  0.8348 -0.6706  1.9053
 4958SOL     OW15251   5.502   4.944   1.899 -0.3282 -0.1496 -0.3705
 4958SOL    HW115252   5.448   4.869   1.874 -0.6500 -0.4104  0.9973
 4958SOL    HW215253   5.440   5.017   1.906 -0.3439 -0.2095  0.1778
 4959SOL     OW15254   4.528   0.049   2.926 -0.2091  0.8264  0.0781
 4959SOL    HW115255   4.575   0.080   3.004 -1.1313 -0.2197  1.0833
 4959SOL    HW215256   4.540  -0.046   2.926 -1.1197  0.6934 -0.4348
 4960SOL     OW15257   5.271   1.282   4.369 -0.0261  0.2544  0.0304
 4960SOL    HW115258   5.242   1.373   4.363  2.2551  1.1012  0.9206
 4960SOL    HW215259   5.346   1.277   4.310  1.3108 -0.3905  1.7103
 4961SOL     OW15260   1.358   0.148   1.517 -0.1324 -0.1747  0.5655
 4961SOL    HW115261   1.319   0.066   1.485  0.8885 -1.1680  1.7819
 4961SOL    HW215262   1.424   0.170   1.451  1.4542 -1.8207  1.5217
 4962SOL     OW15263   6.677   4.229   5.092  0.5249 -0.1959  0.0129
 4962SOL    HW115264   6.665   4.135   5.109  0.0033 -0.2662 -0.6838
 4962SOL    HW215265   6.649   4.240   5.001 -0.3638  0.8178  0.3924
 4963SOL     OW15266   6.364   4.870   4.343 -0.3306  0.0725 -0.1063
 4963SOL    HW115267   6.348   4.921   4.264 -0.7158 -1.0081 -0.7372
 4963SOL    HW215268   6.446   4.823   4.326 -0.9368 -0.9396 -0.2812
 4964SOL     OW15269   4.436   3.457   3.757 -0.3087 -0.0082  0.2394
 4964SOL    HW115270   4.416   3.503   3.675  1.4540 -0.2492 -0.3689
 4964SOL    HW215271   4.465   3.370   3.729  1.8810  0.4289  0.9596
 4965SOL     OW15272   5.116   2.000   6.704 -0.2028 -0.3057 -0.0834
 4965SOL    HW115273   5.112   2.025   6.612 -2.6908 -1.5995 -0.4385
 4965SOL    HW215274   5.109   1.904   6.703  1.5044 -0.4956  1.4251
 4966SOL     OW15275   6.217   3.593   2.536  0.0639 -0.2721  0.7384
 4966SOL    HW115276   6.301   3.550   2.527 -0.9167 -2.1438 -0.0654
 4966SOL    HW215277   6.154   3.530   2.501 -1.5718  1.4513  0.4126
 4967SOL     OW15278   5.334   1.437   6.608 -0.2747 -0.1277 -0.1098
 4967SOL    HW115279   5.403   1.437   6.542 -0.7000  0.2227 -0.5543
 4967SOL    HW215280   5.289   1.520   6.596 -0.8893 -0.4323  0.0705
 4968SOL     OW15281   4.346   2.891   0.511  0.3373  0.1061 -0.4047
 4968SOL    HW115282   4.283   2.963   0.514  1.5830  1.2070  0.3554
 4968SOL    HW215283   4.416   2.918   0.570  2.8191  0.1561 -3.1492
 4969SOL     OW15284   4.406   2.120   3.065 -0.5904  0.4986 -0.3022
 4969SOL    HW115285   4.452   2.051   3.017 -0.5510 -0.5458  1.1469
 4969SOL    HW215286   4.391   2.082   3.152 -1.7965  1.8241  0.1056
 4970SOL     OW15287   1.740   1.178   6.241 -0.0723  0.2441 -0.2547
 4970SOL    HW115288   1.785   1.245   6.292 -0.6122  1.0013 -0.7414
 4970SOL    HW215289   1.802   1.153   6.173  0.6507 -0.7697  0.7384
 4971SOL     OW15290   0.548   3.003   3.779 -0.2427 -0.0267  0.3348
 4971SOL    HW115291   0.544   3.030   3.687  0.6156 -1.2536 -0.0980
 4971SOL    HW215292   0.636   3.029   3.807 -0.5861  0.5530  0.8884
 4972SOL     OW15293   4.626   5.112   5.341 -0.0685  0.0529  0.8414
 4972SOL    HW115294   4.608   5.019   5.327 -0.0932  0.0119  1.1278
 4972SOL    HW215295   4.706   5.130   5.292 -0.3612  0.0079  0.3398
 4973SOL     OW15296   4.077   6.263   1.039 -0.1423 -0.0583 -0.1274
 4973SOL    HW115297   4.157   6.305   1.007  1.4564 -1.7182  1.4627
 4973SOL    HW215298   4.063   6.301   1.126 -1.7764  1.0272 -0.8178
 4974SOL     OW15299   3.918   0.917   0.567 -0.4789  0.0471 -0.6550
 4974SOL    HW115300   3.972   0.917   0.646  0.6926  2.4278 -1.3692
 4974SOL    HW215301   3.979   0.902   0.495 -0.7402  2.4950 -1.4569
 4975SOL     OW15302   0.305   0.879   4.854 -0.5056  0.4327  0.3514
 4975SOL    HW115303   0.267   0.810   4.909 -0.4460 -0.1936 -0.3799
 4975SOL    HW215304   0.285   0.960   4.901  0.5988 -0.1500  1.9240
 4976SOL     OW15305   6.353   2.145   0.719  0.5117  0.2996 -0.2593
 4976SOL    HW115306   6.391   2.215   0.666 -0.2637  0.9628  0.0504
 4976SOL    HW215307   6.385   2.064   0.678 -3.1077  0.5513 -4.2437
 4977SOL     OW15308   4.481   6.439   6.048  0.4902  0.0624  0.5516
 4977SOL    HW115309   4.558   6.385   6.067  0.8840  0.5770  0.4217
 4977SOL    HW215310   4.503   6.525   6.083 -0.4728 -0.0632  1.5104
 4978SOL     OW15311   2.980   1.422   4.639  0.0369  0.5055 -0.0025
 4978SOL    HW115312   3.006   1.388   4.724 -0.4700  1.9628  0.7788
 4978SOL    HW215313   3.053   1.478   4.612  0.3052 -0.1425 -0.6631
 4979SOL     OW15314   2.352   4.335   6.487 -0.1017 -0.0710  0.5942
 4979SOL    HW115315   2.259   4.315   6.480  0.0059 -0.3073 -0.2785
 4979SOL    HW215316   2.396   4.255   6.461  0.3352  0.6187 -0.9252
 4980SOL     OW15317   0.342   3.412   0.733 -0.3988  0.2238  0.7935
 4980SOL    HW115318   0.364   3.349   0.802  0.3301  0.4623  0.7898
 4980SOL    HW215319   0.395   3.489   0.754  0.1746  0.1421 -0.2875
 4981SOL     OW15320   5.060   5.368   5.709 -0.3574 -0.3501 -0.0973
 4981SOL    HW115321   5.150   5.393   5.730 -0.5685  0.4175 -0.0714
 4981SOL    HW215322   5.063   5.338   5.618  0.1655 -1.6212  0.3300
 4982SOL     OW15323   0.231   0.681   5.026  0.2917 -0.1918 -0.0995
 4982SOL    HW115324   0.139   0.667   5.049  0.3588 -2.5168 -0.9150
 4982SOL    HW215325   0.278   0.672   5.109 -0.0699 -0.8982  0.0377
 4983SOL     OW15326   2.121   0.288   2.804  0.5763 -0.6415 -0.2500
 4983SOL    HW115327   2.104   0.195   2.790 -1.4452 -0.3165 -0.1395
 4983SOL    HW215328   2.161   0.317   2.722  0.5315 -1.4366 -0.5692
 4984SOL     OW15329   3.331   4.361   4.944  0.1532 -0.1875 -0.1957
 4984SOL    HW115330   3.259   4.381   4.884  1.5032 -0.5778 -2.0268
 4984SOL    HW215331   3.376   4.288   4.903  1.8276  0.3054  0.7043
 4985SOL     OW15332   5.505   5.347   1.731  0.2944 -0.2723  0.0099
 4985SOL    HW115333   5.588   5.307   1.758  0.0658 -0.2684  0.7481
 4985SOL    HW215334   5.506   5.433   1.773 -0.9219 -1.0036  1.6479
 4986SOL     OW15335   3.973   5.234   0.326 -0.1773  0.6482 -0.0752
 4986SOL    HW115336   3.970   5.192   0.240 -0.6760  0.2278  0.1413
 4986SOL    HW215337   3.881   5.239   0.353  0.0964 -1.2714  1.4006
 4987SOL     OW15338   5.596   2.655   0.898  0.6142 -0.8663 -0.2104
 4987SOL    HW115339   5.585   2.577   0.843 -3.6586 -0.6559  0.0107
 4987SOL    HW215340   5.542   2.637   0.975  0.2575  1.9232  0.2671
 4988SOL     OW15341   0.392   1.254   3.095 -0.0197 -0.1813  0.6155
 4988SOL    HW115342   0.427   1.172   3.061 -0.0273  0.2809 -0.5517
 4988SOL    HW215343   0.321   1.277   3.035 -1.5711 -0.4870  2.2600
 4989SOL     OW15344   6.772   6.060   2.990  0.2734  0.4994 -0.1564
 4989SOL    HW115345   6.710   6.128   2.964  0.2988  0.9068  0.8344
 4989SOL    HW215346   6.773   6.000   2.915  0.0907  1.4609 -0.9589
 4990SOL     OW15347   5.714   6.741   3.777 -0.5554  0.3611  0.3647
 4990SOL    HW115348   5.765   6.810   3.734 -1.8457  0.5618 -0.9362
 4990SOL    HW215349   5.777   6.696   3.832  0.6437  1.6714  0.1387
 4991SOL     OW15350   1.261   1.180   4.203  0.6198 -0.8533  0.1109
 4991SOL    HW115351   1.250   1.183   4.108 -1.4114 -0.5495  0.3214
 4991SOL    HW215352   1.175   1.203   4.239  0.9341 -2.3663  2.0320
 4992SOL     OW15353   2.295   3.857   3.158 -0.4884  0.3400 -0.3560
 4992SOL    HW115354   2.331   3.784   3.209  0.9407  0.2896 -1.3897
 4992SOL    HW215355   2.365   3.883   3.099 -2.3588 -0.2512 -3.0433
 4993SOL     OW15356   0.607   1.095   2.738 -0.1739 -0.0670 -0.2631
 4993SOL    HW115357   0.664   1.047   2.678 -0.1324 -0.0571 -0.2318
 4993SOL    HW215358   0.570   1.028   2.796  1.3535  0.1322  1.0144
 4994SOL     OW15359   1.150   6.067   0.311 -0.1336  0.2434  0.1087
 4994SOL    HW115360   1.118   6.105   0.230 -1.8486  0.3642  0.8064
 4994SOL    HW215361   1.092   5.992   0.327 -0.3724  0.7295  1.6425
 4995SOL     OW15362   5.075   2.139   3.414 -0.7778  0.1826 -0.2036
 4995SOL    HW115363   5.045   2.230   3.421  1.4361  1.0610 -1.0472
 4995SOL    HW215364   5.111   2.119   3.500  0.0753  0.6779 -0.4252
 4996SOL     OW15365   2.864   2.967   6.047  0.2622  0.3255 -0.1742
 4996SOL    HW115366   2.832   2.937   5.962  1.2786 -1.7219  0.1013
 4996SOL    HW215367   2.844   2.895   6.107  2.0326  0.5264  0.7379
 4997SOL     OW15368   4.806   5.376   5.461  0.0462 -0.5415  0.3339
 4997SOL    HW115369   4.718   5.360   5.426  0.4491  0.2254 -1.1510
 4997SOL    HW215370   4.849   5.291   5.457  0.0011 -0.5317 -0.8952
 4998SOL     OW15371   6.560   1.757   6.830  0.7554 -0.3449 -0.1197
 4998SOL    HW115372   6.627   1.744   6.896  1.0757 -1.5949 -0.6618
 4998SOL    HW215373   6.582   1.694   6.761 -1.4866 -1.4435  0.0953
 4999SOL     OW15374   3.064   3.179   0.153 -0.3713  0.3120  0.5293
 4999SOL    HW115375   3.082   3.145   0.241  2.4744  1.3043  0.4583
 4999SOL    HW215376   3.094   3.270   0.156 -1.1362  0.6689 -1.2150
 5000SOL     OW15377   5.201   4.857   0.024  0.2708  0.2788  0.5127
 5000SOL    HW115378   5.111   4.873  -0.005  0.6907 -0.4013 -1.3509
 5000SOL    HW215379   5.219   4.925   0.088 -1.4937  0.5636  0.7392
 5001SOL     OW15380   2.227   1.802   3.369 -0.0100  0.8880 -0.6697
 5001SOL    HW115381   2.294   1.821   3.435 -0.4704 -2.2747  0.8929
 5001SOL    HW215382   2.278   1.773   3.293  0.4427  1.2938 -0.5319
 5002SOL     OW15383   3.393   1.209   0.237 -0.2675 -0.0272 -0.3631
 5002SOL    HW115384   3.324   1.175   0.181 -0.7769  1.3462 -0.5979
 5002SOL    HW215385   3.394   1.303   0.221  1.1295  0.0902  0.2264
 5003SOL     OW15386   2.600   2.476   5.119 -0.2610  0.4618 -0.7659
 5003SOL    HW115387   2.608   2.500   5.027 -0.4171 -1.4987 -1.3228
 5003SOL    HW215388   2.542   2.543   5.156  0.3168  1.6514 -1.9143
 5004SOL     OW15389   2.874   5.098   6.419  0.3663  0.1071 -0.0335
 5004SOL    HW115390   2.889   5.005   6.401  3.2912  0.3364  0.8077
 5004SOL    HW215391   2.888   5.107   6.513 -3.3841  0.8960  0.6201
 5005SOL     OW15392   0.274   3.090   6.801 -0.0586  0.1907  0.3354
 5005SOL    HW115393   0.357   3.047   6.780 -0.1218 -0.5825  1.5863
 5005SOL    HW215394   0.226   3.027   6.854 -1.4096  0.6856 -0.2473
 5006SOL     OW15395   1.622   3.195   0.080  0.3754  0.0685 -0.2711
 5006SOL    HW115396   1.631   3.274   0.026  0.1906  0.1088 -0.2437
 5006SOL    HW215397   1.683   3.132   0.041  0.5235  0.2256 -0.2923
 5007SOL     OW15398   4.111   4.232   0.904  0.2264  0.2995  0.1139
 5007SOL    HW115399   4.057   4.300   0.863 -0.0783  0.5754  0.9402
 5007SOL    HW215400   4.119   4.261   0.995  1.8063  0.2844  0.0004
 5008SOL     OW15401   0.016   3.232   2.843 -0.0891  0.4589 -0.1201
 5008SOL    HW115402  -0.008   3.257   2.753  1.7243  0.8057 -0.5296
 5008SOL    HW215403   0.107   3.204   2.837 -0.4548 -1.1573  1.3224
 5009SOL     OW15404   0.863   1.125   0.924 -0.4635  0.0426 -0.1714
 5009SOL    HW115405   0.926   1.129   0.852 -0.8197 -1.5833 -0.6137
 5009SOL    HW215406   0.782   1.159   0.888 -0.6753 -0.8897 -0.6007
 5010SOL     OW15407   5.474   0.611   2.664 -0.4851 -0.1356  0.5922
 5010SOL    HW115408   5.408   0.568   2.719 -0.8860 -1.0841 -0.6026
 5010SOL    HW215409   5.490   0.550   2.592 -0.2789  1.2363 -0.5793
 5011SOL     OW15410   5.762   0.875   0.178  0.0662  0.1470  0.0615
 5011SOL    HW115411   5.681   0.889   0.130 -0.3157 -0.0386  0.6353
 5011SOL    HW215412   5.829   0.919   0.126 -0.2519 -0.4684 -0.8850
 5012SOL     OW15413   3.998   0.289   0.494 -0.7633  0.0024 -0.1426
 5012SOL    HW115414   4.073   0.230   0.491 -1.1533 -0.4700 -1.3816
 5012SOL    HW215415   3.933   0.248   0.436 -1.6105  0.8924  0.1413
 5013SOL     OW15416   3.693   0.002   2.016 -0.8044  0.2880 -0.3198
 5013SOL    HW115417   3.639  -0.068   1.981  1.7264 -1.3241 -1.2896
 5013SOL    HW215418   3.678   0.076   1.957 -1.3120 -0.3926 -1.0572
 5014SOL     OW15419   6.841   1.085   5.786 -0.4176 -0.2343 -0.4159
 5014SOL    HW115420   6.898   1.141   5.733 -0.0858 -0.3779 -0.2220
 5014SOL    HW215421   6.762   1.074   5.734 -0.3385  0.1152 -0.6160
 5015SOL     OW15422   5.830   4.755   1.020 -0.2566 -0.5761  0.6297
 5015SOL    HW115423   5.741   4.785   1.006 -0.0155 -0.4271 -0.7337
 5015SOL    HW215424   5.843   4.686   0.956  1.0133  0.2995 -0.1037
 5016SOL     OW15425   4.489   5.613   5.755  0.4705  0.1207  0.0977
 5016SOL    HW115426   4.555   5.597   5.823 -0.4764  1.6463  1.4448
 5016SOL    HW215427   4.451   5.527   5.738  0.0355 -0.1743  2.2745
 5017SOL     OW15428   0.305   5.651   5.710  1.0259  0.6868 -0.1477
 5017SOL    HW115429   0.400   5.652   5.701  1.0702 -2.1948 -1.3342
 5017SOL    HW215430   0.272   5.671   5.622  0.5225  1.5190  0.2199
 5018SOL     OW15431   2.225   0.445   1.018 -0.7693 -0.2080 -0.4395
 5018SOL    HW115432   2.290   0.445   0.947 -0.2025 -1.1440  0.0598
 5018SOL    HW215433   2.154   0.500   0.985 -0.0844  0.1733 -1.3340
 5019SOL     OW15434   4.823   5.115   5.171  0.0639 -0.4025 -0.4610
 5019SOL    HW115435   4.847   5.201   5.136 -0.9210  0.1831  0.2313
 5019SOL    HW215436   4.894   5.057   5.143  1.5672  0.9429  0.3497
 5020SOL     OW15437   2.327   3.272   4.672 -0.5751 -0.2594  0.0403
 5020SOL    HW115438   2.410   3.237   4.639 -0.7065  0.6497 -1.2951
 5020SOL    HW215439   2.268   3.269   4.597 -1.5047 -0.0763  0.7511
 5021SOL     OW15440   5.363   5.127   4.910 -0.1875  0.1478  0.6232
 5021SOL    HW115441   5.422   5.071   4.961 -1.7911 -0.7496  1.5679
 5021SOL    HW215442   5.420   5.167   4.843  1.4321 -0.8273  1.3547
 5022SOL     OW15443   3.994   2.035   2.595  0.0194  0.0617 -0.0821
 5022SOL    HW115444   4.081   2.071   2.577  0.6347 -1.0239  0.6096
 5022SOL    HW215445   3.993   2.022   2.689 -1.2555  0.9121  0.0426
 5023SOL     OW15446   0.982   2.519   0.078 -0.7470 -0.1626 -0.4637
 5023SOL    HW115447   0.896   2.560   0.088 -0.8197 -0.4298  0.0308
 5023SOL    HW215448   1.033   2.582   0.027 -1.1631  0.1025 -0.5528
 5024SOL     OW15449   4.412   1.520   5.678 -0.4530  0.2535  0.1793
 5024SOL    HW115450   4.419   1.430   5.646  0.0940 -0.1684  1.4366
 5024SOL    HW215451   4.453   1.572   5.610  2.6044 -0.8315  1.0492
 5025SOL     OW15452   1.570   5.398   5.443 -0.1282  0.0863 -0.0128
 5025SOL    HW115453   1.585   5.429   5.533  0.8932 -1.7923  0.5067
 5025SOL    HW215454   1.486   5.436   5.419 -0.8158 -0.0244  2.0429
 5026SOL     OW15455   2.191   6.817   5.855  0.5534 -0.3918 -0.1575
 5026SOL    HW115456   2.255   6.888   5.861 -1.0764  1.2072 -0.7379
 5026SOL    HW215457   2.217   6.769   5.776  0.2572  1.0876 -1.1963
 5027SOL     OW15458   2.802   2.256   0.832  0.3923 -0.6087 -0.3606
 5027SOL    HW115459   2.798   2.195   0.906  0.3117  0.0980  0.2318
 5027SOL    HW215460   2.881   2.308   0.848 -0.2011  0.2593 -0.1974
 5028SOL     OW15461   4.318   5.391   1.172  0.0823  0.1000  0.1546
 5028SOL    HW115462   4.279   5.336   1.240 -0.7437  0.2604 -0.1800
 5028SOL    HW215463   4.321   5.335   1.095  2.0161 -0.4451  0.5596
 5029SOL     OW15464   5.080   4.190   4.483  0.0522 -0.5682 -0.0897
 5029SOL    HW115465   5.086   4.114   4.542 -2.0415 -1.6380 -1.1435
 5029SOL    HW215466   5.010   4.243   4.519  2.7019  2.0161  1.7255
 5030SOL     OW15467   4.933   3.096   0.041  0.7927  0.1038 -0.6981
 5030SOL    HW115468   4.897   3.182   0.064 -0.1525 -0.6205  0.6761
 5030SOL    HW215469   4.859   3.050   0.000  0.1848 -1.2261  1.7047
 5031SOL     OW15470   1.774   1.775   0.428 -0.7927 -0.5935  0.3149
 5031SOL    HW115471   1.716   1.834   0.477 -1.2137 -0.4348 -0.3570
 5031SOL    HW215472   1.715   1.726   0.371 -0.3603 -1.1167  0.3117
 5032SOL     OW15473   5.799   0.703   1.273  0.6959 -0.0935  0.2387
 5032SOL    HW115474   5.732   0.765   1.300 -0.1397 -0.6290 -0.5496
 5032SOL    HW215475   5.849   0.749   1.205  0.0047 -0.3022 -0.4282
 5033SOL     OW15476   4.094   4.566   6.041  0.0457 -0.0179 -0.2275
 5033SOL    HW115477   4.033   4.558   5.967  0.7535 -0.5808 -0.7506
 5033SOL    HW215478   4.070   4.495   6.100 -1.1895  1.0276  0.6060
 5034SOL     OW15479   0.503   6.465   4.982 -0.3460  0.5042 -0.0658
 5034SOL    HW115480   0.419   6.436   4.946 -0.6786 -0.3552  1.2886
 5034SOL    HW215481   0.484   6.551   5.020 -0.9925 -0.2538  1.4062
 5035SOL     OW15482   0.870   6.252   1.043 -0.0662  0.1367  0.4617
 5035SOL    HW115483   0.884   6.252   1.138 -1.3192  0.1668  0.6645
 5035SOL    HW215484   0.901   6.337   1.014 -2.5107  1.4335  1.3389
 5036SOL     OW15485   0.377   5.831   2.340 -0.7629 -0.4308  0.5424
 5036SOL    HW115486   0.320   5.819   2.416 -0.0442  2.5332  1.6594
 5036SOL    HW215487   0.321   5.876   2.276 -0.7737 -1.1057  0.0635
 5037SOL     OW15488   3.604   0.549   3.715  0.0477  0.1052  0.2029
 5037SOL    HW115489   3.602   0.546   3.811  0.2336  0.1562  0.2074
 5037SOL    HW215490   3.580   0.639   3.693 -0.8612 -0.1248  0.1781
 5038SOL     OW15491   0.680   6.357   1.362  0.1841  0.8102 -0.4515
 5038SOL    HW115492   0.681   6.435   1.307  0.7330  2.5869  1.8867
 5038SOL    HW215493   0.616   6.377   1.431  0.7139 -0.5954  0.5062
 5039SOL     OW15494   3.763   1.417   2.791 -0.2750 -0.0276 -0.4227
 5039SOL    HW115495   3.770   1.502   2.835 -0.2136 -0.2133 -0.0711
 5039SOL    HW215496   3.678   1.420   2.747  0.2830  0.7339 -1.5190
 5040SOL     OW15497   6.322   2.072   2.534  0.1330  0.2759 -0.0554
 5040SOL    HW115498   6.408   2.032   2.526 -0.5169 -1.2064 -0.0432
 5040SOL    HW215499   6.320   2.110   2.622  0.4197 -0.5825  0.3263
 5041SOL     OW15500   3.406   1.529   1.493 -0.1172  0.0549 -0.6414
 5041SOL    HW115501   3.316   1.509   1.465  0.0611  0.2008 -1.3401
 5041SOL    HW215502   3.410   1.625   1.491 -0.0937  0.0669 -0.1221
 5042SOL     OW15503   2.488   1.776   4.996 -0.2168  0.1010 -0.8019
 5042SOL    HW115504   2.450   1.847   4.943  1.3733  0.7043 -1.2136
 5042SOL    HW215505   2.511   1.708   4.933  1.2832  0.6371 -0.8753
 5043SOL     OW15506   1.674   6.473   4.366  0.3974  0.0985 -0.7856
 5043SOL    HW115507   1.590   6.519   4.374 -0.3891 -1.3019 -0.6151
 5043SOL    HW215508   1.652   6.392   4.321  1.8768  0.1914 -1.7353
 5044SOL     OW15509   4.790   3.636   0.217  0.5963 -0.6024 -0.1600
 5044SOL    HW115510   4.809   3.703   0.283  0.4404  1.8915 -2.4563
 5044SOL    HW215511   4.695   3.635   0.210  0.6494  0.2511 -1.3218
 5045SOL     OW15512   2.384   3.601   4.981  0.5616  0.7118 -0.5390
 5045SOL    HW115513   2.336   3.675   5.018  0.9508  1.7483 -2.0126
 5045SOL    HW215514   2.384   3.535   5.050 -0.9972  1.5523  0.3149
 5046SOL     OW15515   4.289   6.190   4.088  0.1013  0.0461 -0.6717
 5046SOL    HW115516   4.308   6.281   4.111  1.6228 -0.0955 -1.2212
 5046SOL    HW215517   4.347   6.139   4.145  0.3312 -0.5005 -1.3820
 5047SOL     OW15518   1.780   2.843   6.213  0.2611 -0.1671 -0.0278
 5047SOL    HW115519   1.831   2.920   6.190  0.5267 -0.1767  0.5111
 5047SOL    HW215520   1.721   2.872   6.282 -0.7977 -0.0431 -0.9563
 5048SOL     OW15521   1.631   5.887   2.298 -0.2878 -0.5298 -0.1119
 5048SOL    HW115522   1.631   5.951   2.227 -0.8977 -0.4496 -0.0424
 5048SOL    HW215523   1.675   5.810   2.262 -0.9126 -0.6169 -0.6875
 5049SOL     OW15524   2.883   1.925   1.751  0.1233 -0.0170  0.4926
 5049SOL    HW115525   2.872   2.007   1.798  0.3914  0.3389 -0.0558
 5049SOL    HW215526   2.826   1.934   1.674  0.6387 -0.0854  0.1029
 5050SOL     OW15527   2.266   6.254   0.375 -0.1609  0.5342  0.8757
 5050SOL    HW115528   2.241   6.315   0.444 -1.0109 -1.1706  2.1534
 5050SOL    HW215529   2.185   6.236   0.328 -0.0553 -0.0977  0.9279
 5051SOL     OW15530   0.202   1.902   0.843 -0.4094  0.0869 -0.5661
 5051SOL    HW115531   0.131   1.915   0.780  0.5787 -1.2644 -2.0222
 5051SOL    HW215532   0.243   1.988   0.851 -1.1770  0.5048 -0.9615
 5052SOL     OW15533   4.850   1.663   3.887  0.2608 -0.3342 -0.2434
 5052SOL    HW115534   4.864   1.670   3.981  0.9182  2.9607 -0.4571
 5052SOL    HW215535   4.934   1.631   3.853  1.0148  1.1983  0.0970
 5053SOL     OW15536   2.188   2.513   6.173  0.3998 -0.4230 -0.4320
 5053SOL    HW115537   2.199   2.445   6.106  0.6321 -0.6439 -0.1739
 5053SOL    HW215538   2.098   2.543   6.162 -0.0537 -1.5262  0.1456
 5054SOL     OW15539   5.142   4.526   5.590 -0.8368  0.3458  0.1230
 5054SOL    HW115540   5.100   4.493   5.510 -0.9466 -0.9409  0.6820
 5054SOL    HW215541   5.075   4.518   5.658  0.5064 -2.7251  1.2601
 5055SOL     OW15542   1.060   4.156   4.455 -0.1738  0.1381  0.6489
 5055SOL    HW115543   1.116   4.123   4.525 -1.1242  0.4027  1.5610
 5055SOL    HW215544   1.023   4.077   4.416 -0.1874  0.0110  0.9117
 5056SOL     OW15545   2.565   4.565   0.831 -0.5790 -0.5903 -0.4732
 5056SOL    HW115546   2.542   4.562   0.924  0.3350 -0.3509 -0.2242
 5056SOL    HW215547   2.646   4.513   0.825  0.8780  1.5776 -0.6470
 5057SOL     OW15548   5.799   4.162   3.229  0.0670 -0.5412  0.0995
 5057SOL    HW115549   5.823   4.195   3.142 -0.2080  1.0065  0.5842
 5057SOL    HW215550   5.849   4.081   3.239  1.9755  0.5211 -0.5070
 5058SOL     OW15551   6.109   2.131   0.202  0.0786 -0.4310  0.1430
 5058SOL    HW115552   6.096   2.226   0.194  0.7147 -0.2812  0.7338
 5058SOL    HW215553   6.026   2.093   0.174 -0.1895  0.3041 -0.0973
 5059SOL     OW15554   1.996   2.077   3.121  1.1785  0.6138  0.2507
 5059SOL    HW115555   2.040   2.094   3.037  2.0310  1.5176  0.8461
 5059SOL    HW215556   1.930   2.012   3.101  0.5363  1.6890 -1.3791
 5060SOL     OW15557   4.421   6.685   0.565 -0.2009 -0.7764 -0.0217
 5060SOL    HW115558   4.427   6.665   0.471 -0.7631 -0.1844 -0.1859
 5060SOL    HW215559   4.359   6.620   0.599 -1.0788 -0.1198 -0.3282
 5061SOL     OW15560   4.017   2.310   3.817  0.2889  0.1488  0.0824
 5061SOL    HW115561   3.955   2.249   3.778  1.3932 -0.0655 -1.4462
 5061SOL    HW215562   3.980   2.331   3.903 -1.0684 -1.1815 -0.1386
 5062SOL     OW15563   0.822   5.084   5.232 -0.1383 -0.1018 -0.3752
 5062SOL    HW115564   0.795   5.151   5.169 -0.1868 -1.2776 -1.6409
 5062SOL    HW215565   0.918   5.090   5.233 -0.1171 -0.3699 -0.8822
 5063SOL     OW15566   0.991   2.880   4.824 -0.3092  0.6687 -0.6659
 5063SOL    HW115567   1.026   2.969   4.826 -0.0840  0.5753 -0.3083
 5063SOL    HW215568   1.062   2.828   4.784  0.1295  0.4109  0.4239
 5064SOL     OW15569   1.683   6.406   6.177 -0.2309 -0.1416 -0.6216
 5064SOL    HW115570   1.698   6.437   6.266  1.0111 -0.8681 -0.5556
 5064SOL    HW215571   1.704   6.481   6.122  2.1182 -0.5811 -0.4291
 5065SOL     OW15572   0.862   5.387   6.149 -0.5231 -0.1535  0.2638
 5065SOL    HW115573   0.796   5.326   6.180 -0.7963  0.6916  1.4119
 5065SOL    HW215574   0.861   5.378   6.054 -0.4714 -1.9963  0.4073
 5066SOL     OW15575   4.429   6.612   3.675  0.2884 -0.0917  0.5022
 5066SOL    HW115576   4.461   6.685   3.726 -0.0215  0.7168 -0.4308
 5066SOL    HW215577   4.504   6.553   3.667  1.2513  1.2478 -0.7444
 5067SOL     OW15578   4.775   3.255   6.502  0.7333 -0.2981  0.2832
 5067SOL    HW115579   4.855   3.220   6.540  1.0135  0.0955  0.0669
 5067SOL    HW215580   4.805   3.329   6.448  0.1844  0.1161  0.5396
 5068SOL     OW15581   0.266   0.948   6.793  0.4328 -0.2878  0.3134
 5068SOL    HW115582   0.193   0.889   6.775 -1.6312  1.6568  1.7821
 5068SOL    HW215583   0.323   0.899   6.853  0.2525 -1.7208 -0.6203
 5069SOL     OW15584   5.668   2.967   2.155  0.1059 -0.0995  0.0708
 5069SOL    HW115585   5.581   2.995   2.125 -0.8928 -2.0355  0.9847
 5069SOL    HW215586   5.702   2.913   2.084 -1.0327 -2.2992  1.0960
 5070SOL     OW15587   0.507   5.654   1.338 -0.6469  0.0719 -0.0023
 5070SOL    HW115588   0.588   5.685   1.297 -1.1801  0.7915 -0.5318
 5070SOL    HW215589   0.507   5.695   1.424 -0.7066  0.5156 -0.2081
 5071SOL     OW15590   2.988   3.231   5.198  0.3309  0.1212  0.4080
 5071SOL    HW115591   3.050   3.266   5.262  2.7607 -2.1449 -0.5088
 5071SOL    HW215592   2.980   3.138   5.220  0.2746 -0.4529 -1.8016
 5072SOL     OW15593   3.418   4.382   0.704 -0.3953 -0.3448  0.0645
 5072SOL    HW115594   3.393   4.347   0.789  1.2239  0.5280  0.9371
 5072SOL    HW215595   3.504   4.422   0.718 -1.3661  2.4695 -1.2590
 5073SOL     OW15596   6.075   6.167   0.281  0.4232 -0.8714  0.4448
 5073SOL    HW115597   6.047   6.184   0.192  1.3306 -1.3744  0.0475
 5073SOL    HW215598   5.996   6.138   0.327  0.0647 -1.1309 -0.3298
 5074SOL     OW15599   3.009   4.888   5.754  0.2547  0.2724  0.0432
 5074SOL    HW115600   2.963   4.881   5.838 -0.9804  0.0659 -0.6208
 5074SOL    HW215601   3.096   4.922   5.776  0.1737 -0.3797  1.4686
 5075SOL     OW15602   5.277   3.549   6.028 -0.5346  0.1199  0.5186
 5075SOL    HW115603   5.246   3.479   6.086 -0.2814 -0.3311  0.1195
 5075SOL    HW215604   5.200   3.576   5.979 -0.2223 -1.3818 -0.8692
 5076SOL     OW15605   2.269   5.420   0.689 -0.1449 -0.1432  0.0447
 5076SOL    HW115606   2.226   5.351   0.639 -1.3274 -0.4659  1.4322
 5076SOL    HW215607   2.301   5.481   0.623 -1.5236 -0.6090 -1.1050
 5077SOL     OW15608   1.820   5.856   4.470 -0.0031  1.1906 -0.0685
 5077SOL    HW115609   1.751   5.833   4.407 -0.1096  1.2654  0.0190
 5077SOL    HW215610   1.900   5.822   4.432 -0.2741 -0.1399  0.4826
 5078SOL     OW15611   5.037   2.755   5.057 -0.2552 -0.0086  0.2982
 5078SOL    HW115612   5.048   2.836   5.007 -0.1708 -0.2829 -0.1221
 5078SOL    HW215613   5.044   2.783   5.149 -1.9702  0.7615  0.2386
 5079SOL     OW15614   1.402   4.490   3.211  0.2441 -0.0830  0.1186
 5079SOL    HW115615   1.363   4.463   3.295  0.5596  1.4290  0.7774
 5079SOL    HW215616   1.443   4.574   3.229  1.0414 -0.1138 -1.3709
 5080SOL     OW15617   3.599   1.298   4.148  0.4549  0.0880  0.1092
 5080SOL    HW115618   3.613   1.373   4.090  0.1153  0.6471  0.7370
 5080SOL    HW215619   3.674   1.298   4.207  1.7807 -1.5966 -1.4760
 5081SOL     OW15620   1.322   1.422   5.186  0.2977 -0.6620 -0.3530
 5081SOL    HW115621   1.345   1.459   5.272  1.0604 -1.9931  0.0511
 5081SOL    HW215622   1.242   1.372   5.202  1.1845 -2.0546 -0.0559
 5082SOL     OW15623   3.945   5.381   2.037  0.1582 -0.3920  0.0402
 5082SOL    HW115624   3.922   5.401   1.946  0.6088  0.7785  0.1664
 5082SOL    HW215625   3.888   5.437   2.089 -1.5249 -2.4622  0.5979
 5083SOL     OW15626   5.073   0.049   1.046 -0.2484  0.2237 -0.2343
 5083SOL    HW115627   5.059   0.077   1.136 -0.6534 -0.0029 -0.2251
 5083SOL    HW215628   5.069  -0.047   1.050 -0.2447  0.2129 -0.4910
 5084SOL     OW15629   6.642   1.070   5.131 -0.0088 -0.0969 -0.2568
 5084SOL    HW115630   6.593   1.150   5.147  1.7211  1.1318 -0.8342
 5084SOL    HW215631   6.728   1.086   5.171  0.3091 -1.7379 -0.2141
 5085SOL     OW15632   0.742   1.062   3.045  0.6959  0.3094 -0.5226
 5085SOL    HW115633   0.686   1.092   2.973  0.5426 -0.1690 -0.6089
 5085SOL    HW215634   0.685   1.061   3.122  1.0375  1.4837 -0.2423
 5086SOL     OW15635   0.548   3.059   1.223  0.0204 -0.3773  0.8586
 5086SOL    HW115636   0.524   2.984   1.277  0.3926 -0.9225  0.2784
 5086SOL    HW215637   0.503   3.043   1.139  0.5215 -0.2253  0.5559
 5087SOL     OW15638   2.828   6.264   0.000 -0.3373  0.3629 -0.8352
 5087SOL    HW115639   2.790   6.313   0.074  0.3904 -2.9864  2.0445
 5087SOL    HW215640   2.756   6.210  -0.031  0.2404 -0.9156 -0.0292
 5088SOL     OW15641   1.903   3.417   5.142 -0.1455  0.1833  0.1631
 5088SOL    HW115642   1.910   3.503   5.183 -0.0953  0.0580  0.4135
 5088SOL    HW215643   1.880   3.436   5.051  0.2041  0.4733  0.1359
 5089SOL     OW15644   4.548   1.015   3.023 -0.6410 -0.5999  0.5822
 5089SOL    HW115645   4.463   1.052   2.998 -0.6758 -1.1330 -0.1172
 5089SOL    HW215646   4.552   0.932   2.975 -1.1197 -2.1352  3.0172
 5090SOL     OW15647   5.593   6.578   0.639 -0.5290  0.4434 -0.0296
 5090SOL    HW115648   5.518   6.582   0.699  0.3534 -0.1240  1.1573
 5090SOL    HW215649   5.599   6.666   0.603 -1.9555  0.4153 -0.4108
 5091SOL     OW15650   5.752   5.270   1.794  0.2746 -1.2036 -0.5359
 5091SOL    HW115651   5.816   5.238   1.729 -0.0174  1.6658 -2.4150
 5091SOL    HW215652   5.804   5.288   1.872  1.7201  0.2851 -1.7619
 5092SOL     OW15653   3.062   5.862   4.881  0.7884 -0.0223 -0.2739
 5092SOL    HW115654   3.103   5.790   4.833  1.2792  0.3143 -0.3690
 5092SOL    HW215655   3.009   5.907   4.815 -0.3458 -0.8841  0.0032
 5093SOL     OW15656   2.090   5.570   4.541 -0.1576 -0.1555  0.7718
 5093SOL    HW115657   2.035   5.612   4.608 -2.3685 -3.1436  1.0336
 5093SOL    HW215658   2.037   5.572   4.462  0.1960 -1.3380  0.4915
 5094SOL     OW15659   1.761   5.677   1.936 -0.0182 -0.4901  0.0603
 5094SOL    HW115660   1.855   5.667   1.922 -0.1720 -0.2954 -1.1679
 5094SOL    HW215661   1.725   5.691   1.849 -1.3597 -1.8963  0.3470
 5095SOL     OW15662   3.249   3.497   0.344 -0.0757 -0.0645 -0.4949
 5095SOL    HW115663   3.321   3.468   0.399  0.5099 -1.0495 -1.7243
 5095SOL    HW215664   3.204   3.564   0.395  0.6787 -0.6627  0.9900
 5096SOL     OW15665   5.753   1.605   2.967 -0.7585 -0.2622  0.1714
 5096SOL    HW115666   5.838   1.624   2.926 -0.8393  0.9342  0.5099
 5096SOL    HW215667   5.731   1.517   2.938 -0.8449  0.5439 -2.4622
 5097SOL     OW15668   3.939   5.299   0.999 -0.2979  0.3441  0.1139
 5097SOL    HW115669   3.896   5.227   0.953 -2.6035  1.4505  0.3732
 5097SOL    HW215670   3.984   5.348   0.930  0.2885 -0.6618 -0.2302
 5098SOL     OW15671   3.450   6.786   1.576  0.2110 -0.0245  0.4595
 5098SOL    HW115672   3.538   6.774   1.612 -0.2794 -1.8633  1.1151
 5098SOL    HW215673   3.441   6.719   1.508 -0.9882 -0.4589  1.0099
 5099SOL     OW15674   4.168   0.093   0.093 -0.2903 -0.7162  0.1424
 5099SOL    HW115675   4.166   0.019   0.032 -1.0671  0.1118 -0.8553
 5099SOL    HW215676   4.183   0.052   0.179 -0.5165 -2.0136 -0.4122
 5100SOL     OW15677   3.022   3.456   0.141  0.7239 -0.0597 -0.0735
 5100SOL    HW115678   3.071   3.508   0.205  1.3403 -0.4792 -0.2017
 5100SOL    HW215679   2.971   3.521   0.092  0.3093  0.2759  0.7788
 5101SOL     OW15680   2.961   6.329   4.615 -0.2408  0.5864 -0.5859
 5101SOL    HW115681   2.908   6.276   4.556 -2.1442  1.4351  0.2825
 5101SOL    HW215682   3.041   6.277   4.629 -0.3163 -0.2298 -2.7985
 5102SOL     OW15683   2.032   2.334   3.142 -0.1401 -0.3164 -0.3347
 5102SOL    HW115684   2.090   2.359   3.215 -1.4643 -0.1136  0.6926
 5102SOL    HW215685   2.033   2.238   3.144  0.9474 -0.3400 -1.0016
 5103SOL     OW15686   1.127   0.415   2.933 -0.3023 -0.3168  0.0265
 5103SOL    HW115687   1.122   0.481   3.002  0.1714 -0.0283 -0.2033
 5103SOL    HW215688   1.101   0.462   2.854  2.0742  0.2196 -0.5292
 5104SOL     OW15689   3.379   6.503   1.665 -0.4420  0.1821  0.1297
 5104SOL    HW115690   3.337   6.564   1.725 -0.2098 -0.0037  0.4798
 5104SOL    HW215691   3.338   6.522   1.580  0.9095  2.0628 -0.1635
 5105SOL     OW15692   4.748   2.516   0.279  0.2171 -0.5781  0.1406
 5105SOL    HW115693   4.790   2.602   0.276  0.0514 -0.5160 -1.9753
 5105SOL    HW215694   4.671   2.530   0.335  0.5416  0.4752  0.3606
 5106SOL     OW15695   0.191   3.023   4.351  0.8716  0.4579  0.7115
 5106SOL    HW115696   0.273   3.003   4.395  0.8223  0.4460  0.7986
 5106SOL    HW215697   0.126   2.969   4.397  0.3966  2.1973  2.1888
 5107SOL     OW15698   2.108   3.994   0.607 -0.2098 -0.8268 -0.6445
 5107SOL    HW115699   2.048   3.931   0.648 -0.4108  0.1428  0.6397
 5107SOL    HW215700   2.092   4.076   0.655  1.4969 -0.3180 -0.8952
 5108SOL     OW15701   1.897   2.746   6.795 -0.2862  0.2016  0.1276
 5108SOL    HW115702   1.957   2.682   6.831  1.8648  2.2041  0.3225
 5108SOL    HW215703   1.906   2.736   6.700 -2.5162 -1.9519  0.0291
 5109SOL     OW15704   3.844   1.674   1.490 -0.2185 -0.3541 -0.4303
 5109SOL    HW115705   3.814   1.671   1.581  1.4041  0.7769  0.1700
 5109SOL    HW215706   3.859   1.582   1.467 -0.9513 -0.6742  0.3271
 5110SOL     OW15707   6.698   0.049   0.837  0.4338 -0.2620  0.6097
 5110SOL    HW115708   6.690   0.121   0.900  0.0949 -0.9795  1.3864
 5110SOL    HW215709   6.674   0.089   0.753 -1.0962  0.2186  1.2371
 5111SOL     OW15710   3.513   6.583   3.940 -0.6294  0.0793 -0.3668
 5111SOL    HW115711   3.507   6.597   4.034 -0.8894 -1.6465 -0.0980
 5111SOL    HW215712   3.438   6.630   3.904 -1.9515 -1.2715  0.5505
 5112SOL     OW15713   6.671   6.310   4.017 -0.1867 -0.3682 -0.1236
 5112SOL    HW115714   6.636   6.255   4.087 -3.8122  0.5820 -0.9745
 5112SOL    HW215715   6.664   6.399   4.050  0.1377 -0.0544 -0.8836
 5113SOL     OW15716   3.774   0.795   3.898  0.2757 -0.6870  0.1919
 5113SOL    HW115717   3.844   0.776   3.836  1.6429  2.1821  0.6639
 5113SOL    HW215718   3.806   0.870   3.948 -2.1455 -0.8084  2.1258
 5114SOL     OW15719   0.311   3.500   6.030 -0.1105  0.0791  0.0665
 5114SOL    HW115720   0.228   3.535   6.062  0.8732  1.3235  1.3782
 5114SOL    HW215721   0.303   3.405   6.042 -1.3834  0.1639  0.0314
 5115SOL     OW15722   1.684   2.945   4.060 -0.3568  0.7105 -0.3331
 5115SOL    HW115723   1.776   2.957   4.039 -0.2331  3.8241  1.3597
 5115SOL    HW215724   1.637   2.980   3.984 -0.0947  1.6443 -0.0674
 5116SOL     OW15725   3.895   4.632   4.550  0.5170  0.3506  0.7328
 5116SOL    HW115726   3.816   4.603   4.596 -0.0196  0.6292  0.0137
 5116SOL    HW215727   3.913   4.720   4.585 -1.0485  1.4055 -0.9560
 5117SOL     OW15728   1.374   4.358   0.810 -0.1659  0.5621  0.3988
 5117SOL    HW115729   1.468   4.372   0.801 -0.3654  0.6929 -1.8267
 5117SOL    HW215730   1.360   4.268   0.781 -0.9746  1.2653 -1.5472
 5118SOL     OW15731   0.888   3.606   6.327 -0.5371 -0.2983  0.3413
 5118SOL    HW115732   0.802   3.650   6.327  0.3547  1.5414  1.1199
 5118SOL    HW215733   0.951   3.678   6.325  1.0123 -1.6314 -1.1337
 5119SOL     OW15734   1.724   0.506   6.376 -0.3540 -0.0082 -0.7022
 5119SOL    HW115735   1.792   0.570   6.394 -0.5686  0.1491 -0.4350
 5119SOL    HW215736   1.642   0.551   6.398 -0.6303  0.1740 -2.0049
 5120SOL     OW15737   4.132   2.408   0.074  0.5024 -0.4934  0.3716
 5120SOL    HW115738   4.073   2.371   0.139  2.2392  0.7846  2.8149
 5120SOL    HW215739   4.094   2.494   0.054  1.5366  0.3771  2.0299
 5121SOL     OW15740   0.861   4.740   1.026  0.2868  0.1315 -0.3784
 5121SOL    HW115741   0.770   4.736   1.055  0.1928 -1.9295 -0.8151
 5121SOL    HW215742   0.902   4.803   1.084 -1.2857  0.6583  0.2029
 5122SOL     OW15743   4.529   4.763   3.670  0.4741 -0.7564 -0.8568
 5122SOL    HW115744   4.616   4.776   3.631  0.0831  0.4346 -1.3843
 5122SOL    HW215745   4.499   4.680   3.633  1.7704 -1.7017  0.1080
 5123SOL     OW15746   6.118   6.460   0.644  0.4090  0.0546  0.3231
 5123SOL    HW115747   6.160   6.467   0.730  2.1662  0.1139 -0.4973
 5123SOL    HW215748   6.026   6.477   0.661  0.8053  0.6207  2.1156
 5124SOL     OW15749   3.722   1.827   0.829  0.2495  0.0676 -0.2610
 5124SOL    HW115750   3.775   1.893   0.784  0.6222  0.9613  1.4339
 5124SOL    HW215751   3.692   1.870   0.908 -0.1672 -1.5492  0.4910
 5125SOL     OW15752   5.695   6.731   4.414  0.5482  0.0696  0.0995
 5125SOL    HW115753   5.677   6.645   4.376 -0.2315 -0.4697  1.5979
 5125SOL    HW215754   5.611   6.778   4.407 -0.5445 -1.0623  3.6033
 5126SOL     OW15755   3.013   2.270   0.175  0.3061 -0.2015 -0.5728
 5126SOL    HW115756   3.073   2.216   0.124  0.0001 -0.9107 -0.1924
 5126SOL    HW215757   2.963   2.319   0.110  3.0981  2.5073 -0.9242
 5127SOL     OW15758   0.799   1.527   4.824 -0.0093  0.3929  0.9317
 5127SOL    HW115759   0.848   1.575   4.756  0.4063 -0.4327  0.6291
 5127SOL    HW215760   0.847   1.445   4.834  0.0726  0.5946  2.4127
 5128SOL     OW15761   4.381   3.217   2.033  0.0737  0.3405  0.1347
 5128SOL    HW115762   4.296   3.250   2.063  0.9321  2.4550  0.4121
 5128SOL    HW215763   4.385   3.243   1.941  0.3911  0.1939  0.1054
 5129SOL     OW15764   2.609   6.629   3.727 -0.4083 -0.2408  1.0077
 5129SOL    HW115765   2.585   6.580   3.649 -1.9105  0.7906  0.7853
 5129SOL    HW215766   2.607   6.564   3.797 -0.0593 -0.9642  0.3612
 5130SOL     OW15767   5.396   0.581   5.371 -0.7352  0.0284  0.3798
 5130SOL    HW115768   5.448   0.614   5.297  1.2076  0.6618  1.9397
 5130SOL    HW215769   5.310   0.563   5.333  0.3757 -0.3774 -2.1888
 5131SOL     OW15770   4.820   3.292   2.240  0.4627 -0.3980  0.1628
 5131SOL    HW115771   4.863   3.265   2.159  0.3528  1.0161 -0.4000
 5131SOL    HW215772   4.727   3.283   2.221  0.4504 -0.7751  0.3982
 5132SOL     OW15773   6.601   4.012   3.995 -0.2487 -0.2375 -0.2587
 5132SOL    HW115774   6.546   4.050   4.064  1.5676  0.2671  0.9920
 5132SOL    HW215775   6.625   4.087   3.940  0.1541 -0.2558 -0.1043
 5133SOL     OW15776   2.176   6.468   3.630  0.3201  0.2385  0.0687
 5133SOL    HW115777   2.173   6.450   3.536 -1.0402 -0.9370  0.3004
 5133SOL    HW215778   2.217   6.554   3.637  0.4493  0.3396 -1.5915
 5134SOL     OW15779   4.164   2.764   0.820 -0.3492 -0.3378  0.1766
 5134SOL    HW115780   4.207   2.840   0.859 -0.4919 -0.9066  1.4751
 5134SOL    HW215781   4.111   2.800   0.749  1.0815  0.5480 -0.4897
 5135SOL     OW15782   6.473   0.424   5.459  0.6123 -0.4544  0.6875
 5135SOL    HW115783   6.526   0.471   5.394  0.0209 -0.6237  0.0682
 5135SOL    HW215784   6.478   0.478   5.538  2.4369 -0.9123  0.9301
 5136SOL     OW15785   0.115   2.454   6.686 -0.0582  0.1593  0.3142
 5136SOL    HW115786   0.206   2.462   6.657  0.0430 -0.2459  0.5124
 5136SOL    HW215787   0.067   2.433   6.606  0.0617  0.0940  0.2582
 5137SOL     OW15788   3.116   4.808   0.396 -0.3758  0.4484 -0.2275
 5137SOL    HW115789   3.100   4.732   0.339 -1.0285  0.6392 -0.2992
 5137SOL    HW215790   3.031   4.827   0.435  0.2972 -0.4741  1.8248
 5138SOL     OW15791   5.668   4.101   5.971  0.3362  0.0590  0.0413
 5138SOL    HW115792   5.595   4.119   6.031  0.8921  0.3532  0.6393
 5138SOL    HW215793   5.628   4.105   5.884 -0.2782  0.6657  0.3375
 5139SOL     OW15794   4.654   5.465   6.818 -0.1506  0.3544 -0.5016
 5139SOL    HW115795   4.643   5.373   6.793 -0.4422  0.5864 -1.2507
 5139SOL    HW215796   4.666   5.462   6.913  0.1040 -0.4788 -0.5430
 5140SOL     OW15797   6.684   2.669   0.209  0.2070  0.7488  0.2349
 5140SOL    HW115798   6.594   2.696   0.226  0.7137  1.1450  2.6776
 5140SOL    HW215799   6.738   2.730   0.260  1.6639 -1.5409  1.6306
 5141SOL     OW15800   5.141   0.623   5.299  0.2470 -0.2923  0.4107
 5141SOL    HW115801   5.123   0.678   5.222  3.4472  2.2427  1.2329
 5141SOL    HW215802   5.087   0.661   5.368 -1.2647 -1.4368 -0.0784
 5142SOL     OW15803   6.339   4.275   1.760 -0.2642  0.3330 -0.3471
 5142SOL    HW115804   6.247   4.294   1.778  0.1066  2.1138 -0.1633
 5142SOL    HW215805   6.387   4.316   1.832  0.6558 -1.3823  0.0824
 5143SOL     OW15806   0.866   6.343   4.470  0.4848  0.3439 -0.0577
 5143SOL    HW115807   0.883   6.369   4.561  0.9183  1.0364 -0.3231
 5143SOL    HW215808   0.936   6.387   4.420 -0.5758  1.1279 -0.8898
 5144SOL     OW15809   0.355   4.294   5.481 -0.0842 -0.6209  0.2277
 5144SOL    HW115810   0.359   4.372   5.536 -1.4019 -0.3549 -0.0302
 5144SOL    HW215811   0.441   4.290   5.439 -0.1287  0.9122 -0.0557
 5145SOL     OW15812   0.471   1.010   3.021  0.3131  0.1900 -0.1853
 5145SOL    HW115813   0.431   0.966   2.946  0.2226  0.6717 -0.4269
 5145SOL    HW215814   0.486   0.940   3.084 -0.5367 -0.0742 -0.2516
 5146SOL     OW15815   6.009   5.911   0.590  0.4120  0.0260 -0.5939
 5146SOL    HW115816   5.974   5.951   0.511  0.7724 -0.3931 -0.9723
 5146SOL    HW215817   5.961   5.829   0.599  0.2724  0.1383 -0.2967
 5147SOL     OW15818   0.702   2.759   6.669  0.2878 -0.5128 -0.0431
 5147SOL    HW115819   0.708   2.674   6.625  2.5250 -0.3043 -0.2588
 5147SOL    HW215820   0.734   2.743   6.757 -2.5882 -0.5597  1.1085
 5148SOL     OW15821   3.211   5.635   6.575 -0.4132 -0.0233  0.0920
 5148SOL    HW115822   3.264   5.559   6.553 -0.5152 -0.2378  0.5792
 5148SOL    HW215823   3.268   5.710   6.558  0.5670 -0.2936  1.9682
 5149SOL     OW15824   5.757   1.443   0.893  0.7113 -0.1455 -0.5419
 5149SOL    HW115825   5.828   1.432   0.957 -1.3389  0.1641  1.9298
 5149SOL    HW215826   5.717   1.526   0.916 -1.0591 -0.7591 -1.2612
 5150SOL     OW15827   0.381   3.746   2.226 -0.0188  0.1627  0.0669
 5150SOL    HW115828   0.361   3.755   2.320 -2.1457 -1.1503 -0.1811
 5150SOL    HW215829   0.365   3.654   2.207  2.7753 -0.1551 -1.1433
 5151SOL     OW15830   0.801   1.282   4.034 -0.1052 -0.4538  0.0217
 5151SOL    HW115831   0.710   1.283   4.062  0.2241  0.2952  1.0973
 5151SOL    HW215832   0.824   1.374   4.020  0.8115 -0.5397  0.8662
 5152SOL     OW15833   5.596   2.251   6.500 -0.3109 -0.2331  0.0179
 5152SOL    HW115834   5.633   2.248   6.588  0.7813  0.3700 -0.4100
 5152SOL    HW215835   5.508   2.215   6.510 -0.1103 -0.4033  1.3063
 5153SOL     OW15836   5.542   0.659   4.226  0.2068 -0.5227  0.1153
 5153SOL    HW115837   5.566   0.596   4.293 -2.1601 -1.9616 -0.2758
 5153SOL    HW215838   5.564   0.616   4.143  1.0656  0.3178 -0.1088
 5154SOL     OW15839   0.831   0.928   6.610 -0.5567  0.1794 -0.3723
 5154SOL    HW115840   0.853   0.968   6.694 -1.2090 -1.9033  0.8663
 5154SOL    HW215841   0.896   0.858   6.600 -0.6727  0.2168 -1.4899
 5155SOL     OW15842   6.826   3.234   0.597  0.2693 -0.0531  0.7754
 5155SOL    HW115843   6.863   3.312   0.638  1.8572 -0.7510  0.7569
 5155SOL    HW215844   6.741   3.262   0.564  0.0242  1.1726  2.3484
 5156SOL     OW15845   1.210   1.373   1.510 -0.4687  0.1333 -0.0033
 5156SOL    HW115846   1.248   1.295   1.551 -1.1017  0.3740  1.0853
 5156SOL    HW215847   1.222   1.442   1.576  0.1989  1.0034 -0.9979
 5157SOL     OW15848   3.385   2.134   1.826  0.5417  0.2168  0.0324
 5157SOL    HW115849   3.395   2.229   1.829  1.2179  0.1426  0.5301
 5157SOL    HW215850   3.438   2.106   1.751 -0.2892  0.2962 -0.5939
 5158SOL     OW15851   6.111   4.702   6.456  0.1615  0.7005 -0.4239
 5158SOL    HW115852   6.142   4.692   6.366  0.0932  0.1341 -0.3900
 5158SOL    HW215853   6.188   4.683   6.510 -0.1835 -0.5950 -0.3414
 5159SOL     OW15854   1.946   1.019   5.830  0.2568 -0.1917  0.0683
 5159SOL    HW115855   1.927   1.025   5.737 -0.3007 -0.2498  0.1705
 5159SOL    HW215856   2.040   1.032   5.837  0.1464  0.9359 -0.3966
 5160SOL     OW15857   1.124   6.801   0.288 -0.7497 -0.1188 -0.1693
 5160SOL    HW115858   1.161   6.773   0.372  0.9604  2.0149 -0.1210
 5160SOL    HW215859   1.185   6.768   0.223 -0.7964  0.2110 -0.3837
 5161SOL     OW15860   3.231   0.470   5.965  0.2998 -0.1966  0.3206
 5161SOL    HW115861   3.280   0.508   6.038  0.4198  0.4577 -0.0892
 5161SOL    HW215862   3.149   0.440   6.004  0.3695  0.1355  0.7280
 5162SOL     OW15863   3.083   5.799   3.681 -0.3692 -0.0114 -0.4092
 5162SOL    HW115864   3.082   5.773   3.773 -0.9967  1.9712  0.2027
 5162SOL    HW215865   3.174   5.823   3.663 -0.6408  1.7847  0.4124
 5163SOL     OW15866   2.212   6.395   4.572  0.0895 -0.2308  0.2269
 5163SOL    HW115867   2.193   6.391   4.665 -0.0090  0.7983  0.2559
 5163SOL    HW215868   2.200   6.305   4.541 -1.0140 -0.3544  0.9779
 5164SOL     OW15869   4.754   1.252   5.928  0.4447  0.1179  0.0467
 5164SOL    HW115870   4.760   1.346   5.948 -0.2121  0.3841 -0.9186
 5164SOL    HW215871   4.840   1.217   5.950  0.9290  1.0871 -0.2548
 5165SOL     OW15872   4.912   2.222   2.641 -0.4686 -0.0949 -0.3838
 5165SOL    HW115873   4.995   2.226   2.593 -0.1997  0.4320  0.1106
 5165SOL    HW215874   4.937   2.218   2.733 -0.9756 -1.5320 -0.2831
 5166SOL     OW15875   5.909   6.405   5.490 -0.3163  0.3427  0.0972
 5166SOL    HW115876   5.927   6.436   5.401  1.7817  0.2219  0.4371
 5166SOL    HW215877   5.936   6.314   5.490 -0.5710  0.2617  0.7848
 5167SOL     OW15878   5.926   2.567   1.988 -0.2984 -0.1034 -0.0195
 5167SOL    HW115879   5.943   2.502   1.920  1.1672 -0.8043  0.9874
 5167SOL    HW215880   5.857   2.528   2.042 -2.0270  0.7837 -1.4830
 5168SOL     OW15881   0.348   6.641   6.124 -0.0679  0.4018 -0.4399
 5168SOL    HW115882   0.294   6.562   6.130  0.6202 -0.1914 -1.6986
 5168SOL    HW215883   0.321   6.694   6.199 -1.1180 -0.6658 -0.0300
 5169SOL     OW15884   1.268   5.670   4.042 -0.2854 -0.3905  0.0211
 5169SOL    HW115885   1.295   5.751   4.086  0.4056 -0.4796 -0.2283
 5169SOL    HW215886   1.201   5.633   4.100 -1.0318  0.6458 -0.1426
 5170SOL     OW15887   1.190   3.588   6.762 -0.4034  0.4482  0.0861
 5170SOL    HW115888   1.132   3.528   6.811 -0.4782  1.3728  1.1698
 5170SOL    HW215889   1.132   3.630   6.699 -0.1111 -1.5174 -1.5941
 5171SOL     OW15890   0.250   6.095   1.576 -0.6759 -0.0191  0.1946
 5171SOL    HW115891   0.283   6.125   1.661  1.8401  0.0638 -0.7408
 5171SOL    HW215892   0.225   6.004   1.591  1.8917 -0.7381  0.5652
 5172SOL     OW15893   5.429   6.239   4.932  0.3730  0.1671  0.1139
 5172SOL    HW115894   5.387   6.325   4.943  0.6552  0.1978  0.9825
 5172SOL    HW215895   5.518   6.258   4.904  0.1395  0.1257 -0.6849
 5173SOL     OW15896   1.818   3.201   4.852 -0.0422 -0.2210  0.1686
 5173SOL    HW115897   1.879   3.143   4.898 -0.5796  0.9453  2.4920
 5173SOL    HW215898   1.803   3.158   4.767  2.2406 -1.6636  0.4140
 5174SOL     OW15899   4.664   1.813   4.592 -0.0819 -0.2977 -0.5055
 5174SOL    HW115900   4.585   1.772   4.626 -0.1075  0.0987 -0.0798
 5174SOL    HW215901   4.648   1.822   4.498 -0.7830  0.3145 -0.3332
 5175SOL     OW15902   6.450   3.956   2.950 -0.3918  0.2083  0.2522
 5175SOL    HW115903   6.503   3.970   3.028  1.6216  0.4114 -1.0662
 5175SOL    HW215904   6.479   3.872   2.915 -1.1964  0.1587 -0.3307
 5176SOL     OW15905   1.798   5.259   4.042 -0.3065  0.0119 -0.1297
 5176SOL    HW115906   1.738   5.331   4.023  0.0201  0.4634  0.4984
 5176SOL    HW215907   1.850   5.249   3.962 -2.6793 -1.9033 -1.5490
 5177SOL     OW15908   3.953   1.229   2.210 -0.8073 -0.2712 -0.1440
 5177SOL    HW115909   3.927   1.260   2.123  0.3073 -0.4389 -0.5562
 5177SOL    HW215910   3.963   1.308   2.262 -1.9164 -0.1907 -0.0196
 5178SOL     OW15911   4.033   6.345   4.335  0.5895  0.1393 -0.4482
 5178SOL    HW115912   4.008   6.321   4.246  0.6299 -3.4573  0.3388
 5178SOL    HW215913   4.097   6.278   4.361 -1.2278 -0.5053  3.0507
 5179SOL     OW15914   2.689   5.743   1.171 -0.4665 -0.1350 -0.2827
 5179SOL    HW115915   2.726   5.724   1.085 -2.5724  2.6169 -1.9587
 5179SOL    HW215916   2.693   5.838   1.179 -1.2361 -0.2279  2.2793
 5180SOL     OW15917   0.130   4.697   0.643  0.2502  0.4300  0.2734
 5180SOL    HW115918   0.141   4.663   0.732  2.1024  0.1718 -0.0115
 5180SOL    HW215919   0.062   4.763   0.651 -0.1144 -0.0910  1.7514
 5181SOL     OW15920   2.604   3.222   2.154 -0.1542 -0.5976 -0.0501
 5181SOL    HW115921   2.583   3.290   2.090 -2.7848 -1.1197  0.1606
 5181SOL    HW215922   2.574   3.257   2.238 -2.6972 -2.4121 -0.1110
 5182SOL     OW15923   1.345   5.096   4.350  0.0597  0.2066 -0.1351
 5182SOL    HW115924   1.272   5.038   4.375 -0.1588  0.7397  0.5001
 5182SOL    HW215925   1.417   5.069   4.406 -0.1271  0.7216  0.3700
 5183SOL     OW15926   5.865   2.291   5.701  0.2618 -0.3101  0.1862
 5183SOL    HW115927   5.826   2.370   5.739  0.5631 -0.4138  0.7189
 5183SOL    HW215928   5.851   2.224   5.768  1.4550 -0.3217  0.4461
 5184SOL     OW15929   0.703   5.098   0.926  0.0535  0.5884  0.6979
 5184SOL    HW115930   0.728   5.182   0.888  2.2028 -0.3732 -0.1653
 5184SOL    HW215931   0.713   5.110   1.020  0.3018  1.3120  0.5803
 5185SOL     OW15932   1.852   3.052   3.623  0.1971  0.1966 -0.2239
 5185SOL    HW115933   1.941   3.067   3.653 -0.2487 -0.5860  1.6819
 5185SOL    HW215934   1.853   2.963   3.588  0.2965  0.4071 -0.7551
 5186SOL     OW15935   3.150   6.337   5.979 -0.3613  0.6027 -0.1638
 5186SOL    HW115936   3.119   6.423   5.951 -0.7814  0.6925  0.5612
 5186SOL    HW215937   3.081   6.277   5.953 -0.7362  0.6812  0.6103
 5187SOL     OW15938   6.152   1.521   5.701  0.2029 -0.0278  0.0628
 5187SOL    HW115939   6.123   1.560   5.783  2.3531 -2.3255  2.0963
 5187SOL    HW215940   6.099   1.442   5.692  1.4050 -0.9208  0.4733
 5188SOL     OW15941   4.239   4.043   2.304 -0.0216  0.4823 -0.1053
 5188SOL    HW115942   4.238   4.046   2.208  0.8185  0.0836 -0.1389
 5188SOL    HW215943   4.148   4.026   2.328 -0.3877  1.3801 -0.7933
 5189SOL     OW15944   5.161   0.032   2.208 -0.1126  0.2849  0.2504
 5189SOL    HW115945   5.204   0.042   2.293 -2.5770  0.0267  1.6302
 5189SOL    HW215946   5.097  -0.038   2.222 -0.7214  0.3715 -1.7847
 5190SOL     OW15947   6.028   1.362   6.110  0.1678  0.4033  0.1508
 5190SOL    HW115948   6.108   1.329   6.068 -1.2718 -3.8252  0.2622
 5190SOL    HW215949   6.057   1.392   6.196  1.7839 -0.0094 -0.2083
 5191SOL     OW15950   5.788   2.719   6.636 -0.2080  0.3244 -0.6228
 5191SOL    HW115951   5.850   2.656   6.600  0.2284  0.2944  0.1534
 5191SOL    HW215952   5.742   2.755   6.560 -0.4158 -0.8784 -1.0761
 5192SOL     OW15953   0.357   2.234   5.041  0.5672  0.1923  0.0023
 5192SOL    HW115954   0.293   2.277   5.098  0.9834  1.6449 -0.5656
 5192SOL    HW215955   0.413   2.306   5.011  0.9110 -0.6803 -1.5076
 5193SOL     OW15956   2.136   2.213   5.705  0.1610  0.2493 -0.3287
 5193SOL    HW115957   2.128   2.125   5.743  0.4880 -0.0841 -1.0107
 5193SOL    HW215958   2.045   2.240   5.688  0.0415  0.1890  0.2065
 5194SOL     OW15959   5.936   6.319   5.961  0.5053  0.5023 -0.5142
 5194SOL    HW115960   6.011   6.269   5.994  2.0801  2.4269 -1.0035
 5194SOL    HW215961   5.941   6.404   6.006 -1.9943  0.3781  0.1937
 5195SOL     OW15962   2.915   0.941   4.514  0.7734 -0.3645  0.2045
 5195SOL    HW115963   2.872   0.868   4.470 -2.2460  2.2581 -1.6532
 5195SOL    HW215964   2.863   0.956   4.593  2.6462 -1.3759  1.7286
 5196SOL     OW15965   2.311   4.949   6.570 -0.3746  0.2978 -0.2428
 5196SOL    HW115966   2.265   5.032   6.582  2.1631  1.9000 -0.7700
 5196SOL    HW215967   2.333   4.947   6.477  1.4579  0.1534  0.1565
 5197SOL     OW15968   5.368   5.913   0.917  0.1531 -0.1693 -0.1794
 5197SOL    HW115969   5.277   5.926   0.891 -0.3554  1.6789  2.1728
 5197SOL    HW215970   5.400   6.001   0.936  2.2299 -0.8548 -0.2892
 5198SOL     OW15971   6.321   3.848   0.698  0.3822  0.2510 -0.1817
 5198SOL    HW115972   6.399   3.801   0.727 -0.2537 -0.1103  0.9650
 5198SOL    HW215973   6.253   3.826   0.762 -0.0942  2.2914  0.0923
 5199SOL     OW15974   5.318   1.946   6.107  0.2621 -0.0232  0.3810
 5199SOL    HW115975   5.379   1.903   6.046 -1.4517  1.0327 -2.2445
 5199SOL    HW215976   5.367   2.020   6.141  1.7075 -1.3828  1.4244
 5200SOL     OW15977   3.826   0.634   2.364  0.9554 -1.0453  0.0103
 5200SOL    HW115978   3.902   0.609   2.312  0.9224 -0.0299 -0.5496
 5200SOL    HW215979   3.849   0.609   2.454  1.8924 -0.8774 -0.1712
 5201SOL     OW15980   0.720   1.125   1.148 -0.0160  0.3291  0.3519
 5201SOL    HW115981   0.748   1.209   1.186  1.0396 -0.5828  1.6672
 5201SOL    HW215982   0.791   1.100   1.090  0.7933 -0.7562  1.7508
 5202SOL     OW15983   3.348   6.084   3.831 -0.4587  0.3363  0.4425
 5202SOL    HW115984   3.433   6.051   3.859 -0.1972  1.1199  0.5802
 5202SOL    HW215985   3.332   6.041   3.747  1.2020  2.0178 -0.7976
 5203SOL     OW15986   0.428   1.980   5.574  0.0098 -0.4282 -0.5289
 5203SOL    HW115987   0.451   2.003   5.484 -0.6002 -0.3049 -0.6603
 5203SOL    HW215988   0.486   2.033   5.628  1.9926 -2.1630 -0.8268
 5204SOL     OW15989   4.185   4.919   6.629  0.1352 -0.2067  0.5225
 5204SOL    HW115990   4.237   4.960   6.698 -2.7219  1.0881  2.1185
 5204SOL    HW215991   4.181   4.986   6.560  0.5403 -0.2937  0.4134
 5205SOL     OW15992   5.946   3.373   4.617 -0.2489  0.3170 -0.6476
 5205SOL    HW115993   5.869   3.315   4.622  0.4613 -0.5989 -0.0384
 5205SOL    HW215994   5.973   3.385   4.708 -0.2225  1.4129 -0.7836
 5206SOL     OW15995   5.636   1.594   4.660 -0.0222  0.0763  0.2147
 5206SOL    HW115996   5.628   1.553   4.574  0.0641 -1.2165  0.7992
 5206SOL    HW215997   5.722   1.568   4.692 -0.0614  0.5242  0.7107
 5207SOL     OW15998   4.091   6.374   2.214  0.2601  0.0250  0.3017
 5207SOL    HW115999   4.138   6.373   2.298  0.9172  1.5025 -0.0234
 5207SOL    HW216000   4.155   6.406   2.151 -0.1583 -1.3008 -0.8446
 5208SOL     OW16001   1.465   4.976   0.977 -0.2234 -0.0328  0.3535
 5208SOL    HW116002   1.457   5.014   1.064 -1.4909  0.0361  0.2281
 5208SOL    HW216003   1.388   5.008   0.930 -0.5261 -1.5509 -0.2260
 5209SOL     OW16004   3.696   6.822   5.061 -0.0149  0.5170  0.0850
 5209SOL    HW116005   3.736   6.908   5.072 -0.7766  1.0947 -1.4032
 5209SOL    HW216006   3.771   6.763   5.046  0.5488  0.7870  1.6596
 5210SOL     OW16007   6.810   3.964   1.999  0.2373 -0.2573 -0.2228
 5210SOL    HW116008   6.861   4.028   1.949  0.2707 -0.5546 -0.5699
 5210SOL    HW216009   6.866   3.886   2.003  0.1881 -0.2750  0.1806
 5211SOL     OW16010   1.221   5.628   0.385 -0.4264  0.2938 -0.3306
 5211SOL    HW116011   1.282   5.555   0.371 -3.0936 -2.1269 -0.4981
 5211SOL    HW216012   1.223   5.643   0.479 -0.0238 -0.1724 -0.2602
 5212SOL     OW16013   1.839   0.231   5.713  0.1486  0.0210  0.2238
 5212SOL    HW116014   1.861   0.138   5.712  1.1501  0.2532  0.3875
 5212SOL    HW216015   1.759   0.235   5.766  0.4039 -0.6820  0.6815
 5213SOL     OW16016   2.560   6.576   5.789  0.0857 -0.0954 -0.3384
 5213SOL    HW116017   2.480   6.525   5.806  0.5658 -0.7751 -0.0958
 5213SOL    HW216018   2.558   6.594   5.695 -0.1317 -0.4849 -0.4073
 5214SOL     OW16019   3.541   2.415   5.604  0.1351 -0.0753 -0.4857
 5214SOL    HW116020   3.514   2.370   5.525 -0.5544 -1.1844  0.3508
 5214SOL    HW216021   3.459   2.441   5.647  0.5074  1.4126 -0.6115
 5215SOL     OW16022   5.620   2.030   5.024 -0.4915 -0.1074 -0.1330
 5215SOL    HW116023   5.679   2.056   4.953 -1.7417 -1.6861 -1.8487
 5215SOL    HW216024   5.614   2.107   5.080 -0.7043  1.8185 -2.6314
 5216SOL     OW16025   0.948   0.679   6.312 -0.0074 -0.1428 -0.2862
 5216SOL    HW116026   0.981   0.727   6.236 -0.1868  0.1704 -0.1675
 5216SOL    HW216027   0.957   0.741   6.385 -0.4241 -0.2185 -0.1691
 5217SOL     OW16028   3.467   1.634   0.987 -0.3285  0.2702 -0.1122
 5217SOL    HW116029   3.496   1.702   0.926  0.8255  0.0599  0.1644
 5217SOL    HW216030   3.537   1.569   0.984 -0.0739  0.4133  1.6740
 5218SOL     OW16031   2.673   1.742   6.562  0.0239  0.8427 -0.2313
 5218SOL    HW116032   2.731   1.801   6.611  0.8334  0.0108 -0.1756
 5218SOL    HW216033   2.698   1.755   6.471 -0.4251  1.2445 -0.3039
 5219SOL     OW16034   3.351   3.994   0.775  0.3201  0.1353  0.4947
 5219SOL    HW116035   3.440   4.007   0.741  0.2603  1.2013  0.7151
 5219SOL    HW216036   3.322   4.082   0.800 -1.4277  0.0868 -1.0889
 5220SOL     OW16037   1.090   3.854   6.742 -0.4430 -0.0792  0.8945
 5220SOL    HW116038   1.048   3.926   6.790 -0.0741  1.0312 -0.4139
 5220SOL    HW216039   1.077   3.875   6.650 -0.1910 -1.6263  0.4787
 5221SOL     OW16040   1.122   4.599   4.884  0.1429 -0.5008 -0.1552
 5221SOL    HW116041   1.043   4.619   4.834  0.2970 -0.1411 -0.2578
 5221SOL    HW216042   1.193   4.606   4.821  0.1962 -1.5090 -0.2253
 5222SOL     OW16043   1.429   4.905   3.109  0.7666 -0.1461  0.0188
 5222SOL    HW116044   1.505   4.847   3.110  1.5579  0.8638  0.8421
 5222SOL    HW216045   1.458   4.984   3.155 -0.6039  0.4926 -0.1520
 5223SOL     OW16046   4.454   4.363   1.239  0.4154  0.4023  0.1071
 5223SOL    HW116047   4.542   4.398   1.226 -0.0325  2.3312  1.7476
 5223SOL    HW216048   4.439   4.305   1.164  2.8334  0.4928 -0.5072
 5224SOL     OW16049   2.483   1.964   0.759 -0.2635  0.3669  0.0282
 5224SOL    HW116050   2.398   1.972   0.717 -0.2432 -1.2885 -0.3926
 5224SOL    HW216051   2.513   2.054   0.770 -1.0621  0.9128 -1.8623
 5225SOL     OW16052   0.078   4.904   0.054  0.4113  0.0793 -0.0264
 5225SOL    HW116053   0.108   4.858   0.133  2.4300 -0.2709 -0.9510
 5225SOL    HW216054  -0.017   4.892   0.055  0.4414 -0.4602  2.0067
 5226SOL     OW16055   3.792   3.974   4.236 -0.0696  0.1006 -0.0722
 5226SOL    HW116056   3.807   3.899   4.293 -0.1062 -0.3622 -0.6686
 5226SOL    HW216057   3.727   4.026   4.282 -1.1991 -1.0154 -0.3671
 5227SOL     OW16058   6.128   0.403   6.341  0.1043 -0.1023  0.2960
 5227SOL    HW116059   6.051   0.433   6.293 -0.4272 -0.2003  1.0685
 5227SOL    HW216060   6.092   0.356   6.416  0.9236 -0.7241  0.3098
 5228SOL     OW16061   3.659   1.854   6.349 -0.2561  0.2941  0.0020
 5228SOL    HW116062   3.702   1.787   6.401 -0.5262  0.6663  0.7295
 5228SOL    HW216063   3.612   1.806   6.280 -1.7580 -0.4152  1.4481
 5229SOL     OW16064   2.490   5.699   6.452  0.4741  0.6390  0.6617
 5229SOL    HW116065   2.441   5.701   6.534 -2.5042  0.5927 -0.9855
 5229SOL    HW216066   2.514   5.607   6.441 -1.3421  0.1622  0.3344
 5230SOL     OW16067   4.409   2.169   1.879  0.6058  0.1616 -0.5663
 5230SOL    HW116068   4.354   2.092   1.870  0.4604  0.3022 -0.9275
 5230SOL    HW216069   4.350   2.238   1.910  0.6952  0.1737 -0.4222
 5231SOL     OW16070   4.391   5.313   5.075  0.0723 -0.2642  0.0546
 5231SOL    HW116071   4.380   5.288   4.984  1.2152 -1.2315  0.1455
 5231SOL    HW216072   4.355   5.401   5.081 -2.4922 -1.1883 -0.7061
 5232SOL     OW16073   2.854   5.876   0.179 -0.0779  0.2635  0.1581
 5232SOL    HW116074   2.940   5.894   0.219  0.0399 -1.4476  0.7978
 5232SOL    HW216075   2.873   5.860   0.087  0.6458 -1.9129  0.6073
 5233SOL     OW16076   6.587   4.672   1.740  0.0317 -0.1901  0.3498
 5233SOL    HW116077   6.679   4.697   1.733 -0.3975  1.1264 -1.3827
 5233SOL    HW216078   6.588   4.577   1.751  1.5997 -0.0734  1.4775
 5234SOL     OW16079   5.970   3.173   4.078 -0.0449 -0.3243 -0.0018
 5234SOL    HW116080   5.896   3.198   4.024 -0.1630 -0.2359  0.2009
 5234SOL    HW216081   6.027   3.123   4.019 -1.0580 -1.8337  0.2526
 5235SOL     OW16082   5.705   6.271   1.789  0.5305  0.1851  0.4162
 5235SOL    HW116083   5.735   6.185   1.819  0.9189  0.8122  1.9506
 5235SOL    HW216084   5.783   6.311   1.750  0.5561  0.1299  0.4109
 5236SOL     OW16085   2.290   0.812   5.517  0.4334  0.1240 -0.3164
 5236SOL    HW116086   2.330   0.791   5.601  0.5045 -1.8844 -0.8070
 5236SOL    HW216087   2.297   0.732   5.466  0.6541  1.3752 -2.3671
 5237SOL     OW16088   1.860   3.031   2.088  0.1010 -0.2935  0.1006
 5237SOL    HW116089   1.779   3.050   2.134 -0.5187  0.6646 -1.3264
 5237SOL    HW216090   1.896   3.117   2.064  0.1192 -0.7313 -1.6302
 5238SOL     OW16091   5.587   2.324   2.093 -0.4028 -0.8062 -0.4812
 5238SOL    HW116092   5.682   2.313   2.084 -0.2459  0.7850 -1.1052
 5238SOL    HW216093   5.569   2.409   2.053 -1.9210 -0.5114  0.7307
 5239SOL     OW16094   4.568   0.602   0.188  0.3286 -0.0299  0.0812
 5239SOL    HW116095   4.580   0.540   0.116 -1.2810 -1.2928  0.8148
 5239SOL    HW216096   4.477   0.588   0.217  1.3099 -0.6645  3.2800
 5240SOL     OW16097   1.964   5.101   0.610 -0.3035 -0.1008 -0.0845
 5240SOL    HW116098   1.996   5.074   0.696 -1.4401 -0.5240  0.2184
 5240SOL    HW216099   2.041   5.139   0.567  0.6382 -1.1709  0.5764
 5241SOL     OW16100   4.015   4.454   1.401 -0.2619  0.3676 -0.3486
 5241SOL    HW116101   3.950   4.387   1.421 -0.0630  0.0645 -0.7138
 5241SOL    HW216102   3.964   4.536   1.398 -0.2814  0.4465  1.4182
 5242SOL     OW16103   2.991   1.333   4.278  0.0925  0.0677  0.0870
 5242SOL    HW116104   2.910   1.355   4.325  0.0384  2.0106 -0.7785
 5242SOL    HW216105   2.995   1.238   4.279 -1.4839 -0.0270  1.3468
 5243SOL     OW16106   5.422   0.185   4.616  1.0800  0.5187 -0.2560
 5243SOL    HW116107   5.383   0.116   4.670  0.4526  1.7929  0.9806
 5243SOL    HW216108   5.358   0.202   4.547  1.2923 -0.1866 -0.6418
 5244SOL     OW16109   4.042   6.782   5.926 -0.2310 -0.0200 -0.4696
 5244SOL    HW116110   4.008   6.780   6.015 -1.4581 -1.6478 -0.9148
 5244SOL    HW216111   3.990   6.849   5.882 -0.0906  0.3103 -0.1331
 5245SOL     OW16112   3.661   2.337   2.252  0.1348 -0.4067 -0.5008
 5245SOL    HW116113   3.580   2.387   2.269  0.8074  1.1247 -1.6085
 5245SOL    HW216114   3.672   2.284   2.331 -1.2757  0.2886  0.2139
 5246SOL     OW16115   2.856   5.866   5.408  0.2706 -0.3513 -0.0141
 5246SOL    HW116116   2.829   5.775   5.422 -0.4298  0.0281  1.3686
 5246SOL    HW216117   2.774   5.912   5.389  0.5606  0.0606 -0.2633
 5247SOL     OW16118   3.349   6.208   0.743 -0.1587  0.1527 -0.2015
 5247SOL    HW116119   3.428   6.159   0.763  1.0340  2.3592  0.8433
 5247SOL    HW216120   3.343   6.207   0.648  0.7463 -0.6156 -0.2584
 5248SOL     OW16121   3.822   4.063   3.513  0.6436 -0.1673 -0.1606
 5248SOL    HW116122   3.739   4.102   3.484  1.2567  1.5485  0.2255
 5248SOL    HW216123   3.889   4.115   3.469  1.5318  0.2886  1.6221
 5249SOL     OW16124   1.102   0.247   2.726 -0.1171  0.3027  0.6123
 5249SOL    HW116125   1.143   0.288   2.802  1.1353 -0.6087  0.4603
 5249SOL    HW216126   1.174   0.236   2.664 -1.2591  1.7457 -1.0467
 5250SOL     OW16127   0.861   0.679   4.966 -0.1441 -0.0955  0.2680
 5250SOL    HW116128   0.940   0.669   4.912 -0.0393  1.0351  0.1779
 5250SOL    HW216129   0.797   0.620   4.926 -0.3221  1.2781 -1.6340
 5251SOL     OW16130   5.341   2.179   6.519 -0.1876  0.2081  0.2684
 5251SOL    HW116131   5.296   2.256   6.553 -1.7950 -0.3075 -0.5810
 5251SOL    HW216132   5.314   2.174   6.427  1.1531 -0.4897 -0.1163
 5252SOL     OW16133   5.126   5.336   2.896 -0.1035 -0.0619  0.4392
 5252SOL    HW116134   5.143   5.391   2.972  0.8242 -1.5422  1.3623
 5252SOL    HW216135   5.031   5.330   2.891 -0.1886  0.7988  0.9147
 5253SOL     OW16136   0.169   2.911   1.297  0.2679  0.6304  0.0944
 5253SOL    HW116137   0.189   2.853   1.224  1.7747  0.4848  0.5879
 5253SOL    HW216138   0.222   2.877   1.370 -2.5656 -0.4206  1.8639
 5254SOL     OW16139   6.242   2.963   3.311  0.3788 -0.4362  0.3346
 5254SOL    HW116140   6.240   2.958   3.407  1.4138  0.3497  0.4068
 5254SOL    HW216141   6.153   2.990   3.287 -0.0447 -1.1655  1.0315
 5255SOL     OW16142   3.241   5.547   1.413  0.1712  0.1094 -0.4802
 5255SOL    HW116143   3.231   5.615   1.480 -0.3873 -0.3978 -0.0366
 5255SOL    HW216144   3.273   5.471   1.461  0.1657 -0.1328 -0.8588
 5256SOL     OW16145   0.498   0.843   6.080 -0.2504 -0.5657 -0.1938
 5256SOL    HW116146   0.410   0.880   6.094 -0.4123 -0.1320 -2.0630
 5256SOL    HW216147   0.487   0.749   6.093 -0.5864 -0.3627  1.2514
 5257SOL     OW16148   2.773   3.758   4.551 -0.2503 -0.1752  0.4824
 5257SOL    HW116149   2.776   3.666   4.523 -0.3735  0.3401 -1.3445
 5257SOL    HW216150   2.863   3.789   4.542 -0.2685 -0.0243  0.7977
 5258SOL     OW16151   6.522   1.203   1.827 -0.2928 -0.2561 -0.4647
 5258SOL    HW116152   6.488   1.113   1.822 -0.4214 -0.1855 -0.8937
 5258SOL    HW216153   6.481   1.239   1.905  0.3516 -0.8130  0.1508
 5259SOL     OW16154   2.787   6.752   2.936 -0.2729 -0.2259  0.2690
 5259SOL    HW116155   2.878   6.761   2.909 -0.2599 -0.5334  0.2101
 5259SOL    HW216156   2.741   6.821   2.888  0.2322  1.2011  1.7658
 5260SOL     OW16157   1.662   3.500   2.264  0.3697 -0.4951 -0.2900
 5260SOL    HW116158   1.669   3.524   2.172 -0.8408  2.0038  0.1965
 5260SOL    HW216159   1.753   3.488   2.293  0.7447 -2.1900 -1.9389
 5261SOL     OW16160   3.885   0.793   1.056 -0.3942 -0.2615 -0.4620
 5261SOL    HW116161   3.940   0.723   1.023  0.6201  0.1915  0.2050
 5261SOL    HW216162   3.860   0.843   0.979  0.1644 -0.4533 -0.7720
 5262SOL     OW16163   0.768   1.564   1.605  0.2322 -0.2298  0.0110
 5262SOL    HW116164   0.703   1.525   1.546 -1.4772  2.6765 -0.2335
 5262SOL    HW216165   0.724   1.569   1.690 -0.5194  2.8295 -0.4134
 5263SOL     OW16166   3.615   4.673   4.591  0.1179 -0.1637 -0.2182
 5263SOL    HW116167   3.522   4.656   4.604  0.2468 -0.0334  1.0581
 5263SOL    HW216168   3.629   4.760   4.628  0.3177  0.8815 -2.5912
 5264SOL     OW16169   1.205   6.324   6.102  0.5273 -0.1867 -0.4322
 5264SOL    HW116170   1.269   6.395   6.097  0.5906 -0.1706  0.4753
 5264SOL    HW216171   1.243   6.254   6.048  0.7447  0.2467 -0.8458
 5265SOL     OW16172   4.468   0.906   1.681 -0.4886 -0.2194 -0.1263
 5265SOL    HW116173   4.438   0.841   1.617  2.7476 -2.3837  0.3131
 5265SOL    HW216174   4.469   0.859   1.764 -0.1181  1.0736  0.6368
 5266SOL     OW16175   6.624   3.543   1.404  0.0508  0.2170 -0.1475
 5266SOL    HW116176   6.580   3.480   1.347  0.0870 -0.2042  0.2813
 5266SOL    HW216177   6.680   3.490   1.460 -0.6295  0.5199  0.8617
 5267SOL     OW16178   5.492   0.258   6.372  0.5599  0.0543 -0.1514
 5267SOL    HW116179   5.540   0.206   6.308  1.0403 -1.2939  1.2430
 5267SOL    HW216180   5.400   0.248   6.346  0.7959  0.1413 -1.0512
 5268SOL     OW16181   6.176   4.146   0.051  0.2225 -0.3948 -0.1586
 5268SOL    HW116182   6.204   4.235   0.070 -1.4327  0.0945  0.1406
 5268SOL    HW216183   6.182   4.138  -0.044 -1.2695  0.6703 -0.3845
 5269SOL     OW16184   3.909   1.686   5.446  0.1930  1.0369  0.1008
 5269SOL    HW116185   3.959   1.692   5.364 -0.3853  1.7801 -0.2109
 5269SOL    HW216186   3.914   1.594   5.471  1.1000  0.9598 -0.3103
 5270SOL     OW16187   4.367   6.428   4.229  0.8478  0.3636  0.0017
 5270SOL    HW116188   4.386   6.459   4.318  0.2956  0.5324  0.0687
 5270SOL    HW216189   4.408   6.493   4.172 -0.7111  1.5405  0.1381
 5271SOL     OW16190   0.059   4.780   4.599  0.2155  0.1976  1.1869
 5271SOL    HW116191   0.061   4.790   4.694 -0.0910  0.7311  1.1414
 5271SOL    HW216192  -0.016   4.723   4.582  0.9430 -0.8073  1.3377
 5272SOL     OW16193   4.137   4.752   5.479 -0.0306  0.2374 -0.2762
 5272SOL    HW116194   4.190   4.693   5.426  1.1255  2.2744 -1.5128
 5272SOL    HW216195   4.197   4.823   5.502 -1.8532  1.9216 -0.5112
 5273SOL     OW16196   5.883   1.166   1.153  0.3163 -0.1497 -0.0180
 5273SOL    HW116197   5.852   1.255   1.136 -0.1166 -0.0596  1.1641
 5273SOL    HW216198   5.862   1.150   1.245  4.5202  0.2482  1.2065
 5274SOL     OW16199   2.466   1.464   5.259 -0.3808 -0.0873 -0.2154
 5274SOL    HW116200   2.407   1.528   5.299 -0.8169 -0.5418 -0.1297
 5274SOL    HW216201   2.410   1.390   5.236  0.3501 -1.1093  1.1295
 5275SOL     OW16202   3.537   4.778   4.284  0.0142 -0.0646 -0.3677
 5275SOL    HW116203   3.567   4.688   4.298 -0.3460 -0.0618  0.4430
 5275SOL    HW216204   3.573   4.827   4.357 -0.9197  0.1810 -0.0569
 5276SOL     OW16205   4.769   0.590   4.038  0.0373 -0.3320 -0.1126
 5276SOL    HW116206   4.719   0.528   4.091  0.8635 -0.0734  1.0186
 5276SOL    HW216207   4.706   0.626   3.977 -0.6131 -1.7802 -0.3387
 5277SOL     OW16208   0.583   4.998   4.892 -0.2314 -0.2434  0.2468
 5277SOL    HW116209   0.673   4.970   4.875  0.2408  1.1253  0.3526
 5277SOL    HW216210   0.545   4.926   4.942  0.3959 -1.4061 -0.8967
 5278SOL     OW16211   6.791   5.783   6.721  0.1707  0.4433  0.3629
 5278SOL    HW116212   6.864   5.782   6.659 -1.5295 -1.6999 -1.7682
 5278SOL    HW216213   6.789   5.695   6.757 -1.9341  0.1350 -0.3917
 5279SOL     OW16214   1.098   2.037   5.720  0.1716  0.2827 -0.3997
 5279SOL    HW116215   1.147   1.956   5.707  2.2906  1.4457  0.0188
 5279SOL    HW216216   1.009   2.016   5.690  0.6343 -2.2000 -0.2156
 5280SOL     OW16217   6.143   2.227   2.051  0.1437 -0.6223 -0.0124
 5280SOL    HW116218   6.181   2.256   2.133  0.9199 -0.5651 -0.3865
 5280SOL    HW216219   6.192   2.148   2.028 -0.8924 -1.3506  0.2015
 5281SOL     OW16220   6.436   6.534   3.474 -0.2954  0.1794  0.5229
 5281SOL    HW116221   6.384   6.455   3.486 -0.0791  0.2212  1.8949
 5281SOL    HW216222   6.525   6.502   3.460 -0.6263  0.1086 -1.8057
 5282SOL     OW16223   6.360   6.811   6.012  0.3475 -0.2513 -0.0690
 5282SOL    HW116224   6.456   6.805   6.017  0.3880  0.3336 -0.0537
 5282SOL    HW216225   6.344   6.875   5.943 -0.0493 -0.7847 -0.4776
 5283SOL     OW16226   2.036   1.936   6.594  0.4890 -0.1345  0.1245
 5283SOL    HW116227   2.075   1.932   6.506 -2.2743 -0.8682 -1.1929
 5283SOL    HW216228   1.942   1.947   6.577 -0.0398  0.4730  3.0435
 5284SOL     OW16229   3.550   3.178   4.783  0.4674 -0.3666 -0.4741
 5284SOL    HW116230   3.633   3.130   4.785 -0.6365 -2.3635 -0.1538
 5284SOL    HW216231   3.532   3.200   4.874  1.1003  0.9757 -0.6448
 5285SOL     OW16232   2.005   4.675   2.837  0.1262  0.0253 -0.1362
 5285SOL    HW116233   2.062   4.612   2.792  0.8874 -0.1817  1.0568
 5285SOL    HW216234   2.052   4.758   2.830  1.1206 -0.3276  1.6846
 5286SOL     OW16235   2.569   4.572   1.122  0.2876 -0.2866 -0.0712
 5286SOL    HW116236   2.638   4.634   1.100  0.5242 -0.5578 -0.0889
 5286SOL    HW216237   2.611   4.507   1.178 -0.4440  0.7669  1.8029
 5287SOL     OW16238   4.993   5.170   1.120  0.3087 -0.6613  0.4385
 5287SOL    HW116239   4.911   5.175   1.072 -1.1431  1.0299  2.8532
 5287SOL    HW216240   5.006   5.077   1.137  0.6308 -1.2753 -2.6147
 5288SOL     OW16241   2.538   1.632   1.763  0.0469  0.1412 -0.1438
 5288SOL    HW116242   2.535   1.711   1.817 -0.7949 -0.7463  1.1761
 5288SOL    HW216243   2.610   1.581   1.800  1.9270  1.1149 -2.2685
 5289SOL     OW16244   3.854   1.966   5.379 -0.0287 -0.4840 -0.0203
 5289SOL    HW116245   3.918   1.896   5.391  0.3884 -0.1757 -0.4092
 5289SOL    HW216246   3.816   1.950   5.293  0.1771 -0.1451 -0.1749
 5290SOL     OW16247   1.408   3.770   6.739 -0.6173 -0.4848  0.0588
 5290SOL    HW116248   1.322   3.735   6.758 -1.1905  1.4966  1.4326
 5290SOL    HW216249   1.454   3.769   6.823 -0.2149  0.7945 -0.1211
 5291SOL     OW16250   0.515   4.745   3.709 -0.0581  0.1122  0.4422
 5291SOL    HW116251   0.472   4.749   3.794 -1.2593 -1.2831 -0.0647
 5291SOL    HW216252   0.454   4.698   3.652  1.2233 -0.0518 -0.8858
 5292SOL     OW16253   5.980   2.355   1.847 -0.8210  0.4188 -0.2507
 5292SOL    HW116254   6.013   2.293   1.911 -0.2394  1.7362  0.7701
 5292SOL    HW216255   5.984   2.309   1.763 -0.1185 -0.7877  0.4361
 5293SOL     OW16256   2.270   6.717   3.644 -0.0042  0.0766  0.4301
 5293SOL    HW116257   2.188   6.766   3.640 -0.4392 -0.7188 -2.2599
 5293SOL    HW216258   2.333   6.772   3.599  0.4739 -0.1786  0.7729
 5294SOL     OW16259   6.417   3.202   1.539  0.7662 -0.5283  0.3611
 5294SOL    HW116260   6.369   3.135   1.588 -2.9093  1.3715 -0.3731
 5294SOL    HW216261   6.436   3.270   1.603  0.3713 -0.2213  0.1504
 5295SOL     OW16262   4.473   5.267   2.050 -0.0159 -0.1816  0.0492
 5295SOL    HW116263   4.545   5.276   2.113  0.0027  1.1624 -0.1292
 5295SOL    HW216264   4.394   5.279   2.103 -0.0230  0.2820 -0.0582
 5296SOL     OW16265   3.556   4.048   1.782  0.1230  0.6859  0.0531
 5296SOL    HW116266   3.514   3.976   1.736  0.3855  0.9128 -0.5639
 5296SOL    HW216267   3.598   4.008   1.858 -0.5970  0.3531  0.2783
 5297SOL     OW16268   0.780   2.206   5.620  0.6786  0.9187 -0.3420
 5297SOL    HW116269   0.769   2.290   5.664  0.8216  1.0067 -0.4724
 5297SOL    HW216270   0.751   2.141   5.684  2.5927  0.9025  0.5632
 5298SOL     OW16271   4.875   1.944   0.477  0.4546  0.4555 -0.1693
 5298SOL    HW116272   4.899   2.008   0.409 -0.1771  0.3232 -0.5283
 5298SOL    HW216273   4.816   1.992   0.535 -0.4077  0.0891 -0.7071
 5299SOL     OW16274   5.238   3.962   4.128 -0.3166 -0.1517 -0.1506
 5299SOL    HW116275   5.240   4.046   4.173  0.6678  0.0140 -0.4922
 5299SOL    HW216276   5.190   3.979   4.047  0.7309  0.3317 -0.6865
 5300SOL     OW16277   5.479   5.671   0.821 -0.2245  0.1596  0.5216
 5300SOL    HW116278   5.473   5.663   0.726 -1.0647 -0.9528  0.6474
 5300SOL    HW216279   5.435   5.753   0.841 -0.8077 -0.0207  0.0168
 5301SOL     OW16280   0.050   3.794   4.812  0.2971  0.2577 -0.4023
 5301SOL    HW116281  -0.027   3.823   4.764 -0.4425  0.4814  0.8592
 5301SOL    HW216282   0.124   3.809   4.753 -0.6011  0.2434 -1.5455
 5302SOL     OW16283   1.686   0.379   1.225  0.7499  0.2590 -0.3445
 5302SOL    HW116284   1.739   0.426   1.289  1.3614 -0.2048 -0.4991
 5302SOL    HW216285   1.750   0.341   1.164  0.1867  0.5516 -1.1286
 5303SOL     OW16286   4.135   0.778   4.035 -0.9293  0.7994  0.2269
 5303SOL    HW116287   4.175   0.710   3.981 -0.2042  2.2622 -1.1646
 5303SOL    HW216288   4.201   0.798   4.101 -0.6184  1.0174 -0.1432
 5304SOL     OW16289   3.563   5.971   5.214 -0.0345  0.1526  0.1679
 5304SOL    HW116290   3.523   6.011   5.137 -0.5176 -1.1441 -0.2842
 5304SOL    HW216291   3.595   6.045   5.266 -0.5744  1.0897 -0.7985
 5305SOL     OW16292   0.616   6.792   1.996 -0.5506 -0.2474 -0.6241
 5305SOL    HW116293   0.709   6.771   1.988  0.3387  2.3964  1.3074
 5305SOL    HW216294   0.590   6.816   1.907  0.7208 -0.6583 -1.1362
 5306SOL     OW16295   6.475   3.163   2.090  0.0944 -0.5346 -0.4162
 5306SOL    HW116296   6.493   3.124   2.004  2.3253 -1.7532  0.5120
 5306SOL    HW216297   6.477   3.089   2.151 -0.0670  0.4774  0.8640
 5307SOL     OW16298   0.608   2.168   1.585 -0.1144 -0.0644 -0.0127
 5307SOL    HW116299   0.554   2.244   1.562  0.1857  0.3092  0.5041
 5307SOL    HW216300   0.696   2.193   1.556 -0.2227 -0.7079 -0.9367
 5308SOL     OW16301   1.348   6.146   5.955 -0.0284  0.0838 -0.2895
 5308SOL    HW116302   1.325   6.073   5.897  0.9918 -0.4896  0.0087
 5308SOL    HW216303   1.432   6.121   5.992 -0.1087  0.9965  0.5321
 5309SOL     OW16304   6.443   6.784   0.803 -0.9089  0.9013 -0.5654
 5309SOL    HW116305   6.457   6.773   0.709  0.5045 -3.7390 -0.0790
 5309SOL    HW216306   6.524   6.823   0.835 -1.9552  3.9432 -1.2618
 5310SOL     OW16307   6.423   1.302   5.640 -0.0635 -0.5276  0.5774
 5310SOL    HW116308   6.468   1.329   5.720  1.0646 -1.3508  0.2469
 5310SOL    HW216309   6.379   1.381   5.609  1.4559  0.4064  0.7227
 5311SOL     OW16310   4.636   1.486   0.821  1.1125 -0.0434 -0.2105
 5311SOL    HW116311   4.699   1.548   0.785  0.0389  2.2776  1.6604
 5311SOL    HW216312   4.691   1.414   0.855  2.4482  0.1878 -1.7587
 5312SOL     OW16313   0.579   3.783   2.749  0.3022  0.5642 -0.8331
 5312SOL    HW116314   0.549   3.720   2.815  0.3460  0.2011 -1.1582
 5312SOL    HW216315   0.668   3.804   2.775  0.3204  0.4202 -0.7785
 5313SOL     OW16316   3.066   6.822   6.122 -0.5354  0.2243  0.1513
 5313SOL    HW116317   3.126   6.882   6.168 -0.7423  0.3608  0.2463
 5313SOL    HW216318   3.060   6.745   6.179  1.1414 -0.6724 -0.8192
 5314SOL     OW16319   0.056   3.032   3.040 -0.3410  0.1657 -0.6277
 5314SOL    HW116320   0.144   3.069   3.034 -0.7479  1.2110 -0.4542
 5314SOL    HW216321   0.001   3.095   2.995 -0.9278 -0.7807 -1.2559
 5315SOL     OW16322   4.370   2.338   3.391 -0.3797 -0.1254 -0.9611
 5315SOL    HW116323   4.430   2.339   3.316  0.0269 -1.0618 -0.6617
 5315SOL    HW216324   4.391   2.257   3.437 -1.5699 -0.2416 -0.5943
 5316SOL     OW16325   3.062   2.132   5.753 -0.3964 -0.4467  0.1873
 5316SOL    HW116326   3.146   2.101   5.785  0.6272 -0.8018 -2.5399
 5316SOL    HW216327   2.998   2.101   5.817  1.2686 -2.5119  0.9469
 5317SOL     OW16328   3.222   3.974   4.982 -0.1567 -0.4118 -0.5368
 5317SOL    HW116329   3.158   3.999   5.048  0.0784 -0.4948 -0.2778
 5317SOL    HW216330   3.244   3.883   5.002  0.9082 -0.0394  0.0902
 5318SOL     OW16331   3.957   0.982   4.733  0.9386 -0.4593  0.6873
 5318SOL    HW116332   4.038   1.033   4.734  0.2689  0.6226  0.6331
 5318SOL    HW216333   3.986   0.891   4.737  2.2907 -0.2358 -1.9519
 5319SOL     OW16334   2.744   0.956   1.667 -0.2045 -0.0811  0.6563
 5319SOL    HW116335   2.743   0.959   1.763 -0.0553 -2.6760  0.8222
 5319SOL    HW216336   2.652   0.963   1.642 -0.4124 -0.9425  1.1241
 5320SOL     OW16337   3.374   2.491   2.127  0.1100 -0.1358  0.1443
 5320SOL    HW116338   3.302   2.461   2.072 -0.3001  1.7627 -0.4162
 5320SOL    HW216339   3.372   2.433   2.203 -1.0279 -1.0814 -0.5743
 5321SOL     OW16340   0.386   6.754   5.873  0.2320 -0.8288  0.2465
 5321SOL    HW116341   0.319   6.712   5.819  0.0573  0.4117 -0.5513
 5321SOL    HW216342   0.381   6.709   5.957 -1.3301 -1.0337  0.0734
 5322SOL     OW16343   5.123   2.589   2.921 -0.4667  0.2181  0.1063
 5322SOL    HW116344   5.212   2.578   2.955 -0.6819  0.3159  0.7175
 5322SOL    HW216345   5.074   2.516   2.960 -0.3285 -0.7460 -1.4389
 5323SOL     OW16346   5.862   3.769   1.886  0.1422 -0.2126  0.6450
 5323SOL    HW116347   5.906   3.691   1.851 -1.8100 -0.9269 -0.3213
 5323SOL    HW216348   5.924   3.804   1.950  1.8030 -1.5642 -0.1411
 5324SOL     OW16349   1.173   2.444   6.028 -0.1340 -0.5035  0.0416
 5324SOL    HW116350   1.135   2.527   6.055  0.6186 -0.0508 -0.2596
 5324SOL    HW216351   1.231   2.467   5.955 -0.2894 -1.3585 -0.3703
 5325SOL     OW16352   3.329   5.288   5.503 -0.4147  0.6153  0.3003
 5325SOL    HW116353   3.406   5.331   5.542 -1.5634  1.4104  1.7867
 5325SOL    HW216354   3.273   5.267   5.577 -1.0939 -1.1361 -0.6446
 5326SOL     OW16355   0.192   2.468   4.289  0.6376  0.4204  1.0520
 5326SOL    HW116356   0.193   2.414   4.368 -0.1399  0.0283  0.8029
 5326SOL    HW216357   0.099   2.474   4.265  1.0196 -1.8346 -1.4292
 5327SOL     OW16358   4.798   0.096   6.783  0.5789 -0.0666  0.2429
 5327SOL    HW116359   4.762   0.182   6.760  0.5717 -0.4501 -1.3251
 5327SOL    HW216360   4.737   0.060   6.847 -0.7664  0.1102 -0.8894
 5328SOL     OW16361   2.611   5.961   5.339  0.5057  0.0673 -0.4587
 5328SOL    HW116362   2.527   5.940   5.380  0.6093  0.3336 -0.1102
 5328SOL    HW216363   2.601   5.932   5.248  0.5387 -1.2503 -0.0644
 5329SOL     OW16364   6.843   5.963   0.290  0.1480  0.0052  0.2518
 5329SOL    HW116365   6.851   6.026   0.362  0.8294  0.2981 -0.0763
 5329SOL    HW216366   6.933   5.945   0.264 -0.0945 -0.0240 -0.5970
 5330SOL     OW16367   3.386   0.916   1.238  0.0660 -0.7246 -0.1412
 5330SOL    HW116368   3.418   1.002   1.210 -0.1401 -0.6503 -0.1496
 5330SOL    HW216369   3.331   0.886   1.166 -2.0163  0.3071  0.9239
 5331SOL     OW16370   2.593   3.674   2.920 -0.0959 -0.4192  0.9626
 5331SOL    HW116371   2.679   3.684   2.879  0.5305 -3.0034  1.4879
 5331SOL    HW216372   2.533   3.657   2.847  0.2077 -0.6227  0.7581
 5332SOL     OW16373   3.750   4.709   0.756  0.1091  0.0766 -0.3067
 5332SOL    HW116374   3.703   4.709   0.672 -1.7915  2.8404  0.6030
 5332SOL    HW216375   3.695   4.656   0.814  0.3818 -0.1782 -0.2755
 5333SOL     OW16376   0.312   3.408   2.766  0.3469  0.1250 -0.6790
 5333SOL    HW116377   0.345   3.331   2.719 -1.6318 -1.1454 -0.1033
 5333SOL    HW216378   0.334   3.482   2.709  2.2488 -0.8374 -1.2839
 5334SOL     OW16379   4.716   3.469   3.632  0.7315  0.3206 -0.3560
 5334SOL    HW116380   4.726   3.377   3.658 -0.3378  0.0435 -0.8600
 5334SOL    HW216381   4.634   3.497   3.673  0.9243  0.9889 -0.4064
 5335SOL     OW16382   1.194   3.508   1.405 -0.1871  0.4974 -0.1623
 5335SOL    HW116383   1.274   3.557   1.392 -0.0984  0.9706  1.7612
 5335SOL    HW216384   1.219   3.437   1.464 -0.7737 -0.5793 -1.1749
 5336SOL     OW16385   5.544   2.515   3.309 -0.1323 -0.0981  0.3590
 5336SOL    HW116386   5.550   2.452   3.381 -1.4571 -0.9539 -0.2313
 5336SOL    HW216387   5.611   2.487   3.247 -1.2660 -1.5070 -0.2905
 5337SOL     OW16388   0.902   4.370   1.001 -0.4119  0.5440  0.8789
 5337SOL    HW116389   0.838   4.394   1.069 -0.0759  0.9021  1.0690
 5337SOL    HW216390   0.888   4.276   0.989 -1.3672  0.7183  0.5102
 5338SOL     OW16391   0.980   3.856   1.221  0.0076 -1.0675 -0.4010
 5338SOL    HW116392   0.994   3.949   1.207 -1.4480 -0.4815  1.5210
 5338SOL    HW216393   1.064   3.815   1.199  1.5885  1.0152  1.3089
 5339SOL     OW16394   3.974   2.475   0.613  0.7592  0.4490 -0.2752
 5339SOL    HW116395   4.040   2.528   0.567  2.1067 -1.2988 -0.4415
 5339SOL    HW216396   4.025   2.418   0.670 -0.7227  0.0751  0.7165
 5340SOL     OW16397   0.471   3.652   1.738  0.2370 -0.0775 -0.0739
 5340SOL    HW116398   0.535   3.723   1.746  0.0981  0.4412 -2.6941
 5340SOL    HW216399   0.392   3.694   1.706 -1.1330 -0.8969  2.0488
 5341SOL     OW16400   4.557   2.235   1.342 -0.0757 -0.2738  0.2321
 5341SOL    HW116401   4.607   2.154   1.344  0.1623 -0.1688 -0.8300
 5341SOL    HW216402   4.578   2.278   1.425  1.6625 -0.2069 -0.2036
 5342SOL     OW16403   3.272   6.325   0.250 -0.3120 -0.6767  0.1514
 5342SOL    HW116404   3.330   6.400   0.262  1.1437 -1.6162 -0.7606
 5342SOL    HW216405   3.184   6.362   0.254  0.3642  1.0458 -0.1135
 5343SOL     OW16406   0.416   3.791   4.873 -0.1573 -0.5738 -0.9585
 5343SOL    HW116407   0.491   3.763   4.821 -0.8953 -1.3833 -1.6110
 5343SOL    HW216408   0.341   3.788   4.813 -0.9475 -1.0964  0.0156
 5344SOL     OW16409   0.342   0.520   6.400  0.1243 -0.4015  0.6296
 5344SOL    HW116410   0.425   0.527   6.353  0.2576 -0.4324  0.8588
 5344SOL    HW216411   0.282   0.481   6.337 -0.2301  1.3676 -0.2013
 5345SOL     OW16412   2.929   3.071   2.695 -0.1072 -0.5541  0.2111
 5345SOL    HW116413   2.885   2.996   2.736  1.6693 -0.5904  2.2052
 5345SOL    HW216414   3.002   3.091   2.753  0.5760  1.5771 -1.2548
 5346SOL     OW16415   3.246   6.381   4.247 -0.0490  0.0653 -0.7720
 5346SOL    HW116416   3.312   6.442   4.278 -0.1814  0.2301 -0.8172
 5346SOL    HW216417   3.163   6.425   4.262 -0.1772 -0.3326 -0.2859
 5347SOL     OW16418   5.952   3.973   4.507 -0.1666 -0.2725 -0.0913
 5347SOL    HW116419   6.008   3.991   4.582  1.0957 -1.6365 -0.6643
 5347SOL    HW216420   6.001   4.007   4.432 -1.0636  0.3801 -0.4024
 5348SOL     OW16421   1.739   0.435   6.817 -0.1630  0.0843  0.7121
 5348SOL    HW116422   1.788   0.470   6.892  0.8124  1.4510 -0.5270
 5348SOL    HW216423   1.768   0.344   6.811  0.8636  0.3709  1.1078
 5349SOL     OW16424   4.074   6.839   6.352 -0.3490  0.0968 -0.2911
 5349SOL    HW116425   4.000   6.851   6.292 -1.2430 -0.0573  0.7512
 5349SOL    HW216426   4.123   6.765   6.316 -1.4412 -0.6480 -0.2805
 5350SOL     OW16427   0.720   4.525   2.905  0.5275 -0.3327  0.2838
 5350SOL    HW116428   0.721   4.583   2.981 -0.9621  2.1945 -1.4393
 5350SOL    HW216429   0.773   4.571   2.840  0.9860 -1.9672 -0.5462
 5351SOL     OW16430   0.355   4.823   1.535  0.2512  0.6232 -0.0119
 5351SOL    HW116431   0.293   4.792   1.601 -0.2878 -0.5835 -1.0333
 5351SOL    HW216432   0.430   4.764   1.542 -0.6792 -0.9142 -1.8039
 5352SOL     OW16433   0.842   6.309   0.229  0.2881  0.2813 -0.4933
 5352SOL    HW116434   0.912   6.296   0.166 -0.5854 -1.2293 -1.1969
 5352SOL    HW216435   0.803   6.393   0.205  0.8582  0.3841 -1.0649
 5353SOL     OW16436   3.175   1.882   4.646  0.5473 -0.2974 -0.4340
 5353SOL    HW116437   3.120   1.958   4.665  1.7942  0.9343 -1.4601
 5353SOL    HW216438   3.251   1.893   4.705  1.7628  0.4995 -2.0596
 5354SOL     OW16439   1.436   1.673   4.977  0.4405 -0.0223 -0.5505
 5354SOL    HW116440   1.527   1.667   5.008  0.0583 -1.6046  0.4101
 5354SOL    HW216441   1.385   1.686   5.057 -0.2423  0.1064 -1.0028
 5355SOL     OW16442   0.239   2.246   3.933 -0.1340 -0.0791  0.2407
 5355SOL    HW116443   0.262   2.315   3.871 -0.7808 -0.9844 -1.0609
 5355SOL    HW216444   0.189   2.291   4.001  1.7262  1.1668  0.8515
 5356SOL     OW16445   5.769   2.230   0.298  0.3981 -0.6221  0.1131
 5356SOL    HW116446   5.765   2.168   0.225 -0.2748  1.2910 -1.5942
 5356SOL    HW216447   5.677   2.253   0.315  0.6784  0.9006 -0.2570
 5357SOL     OW16448   4.927   0.113   4.079  0.2222  0.5831 -0.6674
 5357SOL    HW116449   4.894   0.156   4.158 -2.0309 -1.2338 -0.4936
 5357SOL    HW216450   4.896   0.169   4.007  0.3758  1.0788 -0.3549
 5358SOL     OW16451   3.519   6.279   5.782 -0.2340 -0.3238 -0.2179
 5358SOL    HW116452   3.449   6.245   5.728  0.7576 -1.1164 -1.0260
 5358SOL    HW216453   3.531   6.214   5.851 -0.7782  0.1693  0.3526
 5359SOL     OW16454   4.712   4.049   1.084 -0.1273 -0.5450 -0.0152
 5359SOL    HW116455   4.719   3.962   1.043  1.0246 -0.3348 -0.2695
 5359SOL    HW216456   4.687   4.030   1.174  4.1275 -1.4769  1.1889
 5360SOL     OW16457   0.014   5.509   3.266 -0.4227 -0.4178  0.0179
 5360SOL    HW116458   0.058   5.592   3.249  0.5816 -1.1957 -1.3307
 5360SOL    HW216459  -0.026   5.521   3.352 -1.6630  2.0110 -0.8044
 5361SOL     OW16460   4.425   4.536   1.705  0.2445 -0.3626 -0.3444
 5361SOL    HW116461   4.487   4.479   1.749  0.6267 -1.6066 -2.3389
 5361SOL    HW216462   4.377   4.477   1.646 -0.6182  1.0825 -1.1373
 5362SOL     OW16463   3.824   6.499   6.434  0.3287  0.3238  0.5218
 5362SOL    HW116464   3.822   6.505   6.338  2.0164 -0.2866  0.4259
 5362SOL    HW216465   3.916   6.487   6.456 -0.0909 -0.1064  2.1997
 5363SOL     OW16466   5.337   5.575   3.438 -0.2091  0.2084  0.1792
 5363SOL    HW116467   5.401   5.514   3.402  1.0039  0.4409  1.8356
 5363SOL    HW216468   5.375   5.662   3.423 -0.7483  0.4255  0.0379
 5364SOL     OW16469   3.962   5.179   6.030  0.2123 -0.3201 -0.2320
 5364SOL    HW116470   3.973   5.234   6.108 -0.2787 -1.0610  0.3823
 5364SOL    HW216471   4.009   5.098   6.052 -0.6127 -0.8468 -0.3705
 5365SOL     OW16472   4.461   4.088   3.972 -0.7643  0.0493  0.4688
 5365SOL    HW116473   4.453   3.992   3.973 -2.0646  0.1180 -0.3647
 5365SOL    HW216474   4.544   4.105   3.929  0.1425 -0.7040  1.8474
 5366SOL     OW16475   1.935   3.984   1.149  0.3092  0.3354  0.0999
 5366SOL    HW116476   1.984   4.001   1.230  1.6464  0.9485 -0.7961
 5366SOL    HW216477   1.981   3.910   1.109  0.1321  0.5200 -0.4565
 5367SOL     OW16478   2.443   0.798   2.138 -0.2084 -0.9203  0.1841
 5367SOL    HW116479   2.361   0.841   2.161 -0.5492 -1.4663 -0.0067
 5367SOL    HW216480   2.486   0.859   2.077 -0.9953 -1.1454 -0.6127
 5368SOL     OW16481   3.445   1.589   2.593  0.0387  0.4836 -0.1168
 5368SOL    HW116482   3.354   1.563   2.578 -0.3387  0.0646  2.3420
 5368SOL    HW216483   3.497   1.519   2.553 -0.6722  0.9898 -1.9924
 5369SOL     OW16484   3.470   6.009   2.523  0.3614  0.1860 -0.6192
 5369SOL    HW116485   3.550   6.005   2.471 -0.2692  0.0998 -1.6050
 5369SOL    HW216486   3.446   5.918   2.538 -0.4863  0.1763 -1.8380
 5370SOL     OW16487   1.618   4.714   3.136  0.2455  0.0016 -0.3255
 5370SOL    HW116488   1.641   4.649   3.069  2.6484 -1.7170  1.9639
 5370SOL    HW216489   1.697   4.767   3.145 -0.8414  1.7076 -0.3761
 5371SOL     OW16490   4.375   2.066   4.633 -0.5744 -0.2496  0.2205
 5371SOL    HW116491   4.444   2.091   4.571 -0.0921 -0.3712  0.7014
 5371SOL    HW216492   4.403   2.103   4.716 -0.5313 -1.2245  0.6545
 5372SOL     OW16493   4.052   6.350   6.494  0.0686  0.1545 -0.3286
 5372SOL    HW116494   4.134   6.368   6.539  0.1436 -1.5519  0.2675
 5372SOL    HW216495   4.079   6.319   6.407 -0.0273  1.5770 -0.8904
 5373SOL     OW16496   5.549   3.307   2.700 -0.2301 -0.4389 -0.7398
 5373SOL    HW116497   5.530   3.363   2.775 -0.3313  0.3649 -1.3545
 5373SOL    HW216498   5.629   3.260   2.724  0.3536  0.6201 -0.5744
 5374SOL     OW16499   3.827   2.041   6.260 -0.1175 -0.2803 -0.0108
 5374SOL    HW116500   3.836   2.012   6.169  0.5225  1.7155 -0.6426
 5374SOL    HW216501   3.747   1.998   6.291 -1.2897  0.2732 -2.0703
 5375SOL     OW16502   1.305   0.731   0.873 -0.4807 -0.2708  0.4057
 5375SOL    HW116503   1.334   0.687   0.793  1.0294  0.3297  0.5921
 5375SOL    HW216504   1.366   0.701   0.941 -0.7887  0.4025  0.9986
 5376SOL     OW16505   2.927   6.816   6.737 -0.4683 -0.6219 -0.4084
 5376SOL    HW116506   2.974   6.772   6.807 -0.5939  0.1658  0.1831
 5376SOL    HW216507   2.852   6.857   6.779 -0.4454  0.0226 -0.9606
 5377SOL     OW16508   1.024   1.859   5.281  0.1471  0.7715 -0.3044
 5377SOL    HW116509   1.096   1.887   5.224  1.8640 -0.2778  1.2150
 5377SOL    HW216510   0.970   1.937   5.291  1.9064  2.0761 -0.3406
 5378SOL     OW16511   0.644   5.035   1.539 -0.7241 -0.0031  0.1107
 5378SOL    HW116512   0.714   5.019   1.603  0.4935  0.5830 -1.0235
 5378SOL    HW216513   0.596   4.952   1.535  2.2401 -1.8080 -1.8119
 5379SOL     OW16514   6.090   4.057   3.639  0.0663 -0.1194  0.4412
 5379SOL    HW116515   6.090   4.073   3.545 -0.3412  1.7692  0.7269
 5379SOL    HW216516   6.174   4.090   3.670 -0.2016  0.1744  0.8743
 5380SOL     OW16517   2.158   5.610   6.815 -0.5305  0.1953 -0.0569
 5380SOL    HW116518   2.105   5.530   6.815 -0.6833  0.2697 -1.3345
 5380SOL    HW216519   2.097   5.679   6.787 -0.6653  0.9769  2.0086
 5381SOL     OW16520   4.342   3.305   4.821 -0.2108 -0.2260  0.1221
 5381SOL    HW116521   4.403   3.356   4.873 -1.2545  1.0336  0.1645
 5381SOL    HW216522   4.335   3.221   4.868  0.4359  0.1263  0.8622
 5382SOL     OW16523   1.538   3.617   3.774  0.6542 -0.2361  0.0193
 5382SOL    HW116524   1.540   3.670   3.853  0.7051 -0.0169 -0.1284
 5382SOL    HW216525   1.630   3.608   3.749  0.5876  0.4605 -0.5219
 5383SOL     OW16526   2.433   5.880   0.037 -0.0271 -0.3344  0.1878
 5383SOL    HW116527   2.345   5.911   0.057  1.2282  3.1150  0.9982
 5383SOL    HW216528   2.469   5.853   0.121 -0.1459 -1.4023 -0.0888
 5384SOL     OW16529   3.759   5.434   4.163  0.1944 -0.0030  0.1922
 5384SOL    HW116530   3.752   5.421   4.068 -1.0471 -0.8036  0.3724
 5384SOL    HW216531   3.829   5.375   4.191  0.5857  0.2587 -0.2281
 5385SOL     OW16532   1.000   4.802   4.205 -0.1484 -0.2053  0.1739
 5385SOL    HW116533   1.008   4.707   4.196 -0.6221 -0.1660 -0.6757
 5385SOL    HW216534   1.023   4.837   4.119 -2.6253  0.2821 -0.3473
 5386SOL     OW16535   3.516   4.292   1.051  0.6417 -0.2032 -0.4657
 5386SOL    HW116536   3.519   4.232   1.126  0.5803  1.6063  1.0721
 5386SOL    HW216537   3.483   4.374   1.088  1.2052  0.9405 -2.3686
 5387SOL     OW16538   3.145   3.431   2.587 -0.5567 -0.0429  0.1293
 5387SOL    HW116539   3.185   3.361   2.639  0.5241  1.6167  1.6455
 5387SOL    HW216540   3.118   3.388   2.506  2.4589 -1.7113 -0.1370
 5388SOL     OW16541   5.161   6.088   0.407  0.1557  0.5409  0.1476
 5388SOL    HW116542   5.159   6.004   0.454 -0.3111  0.3180 -0.2623
 5388SOL    HW216543   5.214   6.145   0.463 -0.1679  0.2026  0.8197
 5389SOL     OW16544   5.313   0.112   1.990  0.2951 -0.0754 -0.1659
 5389SOL    HW116545   5.246   0.077   2.050 -1.2085 -0.8696 -2.1967
 5389SOL    HW216546   5.275   0.101   1.903  3.0979 -0.5243 -1.4287
 5390SOL     OW16547   1.647   6.359   0.615 -0.0959 -0.8819 -0.8324
 5390SOL    HW116548   1.695   6.440   0.630  0.6698 -1.1611 -1.6178
 5390SOL    HW216549   1.626   6.326   0.702  0.9924 -0.6478 -0.4633
 5391SOL     OW16550   6.461   3.134   5.000 -0.2976  0.3332  0.0784
 5391SOL    HW116551   6.452   3.229   4.993 -0.7668  0.2564 -0.4558
 5391SOL    HW216552   6.507   3.108   4.920  0.7676  0.2206  0.7177
 5392SOL     OW16553   5.662   2.647   3.668  0.4221 -0.3385 -0.8351
 5392SOL    HW116554   5.695   2.577   3.612  1.7228  0.0246 -0.5414
 5392SOL    HW216555   5.667   2.726   3.613  0.8549 -0.1339 -0.5016
 5393SOL     OW16556   4.803   5.570   4.767 -0.0078 -0.2643  0.2819
 5393SOL    HW116557   4.794   5.607   4.680 -3.2255  0.0780  0.6679
 5393SOL    HW216558   4.861   5.494   4.755  1.4434  1.0705 -1.6758
 5394SOL     OW16559   1.691   3.548   2.535 -0.3926  0.2745 -0.5751
 5394SOL    HW116560   1.785   3.564   2.534 -0.0812 -1.3278 -0.3034
 5394SOL    HW216561   1.669   3.530   2.443 -0.1532 -0.6851 -0.4580
 5395SOL     OW16562   1.955   2.508   0.165 -0.0910  0.0521  0.9244
 5395SOL    HW116563   1.893   2.539   0.231 -1.6914 -0.8627 -0.0693
 5395SOL    HW216564   1.901   2.457   0.104  1.6580 -0.7951  0.0069
 5396SOL     OW16565   6.312   4.636   3.628  0.1461  0.3721  0.0030
 5396SOL    HW116566   6.314   4.647   3.723  1.0681 -0.6624  0.1325
 5396SOL    HW216567   6.403   4.651   3.601 -0.0736  0.4743 -0.6935
 5397SOL     OW16568   0.888   0.111   1.662  0.5414  0.4688  0.2580
 5397SOL    HW116569   0.851   0.035   1.707 -2.0775  0.2993 -1.9790
 5397SOL    HW216570   0.854   0.186   1.710  0.6723  0.2927  0.6388
 5398SOL     OW16571   6.557   6.778   2.169 -0.4439 -0.3051 -0.1943
 5398SOL    HW116572   6.483   6.831   2.139 -0.2735  0.0736  0.0465
 5398SOL    HW216573   6.587   6.732   2.091 -2.1813 -2.0173  0.0579
 5399SOL     OW16574   1.009   3.308   3.724 -0.2690  0.4534  0.1407
 5399SOL    HW116575   1.058   3.279   3.801  2.8611  0.8217 -1.5334
 5399SOL    HW216576   1.076   3.325   3.658 -2.7937 -0.2500 -2.8610
 5400SOL     OW16577   3.033   4.626   4.579 -0.2263  0.1335 -0.0258
 5400SOL    HW116578   3.022   4.721   4.582 -1.3181  0.0186 -0.2753
 5400SOL    HW216579   2.945   4.591   4.569  0.0572 -0.9583  1.0175
 5401SOL     OW16580   6.832   1.561   2.493  0.2257  0.2002  0.1576
 5401SOL    HW116581   6.914   1.513   2.505  0.3931  0.2661 -0.6492
 5401SOL    HW216582   6.857   1.653   2.496  0.0801  0.2302  0.5390
 5402SOL     OW16583   0.802   3.153   3.744  0.3837  0.1210 -0.6056
 5402SOL    HW116584   0.790   3.163   3.650 -0.5149  0.4550 -0.4633
 5402SOL    HW216585   0.892   3.183   3.760  0.6674 -0.2810 -1.3993
 5403SOL     OW16586   3.288   3.509   2.956  1.0314 -0.7194 -0.1788
 5403SOL    HW116587   3.237   3.590   2.962 -0.2049 -1.4574 -0.4729
 5403SOL    HW216588   3.330   3.501   3.042 -0.7100 -0.9597  0.6841
 5404SOL     OW16589   2.568   0.450   2.534  0.0261 -0.1009  0.3774
 5404SOL    HW116590   2.504   0.504   2.488 -0.2940 -0.7362  0.0540
 5404SOL    HW216591   2.631   0.512   2.571 -1.3407  0.6190  1.5793
 5405SOL     OW16592   3.967   1.592   4.315  0.6907 -1.0268  0.0042
 5405SOL    HW116593   4.042   1.572   4.371  0.1267 -1.4084  0.6361
 5405SOL    HW216594   4.005   1.605   4.228  1.4407 -1.6258  0.2294
 5406SOL     OW16595   5.510   3.919   6.246 -0.1750  0.0441  0.9697
 5406SOL    HW116596   5.484   3.832   6.214 -1.3590  0.7887 -0.1957
 5406SOL    HW216597   5.578   3.901   6.310  0.2731 -1.7062  0.0814
 5407SOL     OW16598   4.857   5.225   0.196 -0.3691 -0.1350  0.0516
 5407SOL    HW116599   4.906   5.307   0.203 -0.5747 -0.0544  0.6521
 5407SOL    HW216600   4.880   5.190   0.110 -0.8694  0.9317 -0.5412
 5408SOL     OW16601   0.365   2.229   2.252 -0.0959 -0.6504 -0.0125
 5408SOL    HW116602   0.402   2.196   2.169  2.4859 -0.3242  0.9186
 5408SOL    HW216603   0.340   2.319   2.232 -0.8708 -1.0180 -0.7925
 5409SOL     OW16604   1.120   6.787   3.171 -0.5964  0.4552 -0.6170
 5409SOL    HW116605   1.149   6.848   3.239 -0.5014 -0.3609  0.0821
 5409SOL    HW216606   1.101   6.843   3.096 -0.0770  1.3072 -0.1323
 5410SOL     OW16607   2.826   4.321   0.458 -0.6515 -0.0342 -0.4455
 5410SOL    HW116608   2.884   4.384   0.500  0.7320 -0.8109 -1.1111
 5410SOL    HW216609   2.751   4.315   0.516 -1.0056  2.4645 -0.5408
 5411SOL     OW16610   2.535   4.318   4.744 -0.5132 -0.0237  0.0948
 5411SOL    HW116611   2.601   4.284   4.804  1.4489  1.6130 -1.0065
 5411SOL    HW216612   2.565   4.293   4.657  0.0189  2.7043 -0.6103
 5412SOL     OW16613   1.338   3.369   2.866 -0.0601  0.3100  0.2630
 5412SOL    HW116614   1.412   3.332   2.818 -2.0563 -0.5366 -2.4655
 5412SOL    HW216615   1.350   3.340   2.956  1.0106 -3.0405 -0.8123
 5413SOL     OW16616   5.285   6.495   3.036  0.5699 -0.3174  0.7149
 5413SOL    HW116617   5.343   6.425   3.007 -0.3658 -0.4991 -0.8624
 5413SOL    HW216618   5.324   6.575   3.002  0.7780 -0.2431  1.1190
 5414SOL     OW16619   6.063   5.261   5.462  0.0730 -0.2610  0.2054
 5414SOL    HW116620   6.087   5.353   5.447 -0.5430 -0.1283 -0.0273
 5414SOL    HW216621   6.047   5.256   5.557 -1.4971  0.2949  0.0058
 5415SOL     OW16622   6.769   5.535   0.002  0.1159 -0.1460 -0.1652
 5415SOL    HW116623   6.690   5.560   0.050 -0.8656 -0.8426 -1.3235
 5415SOL    HW216624   6.749   5.446  -0.030  0.6269  0.3446 -1.9584
 5416SOL     OW16625   4.121   3.200   1.771 -0.1920 -0.1670  0.2582
 5416SOL    HW116626   4.130   3.113   1.810  2.8311  0.9023  2.3325
 5416SOL    HW216627   4.101   3.257   1.845 -0.2626  1.1427 -0.7414
 5417SOL     OW16628   0.551   6.047   3.633 -0.1675  0.1992  0.3580
 5417SOL    HW116629   0.478   6.081   3.580 -0.4325  0.6415  0.9917
 5417SOL    HW216630   0.626   6.101   3.608 -0.3048  0.4453  0.4776
 5418SOL     OW16631   2.846   1.486   5.616  0.2009  0.0511 -0.7198
 5418SOL    HW116632   2.811   1.558   5.564  2.3531  0.8276 -1.1937
 5418SOL    HW216633   2.860   1.415   5.553 -0.8145 -0.3887 -0.4661
 5419SOL     OW16634   6.642   1.021   4.833 -0.2249 -0.1730  0.0259
 5419SOL    HW116635   6.674   1.076   4.763  0.9379 -0.4741  0.3002
 5419SOL    HW216636   6.653   1.073   4.913  3.1820 -1.5540  0.6356
 5420SOL     OW16637   3.680   3.772   4.699 -0.0935  0.3618  0.2142
 5420SOL    HW116638   3.735   3.694   4.706 -2.5758 -1.5125  0.0568
 5420SOL    HW216639   3.658   3.794   4.789  0.2234  0.5766  0.2379
 5421SOL     OW16640   4.330   4.947   5.542 -0.2364 -0.4438  0.4552
 5421SOL    HW116641   4.322   5.038   5.511  1.1595 -0.0599  1.1623
 5421SOL    HW216642   4.369   4.954   5.628 -1.7851 -1.6549  1.3190
 5422SOL     OW16643   1.610   0.696   5.668  0.3235  0.1432  0.3513
 5422SOL    HW116644   1.631   0.781   5.628 -1.1919 -0.1660 -1.2468
 5422SOL    HW216645   1.640   0.631   5.603 -0.6118 -0.4381  0.4795
 5423SOL     OW16646   3.352   3.427   5.811  0.0497 -0.1697  0.4681
 5423SOL    HW116647   3.410   3.481   5.864 -0.9771  0.6609  0.7982
 5423SOL    HW216648   3.281   3.403   5.871 -0.5709 -0.1262 -0.2339
 5424SOL     OW16649   4.947   0.402   6.636  0.6150 -0.0026 -0.0401
 5424SOL    HW116650   4.932   0.454   6.557  0.6185  1.1725  0.7151
 5424SOL    HW216651   4.860   0.394   6.676  0.7268  0.0024  0.2019
 5425SOL     OW16652   0.986   5.647   2.956 -0.2720 -0.1067  0.2442
 5425SOL    HW116653   0.936   5.700   3.018 -0.4758  3.2904 -2.5432
 5425SOL    HW216654   1.070   5.632   3.000 -0.5927  1.7010  1.5972
 5426SOL     OW16655   0.832   1.246   4.580 -0.1564 -0.1333 -0.3503
 5426SOL    HW116656   0.786   1.328   4.566 -2.2085 -0.5821  2.6645
 5426SOL    HW216657   0.763   1.180   4.585  1.0860 -1.4228  0.9735
 5427SOL     OW16658   2.823   5.492   2.996 -0.5015 -0.5690 -0.2681
 5427SOL    HW116659   2.760   5.446   3.052 -1.0587  0.7756  0.2350
 5427SOL    HW216660   2.866   5.554   3.055  1.3230 -1.4580 -0.5984
 5428SOL     OW16661   2.588   5.398   2.080 -0.3674 -0.6665 -0.3627
 5428SOL    HW116662   2.573   5.401   2.175  0.7691  1.0230 -0.2012
 5428SOL    HW216663   2.522   5.457   2.044  0.6063  0.4555 -0.3812
 5429SOL     OW16664   1.920   5.937   2.849  0.0110 -0.0860  0.6737
 5429SOL    HW116665   1.991   5.973   2.795 -0.3339  0.0922  0.3346
 5429SOL    HW216666   1.855   6.007   2.851 -0.7330 -0.7323 -0.1092
 5430SOL     OW16667   1.124   0.316   1.018  0.3241 -0.0945 -0.2976
 5430SOL    HW116668   1.134   0.344   1.109 -0.9751 -0.5964  0.0279
 5430SOL    HW216669   1.209   0.277   0.995  0.7585  0.3026  0.6026
 5431SOL     OW16670   1.597   2.520   2.411  0.0149  0.5693  0.3576
 5431SOL    HW116671   1.561   2.528   2.499  1.7945  2.7331  0.9707
 5431SOL    HW216672   1.582   2.605   2.371  1.1224  0.3083 -0.6701
 5432SOL     OW16673   3.509   4.683   3.983  0.8027  0.2892  0.3831
 5432SOL    HW116674   3.486   4.592   3.968  1.5956  0.3525 -1.5281
 5432SOL    HW216675   3.555   4.683   4.067 -0.2589 -0.8519  0.9910
 5433SOL     OW16676   4.831   0.103   3.482 -0.1552 -0.7110 -0.3969
 5433SOL    HW116677   4.870   0.078   3.399  0.7363  1.5879 -0.7664
 5433SOL    HW216678   4.906   0.127   3.538 -0.7508 -1.9219  0.9895
 5434SOL     OW16679   0.217   3.492   0.040 -0.1158  0.5929  0.1686
 5434SOL    HW116680   0.202   3.585   0.053  0.8543  0.6529  0.9653
 5434SOL    HW216681   0.297   3.473   0.089 -0.7066 -0.8145  0.6636
 5435SOL     OW16682   0.282   5.806   1.643  0.0207 -0.2158  0.7400
 5435SOL    HW116683   0.375   5.793   1.622  0.2548 -1.7606  2.5212
 5435SOL    HW216684   0.235   5.781   1.563  1.0891  0.0814 -0.0034
 5436SOL     OW16685   0.972   6.650   6.413 -0.1026 -0.6786  0.4839
 5436SOL    HW116686   0.894   6.706   6.418  0.3730  0.0941 -0.4782
 5436SOL    HW216687   0.939   6.565   6.384 -0.5032 -0.1611 -0.6061
 5437SOL     OW16688   5.342   5.387   3.831 -0.3348  0.0297 -0.0876
 5437SOL    HW116689   5.425   5.382   3.784 -0.8721  0.5850 -1.1223
 5437SOL    HW216690   5.276   5.360   3.766 -1.1701  1.5283  0.0963
 5438SOL     OW16691   4.928   2.546   0.825  0.0502  0.1032 -0.5635
 5438SOL    HW116692   4.968   2.517   0.906  1.7408  1.3706 -0.8813
 5438SOL    HW216693   4.901   2.465   0.781  0.8093 -0.7134  0.4156
 5439SOL     OW16694   4.437   4.329   4.818 -0.1771  0.1430 -0.2583
 5439SOL    HW116695   4.473   4.252   4.863 -0.8500 -0.0106  0.0277
 5439SOL    HW216696   4.369   4.361   4.876  0.6849  1.5062  0.0553
 5440SOL     OW16697   4.658   2.570   3.561  0.5324 -0.2146 -0.3907
 5440SOL    HW116698   4.707   2.624   3.500 -0.8996  0.5825 -0.8612
 5440SOL    HW216699   4.721   2.502   3.588  2.7098  2.1163  0.9228
 5441SOL     OW16700   1.344   1.595   0.922  0.2192 -0.1710  0.2365
 5441SOL    HW116701   1.405   1.661   0.889  0.3020  1.5628  3.4046
 5441SOL    HW216702   1.273   1.646   0.962 -1.5323 -2.0980 -0.2823
 5442SOL     OW16703   6.204   2.462   6.082 -0.7601  0.1311  0.3484
 5442SOL    HW116704   6.297   2.486   6.085 -0.9812  1.0138  0.4433
 5442SOL    HW216705   6.203   2.375   6.042  0.1895 -0.3836  1.3870
 5443SOL     OW16706   1.590   4.690   6.488  0.1221  0.6904 -0.0885
 5443SOL    HW116707   1.657   4.756   6.505  1.0564 -0.8687  3.2892
 5443SOL    HW216708   1.625   4.637   6.417  0.3806  2.4577 -1.3250
 5444SOL     OW16709   2.790   0.371   0.051  0.8536 -0.0555 -0.0898
 5444SOL    HW116710   2.700   0.391   0.077  0.6337 -0.9351 -0.1217
 5444SOL    HW216711   2.836   0.455   0.054  0.2714  0.2413  0.8799
 5445SOL     OW16712   4.507   2.892   5.931  0.0852  0.3357  0.1560
 5445SOL    HW116713   4.572   2.900   5.861  1.5545  0.5264  1.4895
 5445SOL    HW216714   4.451   2.819   5.904  1.8814 -0.9379 -0.2693
 5446SOL     OW16715   3.917   0.125   0.271 -0.4230 -0.5254 -0.2506
 5446SOL    HW116716   3.911   0.040   0.315  2.9952 -0.7157  0.0756
 5446SOL    HW216717   3.988   0.115   0.208  0.6078  2.2685  0.3172
 5447SOL     OW16718   1.408   2.981   0.695  0.2796  0.7484  0.3897
 5447SOL    HW116719   1.347   3.049   0.725  0.8215  0.7646  1.5240
 5447SOL    HW216720   1.494   3.011   0.725  0.3845 -0.9910  1.9998
 5448SOL     OW16721   2.328   0.879   3.234  0.2089  0.3928  0.2697
 5448SOL    HW116722   2.314   0.969   3.206 -1.0152  0.8011  2.0109
 5448SOL    HW216723   2.267   0.867   3.307  1.9111 -1.1136  1.5483
 5449SOL     OW16724   2.955   4.031   5.344 -0.0617 -0.0520  0.4930
 5449SOL    HW116725   2.924   4.082   5.270  0.9200 -1.1870 -0.7452
 5449SOL    HW216726   2.892   4.049   5.414 -1.5034  0.3725 -0.8758
 5450SOL     OW16727   2.882   4.252   4.565 -0.1673 -0.2805  0.5702
 5450SOL    HW116728   2.855   4.167   4.602 -4.1297  0.5116  0.0247
 5450SOL    HW216729   2.874   4.240   4.470  1.6858  0.0661  0.3396
 5451SOL     OW16730   6.820   5.114   2.929 -0.2314 -0.1730  0.2051
 5451SOL    HW116731   6.731   5.080   2.916 -0.1649 -0.5224  0.6219
 5451SOL    HW216732   6.857   5.120   2.841 -0.0637 -1.6826  0.1575
 5452SOL     OW16733   0.356   0.431   6.738  0.0327  0.1430 -1.0535
 5452SOL    HW116734   0.407   0.431   6.819 -0.3329  0.5564 -0.8169
 5452SOL    HW216735   0.403   0.372   6.680 -0.2025 -0.8937 -0.2236
 5453SOL     OW16736   5.456   1.563   4.863  0.5575  0.8227 -0.0345
 5453SOL    HW116737   5.468   1.631   4.929  0.3378 -0.4122  1.3146
 5453SOL    HW216738   5.512   1.591   4.790  0.6297  2.3275  0.5579
 5454SOL     OW16739   1.687   4.635   3.532 -0.1467  0.3999 -0.1215
 5454SOL    HW116740   1.759   4.691   3.560 -0.8556  0.8690  0.7967
 5454SOL    HW216741   1.632   4.626   3.610 -0.8697 -0.2885 -0.6978
 5455SOL     OW16742   5.260   5.917   6.326 -0.1611  0.0105  0.2015
 5455SOL    HW116743   5.250   5.940   6.418 -0.0810  0.1716  0.1705
 5455SOL    HW216744   5.325   5.847   6.325  0.6970  0.8011  0.1656
 5456SOL     OW16745   3.836   3.680   1.107  0.0191 -0.0427  0.3899
 5456SOL    HW116746   3.858   3.598   1.062  1.3684 -0.7271  2.1971
 5456SOL    HW216747   3.769   3.656   1.170 -0.2188  0.4444  0.3321
 5457SOL     OW16748   0.564   6.091   5.795 -0.2277  0.2629 -0.0878
 5457SOL    HW116749   0.473   6.104   5.822 -0.7548 -1.4046 -0.9698
 5457SOL    HW216750   0.585   6.002   5.822  0.9090  0.3589 -0.5839
 5458SOL     OW16751   4.607   5.409   3.248 -0.1779 -0.2895 -0.0689
 5458SOL    HW116752   4.645   5.375   3.329  1.0952 -0.5528 -0.7538
 5458SOL    HW216753   4.609   5.504   3.259  2.4441 -0.1852 -0.8035
 5459SOL     OW16754   1.984   2.269   0.706 -0.2135 -0.3835  0.0617
 5459SOL    HW116755   1.973   2.349   0.655 -2.2437 -1.5897 -1.5574
 5459SOL    HW216756   2.078   2.264   0.724  0.2562  1.2362 -1.6563
 5460SOL     OW16757   2.874   4.930   0.475  0.0187  0.0473 -0.5095
 5460SOL    HW116758   2.798   4.986   0.489  0.3107  0.6076 -1.1139
 5460SOL    HW216759   2.934   4.953   0.547 -0.7138 -1.0143  0.4800
 5461SOL     OW16760   2.202   1.790   3.761 -0.5577 -0.0124  0.0381
 5461SOL    HW116761   2.259   1.731   3.714 -0.6115  0.0456 -0.1016
 5461SOL    HW216762   2.126   1.802   3.703 -1.2063 -0.9151  0.6607
 5462SOL     OW16763   2.232   4.719   5.980  1.1522 -0.1911 -0.3178
 5462SOL    HW116764   2.256   4.805   5.947 -2.0556  0.9382 -0.0267
 5462SOL    HW216765   2.248   4.724   6.074  0.9103  0.1003 -0.2935
 5463SOL     OW16766   1.006   1.204   3.676 -0.5083 -0.2051 -0.4656
 5463SOL    HW116767   0.945   1.171   3.741  1.3574 -0.5895  1.1769
 5463SOL    HW216768   1.072   1.136   3.667  0.0702  0.4754 -1.6826
 5464SOL     OW16769   3.135   1.903   2.907  0.0544 -0.6625  0.3346
 5464SOL    HW116770   3.047   1.935   2.927  0.5052  0.2423  0.9255
 5464SOL    HW216771   3.141   1.908   2.811 -0.4333 -0.4505  0.3111
 5465SOL     OW16772   2.173   4.553   6.464  0.1535  0.4311 -0.4553
 5465SOL    HW116773   2.257   4.516   6.493 -0.7300 -2.7987 -1.6344
 5465SOL    HW216774   2.117   4.546   6.542  0.1459 -0.3452 -0.5153
 5466SOL     OW16775   0.184   0.582   3.708 -0.3236  0.4949  0.2869
 5466SOL    HW116776   0.259   0.566   3.766 -0.6935 -0.4316  0.5237
 5466SOL    HW216777   0.222   0.592   3.621  0.2515  2.0073  0.6866
 5467SOL     OW16778   3.780   2.273   3.430  0.3278  0.6801  0.5543
 5467SOL    HW116779   3.824   2.356   3.412 -0.4472  1.3432  1.5380
 5467SOL    HW216780   3.729   2.290   3.510  1.2676 -1.1631  1.6272
 5468SOL     OW16781   4.379   2.566   3.597 -0.0181 -0.0182  0.4525
 5468SOL    HW116782   4.474   2.573   3.582 -0.1391  0.9612  0.0717
 5468SOL    HW216783   4.357   2.479   3.566  0.5887  0.1370 -0.4765
 5469SOL     OW16784   4.425   2.972   4.651 -0.0752 -0.0555 -0.7310
 5469SOL    HW116785   4.417   3.024   4.571 -2.1882 -0.2840 -0.7321
 5469SOL    HW216786   4.404   2.882   4.623 -1.4401 -0.0327  0.1556
 5470SOL     OW16787   1.361   6.743   1.174  0.0260  0.1110  0.7938
 5470SOL    HW116788   1.411   6.810   1.126  0.7073  1.1655  2.8728
 5470SOL    HW216789   1.342   6.676   1.108  1.4649  1.1812 -0.8001
 5471SOL     OW16790   6.846   2.092   0.250  0.2703  0.3947  0.2445
 5471SOL    HW116791   6.926   2.139   0.226  0.2117  0.7217  0.6723
 5471SOL    HW216792   6.777   2.158   0.244 -0.0496  0.0030 -0.5764
 5472SOL     OW16793   3.321   4.379   3.759 -0.3214 -0.3539 -0.1581
 5472SOL    HW116794   3.335   4.450   3.696  0.4163 -0.3657 -0.0163
 5472SOL    HW216795   3.406   4.336   3.765 -0.3547 -0.2869  0.9364
 5473SOL     OW16796   2.410   2.950   3.114 -0.4734 -0.1082  0.2225
 5473SOL    HW116797   2.365   2.878   3.157 -2.4680  0.8601 -0.1069
 5473SOL    HW216798   2.341   3.016   3.099  0.9005  1.1145 -1.0766
 5474SOL     OW16799   6.525   6.043   3.495 -0.8665  0.0184  0.2505
 5474SOL    HW116800   6.469   6.015   3.422 -0.3530  0.1036 -0.1824
 5474SOL    HW216801   6.610   6.061   3.455 -0.4323 -0.4282  0.9549
 5475SOL     OW16802   4.704   0.521   1.951 -0.1839 -0.2022 -0.3438
 5475SOL    HW116803   4.764   0.513   2.025 -0.0395  0.1658 -0.4195
 5475SOL    HW216804   4.673   0.431   1.935  1.0403 -0.5480 -0.8891
 5476SOL     OW16805   2.309   3.557   5.603 -0.1612 -0.2095 -0.4811
 5476SOL    HW116806   2.327   3.562   5.509 -1.4221  0.7152 -0.7055
 5476SOL    HW216807   2.219   3.528   5.609 -0.4849  0.8769  0.3894
 5477SOL     OW16808   5.240   1.689   2.127  0.5036  0.1914 -0.3713
 5477SOL    HW116809   5.172   1.622   2.139  0.0338  0.9165  1.2833
 5477SOL    HW216810   5.247   1.732   2.212  4.4856 -1.1499  0.2244
 5478SOL     OW16811   1.506   4.915   4.502 -0.6805 -0.0288  0.0538
 5478SOL    HW116812   1.439   4.851   4.525  1.0603 -1.7060  0.7440
 5478SOL    HW216813   1.532   4.891   4.413 -0.9919  0.6404 -0.2260
 5479SOL     OW16814   4.820   5.642   5.464  0.6720 -0.4789 -0.1226
 5479SOL    HW116815   4.830   5.655   5.370 -2.3210 -1.2370 -0.6487
 5479SOL    HW216816   4.832   5.548   5.477 -3.2305 -1.1949 -0.5868
 5480SOL     OW16817   2.509   1.167   2.320 -0.0417 -0.5985 -0.3637
 5480SOL    HW116818   2.481   1.093   2.373  0.9014 -0.6271  0.1255
 5480SOL    HW216819   2.566   1.128   2.254 -0.5590 -0.4610 -0.8959
 5481SOL     OW16820   2.163   1.408   6.501 -0.0626 -0.2016  0.0620
 5481SOL    HW116821   2.199   1.493   6.475  0.0113 -0.5688 -1.1128
 5481SOL    HW216822   2.178   1.403   6.596  0.7849  0.6925 -0.0091
 5482SOL     OW16823   0.628   0.632   3.439  0.4101 -0.3093  0.0914
 5482SOL    HW116824   0.564   0.583   3.388  1.2540 -0.2626 -1.0487
 5482SOL    HW216825   0.577   0.696   3.488 -0.5636 -1.3763  0.5014
 5483SOL     OW16826   5.296   0.029   5.361 -0.3327 -0.9143  0.2966
 5483SOL    HW116827   5.387   0.036   5.392  0.5508 -0.0002 -2.1975
 5483SOL    HW216828   5.256   0.112   5.385  0.2801 -0.2964 -0.7329
 5484SOL     OW16829   0.335   3.628   3.604  0.0759  0.1682 -0.0720
 5484SOL    HW116830   0.280   3.592   3.534  1.0321  2.0595 -1.8937
 5484SOL    HW216831   0.425   3.611   3.576  0.5160  2.6257 -0.3062
 5485SOL     OW16832   5.654   6.409   1.264 -0.5234  0.4166  0.3582
 5485SOL    HW116833   5.612   6.391   1.349 -0.4732  1.3657  0.5893
 5485SOL    HW216834   5.741   6.441   1.286  0.5636 -1.9741 -0.1332
 5486SOL     OW16835   3.024   6.106   6.753  0.3953  0.0478 -0.0469
 5486SOL    HW116836   3.066   6.176   6.704  1.6609 -0.1629  0.6821
 5486SOL    HW216837   2.946   6.146   6.791  0.5645  0.7804 -0.4560
 5487SOL     OW16838   4.271   5.780   0.843  0.4643 -0.3938 -0.0746
 5487SOL    HW116839   4.188   5.750   0.806 -0.0505 -1.6799  1.9938
 5487SOL    HW216840   4.268   5.875   0.834 -0.4218 -0.5309 -1.6184
 5488SOL     OW16841   0.184   1.834   5.806  0.4028  0.5518  0.6240
 5488SOL    HW116842   0.151   1.922   5.826  0.8397  0.6371  0.9799
 5488SOL    HW216843   0.247   1.849   5.735 -0.3149  0.3873 -0.0676
 5489SOL     OW16844   2.464   5.676   6.185 -0.1836 -0.6388  0.7057
 5489SOL    HW116845   2.457   5.696   6.279 -2.3939  2.6918 -0.0028
 5489SOL    HW216846   2.558   5.669   6.169  0.3936  1.3005  2.7655
 5490SOL     OW16847   2.861   3.464   1.753 -0.0252  0.8238  0.4922
 5490SOL    HW116848   2.922   3.427   1.817  0.5126  0.8949  0.0268
 5490SOL    HW216849   2.775   3.436   1.783  0.4408 -2.3558 -0.8037
 5491SOL     OW16850   1.993   4.342   3.034 -0.1226  0.7557  0.1783
 5491SOL    HW116851   2.039   4.359   3.116 -0.7638 -0.2650  0.7634
 5491SOL    HW216852   2.013   4.251   3.014 -0.7888  0.7004 -0.2681
 5492SOL     OW16853   1.742   1.878   5.351  0.1590  0.1548 -0.0236
 5492SOL    HW116854   1.790   1.830   5.419  1.9435  0.3808 -1.0658
 5492SOL    HW216855   1.722   1.812   5.284  1.8840  0.6424 -1.0714
 5493SOL     OW16856   6.206   3.541   2.096  0.1778  0.4727  0.2554
 5493SOL    HW116857   6.203   3.588   2.013 -2.3545  1.2404  0.6939
 5493SOL    HW216858   6.267   3.591   2.149  2.0590 -0.1922 -1.1707
 5494SOL     OW16859   6.396   0.701   1.047 -0.4589  0.4976 -0.2410
 5494SOL    HW116860   6.356   0.721   0.962  1.6950  0.0927 -1.4291
 5494SOL    HW216861   6.484   0.737   1.041  0.0432 -0.3441  1.4816
 5495SOL     OW16862   0.984   6.375   2.449  0.0894  0.1221  0.2181
 5495SOL    HW116863   1.016   6.334   2.530 -1.6251 -0.9282  0.4150
 5495SOL    HW216864   1.027   6.326   2.379  0.2824 -0.0689  0.4662
 5496SOL     OW16865   5.814   2.790   5.812 -0.6725  0.6344 -0.3688
 5496SOL    HW116866   5.883   2.738   5.772 -1.3553 -1.1642  0.6722
 5496SOL    HW216867   5.836   2.793   5.905 -2.1010 -0.2330  0.0298
 5497SOL     OW16868   3.662   3.363   5.856  0.1888  0.9961 -0.3684
 5497SOL    HW116869   3.640   3.448   5.894 -1.1293  0.1689  0.8113
 5497SOL    HW216870   3.577   3.321   5.841  0.8284 -0.4882  0.0076
 5498SOL     OW16871   2.162   5.646   1.444  0.3271 -0.1718 -0.1074
 5498SOL    HW116872   2.107   5.614   1.516  1.4410 -1.3811  0.2393
 5498SOL    HW216873   2.194   5.567   1.401  0.7373  0.5263 -1.1364
 5499SOL     OW16874   3.315   5.150   3.262 -0.1479  0.7540  0.1833
 5499SOL    HW116875   3.344   5.173   3.174  2.6980 -0.3318  0.7217
 5499SOL    HW216876   3.394   5.119   3.306 -1.8300 -0.4916  2.5606
 5500SOL     OW16877   2.901   1.521   3.146 -0.4935 -0.0080  0.4267
 5500SOL    HW116878   2.941   1.605   3.121  1.0604 -1.0720 -0.8440
 5500SOL    HW216879   2.951   1.493   3.223  0.0074 -0.4540 -0.0494
 5501SOL     OW16880   2.783   2.351   3.540 -0.4116  0.2459  0.0652
 5501SOL    HW116881   2.878   2.350   3.530 -0.2769  0.0618  1.2417
 5501SOL    HW216882   2.761   2.444   3.546 -0.0298  0.2601  1.9464
 5502SOL     OW16883   1.957   1.345   2.105  0.3132 -0.2693  0.3338
 5502SOL    HW116884   1.998   1.258   2.103  0.2758 -0.2763 -0.2286
 5502SOL    HW216885   1.863   1.327   2.114  0.3037 -0.2889  0.1981
 5503SOL     OW16886   0.306   0.153   3.023  0.0752  0.0129 -0.0231
 5503SOL    HW116887   0.211   0.144   3.011  0.1176 -2.0831  0.7913
 5503SOL    HW216888   0.323   0.112   3.107  1.4550  2.4450  0.9598
 5504SOL     OW16889   2.027   1.418   4.635  0.5701  0.0096  0.0983
 5504SOL    HW116890   1.947   1.395   4.682  0.1565  1.7009  0.2644
 5504SOL    HW216891   2.061   1.334   4.604 -1.0252 -0.7854  0.3984
 5505SOL     OW16892   3.982   3.252   1.035 -0.0551  0.4675  0.4453
 5505SOL    HW116893   3.927   3.208   1.099  0.1857  1.6172  1.4809
 5505SOL    HW216894   3.921   3.300   0.979 -0.4802 -2.4460 -1.8293
 5506SOL     OW16895   1.589   6.283   4.633  0.1482 -0.4119 -0.5885
 5506SOL    HW116896   1.610   6.208   4.577 -0.9726 -1.2610  0.1008
 5506SOL    HW216897   1.497   6.302   4.614  0.0988  0.0638  0.0843
 5507SOL     OW16898   4.866   1.870   0.075 -0.0191  0.9578 -0.0563
 5507SOL    HW116899   4.846   1.813   0.000  0.0088 -0.4227  0.9535
 5507SOL    HW216900   4.788   1.924   0.086  0.3100  1.8120 -1.6048
 5508SOL     OW16901   2.139   2.384   4.184 -0.6895 -0.0260  0.5476
 5508SOL    HW116902   2.194   2.332   4.243 -0.7021 -1.0910 -0.3385
 5508SOL    HW216903   2.200   2.427   4.125 -0.6111  1.9062  1.9700
 5509SOL     OW16904   0.468   3.338   2.123  0.0741 -0.1398  0.7019
 5509SOL    HW116905   0.498   3.321   2.034  0.8227 -0.2692  0.9766
 5509SOL    HW216906   0.543   3.377   2.167 -0.6793  1.1254  0.9289
 5510SOL     OW16907   1.676   6.730   6.407  0.2737 -0.4145  0.3425
 5510SOL    HW116908   1.652   6.638   6.398  0.7720 -0.7677  2.1382
 5510SOL    HW216909   1.762   6.728   6.449 -0.3615  0.8452  1.8250
 5511SOL     OW16910   2.147   6.480   2.114  0.3858 -0.2445 -0.3629
 5511SOL    HW116911   2.109   6.415   2.055 -0.9270 -0.3039  0.5056
 5511SOL    HW216912   2.116   6.564   2.079 -0.0197 -0.2527 -0.0298
 5512SOL     OW16913   2.419   5.618   0.905  0.6694  0.2242  0.3289
 5512SOL    HW116914   2.417   5.636   0.999 -2.2267 -0.3589  0.4690
 5512SOL    HW216915   2.392   5.701   0.864  0.7787  0.1360  0.0717
 5513SOL     OW16916   4.592   4.719   0.136  0.3343  0.4863 -0.3948
 5513SOL    HW116917   4.683   4.739   0.117  0.5657 -0.7659 -0.6986
 5513SOL    HW216918   4.550   4.711   0.050 -0.2240  1.6946 -0.2520
 5514SOL     OW16919   0.150   5.455   2.329 -0.0365  0.0157 -0.1858
 5514SOL    HW116920   0.243   5.451   2.305  0.1270 -0.6031  0.5158
 5514SOL    HW216921   0.109   5.387   2.276 -0.2465  0.8538 -1.1247
 5515SOL     OW16922   2.720   6.349   2.826 -0.7259 -0.0375  0.0026
 5515SOL    HW116923   2.717   6.255   2.843  0.7108 -0.6821 -2.7514
 5515SOL    HW216924   2.630   6.372   2.805 -0.9560 -0.9957 -0.1223
 5516SOL     OW16925   5.700   6.407   0.072 -0.2012  0.9545 -0.5225
 5516SOL    HW116926   5.686   6.403   0.167  0.3305 -1.3220 -0.4736
 5516SOL    HW216927   5.751   6.487   0.059  1.3617  0.3737  1.3866
 5517SOL     OW16928   5.679   6.108   4.814  0.2240 -0.3649 -0.1236
 5517SOL    HW116929   5.672   6.072   4.903  2.2992 -1.4812 -0.3341
 5517SOL    HW216930   5.612   6.062   4.764 -0.5105 -0.2195  0.7077
 5518SOL     OW16931   6.558   0.078   2.421 -0.0177 -0.4300 -0.6700
 5518SOL    HW116932   6.469   0.105   2.397  0.0708  0.4067 -0.1064
 5518SOL    HW216933   6.600   0.056   2.338 -0.3850  0.3044 -1.0596
 5519SOL     OW16934   6.205   4.165   3.131 -0.4859 -0.0662 -0.4117
 5519SOL    HW116935   6.271   4.216   3.084 -0.2757  1.1307  1.1129
 5519SOL    HW216936   6.165   4.110   3.064  1.9053 -0.7024 -1.4327
 5520SOL     OW16937   0.097   1.112   1.857  0.2046 -0.8210 -0.3699
 5520SOL    HW116938   0.050   1.029   1.844 -2.0131 -0.0256  1.7606
 5520SOL    HW216939   0.034   1.179   1.830  0.7833  0.2395  0.8282
 5521SOL     OW16940   2.255   4.995   5.643 -0.2313  0.1166 -0.2612
 5521SOL    HW116941   2.212   5.048   5.710 -0.7675  0.5447 -0.9208
 5521SOL    HW216942   2.223   4.906   5.658  0.0669  0.1057  0.3663
 5522SOL     OW16943   6.328   1.710   3.048 -0.0163  0.3279 -0.0878
 5522SOL    HW116944   6.384   1.788   3.055  0.3809 -0.0024  0.4581
 5522SOL    HW216945   6.316   1.698   2.953 -0.4853  1.3331 -0.1722
 5523SOL     OW16946   5.312   2.891   3.020  0.4738 -0.4741  0.1530
 5523SOL    HW116947   5.385   2.881   2.959  1.0613 -0.9599  0.9069
 5523SOL    HW216948   5.337   2.836   3.095  0.9816  2.0062  1.9302
 5524SOL     OW16949   1.326   4.914   2.271 -0.0135  0.0315  0.3138
 5524SOL    HW116950   1.339   5.001   2.308 -1.1753  0.7102 -0.7777
 5524SOL    HW216951   1.241   4.886   2.304 -0.1142 -0.2429 -0.1687
 5525SOL     OW16952   5.395   2.195   2.864  0.2189 -0.7455 -0.2404
 5525SOL    HW116953   5.406   2.109   2.904 -0.1448 -0.7826 -0.2153
 5525SOL    HW216954   5.396   2.178   2.770  2.8937 -0.4468 -0.3433
 5526SOL     OW16955   3.374   3.025   4.618  0.2578 -0.2972  0.1608
 5526SOL    HW116956   3.432   3.075   4.675 -0.3025 -1.1733  1.5374
 5526SOL    HW216957   3.411   2.937   4.617 -0.5904 -0.6680  0.4128
 5527SOL     OW16958   0.223   5.251   1.270  0.0649  0.1888  0.3476
 5527SOL    HW116959   0.227   5.323   1.332 -0.1400  1.2410 -0.8031
 5527SOL    HW216960   0.160   5.190   1.308 -0.4465  1.0485  0.9313
 5528SOL     OW16961   3.402   2.697   0.166 -0.5144  0.2621 -0.3601
 5528SOL    HW116962   3.424   2.665   0.254 -1.8859  0.8380  0.2183
 5528SOL    HW216963   3.406   2.618   0.111 -0.9388 -0.3644  0.4733
 5529SOL     OW16964   5.004   3.269   4.386  0.5064 -0.1901  0.7554
 5529SOL    HW116965   4.965   3.356   4.375 -0.8984 -0.9430 -0.7957
 5529SOL    HW216966   5.083   3.272   4.333  0.4576  0.1541  0.6961
 5530SOL     OW16967   1.763   1.932   6.525  0.0014  0.3510 -0.1660
 5530SOL    HW116968   1.696   2.000   6.526 -0.3097  0.0439  0.4087
 5530SOL    HW216969   1.715   1.851   6.510  0.2020  0.0974  0.5002
 5531SOL     OW16970   1.531   1.321   5.031  0.5358 -0.0509  0.5032
 5531SOL    HW116971   1.466   1.361   5.089 -0.1443 -1.6487  0.9072
 5531SOL    HW216972   1.538   1.381   4.957 -1.6890  0.0198  0.2871
 5532SOL     OW16973   1.097   0.857   6.114  0.4312  0.2997  0.3262
 5532SOL    HW116974   1.191   0.844   6.128  0.5994  0.4314 -0.6159
 5532SOL    HW216975   1.081   0.823   6.026 -0.4804 -0.0669  0.6301
 5533SOL     OW16976   2.271   2.108   6.701 -0.1860  0.1171 -0.5161
 5533SOL    HW116977   2.238   2.125   6.613  3.6563  0.5372 -2.0812
 5533SOL    HW216978   2.289   2.013   6.702  0.9677  0.3205 -0.6956
 5534SOL     OW16979   0.834   4.123   5.405 -0.3558 -0.2074 -0.1059
 5534SOL    HW116980   0.880   4.057   5.353 -1.0628 -0.4467 -0.4329
 5534SOL    HW216981   0.749   4.084   5.424 -0.3085  0.0949  0.7899
 5535SOL     OW16982   2.926   2.321   6.568 -0.1711 -0.4258 -0.2022
 5535SOL    HW116983   2.942   2.255   6.501  0.1145  0.1847 -0.7515
 5535SOL    HW216984   3.013   2.358   6.586 -0.2203 -0.6674  0.6091
 5536SOL     OW16985   2.778   0.540   1.060 -0.0837 -0.3664  0.6193
 5536SOL    HW116986   2.683   0.539   1.071 -0.0096 -0.8353  1.3290
 5536SOL    HW216987   2.804   0.628   1.087 -0.4118  0.1279 -0.6083
 5537SOL     OW16988   2.364   0.823   0.056  0.3289 -0.6621 -0.4362
 5537SOL    HW116989   2.345   0.747   0.001 -0.7650  0.3239 -1.4739
 5537SOL    HW216990   2.454   0.808   0.087  0.0286 -2.5005 -0.3679
 5538SOL     OW16991   6.592   6.294   2.910 -0.4782  0.2671 -0.5591
 5538SOL    HW116992   6.618   6.384   2.931 -0.9332  0.4963 -0.9722
 5538SOL    HW216993   6.564   6.298   2.819 -2.3536  0.1277 -0.0335
 5539SOL     OW16994   3.744   1.029   1.139  0.0031  0.1876  0.6084
 5539SOL    HW116995   3.724   1.068   1.054  0.8044  1.4722  0.9663
 5539SOL    HW216996   3.755   0.936   1.121  2.6056  0.7343 -1.1853
 5540SOL     OW16997   3.460   1.617   5.870 -0.2370 -0.2830  0.8173
 5540SOL    HW116998   3.418   1.534   5.846 -0.9143  0.0960  0.6516
 5540SOL    HW216999   3.480   1.658   5.786  0.2117 -0.3366  0.8992
 5541SOL     OW17000   0.482   4.990   0.167 -0.3103  0.2086 -0.5053
 5541SOL    HW117001   0.406   5.034   0.129  0.6851  1.5372 -1.0211
 5541SOL    HW217002   0.538   5.061   0.198  0.5652 -0.7601  0.2180
 5542SOL     OW17003   0.502   2.385   2.040 -0.3849 -0.5155 -0.8514
 5542SOL    HW117004   0.409   2.409   2.044 -0.1991  0.0576  0.7859
 5542SOL    HW217005   0.511   2.339   1.957 -2.2525 -1.0542 -0.8067
 5543SOL     OW17006   3.259   6.069   6.091  0.2907  0.2589 -0.2971
 5543SOL    HW117007   3.340   6.019   6.100 -0.4734 -0.6098  3.2651
 5543SOL    HW217008   3.287   6.161   6.097  1.0581 -0.0345  1.2175
 5544SOL     OW17009   3.137   0.601   4.912  0.1234  0.2192  0.3825
 5544SOL    HW117010   3.051   0.636   4.886  0.2383  0.0435 -0.2402
 5544SOL    HW217011   3.196   0.629   4.843  0.2810 -0.9184  0.0347
 5545SOL     OW17012   4.606   3.437   6.825  0.5577  0.0775  0.2649
 5545SOL    HW117013   4.563   3.383   6.759 -0.0244  1.2302 -0.3112
 5545SOL    HW217014   4.608   3.525   6.788 -1.9805  1.3018  2.7300
 5546SOL     OW17015   0.042   4.156   3.125  0.4773 -0.7634 -0.0687
 5546SOL    HW117016   0.129   4.128   3.154  0.3229 -2.3545 -0.9893
 5546SOL    HW217017  -0.008   4.169   3.206  1.7994  1.0642  0.4986
 5547SOL     OW17018   0.299   0.420   5.952 -0.1905 -0.4741 -0.0778
 5547SOL    HW117019   0.209   0.390   5.961 -0.7324  1.1505  0.2666
 5547SOL    HW217020   0.352   0.340   5.953 -1.3467 -1.3024  2.9014
 5548SOL     OW17021   6.705   0.251   4.556 -0.5467  0.4679  0.6167
 5548SOL    HW117022   6.671   0.192   4.624  1.2900  0.8703  1.9884
 5548SOL    HW217023   6.659   0.225   4.476 -1.6399 -1.1126  1.6905
 5549SOL     OW17024   5.650   4.532   2.390 -0.5239  0.1801 -0.4989
 5549SOL    HW117025   5.573   4.533   2.447  2.5128 -1.2010  4.1674
 5549SOL    HW217026   5.660   4.441   2.364  0.1747  0.0934  0.0287
 5550SOL     OW17027   5.948   6.085   3.593  0.0499  0.1466  0.3805
 5550SOL    HW117028   5.998   6.144   3.650  1.6174 -0.1803 -0.5938
 5550SOL    HW217029   5.861   6.124   3.588  0.9762  2.2730 -0.0814
 5551SOL     OW17030   6.809   3.053   4.058  0.3139  0.0392  0.1237
 5551SOL    HW117031   6.863   3.127   4.087 -1.2145  1.1579  0.2145
 5551SOL    HW217032   6.857   2.976   4.088  1.7882  0.9842  0.3160
 5552SOL     OW17033   2.446   6.177   1.567 -0.4109  1.0403  0.7355
 5552SOL    HW117034   2.367   6.127   1.547  0.7260  0.5227 -3.4371
 5552SOL    HW217035   2.517   6.125   1.530  1.7034  2.5331  2.4167
 5553SOL     OW17036   2.512   0.604   1.088  0.4907 -0.2296  0.7670
 5553SOL    HW117037   2.489   0.671   1.023  1.0120 -0.4837  0.3175
 5553SOL    HW217038   2.446   0.615   1.157 -0.1671 -0.0661  0.1234
 5554SOL     OW17039   1.029   6.568   1.606 -0.3515 -0.3062 -0.1827
 5554SOL    HW117040   1.102   6.506   1.611  0.6721  0.8618 -0.2482
 5554SOL    HW217041   1.020   6.587   1.513 -1.9272 -1.7778 -0.3755
 5555SOL     OW17042   6.129   5.660   1.348  0.0408 -0.5839  0.0966
 5555SOL    HW117043   6.159   5.573   1.372  2.3261 -0.6672 -2.5863
 5555SOL    HW217044   6.033   5.653   1.347  0.0497 -2.2720  2.3347
 5556SOL     OW17045   3.383   5.655   3.416 -0.2138  0.6634 -0.5311
 5556SOL    HW117046   3.425   5.728   3.371  1.9643  0.6532  1.3121
 5556SOL    HW217047   3.430   5.577   3.386  0.2722  0.5014  0.5877
 5557SOL     OW17048   3.657   3.022   1.616  0.0640 -0.1000 -0.6944
 5557SOL    HW117049   3.644   3.007   1.710  0.1826  0.8168 -0.5198
 5557SOL    HW217050   3.752   3.014   1.604  0.0641 -0.0748 -0.7101
 5558SOL     OW17051   2.985   4.155   1.966 -0.2019 -0.2657 -0.5400
 5558SOL    HW117052   2.974   4.159   2.062  1.7918 -1.3062 -0.2237
 5558SOL    HW217053   2.982   4.247   1.938 -0.0263  0.1172  0.6261
 5559SOL     OW17054   3.737   2.327   0.894  0.2464 -0.0937 -0.0440
 5559SOL    HW117055   3.727   2.239   0.857 -2.0025 -0.1471  0.5205
 5559SOL    HW217056   3.714   2.386   0.822  1.4220  0.0448 -0.3232
 5560SOL     OW17057   2.368   0.661   2.953  0.7203  0.4756 -0.1215
 5560SOL    HW117058   2.365   0.687   2.861  0.5178  1.2656  0.1019
 5560SOL    HW217059   2.314   0.582   2.957 -1.5513  1.9618 -0.2034
 5561SOL     OW17060   4.681   5.590   5.976 -0.1138 -0.2550  0.3515
 5561SOL    HW117061   4.721   5.645   6.043  0.2729  0.2036 -0.2460
 5561SOL    HW217062   4.754   5.563   5.921 -0.7964  2.2379 -1.9724
 5562SOL     OW17063   1.227   4.730   5.722  0.1474 -0.4930 -0.5418
 5562SOL    HW117064   1.308   4.705   5.766  0.0242 -0.0577 -0.0451
 5562SOL    HW217065   1.170   4.653   5.732  0.8983 -1.2488 -1.9466
 5563SOL     OW17066   5.114   0.707   2.643  0.3257 -0.5227  0.1643
 5563SOL    HW117067   5.108   0.678   2.734 -1.2566 -1.3816 -0.1921
 5563SOL    HW217068   5.076   0.636   2.592 -1.3867  1.0859 -0.9406
 5564SOL     OW17069   1.917   0.261   1.101  0.5563 -0.2783  0.0232
 5564SOL    HW117070   1.963   0.330   1.053 -1.1534  0.8196 -0.1165
 5564SOL    HW217071   1.918   0.186   1.042 -1.3493  0.9883 -1.7620
 5565SOL     OW17072   0.918   3.252   0.939 -0.0539  0.4713 -0.4428
 5565SOL    HW117073   0.982   3.184   0.960  0.2498  0.2426 -1.9888
 5565SOL    HW217074   0.844   3.204   0.901 -0.3534  0.8968 -0.4046
 5566SOL     OW17075   1.643   2.769   3.792  0.0186 -0.0602 -0.2605
 5566SOL    HW117076   1.548   2.761   3.805  0.0116 -1.3612 -0.9175
 5566SOL    HW217077   1.657   2.862   3.778 -1.4000 -0.0164 -1.7526
 5567SOL     OW17078   3.783   3.848   0.323  0.1369  0.0813 -0.2408
 5567SOL    HW117079   3.779   3.784   0.252 -0.2795 -1.1216  0.8341
 5567SOL    HW217080   3.867   3.893   0.311  0.0131 -0.0007 -1.5536
 5568SOL     OW17081   5.284   6.455   4.923  0.8857 -0.2625 -0.0800
 5568SOL    HW117082   5.326   6.541   4.927  3.0309 -1.0434 -2.7746
 5568SOL    HW217083   5.201   6.466   4.969  1.3116  3.0978  0.0780
 5569SOL     OW17084   1.288   4.834   3.505  0.3239  0.3260  0.5308
 5569SOL    HW117085   1.338   4.755   3.530  0.8864 -0.0304 -1.5192
 5569SOL    HW217086   1.266   4.820   3.413 -0.0190  2.3603  0.2633
 5570SOL     OW17087   5.978   1.805   0.273 -0.1907  0.0585 -0.5204
 5570SOL    HW117088   6.042   1.865   0.313  0.3963 -1.2112  0.5092
 5570SOL    HW217089   6.029   1.752   0.213  0.0774 -1.9010  1.3157
 5571SOL     OW17090   5.731   1.823   3.132 -0.5681  0.3129 -0.2186
 5571SOL    HW117091   5.739   1.764   3.058  0.2050 -1.2256  1.0242
 5571SOL    HW217092   5.820   1.854   3.148 -0.8630  1.3033 -0.4371
 5572SOL     OW17093   3.847   2.751   2.077  0.2899 -0.4290  0.1692
 5572SOL    HW117094   3.875   2.690   2.145 -0.9686 -0.5624  0.5921
 5572SOL    HW217095   3.787   2.811   2.121 -1.5581 -1.2668 -1.0239
 5573SOL     OW17096   0.255   2.494   0.768 -0.1290  0.2777 -0.2843
 5573SOL    HW117097   0.311   2.548   0.823  0.1267 -1.2417  1.0006
 5573SOL    HW217098   0.310   2.471   0.693  0.2151  0.6396 -0.1433
 5574SOL     OW17099   3.358   2.662   6.158 -0.2345  0.0829  0.0799
 5574SOL    HW117100   3.370   2.568   6.167  1.2533 -0.0761 -2.5647
 5574SOL    HW217101   3.325   2.690   6.243 -0.6365 -2.7795  0.9845
 5575SOL     OW17102   0.738   1.462   4.462  0.0358  0.1843  0.0734
 5575SOL    HW117103   0.701   1.538   4.418  0.6881  0.9526  0.8214
 5575SOL    HW217104   0.826   1.453   4.425  0.5002  0.6939  1.0156
 5576SOL     OW17105   5.194   2.343   2.683  0.0565 -0.3996 -0.5895
 5576SOL    HW117106   5.287   2.335   2.663 -0.1924 -1.2716 -1.4777
 5576SOL    HW217107   5.174   2.435   2.666  1.1289  0.2703  1.3990
 5577SOL     OW17108   0.937   5.605   5.399 -0.6415  0.0948  0.2885
 5577SOL    HW117109   0.862   5.567   5.355 -0.7219  0.1898  0.3423
 5577SOL    HW217110   1.009   5.596   5.337 -0.0112 -2.5243  1.2625
 5578SOL     OW17111   4.284   0.203   6.380 -0.1857 -0.1178  0.0623
 5578SOL    HW117112   4.221   0.131   6.377 -1.4875  0.9998 -0.8491
 5578SOL    HW217113   4.360   0.172   6.332 -1.5462 -0.1782 -2.1623
 5579SOL     OW17114   1.205   0.184   4.181 -0.6025  0.1872 -0.1375
 5579SOL    HW117115   1.117   0.153   4.201 -0.6783 -0.1619 -0.9851
 5579SOL    HW217116   1.260   0.106   4.189 -0.3460  0.4210  0.4776
 5580SOL     OW17117   1.649   2.694   5.788 -0.0723 -0.1587  0.3076
 5580SOL    HW117118   1.614   2.720   5.703 -1.8451  0.1068  1.0713
 5580SOL    HW217119   1.682   2.775   5.827  0.2539 -0.1864  0.0884
 5581SOL     OW17120   1.081   2.127   1.740 -0.1340  0.1878 -0.0645
 5581SOL    HW117121   1.079   2.108   1.647  0.5003 -2.1858  0.3395
 5581SOL    HW217122   1.147   2.196   1.750  0.8724 -0.5713 -1.2368
 5582SOL     OW17123   3.750   0.407   5.304 -0.1734 -0.0940 -0.2527
 5582SOL    HW117124   3.658   0.384   5.295 -0.5918  1.4792 -0.2398
 5582SOL    HW217125   3.750   0.485   5.358  1.1079  0.3791 -0.8906
 5583SOL     OW17126   5.607   4.746   2.243  0.3438 -0.1187  0.4379
 5583SOL    HW117127   5.626   4.670   2.298  0.9188  1.9868  3.3813
 5583SOL    HW217128   5.513   4.760   2.254  0.7286  1.3000  2.4322
 5584SOL     OW17129   2.973   5.299   4.899 -0.0150  0.4979  0.1150
 5584SOL    HW117130   2.920   5.294   4.819 -1.1974 -0.3489  0.9284
 5584SOL    HW217131   2.966   5.212   4.938  2.9505 -0.0495 -0.3278
 5585SOL     OW17132   5.124   3.211   0.371  0.0291 -0.4856  0.2598
 5585SOL    HW117133   5.203   3.264   0.381 -0.8057  1.4237 -2.2766
 5585SOL    HW217134   5.055   3.274   0.350 -1.4531 -2.3846 -0.8880
 5586SOL     OW17135   2.755   5.324   6.346 -0.6477 -0.2280 -0.1288
 5586SOL    HW117136   2.805   5.406   6.353 -1.4113  0.1557  1.1936
 5586SOL    HW217137   2.818   5.257   6.371 -0.3359  0.0780 -0.0700
 5587SOL     OW17138   1.098   4.808   1.582 -0.7916  0.2294 -0.6077
 5587SOL    HW117139   1.005   4.813   1.606 -0.5709  0.6017  0.1831
 5587SOL    HW217140   1.144   4.797   1.665 -0.2214 -1.4342 -1.1029
 5588SOL     OW17141   3.662   6.741   4.356 -0.3756  0.6223 -0.1792
 5588SOL    HW117142   3.588   6.717   4.299 -0.5820  0.5283  0.1256
 5588SOL    HW217143   3.739   6.718   4.305 -0.5686 -0.3549 -0.0460
 5589SOL     OW17144   5.913   0.550   2.560 -0.1630  0.2618  0.1403
 5589SOL    HW117145   5.967   0.501   2.622 -1.6211 -2.4243 -0.5501
 5589SOL    HW217146   5.863   0.611   2.614  1.3015  0.6254  1.1283
 5590SOL     OW17147   0.671   4.650   2.111 -0.2863 -0.2491 -0.2293
 5590SOL    HW117148   0.594   4.601   2.138  0.4586 -1.7572 -0.7639
 5590SOL    HW217149   0.743   4.613   2.162  0.1724  0.8864 -0.0034
 5591SOL     OW17150   2.308   0.514   1.449  0.4912 -0.8584  0.3583
 5591SOL    HW117151   2.297   0.520   1.354  1.9701 -2.4287  0.0328
 5591SOL    HW217152   2.292   0.422   1.469  2.7713 -1.1348  1.1917
 5592SOL     OW17153   2.127   5.040   2.841  0.9607  0.7259  0.0427
 5592SOL    HW117154   2.078   5.010   2.765  0.0827 -0.1587  0.9240
 5592SOL    HW217155   2.195   4.974   2.855  1.2747  1.0119 -0.1005
 5593SOL     OW17156   0.302   3.151   2.996 -0.2660  0.2525  0.9146
 5593SOL    HW117157   0.365   3.155   2.924  0.9673 -3.1015  1.6074
 5593SOL    HW217158   0.345   3.198   3.068  1.4874 -1.7285  1.2876
 5594SOL     OW17159   6.647   4.985   4.675  0.2624 -0.4855  0.3295
 5594SOL    HW117160   6.620   4.912   4.731 -2.7904  0.5702  0.4247
 5594SOL    HW217161   6.715   5.030   4.725 -0.3312 -1.2318  1.8672
 5595SOL     OW17162   0.135   4.071   1.799 -0.4465  0.1806  0.3018
 5595SOL    HW117163   0.110   4.163   1.800  0.4930  0.4501 -0.0733
 5595SOL    HW217164   0.216   4.067   1.850  0.1512 -0.2303 -0.6422
 5596SOL     OW17165   4.395   6.637   1.744 -0.1590  0.1962 -0.3976
 5596SOL    HW117166   4.409   6.732   1.750 -2.0836  0.5760 -0.9706
 5596SOL    HW217167   4.337   6.626   1.669  1.6747 -1.6884 -1.6345
 5597SOL     OW17168   6.000   6.772   1.472  0.2939 -0.8320  0.1672
 5597SOL    HW117169   6.068   6.705   1.474  0.5059 -0.6228  0.0598
 5597SOL    HW217170   6.042   6.847   1.430  0.4153 -0.2506  1.2737
 5598SOL     OW17171   3.882   5.027   5.521  0.0257  0.1918 -0.2666
 5598SOL    HW117172   3.974   5.035   5.495 -0.1440  0.2673 -0.8625
 5598SOL    HW217173   3.875   5.077   5.602  0.3015  1.0300 -0.7466
 5599SOL     OW17174   4.088   6.391   6.068  0.2079  0.9844  0.0590
 5599SOL    HW117175   4.139   6.374   5.989 -0.4549  0.3124 -0.2426
 5599SOL    HW217176   4.122   6.329   6.133  0.3627  1.1388  0.1258
 5600SOL     OW17177   4.985   3.599   4.461  0.6705  0.1501  0.1571
 5600SOL    HW117178   5.044   3.578   4.533  0.5408 -0.5694  0.0588
 5600SOL    HW217179   4.901   3.561   4.487  0.9901 -1.4953 -1.0507
 5601SOL     OW17180   2.753   4.189   5.498  0.0091 -0.2090  0.1207
 5601SOL    HW117181   2.706   4.121   5.546 -0.2459 -0.4953 -0.5318
 5601SOL    HW217182   2.688   4.259   5.487 -0.0865 -0.3539 -0.2494
 5602SOL     OW17183   5.192   0.386   0.194 -0.0269  0.1014 -0.0950
 5602SOL    HW117184   5.144   0.304   0.201 -1.7483  1.0823  0.3217
 5602SOL    HW217185   5.165   0.421   0.109 -0.1010  0.6902  0.1655
 5603SOL     OW17186   1.365   0.393   5.950 -0.1794 -0.1800 -0.0466
 5603SOL    HW117187   1.292   0.418   6.007  0.8957 -2.0402  2.3010
 5603SOL    HW217188   1.407   0.477   5.928 -1.1455  0.6731  1.1921
 5604SOL     OW17189   5.758   3.561   5.805 -0.1334 -0.0605  0.3377
 5604SOL    HW117190   5.813   3.561   5.726 -0.7383 -0.0893 -0.0903
 5604SOL    HW217191   5.759   3.651   5.835 -2.8647  0.8357 -1.8268
 5605SOL     OW17192   2.765   1.017   6.177 -0.0024 -0.2109  0.5958
 5605SOL    HW117193   2.773   0.923   6.191  0.2146 -0.1763  0.7055
 5605SOL    HW217194   2.684   1.027   6.127  1.5744 -0.7707 -2.3326
 5606SOL     OW17195   1.920   1.722   1.117  0.5209  0.0131  0.2566
 5606SOL    HW117196   2.003   1.767   1.124  1.8580 -2.1121 -0.8038
 5606SOL    HW217197   1.921   1.658   1.189  0.9746 -1.6771 -1.1764
 5607SOL     OW17198   1.629   6.001   0.144  0.1888 -0.2556 -0.0564
 5607SOL    HW117199   1.591   6.089   0.139  1.3416  0.3307  0.9747
 5607SOL    HW217200   1.608   5.970   0.232 -1.7708 -1.8074 -0.9845
 5608SOL     OW17201   3.912   0.244   4.603 -0.4399  0.1222  0.5674
 5608SOL    HW117202   3.823   0.240   4.638 -0.7220  1.3093  0.0364
 5608SOL    HW217203   3.903   0.216   4.512 -0.3955  0.9546  0.3058
 5609SOL     OW17204   3.294   1.410   0.553 -0.6298 -0.6744 -0.1688
 5609SOL    HW117205   3.265   1.425   0.643  0.4869 -2.0467  0.4659
 5609SOL    HW217206   3.367   1.349   0.562  0.3935  0.2192 -1.9111
 5610SOL     OW17207   1.015   6.140   1.661  0.1163 -0.2241 -0.1341
 5610SOL    HW117208   1.010   6.050   1.629  0.1004 -0.3308  0.1615
 5610SOL    HW217209   0.928   6.158   1.696  0.1439 -0.1227 -0.1167
 5611SOL     OW17210   3.914   6.734   2.114 -0.3702  0.3026  0.1080
 5611SOL    HW117211   3.966   6.809   2.144  1.4092 -0.1033 -1.6571
 5611SOL    HW217212   3.835   6.773   2.077 -0.1640  1.1858  0.5718
 5612SOL     OW17213   1.604   3.245   1.486  1.0416  0.1996 -0.1636
 5612SOL    HW117214   1.553   3.295   1.549  0.1261 -1.7621  0.7117
 5612SOL    HW217215   1.695   3.256   1.514  0.8568  1.2514  0.0634
 5613SOL     OW17216   3.783   0.901   0.832 -0.3643  0.3533 -0.2011
 5613SOL    HW117217   3.689   0.916   0.841 -0.0986  1.3021  1.4117
 5613SOL    HW217218   3.820   0.988   0.816  0.2011 -0.1087 -1.6345
 5614SOL     OW17219   5.684   6.034   6.549  0.5651 -0.3053  0.5698
 5614SOL    HW117220   5.654   6.070   6.466 -0.0440 -1.1379  0.4166
 5614SOL    HW217221   5.656   6.098   6.615 -0.3505 -0.4067  0.2930
 5615SOL     OW17222   0.180   0.412   2.606  1.1131 -0.8212 -0.0784
 5615SOL    HW117223   0.191   0.483   2.542 -0.0211 -0.6861 -0.1473
 5615SOL    HW217224   0.158   0.457   2.687 -3.2834 -1.0759 -0.8836
 5616SOL     OW17225   4.988   2.152   3.788  0.2423  0.3084  0.2884
 5616SOL    HW117226   5.000   2.243   3.817 -0.2785  1.7371 -3.3097
 5616SOL    HW217227   5.072   2.128   3.749  0.5673 -1.0415  1.7594
 5617SOL     OW17228   0.246   4.488   5.647  0.4765 -0.2440  0.3783
 5617SOL    HW117229   0.260   4.580   5.624  0.6863 -0.1296  0.9501
 5617SOL    HW217230   0.252   4.486   5.742 -0.1593 -0.7483  0.4146
 5618SOL     OW17231   6.026   3.121   1.751 -0.0934  0.2048  0.2223
 5618SOL    HW117232   6.019   3.165   1.666  1.2025 -0.4203 -0.2374
 5618SOL    HW217233   6.024   3.193   1.815  0.4502  0.8199 -0.4274
 5619SOL     OW17234   2.197   3.235   6.265  0.2860 -0.0670 -0.3956
 5619SOL    HW117235   2.203   3.226   6.360  1.1846  1.2321 -0.3147
 5619SOL    HW217236   2.166   3.149   6.235 -0.6262 -0.2932  1.1073
 5620SOL     OW17237   0.420   3.838   6.438  0.2562 -0.6669 -0.2297
 5620SOL    HW117238   0.342   3.792   6.408 -0.8040  1.3848 -0.8353
 5620SOL    HW217239   0.416   3.832   6.534 -1.4070  0.4849 -0.1778
 5621SOL     OW17240   3.787   5.976   4.178  0.3329 -0.0436 -0.2088
 5621SOL    HW117241   3.781   5.881   4.167  2.9401 -0.6073  2.1696
 5621SOL    HW217242   3.880   5.993   4.190 -0.2800  2.4680  1.8655
 5622SOL     OW17243   3.401   2.726   0.602 -0.4453 -0.0769  0.6186
 5622SOL    HW117244   3.428   2.753   0.689  1.0211  1.7644 -0.3335
 5622SOL    HW217245   3.305   2.733   0.604 -0.5182 -1.0500  2.3394
 5623SOL     OW17246   3.906   0.656   1.934  0.8542  0.3140 -0.4012
 5623SOL    HW117247   3.954   0.725   1.979 -0.4140 -0.0858  1.6804
 5623SOL    HW217248   3.818   0.692   1.922  0.2920 -0.7596  0.3561
 5624SOL     OW17249   0.995   1.589   1.114  0.3651 -0.1635  0.4349
 5624SOL    HW117250   1.050   1.608   1.190  3.0900 -0.3234 -1.3760
 5624SOL    HW217251   0.982   1.495   1.117 -1.0272  0.0239  1.5799
 5625SOL     OW17252   2.069   5.839   2.311  0.2895 -0.3362 -0.1493
 5625SOL    HW117253   1.991   5.784   2.308  1.6951 -2.5038  0.6346
 5625SOL    HW217254   2.043   5.915   2.365 -1.2511 -1.0073  0.1031
 5626SOL     OW17255   4.019   6.379   5.358  0.3016  0.4283 -0.8250
 5626SOL    HW117256   3.960   6.445   5.393  0.9259  1.1505 -1.1019
 5626SOL    HW217257   4.107   6.409   5.384  0.6646  0.2467 -1.8014
 5627SOL     OW17258   6.559   3.972   3.690 -0.1104  0.0834 -0.1906
 5627SOL    HW117259   6.650   3.997   3.678 -0.2687  1.0573  0.5561
 5627SOL    HW217260   6.563   3.881   3.720  0.7441  0.6851  1.7153
 5628SOL     OW17261   3.843   4.280   4.922 -0.3145  0.3121 -0.2121
 5628SOL    HW117262   3.878   4.330   4.849  0.2715  0.3306  0.0788
 5628SOL    HW217263   3.888   4.313   4.999  0.2744 -0.8185 -0.0445
 5629SOL     OW17264   5.791   5.114   5.013 -0.1017  0.4696  0.2214
 5629SOL    HW117265   5.881   5.083   5.005  0.1913  1.5245 -0.8716
 5629SOL    HW217266   5.769   5.146   4.925 -2.1824 -1.4035 -0.0366
 5630SOL     OW17267   3.897   2.465   6.540  0.0547 -0.0232  0.2774
 5630SOL    HW117268   3.928   2.472   6.450  0.0292  0.4159  0.2991
 5630SOL    HW217269   3.912   2.373   6.564  1.2447  0.1409  0.2532
 5631SOL     OW17270   4.152   1.902   3.804  0.1317 -0.6571  0.3762
 5631SOL    HW117271   4.109   1.821   3.832 -0.4271 -0.3807  0.3357
 5631SOL    HW217272   4.122   1.968   3.867  1.2733 -0.6507  0.9388
 5632SOL     OW17273   4.846   6.469   0.552  0.4316  0.0587 -0.1875
 5632SOL    HW117274   4.758   6.468   0.590  0.4007  0.9584 -0.2041
 5632SOL    HW217275   4.902   6.433   0.621  0.3182  1.3043  0.5837
 5633SOL     OW17276   2.537   4.139   6.443  0.5115 -0.3844  0.5971
 5633SOL    HW117277   2.540   4.060   6.497 -0.1167 -1.6356 -1.0680
 5633SOL    HW217278   2.620   4.183   6.459  0.3327 -0.6900  2.5530
 5634SOL     OW17279   6.474   5.285   5.248 -0.6139  0.1808 -0.4527
 5634SOL    HW117280   6.484   5.194   5.275 -2.6757 -0.2409 -0.9433
 5634SOL    HW217281   6.456   5.332   5.329 -2.6072 -0.4056 -0.4843
 5635SOL     OW17282   3.711   0.258   2.636  0.4594  0.2371  0.7731
 5635SOL    HW117283   3.625   0.296   2.616  1.3201  1.3114 -1.2489
 5635SOL    HW217284   3.769   0.296   2.570  2.3152 -1.1638  1.5205
 5636SOL     OW17285   4.268   5.233   5.835 -0.3221 -0.5866 -0.3046
 5636SOL    HW117286   4.363   5.244   5.836 -0.4946  1.1260  0.4488
 5636SOL    HW217287   4.239   5.290   5.763 -0.9510  0.8875  1.0686
 5637SOL     OW17288   6.198   3.595   0.079  0.4376 -0.2655  0.0457
 5637SOL    HW117289   6.248   3.514   0.086  0.9229  0.0034 -0.3626
 5637SOL    HW217290   6.107   3.567   0.092  0.5254 -0.9789 -0.7957
 5638SOL     OW17291   6.644   0.759   6.340 -0.1973  0.1757 -0.2615
 5638SOL    HW117292   6.648   0.761   6.435  0.6329 -1.5492 -0.2150
 5638SOL    HW217293   6.556   0.728   6.320 -0.6912  1.4346 -0.1011
 5639SOL     OW17294   3.187   6.205   3.339 -0.2298 -0.2797 -0.6569
 5639SOL    HW117295   3.256   6.147   3.307 -0.7584 -0.3712 -1.6722
 5639SOL    HW217296   3.173   6.267   3.268 -0.4935  0.3711 -0.0510
 5640SOL     OW17297   5.499   4.857   1.387  0.5376 -0.4927  0.2512
 5640SOL    HW117298   5.498   4.946   1.350  1.0695 -1.5651 -2.6256
 5640SOL    HW217299   5.427   4.856   1.450  0.4386  1.9188  0.2859
 5641SOL     OW17300   5.175   1.752   3.193  0.2412  0.2527  0.6741
 5641SOL    HW117301   5.160   1.660   3.173  0.5065  0.3653 -0.0447
 5641SOL    HW217302   5.100   1.777   3.248  0.0634 -0.3330  0.7015
 5642SOL     OW17303   3.363   3.493   1.605  0.1720  0.0701  0.1441
 5642SOL    HW117304   3.271   3.520   1.607 -0.2366 -1.2364  0.0247
 5642SOL    HW217305   3.395   3.510   1.693  0.5746  2.9004 -0.4543
 5643SOL     OW17306   4.479   4.790   1.663  0.1226 -0.4573 -0.2386
 5643SOL    HW117307   4.521   4.756   1.583  0.6404  0.3936 -0.3462
 5643SOL    HW217308   4.448   4.713   1.709  1.6534 -1.1250 -0.2588
 5644SOL     OW17309   6.732   4.385   4.381 -0.0338 -0.1284 -0.4849
 5644SOL    HW117310   6.735   4.428   4.295  1.1648 -1.7552 -1.3011
 5644SOL    HW217311   6.728   4.457   4.443 -1.6053  1.0903 -1.9100
 5645SOL     OW17312   2.300   2.068   4.203  0.3489 -0.0358 -0.2507
 5645SOL    HW117313   2.312   2.138   4.267  0.5255  0.3084 -0.6619
 5645SOL    HW217314   2.228   2.016   4.239 -0.3825  0.8597 -0.3842
 5646SOL     OW17315   3.935   2.280   0.204  0.4618 -0.1878  0.0601
 5646SOL    HW117316   3.954   2.189   0.226  0.7428 -0.0885  0.2377
 5646SOL    HW217317   3.843   2.280   0.178  0.4206 -0.4970  0.1994
 5647SOL     OW17318   1.134   1.550   6.132  0.1558  0.1621  0.5499
 5647SOL    HW117319   1.182   1.486   6.079 -0.8978 -0.5525  0.4387
 5647SOL    HW217320   1.160   1.635   6.096  0.2891 -0.2694 -0.4047
 5648SOL     OW17321   6.658   4.702   2.716  0.7214  0.1999  0.1263
 5648SOL    HW117322   6.632   4.706   2.808 -1.0256 -0.2838 -0.3220
 5648SOL    HW217323   6.579   4.725   2.667  1.8922  1.5115 -1.2572
 5649SOL     OW17324   3.111   2.913   5.149 -0.1806  0.1584  0.6403
 5649SOL    HW117325   3.082   2.921   5.058 -0.0302 -0.0883  0.5687
 5649SOL    HW217326   3.196   2.957   5.151  0.5177 -1.1015  0.3096
 5650SOL     OW17327   6.062   1.962   4.379  0.0653  0.0834  0.5685
 5650SOL    HW117328   5.982   1.953   4.327  0.5395  2.2124 -0.6598
 5650SOL    HW217329   6.040   2.029   4.445 -0.1196 -1.6574  2.3773
 5651SOL     OW17330   0.365   0.533   3.876 -0.1019  0.0678 -0.2970
 5651SOL    HW117331   0.453   0.554   3.908  0.9903 -2.9009 -1.0262
 5651SOL    HW217332   0.311   0.531   3.955 -0.2865  4.5101 -0.0694
 5652SOL     OW17333   6.310   0.554   3.901 -0.1660  0.4013 -0.2356
 5652SOL    HW117334   6.241   0.568   3.966 -0.5004  1.5420 -0.8123
 5652SOL    HW217335   6.384   0.520   3.952 -1.0841 -0.7000  0.4078
 5653SOL     OW17336   3.978   2.817   4.554  0.3543 -0.2045 -0.6045
 5653SOL    HW117337   3.893   2.797   4.592  0.2278  0.5328 -0.4796
 5653SOL    HW217338   4.042   2.777   4.613  0.0958 -0.9865 -0.8401
 5654SOL     OW17339   4.809   0.427   4.828  0.3242  0.4052  0.3356
 5654SOL    HW117340   4.772   0.350   4.785 -1.7292  1.9025 -0.7630
 5654SOL    HW217341   4.772   0.425   4.917  2.0289 -0.9853  1.0651
 5655SOL     OW17342   1.860   4.987   0.384  0.6678 -0.1618 -0.0595
 5655SOL    HW117343   1.888   5.014   0.471  0.1406  0.7401 -0.1589
 5655SOL    HW217344   1.781   4.935   0.400 -0.5752  1.6326 -0.0907
 5656SOL     OW17345   2.387   5.678   6.701  0.5893 -0.1374 -0.3925
 5656SOL    HW117346   2.401   5.759   6.749 -0.1759  0.0172 -0.4065
 5656SOL    HW217347   2.300   5.648   6.730  1.2693 -1.4734  0.3610
 5657SOL     OW17348   4.103   0.442   6.438 -0.3857  0.3375 -0.4276
 5657SOL    HW117349   4.156   0.409   6.365 -0.8693 -0.5630 -0.3808
 5657SOL    HW217350   4.051   0.367   6.466 -0.5276  0.7889  0.5654
 5658SOL     OW17351   1.243   1.056   3.889  0.8824 -0.2876 -0.1884
 5658SOL    HW117352   1.265   0.984   3.829 -0.1682 -1.9156  1.2729
 5658SOL    HW217353   1.167   1.024   3.938 -0.5436  2.4230 -0.4553
 5659SOL     OW17354   2.282   2.759   6.084 -0.6004  0.0891 -0.0275
 5659SOL    HW117355   2.250   2.721   6.002  1.4662 -0.3324 -0.6880
 5659SOL    HW217356   2.264   2.692   6.150 -0.0529 -0.6317 -0.5932
 5660SOL     OW17357   4.869   0.521   5.896 -0.3068 -0.2311 -0.7072
 5660SOL    HW117358   4.848   0.566   5.977  1.1936  0.2213 -0.5317
 5660SOL    HW217359   4.940   0.573   5.857  0.4537 -1.5981 -1.2368
 5661SOL     OW17360   0.909   6.141   3.736 -0.8391 -0.0271  1.0319
 5661SOL    HW117361   1.004   6.141   3.744 -0.5361  3.4591 -0.6957
 5661SOL    HW217362   0.878   6.190   3.812 -0.8519  2.0065 -0.2039
 5662SOL     OW17363   2.628   6.551   6.733 -0.4029  0.0279  0.1825
 5662SOL    HW117364   2.565   6.479   6.726 -3.4157  2.3792  1.0720
 5662SOL    HW217365   2.623   6.596   6.648  0.1661  0.2107  0.2397
 5663SOL     OW17366   0.625   5.285   5.619 -0.3427  0.4043 -0.1677
 5663SOL    HW117367   0.705   5.237   5.642 -0.7826  0.7308  2.1986
 5663SOL    HW217368   0.656   5.356   5.563  0.4839 -1.7455 -2.6958
 5664SOL     OW17369   2.879   2.072   5.930 -0.2196 -0.4968  0.0755
 5664SOL    HW117370   2.821   2.107   5.997 -1.3679 -1.6094 -0.3096
 5664SOL    HW217371   2.896   1.982   5.958  1.2019 -0.2474  0.0922
 5665SOL     OW17372   4.413   3.194   0.038 -0.5074  0.3570 -0.0919
 5665SOL    HW117373   4.461   3.221  -0.041  0.4291  0.3640  0.4641
 5665SOL    HW217374   4.339   3.254   0.042 -0.2329  0.7461 -0.6347
 5666SOL     OW17375   0.494   3.026   0.447 -0.0210 -0.4632 -0.0200
 5666SOL    HW117376   0.585   3.012   0.470 -0.1661  0.4304  1.1814
 5666SOL    HW217377   0.444   2.989   0.520 -0.6236 -0.6508 -0.5095
 5667SOL     OW17378   0.174   2.480   3.798  0.2587 -0.1444  0.2037
 5667SOL    HW117379   0.170   2.574   3.817  0.9375  0.1022 -0.7491
 5667SOL    HW217380   0.203   2.476   3.707  0.0987 -1.2842  0.1908
 5668SOL     OW17381   1.921   1.296   3.784 -0.3772  0.5616 -0.3964
 5668SOL    HW117382   1.897   1.383   3.816  3.7592  1.8164 -0.1702
 5668SOL    HW217383   1.964   1.312   3.701  1.1230 -1.1874 -0.0179
 5669SOL     OW17384   0.222   6.175   3.019 -0.5792 -0.2097  0.1478
 5669SOL    HW117385   0.203   6.257   3.064 -1.3936 -0.1273 -0.3373
 5669SOL    HW217386   0.144   6.121   3.030 -1.5852  0.4888 -2.6669
 5670SOL     OW17387   4.440   1.654   4.605  0.0931  0.1431 -0.4254
 5670SOL    HW117388   4.425   1.568   4.567  2.5603 -1.3055  1.5271
 5670SOL    HW217389   4.383   1.713   4.556 -0.4189 -2.2918 -2.9936
 5671SOL     OW17390   3.994   2.724   2.914 -0.5984  0.2340 -0.1824
 5671SOL    HW117391   4.019   2.712   3.006  1.1655  1.2449 -0.4927
 5671SOL    HW217392   4.037   2.805   2.887 -1.6184  0.3059 -1.7402
 5672SOL     OW17393   2.031   1.386   0.149  0.1403  0.1431 -0.3565
 5672SOL    HW117394   2.064   1.464   0.193  1.0524 -0.1783 -0.4523
 5672SOL    HW217395   1.939   1.380   0.177 -0.1515  1.6224 -0.8810
 5673SOL     OW17396   1.568   0.253   3.113  0.1634  0.0759  0.0607
 5673SOL    HW117397   1.481   0.292   3.119 -0.0992 -0.5639  0.4030
 5673SOL    HW217398   1.599   0.278   3.026  0.9921  3.1186  1.0848
 5674SOL     OW17399   0.932   2.575   0.649  0.5211 -0.4816  1.0021
 5674SOL    HW117400   1.018   2.574   0.607  1.1912 -0.2494  2.3431
 5674SOL    HW217401   0.871   2.556   0.577  1.5966  0.2531 -0.1509
 5675SOL     OW17402   1.599   1.937   3.604 -0.0051 -0.6931 -0.1404
 5675SOL    HW117403   1.559   1.989   3.674  0.3259 -0.4396 -0.1382
 5675SOL    HW217404   1.551   1.854   3.605 -0.0137 -0.6827  0.3690
 5676SOL     OW17405   6.434   0.562   6.717  0.1241  0.5948 -0.2803
 5676SOL    HW117406   6.453   0.471   6.739  1.3370  1.1254  1.0199
 5676SOL    HW217407   6.338   0.568   6.722  0.1434 -0.1092  1.7861
 5677SOL     OW17408   2.369   3.142   3.901 -0.3394  0.5633  0.1198
 5677SOL    HW117409   2.447   3.197   3.905 -1.4215  2.4257 -1.9818
 5677SOL    HW217410   2.303   3.191   3.951 -0.7562  0.1325 -0.0088
 5678SOL     OW17411   3.656   4.869   3.781 -0.2057  0.3326 -0.2799
 5678SOL    HW117412   3.611   4.797   3.826 -1.8509  1.8174  0.5829
 5678SOL    HW217413   3.649   4.943   3.841  0.7338  1.4456 -1.4734
 5679SOL     OW17414   2.553   6.231   4.012  0.0672 -0.1346  0.1667
 5679SOL    HW117415   2.509   6.155   3.973  0.2727  0.4571 -1.2742
 5679SOL    HW217416   2.564   6.207   4.104 -1.2346 -1.2207  0.0742
 5680SOL     OW17417   4.578   5.134   6.399  0.0098  0.2413 -0.1907
 5680SOL    HW117418   4.564   5.062   6.461 -3.9371  0.8645 -0.1229
 5680SOL    HW217419   4.657   5.108   6.351 -0.8940 -3.9299  0.1504
 5681SOL     OW17420   2.682   6.771   4.557  0.0346  0.3380 -0.0932
 5681SOL    HW117421   2.607   6.720   4.527  0.2916 -2.0829  2.9291
 5681SOL    HW217422   2.758   6.719   4.530  0.5036  1.1204 -0.3086
 5682SOL     OW17423   4.599   3.270   2.685 -0.0634  0.9227  0.7574
 5682SOL    HW117424   4.639   3.183   2.689 -1.0490  0.4758  1.2137
 5682SOL    HW217425   4.662   3.327   2.731  0.1246  0.2605  1.3410
 5683SOL     OW17426   0.012   3.492   4.730 -0.2233 -0.2650 -0.4642
 5683SOL    HW117427   0.026   3.579   4.767  0.5744  0.0680 -1.4859
 5683SOL    HW217428  -0.019   3.508   4.641  1.7856 -0.9698 -1.3525
 5684SOL     OW17429   3.129   0.577   6.502 -0.1017  0.1787 -0.1299
 5684SOL    HW117430   3.133   0.655   6.447  2.4131  0.4362  0.2998
 5684SOL    HW217431   3.142   0.609   6.591 -3.2080 -0.3422  0.6274
 5685SOL     OW17432   2.912   5.342   3.869 -0.2540  0.1388  0.0559
 5685SOL    HW117433   2.973   5.412   3.847 -1.3609  0.6350 -1.6369
 5685SOL    HW217434   2.968   5.267   3.888  0.9126  0.8292 -0.5085
 5686SOL     OW17435   6.536   4.026   6.375 -0.2542 -0.4089 -0.2083
 5686SOL    HW117436   6.469   4.023   6.443 -1.2277  0.9117 -1.0505
 5686SOL    HW217437   6.619   4.032   6.423 -0.8028 -1.0356  0.8462
 5687SOL     OW17438   2.050   0.040   3.656 -0.5355 -0.1762  0.2775
 5687SOL    HW117439   1.979   0.079   3.604  0.0072 -0.4806 -0.7121
 5687SOL    HW217440   2.008   0.013   3.737 -0.9327  2.6000  1.1206
 5688SOL     OW17441   3.294   4.653   5.693 -0.2640 -0.1491 -0.5143
 5688SOL    HW117442   3.209   4.631   5.656  0.7264 -2.6936 -1.5351
 5688SOL    HW217443   3.316   4.737   5.654 -1.8945  0.0912 -0.9656
 5689SOL     OW17444   4.685   0.307   2.139  0.6199  0.0111  0.7183
 5689SOL    HW117445   4.653   0.324   2.228  0.8803 -0.1918  0.8522
 5689SOL    HW217446   4.645   0.224   2.114 -0.5151  0.7119  0.1282
 5690SOL     OW17447   4.619   5.872   2.496  0.1213  0.1222 -0.0263
 5690SOL    HW117448   4.625   5.786   2.538  2.2097  0.0443 -0.3761
 5690SOL    HW217449   4.527   5.898   2.507 -0.5698 -2.1401  0.0782
 5691SOL     OW17450   5.581   6.469   5.977  0.1869  0.1479 -0.3176
 5691SOL    HW117451   5.626   6.460   5.893 -0.2011  0.3737 -0.5576
 5691SOL    HW217452   5.588   6.383   6.018  0.6327  0.1175 -0.4510
 5692SOL     OW17453   3.370   0.420   0.547  0.5521  0.0239 -0.0690
 5692SOL    HW117454   3.283   0.383   0.534  0.9707 -0.8532 -0.4335
 5692SOL    HW217455   3.430   0.353   0.515  1.4333 -0.0740  1.6408
 5693SOL     OW17456   3.864   3.283   3.232  0.6259  0.3838 -0.1561
 5693SOL    HW117457   3.824   3.363   3.266  1.3442  0.3181  0.8813
 5693SOL    HW217458   3.789   3.227   3.208  0.0987  1.7942 -2.0291
 5694SOL     OW17459   3.813   6.257   2.912  0.1603  0.3169 -0.2925
 5694SOL    HW117460   3.892   6.228   2.959  0.5977  0.8710 -0.6731
 5694SOL    HW217461   3.832   6.238   2.820 -0.3654 -0.0218 -0.3343
 5695SOL     OW17462   1.587   6.673   1.629 -0.2422 -0.3104 -0.2495
 5695SOL    HW117463   1.607   6.720   1.548 -0.9305 -1.0940 -0.8962
 5695SOL    HW217464   1.562   6.585   1.600  0.1568 -0.8183  0.8662
 5696SOL     OW17465   2.261   6.774   1.514  0.0947 -0.6755 -0.3585
 5696SOL    HW117466   2.216   6.690   1.505 -1.1054 -0.1233  0.2219
 5696SOL    HW217467   2.203   6.825   1.571 -0.1361  1.1893 -2.1784
 5697SOL     OW17468   2.064   4.704   1.537  0.1976  0.6260  0.4168
 5697SOL    HW117469   2.006   4.770   1.498  0.3476  0.3710 -0.2422
 5697SOL    HW217470   2.072   4.636   1.470 -1.6235 -1.0946  1.8148
 5698SOL     OW17471   3.446   0.408   6.421 -0.1616  0.1322  0.0360
 5698SOL    HW117472   3.457   0.480   6.483 -0.3718  0.2878 -0.1065
 5698SOL    HW217473   3.353   0.387   6.424 -0.4366  1.0166 -1.1754
 5699SOL     OW17474   0.520   1.884   5.978  0.1345  0.3829 -0.0614
 5699SOL    HW117475   0.500   1.801   5.934 -0.8003  0.2732  0.5298
 5699SOL    HW217476   0.592   1.862   6.037 -0.3042 -0.1011  0.3106
 5700SOL     OW17477   4.265   0.621   4.638 -0.6965 -0.1616 -0.0822
 5700SOL    HW117478   4.325   0.548   4.624 -0.3285  0.3589 -1.4407
 5700SOL    HW217479   4.278   0.646   4.729  1.7614  0.4276 -0.5089
 5701SOL     OW17480   0.458   5.680   0.936  0.5910 -0.5932  0.1424
 5701SOL    HW117481   0.543   5.667   0.893  1.3566  2.0065  0.6670
 5701SOL    HW217482   0.422   5.758   0.892 -0.4807 -0.3383  1.4271
 5702SOL     OW17483   3.381   5.414   0.866  0.0751  0.3968  0.1926
 5702SOL    HW117484   3.456   5.432   0.809 -1.2885 -0.4818 -2.0325
 5702SOL    HW217485   3.329   5.494   0.864 -0.1790  0.2287 -0.1840
 5703SOL     OW17486   4.279   4.040   6.014  0.7077 -0.1346  0.0274
 5703SOL    HW117487   4.274   4.039   6.110 -1.2724  0.5193 -0.0339
 5703SOL    HW217488   4.203   4.089   5.986  1.3003 -0.2336 -1.9119
 5704SOL     OW17489   3.239   0.849   1.460 -0.1397 -0.1094 -0.4808
 5704SOL    HW117490   3.297   0.882   1.391 -0.4487  1.0807 -0.1967
 5704SOL    HW217491   3.169   0.805   1.413  0.8915 -1.4549 -0.8353
 5705SOL     OW17492   0.320   0.433   4.363  0.0063  0.1913  0.2075
 5705SOL    HW117493   0.343   0.499   4.428 -1.3161  0.8113  0.0751
 5705SOL    HW217494   0.246   0.386   4.402  0.8386 -1.1525  0.2418
 5706SOL     OW17495   3.734   1.257   6.289 -0.8171  0.2673 -0.1636
 5706SOL    HW117496   3.779   1.342   6.292 -1.0957  0.4960 -1.5659
 5706SOL    HW217497   3.712   1.238   6.380  0.5028  1.0160  0.3383
 5707SOL     OW17498   3.222   0.386   4.707 -0.4323 -0.8132  0.1495
 5707SOL    HW117499   3.233   0.464   4.653 -1.5679 -0.2614  0.6804
 5707SOL    HW217500   3.304   0.337   4.696  0.4037  0.5722  0.0224
 5708SOL     OW17501   1.338   1.487   5.454  0.8872 -0.5656  0.6944
 5708SOL    HW117502   1.267   1.550   5.441  1.5903 -0.2685 -2.8597
 5708SOL    HW217503   1.409   1.539   5.490  1.6724  1.0718 -2.7798
 5709SOL     OW17504   3.202   6.612   3.549 -0.0536  0.7177  0.4651
 5709SOL    HW117505   3.144   6.633   3.476 -0.2668 -1.3418 -0.0124
 5709SOL    HW217506   3.150   6.555   3.606  1.6423 -1.9260 -0.4259
 5710SOL     OW17507   4.486   1.659   2.259  0.2675  0.3289  0.5168
 5710SOL    HW117508   4.554   1.601   2.225 -2.8210 -1.3977 -3.5518
 5710SOL    HW217509   4.504   1.743   2.217  0.9405  0.4931  1.0979
 5711SOL     OW17510   3.909   1.584   0.782 -0.4869 -0.0994 -0.8916
 5711SOL    HW117511   3.901   1.676   0.757 -0.3010  0.3775  0.6987
 5711SOL    HW217512   3.994   1.578   0.827 -1.0981 -0.7510  0.2172
 5712SOL     OW17513   5.457   6.530   0.223  0.4065 -0.3849 -0.4154
 5712SOL    HW117514   5.371   6.495   0.245  1.1992 -1.2724  1.5712
 5712SOL    HW217515   5.445   6.574   0.139 -2.0683 -0.1041  0.0152
 5713SOL     OW17516   5.414   3.343   0.756 -0.0288  0.0338  0.1706
 5713SOL    HW117517   5.443   3.264   0.801 -0.2614  0.5848  1.3510
 5713SOL    HW217518   5.325   3.357   0.788  0.0216  0.7797  0.0026
 5714SOL     OW17519   4.685   3.764   4.347  0.2394 -0.0651  0.0178
 5714SOL    HW117520   4.644   3.782   4.431  1.5875 -1.7633  1.0938
 5714SOL    HW217521   4.732   3.682   4.360 -0.3019 -0.9142 -2.6864
 5715SOL     OW17522   5.482   2.834   2.372 -0.4761  0.3165 -0.2892
 5715SOL    HW117523   5.428   2.863   2.298  0.8206 -0.2609 -1.4944
 5715SOL    HW217524   5.473   2.904   2.437 -1.3566  1.0041 -1.1331
 5716SOL     OW17525   2.683   5.685   0.895  0.4042  0.5685 -0.2029
 5716SOL    HW117526   2.599   5.645   0.873  0.8539 -0.3905 -0.2026
 5716SOL    HW217527   2.700   5.747   0.824  0.9251 -1.0956 -1.5680
 5717SOL     OW17528   3.351   2.368   6.178 -0.1478 -0.4668 -0.5233
 5717SOL    HW117529   3.403   2.294   6.209 -0.3163 -0.3147  0.1350
 5717SOL    HW217530   3.267   2.360   6.224  0.5113  1.2311  1.1297
 5718SOL     OW17531   0.311   3.220   2.295 -0.2851  0.0239  0.3103
 5718SOL    HW117532   0.351   3.268   2.223 -3.0841  1.8723 -0.1627
 5718SOL    HW217533   0.379   3.215   2.362  1.9288 -0.4761 -1.8395
 5719SOL     OW17534   1.639   4.368   4.235 -0.9577 -0.0537 -0.1683
 5719SOL    HW117535   1.684   4.431   4.178 -1.4970  1.0037  0.5401
 5719SOL    HW217536   1.547   4.373   4.208 -1.0499 -0.3131  0.0964
 5720SOL     OW17537   3.246   2.991   2.557  0.0715  0.0224 -0.5325
 5720SOL    HW117538   3.222   2.928   2.625  2.1644  0.1320  0.3747
 5720SOL    HW217539   3.251   3.075   2.602  0.4645  0.2784 -1.0432
 5721SOL     OW17540   1.127   6.794   2.467  0.1853 -0.0934  0.0160
 5721SOL    HW117541   1.132   6.859   2.537  1.0861 -0.3161  0.1794
 5721SOL    HW217542   1.154   6.841   2.389  2.3411 -0.6003  0.3955
 5722SOL     OW17543   5.327   3.500   4.269  0.1556  0.1388  0.2020
 5722SOL    HW117544   5.236   3.470   4.274  0.4688 -0.8038  0.6239
 5722SOL    HW217545   5.321   3.593   4.251 -0.8789 -0.1375 -1.0136
 5723SOL     OW17546   1.702   3.406   6.785  0.5157 -0.0972 -0.2782
 5723SOL    HW117547   1.766   3.463   6.829 -0.0049  0.3179 -0.0498
 5723SOL    HW217548   1.714   3.424   6.692  1.3996 -0.7386 -0.2969
 5724SOL     OW17549   5.623   2.813   6.432 -0.0429  0.1073 -0.2879
 5724SOL    HW117550   5.540   2.802   6.479  0.2811 -0.6512  0.1312
 5724SOL    HW217551   5.607   2.886   6.372 -0.4793  1.1207  0.9956
 5725SOL     OW17552   4.496   1.858   1.630 -0.0175 -0.3802 -0.0001
 5725SOL    HW117553   4.452   1.775   1.609  0.9992 -0.9291 -0.0151
 5725SOL    HW217554   4.457   1.885   1.713 -2.5097  0.6878 -1.4085
 5726SOL     OW17555   6.395   5.335   6.369 -0.0003 -0.3633  0.5847
 5726SOL    HW117556   6.402   5.393   6.445 -1.9266  1.2246 -0.3518
 5726SOL    HW217557   6.486   5.317   6.344  0.6866  1.9748  1.1694
 5727SOL     OW17558   2.690   1.922   0.473  0.0953 -0.1459 -0.1145
 5727SOL    HW117559   2.643   1.861   0.529  0.7099  0.7271  1.4251
 5727SOL    HW217560   2.698   2.001   0.526 -1.6180  1.7177 -2.4097
 5728SOL     OW17561   3.505   5.346   6.275 -0.1892 -0.3780  0.0075
 5728SOL    HW117562   3.453   5.277   6.233 -0.1599 -0.5298  0.2175
 5728SOL    HW217563   3.591   5.338   6.234 -0.5397  0.3919 -0.9144
 5729SOL     OW17564   5.325   6.223   6.752 -0.2949  0.2195  0.1414
 5729SOL    HW117565   5.244   6.184   6.721 -0.6026 -0.2985  1.5181
 5729SOL    HW217566   5.309   6.243   6.844  0.2178  2.6795 -0.2272
 5730SOL     OW17567   6.507   3.264   6.176  0.3416 -0.4313  0.2264
 5730SOL    HW117568   6.563   3.202   6.224 -0.6256 -1.8692 -0.4599
 5730SOL    HW217569   6.445   3.209   6.129  0.3355  1.0136 -1.5437
 5731SOL     OW17570   5.084   3.746   0.725  0.1846  0.6093 -0.6815
 5731SOL    HW117571   5.171   3.725   0.759 -0.9540  0.1639  2.1616
 5731SOL    HW217572   5.036   3.663   0.727 -0.8721  1.2054 -0.3691
 5732SOL     OW17573   2.738   1.635   1.996  0.2724  0.1923  0.1592
 5732SOL    HW117574   2.709   1.715   2.041 -0.9733 -0.3286  0.3184
 5732SOL    HW217575   2.830   1.627   2.020  0.7438  2.1949 -0.7828
 5733SOL     OW17576   4.318   4.621   4.834 -0.3805 -0.1342 -0.1858
 5733SOL    HW117577   4.329   4.557   4.905  1.3997  0.1338 -0.1584
 5733SOL    HW217578   4.265   4.576   4.769 -1.2425 -0.7296  0.9017
 5734SOL     OW17579   1.682   5.294   0.219 -0.0980 -0.4957  0.2581
 5734SOL    HW117580   1.685   5.224   0.153  0.9223 -0.8582  0.6662
 5734SOL    HW217581   1.599   5.279   0.265 -0.0776 -1.1985  0.0884
 5735SOL     OW17582   3.255   6.580   1.382  0.6351  0.1296 -0.3441
 5735SOL    HW117583   3.215   6.666   1.373  0.8553  0.0863 -1.9456
 5735SOL    HW217584   3.189   6.519   1.352  0.3818 -0.3215  1.0320
 5736SOL     OW17585   4.442   5.062   6.142 -0.6475 -0.1452  0.9259
 5736SOL    HW117586   4.399   4.992   6.192 -0.3467 -0.0530  1.3184
 5736SOL    HW217587   4.472   5.124   6.208  3.1616 -1.8523  1.0448
 5737SOL     OW17588   6.089   1.623   4.382  0.3379  0.1853 -0.2484
 5737SOL    HW117589   6.083   1.685   4.455 -1.5560  0.7314 -0.8063
 5737SOL    HW217590   6.102   1.679   4.305  1.0993 -0.2947 -0.4705
 5738SOL     OW17591   2.535   0.898   3.047 -0.1175  0.0509  0.4902
 5738SOL    HW117592   2.598   0.940   2.989 -0.2264  0.7690  0.8753
 5738SOL    HW217593   2.550   0.939   3.133 -1.8077  1.0452  0.3687
 5739SOL     OW17594   3.344   5.623   0.433 -0.4698  0.9023  0.0318
 5739SOL    HW117595   3.262   5.614   0.481 -0.1337 -0.2355  0.4295
 5739SOL    HW217596   3.346   5.715   0.406 -2.4018  0.7252 -0.9424
 5740SOL     OW17597   2.166   6.659   2.821 -0.5059  0.2938 -0.5044
 5740SOL    HW117598   2.150   6.582   2.875 -0.2823  0.0478 -0.7816
 5740SOL    HW217599   2.235   6.706   2.866  1.8057 -1.4148 -2.0197
 5741SOL     OW17600   0.942   0.030   6.609 -0.3412  0.1201 -0.0085
 5741SOL    HW117601   0.926   0.084   6.686  0.9148 -0.7559  0.9145
 5741SOL    HW217602   0.859   0.029   6.563 -0.5127  2.5684  0.0833
 5742SOL     OW17603   5.224   1.959   5.530 -0.0488  0.2989 -0.0366
 5742SOL    HW117604   5.282   1.902   5.479 -1.4087 -2.3377  1.1244
 5742SOL    HW217605   5.137   1.944   5.492 -0.4368  1.7326  0.2363
 5743SOL     OW17606   2.360   6.633   5.056 -0.2719 -0.3634 -0.2836
 5743SOL    HW117607   2.390   6.637   4.965  1.5193  0.0788  0.2799
 5743SOL    HW217608   2.277   6.586   5.052 -1.1521  1.2183 -2.3446
 5744SOL     OW17609   2.281   5.416   1.351  0.1229 -0.5382  1.1676
 5744SOL    HW117610   2.341   5.349   1.383  2.0760 -0.1555 -1.3347
 5744SOL    HW217611   2.227   5.371   1.285  2.1599  0.3913 -1.3108
 5745SOL     OW17612   5.440   5.641   5.285  0.1202 -0.1201  0.1267
 5745SOL    HW117613   5.349   5.658   5.313  0.3244  1.9501 -0.2628
 5745SOL    HW217614   5.491   5.654   5.365  0.0634 -1.7619  0.4566
 5746SOL     OW17615   5.828   5.708   0.636  0.0161  0.4302  0.4502
 5746SOL    HW117616   5.757   5.772   0.629 -1.2544 -1.0297 -0.6869
 5746SOL    HW217617   5.798   5.646   0.703 -0.3982 -0.8528 -0.8573
 5747SOL     OW17618   5.274   0.431   5.690  0.0772  0.1940  0.3622
 5747SOL    HW117619   5.206   0.498   5.691  0.4135  0.5863 -0.9086
 5747SOL    HW217620   5.353   0.478   5.666  0.7243 -0.3382  1.3850
 5748SOL     OW17621   3.363   2.527   2.768 -0.3210 -0.8633  0.0576
 5748SOL    HW117622   3.347   2.515   2.862 -1.8015 -4.0406 -0.4548
 5748SOL    HW217623   3.438   2.470   2.750  0.9224  0.8799 -0.4927
 5749SOL     OW17624   3.930   2.979   0.862 -0.4293  0.4757 -0.2228
 5749SOL    HW117625   3.959   2.971   0.771  1.3181  2.8631  0.0080
 5749SOL    HW217626   3.874   3.056   0.863 -0.1299  0.7004  0.7672
 5750SOL     OW17627   6.604   0.866   0.943 -0.2450 -0.4119 -0.3041
 5750SOL    HW117628   6.597   0.832   0.854  0.2193  0.2496 -0.6022
 5750SOL    HW217629   6.679   0.821   0.980 -2.6493 -3.6170  1.1233
 5751SOL     OW17630   3.628   4.837   3.521  0.4337 -0.5059  0.2256
 5751SOL    HW117631   3.626   4.742   3.508 -1.2833 -0.3154 -1.4103
 5751SOL    HW217632   3.659   4.849   3.610  1.7973 -2.5470  0.0905
 5752SOL     OW17633   4.220   5.875   2.802 -0.2208 -0.7815 -0.4730
 5752SOL    HW117634   4.219   5.855   2.895 -0.1329 -0.0887 -0.3146
 5752SOL    HW217635   4.302   5.838   2.770 -0.1374 -0.8138 -0.2220
 5753SOL     OW17636   0.368   1.391   2.765  0.0778  0.5313 -0.1409
 5753SOL    HW117637   0.294   1.397   2.826 -0.8152 -0.3283 -1.0875
 5753SOL    HW217638   0.406   1.479   2.764 -0.7632  0.9217  0.5659
 5754SOL     OW17639   3.480   1.508   6.399 -0.4118 -0.1887 -0.7503
 5754SOL    HW117640   3.484   1.413   6.412  0.4356 -0.2280 -1.2333
 5754SOL    HW217641   3.501   1.521   6.307  0.4310  0.5282 -0.4715
 5755SOL     OW17642   3.202   6.741   1.098 -0.2166 -0.9065  0.1568
 5755SOL    HW117643   3.145   6.750   1.022 -0.2256  0.4965  0.3063
 5755SOL    HW217644   3.178   6.657   1.137 -2.2923 -0.2940  0.3136
 5756SOL     OW17645   0.934   5.877   0.866  0.4881  0.6702 -0.4660
 5756SOL    HW117646   0.987   5.872   0.786  1.7340  0.3959  0.3565
 5756SOL    HW217647   0.888   5.961   0.858  2.8661  2.0900 -0.1361
 5757SOL     OW17648   1.462   4.408   2.699 -0.1137  0.1607  0.0302
 5757SOL    HW117649   1.460   4.313   2.692 -3.2178  0.1772 -0.9499
 5757SOL    HW217650   1.441   4.426   2.790  1.1300 -0.0607  0.3747
 5758SOL     OW17651   1.282   4.936   4.751  0.5987  0.1454 -0.4098
 5758SOL    HW117652   1.189   4.944   4.732  0.7407  1.7175 -0.5221
 5758SOL    HW217653   1.320   5.020   4.726  1.9406 -0.2162  0.2779
 5759SOL     OW17654   4.451   1.197   4.728  0.1102  0.1529 -0.1970
 5759SOL    HW117655   4.511   1.137   4.772  0.5268 -1.5363 -2.8557
 5759SOL    HW217656   4.503   1.237   4.659 -0.8780  1.5324 -0.1718
 5760SOL     OW17657   5.223   6.726   1.747 -0.2468 -1.2960 -0.2913
 5760SOL    HW117658   5.289   6.667   1.783  0.6361 -1.1366 -1.5936
 5760SOL    HW217659   5.272   6.803   1.719 -0.7070 -1.8203 -2.7341
 5761SOL     OW17660   1.232   6.455   6.404  0.1076 -0.3938  0.4228
 5761SOL    HW117661   1.288   6.525   6.371  1.6332 -1.2232  1.1531
 5761SOL    HW217662   1.160   6.451   6.341  0.1868  1.5285  0.1383
 5762SOL     OW17663   0.873   3.712   4.050 -0.3803  0.3739 -0.4500
 5762SOL    HW117664   0.790   3.682   4.011 -1.5806 -0.8421  2.7357
 5762SOL    HW217665   0.849   3.785   4.106  0.9132  0.7651 -0.3687
 5763SOL     OW17666   5.794   2.066   6.413  0.2924 -0.3357  0.0422
 5763SOL    HW117667   5.734   2.133   6.445  2.0264  0.6874  1.3491
 5763SOL    HW217668   5.772   1.988   6.463 -0.5929 -0.2548 -0.2132
 5764SOL     OW17669   1.133   2.868   1.915  0.0036  0.1321  0.3633
 5764SOL    HW117670   1.137   2.964   1.915 -0.4087  0.1626  1.2170
 5764SOL    HW217671   1.040   2.848   1.907 -0.0088 -0.1692  1.1386
 5765SOL     OW17672   2.980   2.646   6.344 -0.0000 -0.1686  0.0091
 5765SOL    HW117673   2.937   2.596   6.275  1.3633  0.5443 -1.4339
 5765SOL    HW217674   2.919   2.717   6.364 -0.8422 -0.9485  0.2722
 5766SOL     OW17675   2.809   4.801   5.981  0.2346  0.2094 -0.1538
 5766SOL    HW117676   2.782   4.874   6.037 -1.8165  0.2681 -1.1173
 5766SOL    HW217677   2.861   4.745   6.039 -1.5307  0.4216  1.7965
 5767SOL     OW17678   0.518   5.824   3.761  0.2826  0.2622  0.3458
 5767SOL    HW117679   0.536   5.909   3.721 -1.5567  0.4783 -0.0957
 5767SOL    HW217680   0.521   5.842   3.855  1.2847  0.4883  0.2858
 5768SOL     OW17681   0.525   6.426   3.673 -0.0129 -0.3858 -0.1226
 5768SOL    HW117682   0.583   6.372   3.619 -0.4371  0.1649 -1.1477
 5768SOL    HW217683   0.579   6.499   3.701  0.1176 -0.4968 -0.0859
 5769SOL     OW17684   1.839   1.804   0.021 -0.2406 -1.0341  0.3127
 5769SOL    HW117685   1.797   1.729   0.064 -0.5250 -0.5318  0.9198
 5769SOL    HW217686   1.765   1.853  -0.017 -0.0712 -0.9509  0.0897
 5770SOL     OW17687   3.268   5.928   0.487  0.4358 -0.7111  0.5192
 5770SOL    HW117688   3.290   6.021   0.482  0.9616 -0.8623 -0.1518
 5770SOL    HW217689   3.351   5.885   0.508 -0.0607 -0.9161  2.1166
 5771SOL     OW17690   0.415   2.459   6.434 -0.0212  0.2721 -0.0865
 5771SOL    HW117691   0.401   2.393   6.502 -0.5774 -1.2493 -1.6123
 5771SOL    HW217692   0.493   2.429   6.387  0.1768  1.1304 -0.3342
 5772SOL     OW17693   2.400   6.062   5.880 -0.7677 -0.1578  0.4507
 5772SOL    HW117694   2.323   6.030   5.928 -1.1851 -2.1085 -1.3810
 5772SOL    HW217695   2.442   5.983   5.847  0.7747  0.9977 -0.4860
 5773SOL     OW17696   3.004   3.542   1.344 -0.2638 -0.0775  0.2073
 5773SOL    HW117697   2.936   3.480   1.320 -0.6019 -0.3886  1.8390
 5773SOL    HW217698   2.993   3.615   1.284 -1.1560 -0.7192 -0.4262
 5774SOL     OW17699   4.632   2.965   1.504  0.0878 -0.2071  0.1618
 5774SOL    HW117700   4.604   3.020   1.430  2.0816  0.8302  0.1004
 5774SOL    HW217701   4.667   3.027   1.568  0.1637 -1.2417  1.1572
 5775SOL     OW17702   5.061   4.624   4.292 -0.4403 -0.3641  0.3773
 5775SOL    HW117703   5.122   4.564   4.249 -0.3414  1.4191 -2.2551
 5775SOL    HW217704   5.113   4.668   4.359  0.4044 -0.8317  0.0407
 5776SOL     OW17705   0.512   6.710   5.191  0.4188  0.5760  0.2782
 5776SOL    HW117706   0.448   6.650   5.230 -0.8147  0.7190 -1.4282
 5776SOL    HW217707   0.594   6.692   5.238 -0.2475 -1.4544  0.7521
 5777SOL     OW17708   0.538   0.845   4.323 -0.3198 -0.2414 -0.5336
 5777SOL    HW117709   0.589   0.906   4.271 -0.4618 -0.7873 -1.3322
 5777SOL    HW217710   0.494   0.899   4.388 -0.3531  0.4884 -1.1541
 5778SOL     OW17711   0.996   5.822   1.279  0.5591 -0.0145 -0.2298
 5778SOL    HW117712   1.090   5.810   1.266  0.5860 -0.2818  0.1770
 5778SOL    HW217713   0.962   5.733   1.296  0.6005  0.3129  1.8497
 5779SOL     OW17714   3.964   3.664   3.273  0.0206  0.3378  0.5946
 5779SOL    HW117715   4.021   3.635   3.202 -0.1215 -0.3244  0.7372
 5779SOL    HW217716   4.001   3.748   3.301 -0.2410  0.8731 -0.6039
 5780SOL     OW17717   4.288   1.416   2.979  0.1605 -0.4063 -0.3810
 5780SOL    HW117718   4.300   1.403   3.073  0.2088  0.6543 -0.2325
 5780SOL    HW217719   4.217   1.480   2.972  0.0560 -0.5911 -1.0707
 5781SOL     OW17720   4.291   4.979   0.496 -0.1597 -0.3209 -0.8287
 5781SOL    HW117721   4.237   4.944   0.425 -0.4188 -1.0851 -0.2753
 5781SOL    HW217722   4.275   4.920   0.570  0.8979 -0.1454 -0.4368
 5782SOL     OW17723   3.523   1.664   3.550 -0.1583 -0.4148 -0.6839
 5782SOL    HW117724   3.511   1.576   3.514  1.9911 -1.3848  0.7073
 5782SOL    HW217725   3.435   1.691   3.577 -0.9432 -1.9159 -1.5914
 5783SOL     OW17726   3.376   5.117   5.285  0.3605 -0.6199 -0.5173
 5783SOL    HW117727   3.294   5.132   5.238 -0.4583 -0.5726  0.8790
 5783SOL    HW217728   3.360   5.152   5.373  1.6364 -1.2678 -0.0028
 5784SOL     OW17729   4.373   1.498   4.884  0.0525 -0.6756  0.2087
 5784SOL    HW117730   4.383   1.414   4.839 -0.9830 -1.4081  1.2795
 5784SOL    HW217731   4.462   1.532   4.890  0.6640 -2.2369  0.7205
 5785SOL     OW17732   4.368   5.889   6.573  0.0674  0.0907  0.1471
 5785SOL    HW117733   4.383   5.908   6.665 -0.0315 -0.3812  0.2627
 5785SOL    HW217734   4.273   5.885   6.564  0.0851 -0.6170  0.1891
 5786SOL     OW17735   2.667   6.238   3.278 -0.3934 -0.0088  0.2788
 5786SOL    HW117736   2.672   6.156   3.327 -0.7273 -0.3536 -0.2511
 5786SOL    HW217737   2.755   6.275   3.283 -0.5303  0.1949  1.5250
 5787SOL     OW17738   5.015   3.820   5.882 -0.0181 -0.1112  0.1140
 5787SOL    HW117739   4.928   3.810   5.922 -0.6649 -0.3184 -1.2876
 5787SOL    HW217740   5.004   3.894   5.822  0.2663 -1.2367 -1.3699
 5788SOL     OW17741   6.541   3.596   4.536 -0.5585 -0.2926 -0.0733
 5788SOL    HW117742   6.510   3.565   4.452  0.6647 -0.0875 -0.6293
 5788SOL    HW217743   6.622   3.643   4.516 -0.8209  0.7230  1.0864
 5789SOL     OW17744   3.940   0.949   4.044 -0.4818  0.0587 -0.4666
 5789SOL    HW117745   3.955   0.995   4.126 -0.0447 -0.9633  0.0385
 5789SOL    HW217746   3.989   0.868   4.052 -3.0977 -1.6285 -0.3565
 5790SOL     OW17747   2.744   0.128   4.312  0.2348  0.5034  0.4515
 5790SOL    HW117748   2.828   0.173   4.320  0.4552  0.0891  0.4929
 5790SOL    HW217749   2.694   0.157   4.388  0.4347  0.5487  0.5654
 5791SOL     OW17750   4.310   2.806   2.407 -0.2224 -0.4781 -0.2156
 5791SOL    HW117751   4.321   2.844   2.495 -1.7598 -0.2944 -0.0740
 5791SOL    HW217752   4.379   2.848   2.355 -0.4955  0.8952  0.4596
 5792SOL     OW17753   5.745   5.901   1.160  0.4148  0.6287  0.7660
 5792SOL    HW117754   5.745   5.989   1.197  2.4118  0.3270  1.6336
 5792SOL    HW217755   5.802   5.907   1.083  1.2621 -0.0434  1.3111
 5793SOL     OW17756   0.430   2.407   1.579  1.0506  0.1164  0.2138
 5793SOL    HW117757   0.412   2.405   1.485  0.6514  0.5239  0.2762
 5793SOL    HW217758   0.361   2.354   1.619 -0.3153  1.9665  0.4844
 5794SOL     OW17759   3.241   4.204   0.922 -0.0674 -0.2248 -0.4354
 5794SOL    HW117760   3.234   4.297   0.943  0.3585 -0.0820 -0.9169
 5794SOL    HW217761   3.262   4.163   1.006 -1.6392 -0.0795  0.0725
 5795SOL     OW17762   6.714   6.518   6.723  0.2120 -0.3860  0.7107
 5795SOL    HW117763   6.791   6.515   6.780 -1.2431  0.5870  2.8718
 5795SOL    HW217764   6.694   6.612   6.716 -0.5440 -0.6003 -0.1256
 5796SOL     OW17765   3.659   5.121   4.907 -0.3885  0.1098  0.5986
 5796SOL    HW117766   3.663   5.072   4.989 -1.6953  0.2166  0.7427
 5796SOL    HW217767   3.627   5.208   4.931 -0.8201  0.1323 -0.0206
 5797SOL     OW17768   5.725   0.648   2.763 -0.7161  0.7942  0.1709
 5797SOL    HW117769   5.745   0.600   2.843 -0.0562 -1.7396 -1.3941
 5797SOL    HW217770   5.631   0.637   2.750 -0.4840 -0.5938 -0.4500
 5798SOL     OW17771   0.483   1.838   2.098 -0.3711 -0.2341 -0.1937
 5798SOL    HW117772   0.492   1.743   2.095 -0.0945 -0.2097 -0.1477
 5798SOL    HW217773   0.507   1.862   2.187 -0.1577 -0.0930 -0.2890
 5799SOL     OW17774   6.588   4.814   5.959  0.5894 -0.5466 -0.2119
 5799SOL    HW117775   6.663   4.870   5.981 -0.9462  1.3742  0.4540
 5799SOL    HW217776   6.565   4.839   5.869 -0.4159  0.3262  0.2655
 5800SOL     OW17777   6.386   0.960   6.117  0.1661 -0.6604  0.3732
 5800SOL    HW117778   6.477   0.946   6.092  0.4116  1.2301  0.0491
 5800SOL    HW217779   6.389   0.985   6.209 -0.3517 -3.4138  1.2339
 5801SOL     OW17780   6.442   5.558   1.071 -0.2497  0.0800 -0.5289
 5801SOL    HW117781   6.388   5.478   1.071 -0.4701  0.2268 -0.3488
 5801SOL    HW217782   6.385   5.625   1.033 -0.8421  0.6593  1.2604
 5802SOL     OW17783   0.601   0.281   1.134  0.0515 -0.1086  0.3548
 5802SOL    HW117784   0.515   0.296   1.173 -0.4050  0.6581 -0.8841
 5802SOL    HW217785   0.602   0.337   1.057  1.3695 -0.6990 -0.0833
 5803SOL     OW17786   1.119   4.512   3.585  0.0389 -0.1090  0.4254
 5803SOL    HW117787   1.089   4.603   3.593  0.3556  0.0326  0.0347
 5803SOL    HW217788   1.047   4.460   3.619  0.1667  0.3243  1.3984
 5804SOL     OW17789   1.560   0.649   5.111  0.1792 -0.0995 -0.1958
 5804SOL    HW117790   1.595   0.738   5.112 -1.5188  0.6155 -0.6382
 5804SOL    HW217791   1.634   0.593   5.132  1.5962  1.3122 -1.2311
 5805SOL     OW17792   4.850   6.399   5.528 -0.2315  0.5042  0.3306
 5805SOL    HW117793   4.940   6.375   5.551  0.0135  2.3654  1.4940
 5805SOL    HW217794   4.797   6.326   5.561  0.8600 -1.0513 -1.1502
 5806SOL     OW17795   0.818   3.355   1.527  0.3833 -0.0733 -0.0249
 5806SOL    HW117796   0.723   3.363   1.532  0.4116 -0.0819  0.5835
 5806SOL    HW217797   0.836   3.347   1.433  0.0224  2.9596 -0.4461
 5807SOL     OW17798   5.034   5.094   1.983 -1.0967  0.1399 -0.0893
 5807SOL    HW117799   4.949   5.098   1.938 -1.2075  1.8319  0.2042
 5807SOL    HW217800   5.077   5.177   1.961  0.5769 -0.7434 -0.3614
 5808SOL     OW17801   3.591   4.404   1.547 -0.4677 -0.5925  0.4353
 5808SOL    HW117802   3.570   4.369   1.633  2.7366 -3.4681  0.2811
 5808SOL    HW217803   3.601   4.499   1.561 -1.2009 -0.8285  2.9001
 5809SOL     OW17804   1.253   5.362   2.052 -0.0990 -0.0978  0.4934
 5809SOL    HW117805   1.303   5.441   2.071 -2.7011  1.5161  1.1684
 5809SOL    HW217806   1.287   5.333   1.967  1.2930  1.4277  0.4655
 5810SOL     OW17807   4.943   4.647   2.687  0.1515  0.0163 -0.8432
 5810SOL    HW117808   4.931   4.616   2.777 -1.0282 -0.9825 -1.3104
 5810SOL    HW217809   4.862   4.692   2.667  0.3636  0.1333 -1.4458
 5811SOL     OW17810   0.972   5.633   3.591 -0.6050  0.6921  0.1464
 5811SOL    HW117811   0.915   5.705   3.617 -1.8295  1.0669 -3.1218
 5811SOL    HW217812   0.915   5.557   3.586  0.0259  0.1775  0.5416
 5812SOL     OW17813   1.925   6.555   4.805 -0.4075 -0.2930 -0.1361
 5812SOL    HW117814   1.903   6.516   4.720  1.0585  1.9304 -1.6484
 5812SOL    HW217815   1.845   6.546   4.857 -2.1135  0.2245 -2.5205
 5813SOL     OW17816   6.419   2.670   4.415 -0.1782 -0.3261  0.2592
 5813SOL    HW117817   6.391   2.728   4.486 -0.4750 -0.4197  0.2203
 5813SOL    HW217818   6.337   2.643   4.373 -0.1930 -2.3329  1.4741
 5814SOL     OW17819   2.243   3.314   4.944  0.7527 -0.1649  0.5508
 5814SOL    HW117820   2.281   3.334   4.858  2.0124  2.1727  1.5462
 5814SOL    HW217821   2.277   3.227   4.965  0.9079 -0.5282 -1.0464
 5815SOL     OW17822   6.676   4.343   2.227  0.2386  0.2095 -0.6682
 5815SOL    HW117823   6.721   4.410   2.175  0.0199  1.6893  0.9581
 5815SOL    HW217824   6.632   4.392   2.296  0.7738 -1.6719  1.1214
 5816SOL     OW17825   1.548   3.975   4.498 -0.5345  0.3387 -0.0483
 5816SOL    HW117826   1.588   3.888   4.493 -1.9129 -0.3483  0.4126
 5816SOL    HW217827   1.570   4.016   4.414 -0.1689 -0.5759 -0.4125
 5817SOL     OW17828   4.943   5.969   4.485  0.3668 -0.5033 -0.1042
 5817SOL    HW117829   5.019   5.920   4.454 -0.4932 -1.3961 -0.8695
 5817SOL    HW217830   4.878   5.902   4.503 -0.0435  0.1975  1.1665
 5818SOL     OW17831   0.065   6.557   6.422  0.2187  0.0277 -0.1918
 5818SOL    HW117832   0.070   6.468   6.390  0.0727  0.1795 -0.6425
 5818SOL    HW217833  -0.029   6.574   6.432  0.2077  0.3899 -0.8561
 5819SOL     OW17834   4.456   1.497   2.513  0.2340 -0.0317 -0.0827
 5819SOL    HW117835   4.421   1.408   2.505  1.7236 -0.5974 -0.6458
 5819SOL    HW217836   4.424   1.543   2.435 -1.1683  0.1844  0.5855
 5820SOL     OW17837   3.508   0.507   4.933  0.4221  0.3334  0.3325
 5820SOL    HW117838   3.449   0.540   4.865 -1.7687  0.3164  2.0790
 5820SOL    HW217839   3.520   0.581   4.993  1.8353  0.1879  0.2496
 5821SOL     OW17840   0.700   6.234   2.956 -0.0734  0.0786 -0.2399
 5821SOL    HW117841   0.616   6.188   2.950  0.3823 -0.7474 -0.4872
 5821SOL    HW217842   0.765   6.164   2.955  0.5778  0.6024  1.4554
 5822SOL     OW17843   2.039   4.383   0.332 -0.5453  0.4440  0.7605
 5822SOL    HW117844   2.084   4.312   0.287  0.7797  1.2734  0.7191
 5822SOL    HW217845   1.967   4.340   0.378  0.5642 -1.0250  1.2262
 5823SOL     OW17846   1.757   3.800   5.735 -0.3024  0.3577 -0.3908
 5823SOL    HW117847   1.807   3.871   5.776 -2.0671  0.5427  1.6513
 5823SOL    HW217848   1.740   3.831   5.646  1.6501  1.0516 -0.5726
 5824SOL     OW17849   0.439   2.439   0.121 -0.0857 -0.4522 -1.1614
 5824SOL    HW117850   0.477   2.355   0.096  1.8236  0.1377 -0.4335
 5824SOL    HW217851   0.370   2.417   0.184  0.6646 -1.4790 -0.6734
 5825SOL     OW17852   5.993   6.320   4.669 -0.1542 -0.6210  0.3318
 5825SOL    HW117853   6.052   6.308   4.594 -0.1207 -0.8814  0.3963
 5825SOL    HW217854   5.908   6.290   4.638 -0.5166  0.7967 -0.1167
 5826SOL     OW17855   3.068   3.295   6.228  0.0778 -0.1671 -0.0112
 5826SOL    HW117856   3.090   3.360   6.295 -1.0178 -0.3567  0.5700
 5826SOL    HW217857   2.982   3.261   6.256  0.2928 -1.3294 -0.7014
 5827SOL     OW17858   1.304   5.653   5.072 -0.0282 -0.0392  0.0522
 5827SOL    HW117859   1.233   5.684   5.128  1.2234  0.0254  1.6822
 5827SOL    HW217860   1.262   5.592   5.011 -1.7578  1.3419 -0.2252
 5828SOL     OW17861   1.777   4.668   1.792  0.0945 -0.0181  0.4623
 5828SOL    HW117862   1.683   4.682   1.799 -0.1598 -1.5259  0.3762
 5828SOL    HW217863   1.806   4.649   1.881  0.6191  1.9271  0.7586
 5829SOL     OW17864   3.602   5.411   5.567  0.1673  0.0116 -0.1646
 5829SOL    HW117865   3.695   5.396   5.547  0.0207  0.2306 -1.0259
 5829SOL    HW217866   3.603   5.443   5.657  0.9345  0.0449 -0.1714
 5830SOL     OW17867   4.529   2.092   5.142 -0.4458  0.3350  0.0642
 5830SOL    HW117868   4.451   2.091   5.196 -0.4749  1.0312  0.0499
 5830SOL    HW217869   4.583   2.162   5.179 -0.0281  0.1600 -0.1985
 5831SOL     OW17870   5.773   1.042   1.437  0.3839 -0.5485  0.0335
 5831SOL    HW117871   5.729   0.957   1.429 -1.3466  0.2096  1.0480
 5831SOL    HW217872   5.861   1.020   1.467  0.2283 -2.0147 -0.4832
 5832SOL     OW17873   4.802   4.351   2.513 -0.1195  0.4975  0.0333
 5832SOL    HW117874   4.877   4.398   2.475  0.5843 -0.8093 -0.2442
 5832SOL    HW217875   4.732   4.416   2.515  0.2374  1.0487 -2.2101
 5833SOL     OW17876   4.389   2.117   3.520 -0.0347  0.1714 -0.0291
 5833SOL    HW117877   4.393   2.022   3.533  2.5688  0.3007  0.7713
 5833SOL    HW217878   4.328   2.148   3.587  0.9755 -0.7602  1.3943
 5834SOL     OW17879   1.150   6.370   3.343 -0.0919  0.1413 -0.0794
 5834SOL    HW117880   1.184   6.446   3.390  0.7476 -1.8494  2.8787
 5834SOL    HW217881   1.229   6.325   3.311 -0.3763 -0.7666  0.4589
 5835SOL     OW17882   2.680   2.760   2.269 -0.0952 -0.0871 -0.0090
 5835SOL    HW117883   2.713   2.794   2.353 -0.1229 -1.7195  0.6995
 5835SOL    HW217884   2.629   2.832   2.233  2.0856  1.6073  0.0810
 5836SOL     OW17885   2.719   6.036   4.162  0.1555 -0.6318 -0.7544
 5836SOL    HW117886   2.793   5.988   4.124  1.8536  0.4851  0.9758
 5836SOL    HW217887   2.671   5.969   4.212  0.5211 -1.1991 -1.1499
 5837SOL     OW17888   6.499   4.766   1.085  0.5250 -0.6842 -0.4780
 5837SOL    HW117889   6.569   4.799   1.141 -0.2643 -0.2265  0.2620
 5837SOL    HW217890   6.422   4.761   1.143  0.2099 -2.2461 -0.9801
 5838SOL     OW17891   4.808   0.707   6.097 -0.2090 -0.0567 -0.0743
 5838SOL    HW117892   4.727   0.721   6.048 -0.3639  1.7213  0.6222
 5838SOL    HW217893   4.785   0.727   6.188  1.2026  1.4360  0.0041
 5839SOL     OW17894   6.415   4.229   4.465  0.3077  0.2828  0.3457
 5839SOL    HW117895   6.448   4.315   4.493 -0.6047  1.2577 -1.3909
 5839SOL    HW217896   6.384   4.188   4.546 -0.7535  2.2776  1.0421
 5840SOL     OW17897   4.135   1.066   0.231 -0.0583 -0.0050  0.6113
 5840SOL    HW117898   4.175   1.034   0.150 -1.4928  0.7257 -0.4513
 5840SOL    HW217899   4.101   0.988   0.274  0.2984 -0.3567  0.2538
 5841SOL     OW17900   5.237   3.215   4.194 -0.3544 -0.1961 -0.0253
 5841SOL    HW117901   5.205   3.158   4.124 -1.0534 -0.0148  0.1361
 5841SOL    HW217902   5.309   3.264   4.155 -0.3068 -0.5791 -0.4185
 5842SOL     OW17903   0.818   0.808   3.194 -0.0416 -0.3064  0.1045
 5842SOL    HW117904   0.873   0.821   3.271  0.8403  0.8102 -0.6807
 5842SOL    HW217905   0.812   0.713   3.185  1.7133 -0.4699  0.2785
 5843SOL     OW17906   1.248   3.835   4.295  0.0199 -0.0801 -0.0148
 5843SOL    HW117907   1.266   3.790   4.213  0.0322  0.2375 -0.1896
 5843SOL    HW217908   1.296   3.918   4.287  0.7747 -0.4324  0.6951
 5844SOL     OW17909   2.582   5.406   2.360  0.1684 -0.0592 -0.0246
 5844SOL    HW117910   2.678   5.404   2.362  0.4619  1.8678 -3.5427
 5844SOL    HW217911   2.557   5.440   2.446  2.7729  1.3962  0.2702
 5845SOL     OW17912   3.096   6.471   3.764 -0.0685 -0.2304 -0.1999
 5845SOL    HW117913   3.071   6.537   3.828  0.1760 -0.7956  0.4924
 5845SOL    HW217914   3.183   6.442   3.792 -0.4453 -1.3098 -0.1094
 5846SOL     OW17915   6.363   1.845   0.940  0.0290 -0.2565 -0.3300
 5846SOL    HW117916   6.318   1.856   0.857 -0.9319 -1.0404  0.0736
 5846SOL    HW217917   6.360   1.932   0.980 -1.1286 -0.2898 -0.3179
 5847SOL     OW17918   1.445   6.469   0.435 -0.2255 -0.1023 -0.2921
 5847SOL    HW117919   1.494   6.466   0.352 -0.2280  0.1911 -0.3036
 5847SOL    HW217920   1.498   6.418   0.496  0.1322  0.2788 -0.2843
 5848SOL     OW17921   3.280   1.584   0.768 -0.3077  0.4850  0.6030
 5848SOL    HW117922   3.265   1.671   0.732  0.6268  0.2806 -0.3336
 5848SOL    HW217923   3.341   1.598   0.840  2.2680  0.3548 -1.4023
 5849SOL     OW17924   1.977   6.486   0.468 -0.0364 -0.0177  0.0994
 5849SOL    HW117925   1.958   6.402   0.427  1.1904  0.1915 -0.9508
 5849SOL    HW217926   2.060   6.473   0.513 -0.5813  0.2151  1.2158
 5850SOL     OW17927   6.828   2.269   1.411 -0.6406  0.7080  0.4122
 5850SOL    HW117928   6.814   2.363   1.417  0.8445  1.0804 -1.0155
 5850SOL    HW217929   6.777   2.241   1.335  1.4503  1.0312 -1.2184
 5851SOL     OW17930   4.304   4.138   3.364 -0.2219 -0.7221  0.3797
 5851SOL    HW117931   4.396   4.115   3.351 -0.1767 -0.4557  0.2357
 5851SOL    HW217932   4.292   4.219   3.315 -0.4061 -0.4824  0.8181
 5852SOL     OW17933   3.910   2.494   4.421 -0.3001 -0.5011 -0.4683
 5852SOL    HW117934   3.886   2.498   4.329  0.5105  3.7851 -0.7075
 5852SOL    HW217935   3.827   2.499   4.469 -0.6193  2.2915 -1.1427
 5853SOL     OW17936   6.137   3.769   3.939  0.1819 -0.5072 -0.3651
 5853SOL    HW117937   6.193   3.790   3.864  0.4045 -0.0169 -0.0577
 5853SOL    HW217938   6.108   3.853   3.972 -1.0463 -0.7602 -0.7449
 5854SOL     OW17939   3.210   0.541   0.764  0.4612  0.0804 -0.0413
 5854SOL    HW117940   3.294   0.518   0.723 -0.0610  0.3950 -1.3206
 5854SOL    HW217941   3.185   0.624   0.723  0.8491  1.4598  2.3333
 5855SOL     OW17942   0.696   3.371   6.606 -0.2536 -0.0914 -0.6744
 5855SOL    HW117943   0.608   3.378   6.569 -0.6542 -0.0150  0.2569
 5855SOL    HW217944   0.717   3.277   6.602 -1.5503 -0.5604  1.6370
 5856SOL     OW17945   6.702   4.421   0.815 -0.6262  0.6104 -0.4327
 5856SOL    HW117946   6.655   4.505   0.811  1.8495  2.3902  2.9126
 5856SOL    HW217947   6.794   4.446   0.818  0.1475 -2.0062  2.8525
 5857SOL     OW17948   1.354   2.735   2.509  0.7294  0.6651 -0.5263
 5857SOL    HW117949   1.370   2.778   2.593 -0.0065 -1.0059  0.5195
 5857SOL    HW217950   1.314   2.802   2.455 -0.0011  1.4218  0.9003
 5858SOL     OW17951   5.596   3.812   3.743  0.3829  0.1363 -0.0394
 5858SOL    HW117952   5.582   3.728   3.787  0.2393  0.7816  1.1722
 5858SOL    HW217953   5.690   3.829   3.754  0.6682 -0.4224 -1.3495
 5859SOL     OW17954   1.030   3.098   1.279 -0.1033 -0.0575  0.2280
 5859SOL    HW117955   1.028   3.055   1.365 -1.9809 -1.1979 -0.3432
 5859SOL    HW217956   0.973   3.174   1.289  1.0540  0.8076  0.4507
 5860SOL     OW17957   4.155   2.320   5.246 -0.5782  0.9527  0.6155
 5860SOL    HW117958   4.077   2.289   5.291  1.2853 -1.4822  2.4605
 5860SOL    HW217959   4.179   2.247   5.187  0.2781  1.6764  0.0446
 5861SOL     OW17960   3.308   3.129   4.336 -0.6687  0.3686  0.5688
 5861SOL    HW117961   3.317   3.066   4.408  0.9874  2.0921  1.9900
 5861SOL    HW217962   3.396   3.134   4.299 -1.5159 -0.5321 -1.6756
 5862SOL     OW17963   3.763   1.024   2.012  0.0592 -0.4222 -0.1401
 5862SOL    HW117964   3.773   0.980   2.096 -0.8401  0.5767  0.5165
 5862SOL    HW217965   3.684   0.984   1.974  1.1200 -1.7099 -1.0756
 5863SOL     OW17966   2.272   6.440   5.530 -0.6395  0.4150  0.0447
 5863SOL    HW117967   2.244   6.383   5.459  0.0891  0.9943 -0.7231
 5863SOL    HW217968   2.342   6.493   5.492  0.8251 -0.3010  1.6183
 5864SOL     OW17969   4.364   4.053   5.541  0.5214  0.0856  0.1567
 5864SOL    HW117970   4.357   4.001   5.621  1.1000  0.5653  0.5232
 5864SOL    HW217971   4.285   4.030   5.491  1.1660 -1.8061 -0.0925
 5865SOL     OW17972   1.577   1.427   2.623  0.4838  0.1021  0.4043
 5865SOL    HW117973   1.579   1.461   2.534 -1.3624 -1.8809 -0.4790
 5865SOL    HW217974   1.660   1.457   2.662  0.8424  1.9273 -1.5771
 5866SOL     OW17975   3.587   2.761   1.618  0.3344 -0.1889  0.5810
 5866SOL    HW117976   3.595   2.838   1.562 -0.5620 -0.5606 -0.0836
 5866SOL    HW217977   3.558   2.796   1.703 -0.7080  0.1665  0.0979
 5867SOL     OW17978   6.404   5.575   6.100  0.0413  0.3873 -0.0437
 5867SOL    HW117979   6.378   5.524   6.024  0.5392 -0.3655  0.2779
 5867SOL    HW217980   6.356   5.657   6.092 -0.5996 -0.0427 -0.6894
 5868SOL     OW17981   1.161   0.473   6.626  0.3854  0.1602 -0.0873
 5868SOL    HW117982   1.074   0.436   6.613 -0.2913  1.4071  0.6955
 5868SOL    HW217983   1.196   0.485   6.537 -0.5700  0.4015 -0.4374
 5869SOL     OW17984   5.700   1.387   3.282  0.3044  0.5322  0.2640
 5869SOL    HW117985   5.662   1.474   3.296 -0.7229 -0.0010  0.9755
 5869SOL    HW217986   5.638   1.344   3.223  0.2980 -0.0247  0.6667
 5870SOL     OW17987   4.574   4.105   2.926  0.1341  0.2746  0.5272
 5870SOL    HW117988   4.562   4.153   2.844  0.3230 -1.4779 -0.5976
 5870SOL    HW217989   4.669   4.104   2.939  0.1009  0.5920  0.7921
 5871SOL     OW17990   0.183   3.800   1.718 -0.0141  0.0511 -0.3556
 5871SOL    HW117991   0.181   3.892   1.746 -1.6324  0.0112 -0.2635
 5871SOL    HW217992   0.126   3.797   1.642  0.5051 -0.7870 -0.7327
 5872SOL     OW17993   3.953   6.311   4.068  0.2290 -0.4721 -0.3251
 5872SOL    HW117994   3.954   6.218   4.088  0.6219 -0.4431 -0.2066
 5872SOL    HW217995   3.868   6.326   4.027 -0.7170 -0.5009  1.4950
 5873SOL     OW17996   0.605   2.897   6.042 -0.4584  0.0501 -0.6309
 5873SOL    HW117997   0.644   2.941   5.967 -0.5898 -1.5165 -1.6455
 5873SOL    HW217998   0.523   2.944   6.058  0.0403  1.0078 -0.8340
 5874SOL     OW17999   2.535   4.882   5.639  0.1589  0.0361 -0.1492
 5874SOL    HW118000   2.568   4.834   5.562  1.6096 -0.4705  0.7532
 5874SOL    HW218001   2.442   4.898   5.619 -0.5576 -3.5462 -0.3320
 5875SOL     OW18002   6.480   2.089   6.372  0.0244 -0.0973  0.1868
 5875SOL    HW118003   6.537   2.082   6.448  0.1812 -2.1790 -0.0697
 5875SOL    HW218004   6.403   2.136   6.404 -0.1034 -1.3007  1.7748
 5876SOL     OW18005   3.031   4.696   4.104  0.2867 -0.4827 -0.6186
 5876SOL    HW118006   3.107   4.735   4.149 -0.5242 -1.0494  1.3605
 5876SOL    HW218007   3.069   4.641   4.036  1.5995  0.2062 -0.4837
 5877SOL     OW18008   4.952   5.827   5.867 -0.3415 -0.5729 -0.4814
 5877SOL    HW118009   4.906   5.897   5.912 -0.5835 -1.1909  0.2506
 5877SOL    HW218010   5.041   5.830   5.901 -0.7460 -1.6018  0.7316
 5878SOL     OW18011   2.032   1.298   4.300  0.5484  0.3374  0.0548
 5878SOL    HW118012   2.074   1.368   4.250 -0.6366  1.5478  0.6549
 5878SOL    HW218013   2.102   1.236   4.319  1.5780  1.2053 -0.7805
 5879SOL     OW18014   5.275   6.845   3.648 -0.3924  0.3492  0.2323
 5879SOL    HW118015   5.300   6.826   3.738  0.3851  1.7993  0.3525
 5879SOL    HW218016   5.356   6.872   3.606 -0.2393 -2.4212 -1.5732
 5880SOL     OW18017   5.758   4.999   0.570  0.5553 -0.2063 -0.7567
 5880SOL    HW118018   5.773   5.082   0.525 -0.1695  0.2032 -0.2536
 5880SOL    HW218019   5.806   5.008   0.653  0.2238 -0.1665 -0.5686
 5881SOL     OW18020   2.514   1.218   0.337  0.2690  0.2037  0.5941
 5881SOL    HW118021   2.421   1.230   0.316  0.0752  2.3500  2.2773
 5881SOL    HW218022   2.559   1.224   0.252 -1.1114 -1.4370 -0.3183
 5882SOL     OW18023   4.966   4.545   2.450  0.3926  0.6361  0.1386
 5882SOL    HW118024   4.967   4.560   2.545 -1.1595  1.3821  0.0646
 5882SOL    HW218025   4.970   4.633   2.412 -2.5878  0.6400 -0.3953
 5883SOL     OW18026   5.369   6.574   4.526  0.5225 -0.3338 -0.8266
 5883SOL    HW118027   5.343   6.613   4.442 -1.1678  0.6440  0.0914
 5883SOL    HW218028   5.302   6.509   4.544 -0.7790  1.4027  1.0465
 5884SOL     OW18029   6.722   3.871   2.263  0.2498  0.1285 -0.3445
 5884SOL    HW118030   6.745   3.862   2.170  1.1442  2.1844 -0.3804
 5884SOL    HW218031   6.801   3.843   2.310 -0.5675 -1.9629 -0.1107
 5885SOL     OW18032   4.116   5.845   2.422 -0.2652  0.3737 -0.0577
 5885SOL    HW118033   4.064   5.922   2.448  1.1164  1.2205  0.3284
 5885SOL    HW218034   4.201   5.882   2.396  0.8199 -1.0988  1.2027
 5886SOL     OW18035   5.879   6.409   2.470 -0.2043  0.0771 -0.1246
 5886SOL    HW118036   5.855   6.357   2.393  0.3867  0.1374 -0.3500
 5886SOL    HW218037   5.850   6.356   2.545 -0.0986 -0.3233 -0.3654
 5887SOL     OW18038   1.202   2.003   2.786 -0.1297  0.7434 -0.4319
 5887SOL    HW118039   1.139   2.044   2.727 -3.6998 -0.3922  2.2249
 5887SOL    HW218040   1.178   1.911   2.787 -1.3971  0.8970  3.7922
 5888SOL     OW18041   3.219   4.991   4.112  0.5557  0.1730  0.0475
 5888SOL    HW118042   3.260   5.070   4.147 -1.3142  1.5020 -0.6052
 5888SOL    HW218043   3.243   4.922   4.174  2.9710  1.0218  0.1727
 5889SOL     OW18044   2.981   6.740   2.631  0.5879  0.2706 -0.3173
 5889SOL    HW118045   3.072   6.711   2.630  0.3567 -0.4677 -0.3164
 5889SOL    HW218046   2.931   6.663   2.604  0.0361  0.9349 -1.2226
 5890SOL     OW18047   2.377   6.781   6.654 -0.4719  0.0464 -0.1782
 5890SOL    HW118048   2.294   6.735   6.641 -0.1774 -0.8111  0.8567
 5890SOL    HW218049   2.438   6.739   6.595  0.3582 -2.4807  2.2684
 5891SOL     OW18050   0.285   6.067   5.819  0.2649 -0.1862  0.4678
 5891SOL    HW118051   0.276   5.984   5.865  1.2193 -0.5767 -0.0255
 5891SOL    HW218052   0.232   6.058   5.740  0.4864 -0.3821  0.3417
 5892SOL     OW18053   4.820   4.206   2.230  0.3325  0.0622 -0.2371
 5892SOL    HW118054   4.828   4.141   2.300  2.0828  0.0883 -0.3703
 5892SOL    HW218055   4.725   4.222   2.223 -0.0360 -1.5102  0.6565
 5893SOL     OW18056   4.953   3.386   1.657 -0.5955  0.7863 -0.0093
 5893SOL    HW118057   4.973   3.323   1.588  0.2196  1.3207 -0.2798
 5893SOL    HW218058   5.030   3.442   1.661  0.2376 -0.3970  2.6893
 5894SOL     OW18059   3.088   4.976   1.705  0.1578 -0.2662 -0.0095
 5894SOL    HW118060   3.073   4.883   1.693 -1.4458  0.0209 -0.5242
 5894SOL    HW218061   3.054   5.017   1.625  1.3178  0.7171 -0.0244
 5895SOL     OW18062   2.045   4.614   4.540 -0.5678 -0.1370 -0.4800
 5895SOL    HW118063   2.071   4.527   4.510  1.4589  0.4755 -0.6453
 5895SOL    HW218064   2.056   4.610   4.635  2.4507  0.7564 -0.7095
 5896SOL     OW18065   4.709   2.409   4.836  1.1331  0.2363  0.3271
 5896SOL    HW118066   4.768   2.441   4.768  0.7733  0.0336 -0.0792
 5896SOL    HW218067   4.721   2.315   4.836  2.1667  0.3439  1.5023
 5897SOL     OW18068   4.349   3.208   6.443  0.1872  0.0131  0.1144
 5897SOL    HW118069   4.257   3.186   6.429 -0.4825  2.5653 -0.0673
 5897SOL    HW218070   4.346   3.293   6.488  2.4550  0.3810 -0.3364
 5898SOL     OW18071   2.841   0.085   0.373  0.2494 -0.1273  0.7906
 5898SOL    HW118072   2.869   0.175   0.386  0.2347  0.2135 -1.2102
 5898SOL    HW218073   2.756   0.092   0.330  0.9469 -1.0351 -0.8245
 5899SOL     OW18074   1.942   2.989   3.935  0.3604  0.1526  0.2359
 5899SOL    HW118075   1.999   3.014   3.862  0.0631 -1.1524 -0.4777
 5899SOL    HW218076   1.997   2.933   3.990 -0.5849 -2.3824 -1.2537
 5900SOL     OW18077   5.715   3.114   0.084 -0.1374  0.1514  0.2174
 5900SOL    HW118078   5.705   3.019   0.092  1.7854 -0.0251  1.3019
 5900SOL    HW218079   5.639   3.151   0.128 -0.8299 -0.8702 -0.0928
 5901SOL     OW18080   3.055   6.739   4.119  0.6454 -0.3793 -0.2481
 5901SOL    HW118081   2.999   6.754   4.043  0.2500  0.5391  0.2092
 5901SOL    HW218082   3.040   6.648   4.143 -1.3247  0.0704  0.3721
 5902SOL     OW18083   0.711   2.830   4.806 -0.4359 -0.1442  0.5373
 5902SOL    HW118084   0.806   2.832   4.815 -0.2736  0.5757 -0.9486
 5902SOL    HW218085   0.677   2.859   4.891  0.5372 -3.2995  2.1465
 5903SOL     OW18086   1.586   4.083   0.256 -0.4217  0.0770  0.0155
 5903SOL    HW118087   1.549   4.128   0.180  0.5770 -0.5783 -0.8840
 5903SOL    HW218088   1.540   4.122   0.331 -1.1554  1.0085 -0.8801
 5904SOL     OW18089   4.561   1.239   6.457 -0.8877  0.4711  0.2153
 5904SOL    HW118090   4.482   1.285   6.483 -0.5418  0.9104  0.5023
 5904SOL    HW218091   4.627   1.307   6.449 -0.5553  0.1194 -0.1009
 5905SOL     OW18092   2.897   0.905   2.037 -0.4880 -0.3900 -0.2505
 5905SOL    HW118093   2.947   0.938   1.962  1.0073 -0.5401  0.6514
 5905SOL    HW218094   2.942   0.824   2.062  0.9438  1.1810  2.6781
 5906SOL     OW18095   5.309   0.390   3.725 -0.1169  0.4738 -0.3909
 5906SOL    HW118096   5.319   0.398   3.820  2.2275  0.3068 -0.5636
 5906SOL    HW218097   5.398   0.389   3.692 -0.8587 -0.4484 -2.5373
 5907SOL     OW18098   5.096   3.584   2.150 -0.1250  0.2781  0.3456
 5907SOL    HW118099   5.019   3.574   2.094 -1.0514 -1.0403  1.7771
 5907SOL    HW218100   5.151   3.508   2.130  0.4748  0.8106 -0.1097
 5908SOL     OW18101   5.848   5.647   1.285 -0.0936  0.5589  0.3552
 5908SOL    HW118102   5.887   5.626   1.200 -0.1625 -1.5692  0.8078
 5908SOL    HW218103   5.788   5.719   1.266  2.2039  2.3258 -0.7903
 5909SOL     OW18104   2.621   3.328   2.976 -0.4187  0.6772 -0.3608
 5909SOL    HW118105   2.584   3.340   2.889  0.9581  2.2041 -0.7844
 5909SOL    HW218106   2.550   3.353   3.036 -1.2149  0.0767 -1.0464
 5910SOL     OW18107   3.523   4.499   0.210  0.0838  0.3808  0.1218
 5910SOL    HW118108   3.480   4.441   0.147  0.3581 -2.4882  2.3681
 5910SOL    HW218109   3.608   4.518   0.170 -0.1669 -0.4782 -0.8576
 5911SOL     OW18110   4.829   1.037   3.936 -0.2460  0.2875  0.7514
 5911SOL    HW118111   4.751   1.004   3.892 -0.4678  1.7945 -0.0660
 5911SOL    HW218112   4.855   1.114   3.885  2.9513 -1.2360 -0.1963
 5912SOL     OW18113   5.661   5.959   0.650 -0.2576  0.3452 -0.4284
 5912SOL    HW118114   5.731   6.018   0.678 -0.6966  0.5068  0.3491
 5912SOL    HW218115   5.621   6.003   0.575  0.5039  0.2247 -0.9078
 5913SOL     OW18116   0.538   0.699   1.694  0.1309 -0.2531  0.0148
 5913SOL    HW118117   0.461   0.664   1.739  0.0559 -0.9326 -0.6131
 5913SOL    HW218118   0.612   0.663   1.742  0.0604 -1.7117 -0.8987
 5914SOL     OW18119   2.886   2.145   1.181  0.1268 -0.6482 -0.1133
 5914SOL    HW118120   2.816   2.125   1.243  1.4771 -4.5209  0.4450
 5914SOL    HW218121   2.945   2.202   1.230 -0.9557 -0.0630  0.5627
 5915SOL     OW18122   5.586   1.308   2.279  0.2294  0.2875 -0.0586
 5915SOL    HW118123   5.497   1.331   2.250  0.7755 -0.2615 -2.3845
 5915SOL    HW218124   5.590   1.213   2.268  1.6622  0.5097 -1.7871
 5916SOL     OW18125   6.492   0.026   3.375  0.3458  0.2009 -0.3138
 5916SOL    HW118126   6.400   0.010   3.396  0.5681  1.1877  1.5997
 5916SOL    HW218127   6.490   0.099   3.313 -0.1625 -0.3411 -0.9599
 5917SOL     OW18128   1.577   0.521   3.243  0.2745 -0.2832  0.7605
 5917SOL    HW118129   1.504   0.563   3.197 -0.3805 -0.0323  1.9723
 5917SOL    HW218130   1.567   0.428   3.224  0.7947 -0.0752 -0.6487
 5918SOL     OW18131   4.589   4.002   3.692  0.5295  0.0517  0.1275
 5918SOL    HW118132   4.677   4.022   3.723 -0.1158  2.6594  0.4712
 5918SOL    HW218133   4.603   3.952   3.611  2.2362 -2.6542  1.9321
 5919SOL     OW18134   3.042   4.434   3.314  0.4023  0.4789  0.1652
 5919SOL    HW118135   3.006   4.356   3.357  2.1307 -0.2650  0.3591
 5919SOL    HW218136   3.078   4.487   3.385  0.9805  0.4966 -0.1379
 5920SOL     OW18137   1.776   0.412   6.112  0.2800  0.3275  0.3218
 5920SOL    HW118138   1.800   0.494   6.068  1.3887 -0.4119 -0.5118
 5920SOL    HW218139   1.747   0.439   6.199 -0.9322  1.7415 -0.4670
 5921SOL     OW18140   3.653   5.621   1.441  0.1941  0.2313 -0.5267
 5921SOL    HW118141   3.603   5.650   1.364  1.3702  1.4859 -0.8521
 5921SOL    HW218142   3.682   5.532   1.418  0.8968  0.7523 -1.7422
 5922SOL     OW18143   0.029   3.878   0.931 -0.2668 -0.7794  0.0240
 5922SOL    HW118144   0.032   3.973   0.943  0.7178 -1.0879  3.1252
 5922SOL    HW218145   0.087   3.862   0.857 -1.9640  1.1177 -1.8432
 5923SOL     OW18146   4.402   3.283   0.404 -0.0830 -0.7454 -0.1540
 5923SOL    HW118147   4.462   3.234   0.460  2.0244 -0.9073 -2.3854
 5923SOL    HW218148   4.335   3.219   0.378 -0.1209 -1.1055  0.8092
 5924SOL     OW18149   0.861   5.203   4.042 -0.1807 -0.0017 -0.7935
 5924SOL    HW118150   0.925   5.161   3.985  0.1705 -0.3613 -0.1485
 5924SOL    HW218151   0.834   5.282   3.995  1.4227  0.6517 -0.6842
 5925SOL     OW18152   0.474   2.759   5.060 -0.2918 -0.2436  0.3145
 5925SOL    HW118153   0.503   2.768   4.969  1.5400  0.3533  0.9017
 5925SOL    HW218154   0.380   2.773   5.057 -0.2283  0.0492 -1.4578
 5926SOL     OW18155   6.579   2.012   4.352  0.5308 -0.5450  0.4515
 5926SOL    HW118156   6.535   1.929   4.373  0.4536 -0.8378 -0.7890
 5926SOL    HW218157   6.542   2.037   4.267  1.4272  0.1550  0.2601
 5927SOL     OW18158   1.886   4.821   3.560  0.3596  0.2709 -0.4771
 5927SOL    HW118159   1.946   4.807   3.633  0.6577  0.4716 -0.6804
 5927SOL    HW218160   1.934   4.792   3.483 -0.3609 -0.9746 -0.4779
 5928SOL     OW18161   4.210   4.841   1.550  0.2476 -0.3086 -0.3583
 5928SOL    HW118162   4.302   4.833   1.573  0.7501  0.1820 -2.0416
 5928SOL    HW218163   4.208   4.911   1.484 -1.2878 -0.4581 -0.5063
 5929SOL     OW18164   0.389   3.794   2.499 -0.0806 -0.2441  0.2968
 5929SOL    HW118165   0.368   3.822   2.588 -1.5806 -0.7042  0.1173
 5929SOL    HW218166   0.481   3.819   2.487  0.1573 -0.1844  1.9671
 5930SOL     OW18167   0.667   6.191   2.193 -0.1358  0.3873 -0.0524
 5930SOL    HW118168   0.728   6.264   2.204 -0.1281  0.2574  0.8426
 5930SOL    HW218169   0.691   6.129   2.261  0.5465 -0.9695 -1.4678
 5931SOL     OW18170   6.231   2.180   6.316  0.0426  0.7484 -0.0922
 5931SOL    HW118171   6.215   2.142   6.230  0.2752  0.0444  0.1755
 5931SOL    HW218172   6.191   2.119   6.378  0.5226  0.8718  0.3495
 5932SOL     OW18173   4.926   6.487   0.291 -0.5646 -0.2524  0.3260
 5932SOL    HW118174   4.844   6.472   0.243 -1.2471  3.3607  0.1191
 5932SOL    HW218175   4.903   6.468   0.382 -1.2258 -0.6105  0.0957
 5933SOL     OW18176   2.731   2.774   5.291 -0.5178 -0.1310  0.1354
 5933SOL    HW118177   2.754   2.707   5.356 -1.8665  1.5129  2.4409
 5933SOL    HW218178   2.644   2.747   5.259  0.0665 -0.8384 -0.9497
 5934SOL     OW18179   4.410   5.581   3.768  0.2032  0.1628  0.5382
 5934SOL    HW118180   4.367   5.522   3.829  0.2824 -1.1935 -0.6532
 5934SOL    HW218181   4.366   5.564   3.684  0.9948  0.9879 -0.0606
 5935SOL     OW18182   3.044   1.872   0.443  0.7638 -0.3972  0.0958
 5935SOL    HW118183   3.101   1.918   0.381  0.6069  0.8075  0.8033
 5935SOL    HW218184   3.069   1.907   0.529  0.1434 -1.1280  0.5836
 5936SOL     OW18185   4.213   5.364   3.351 -0.1089  0.5761  0.3962
 5936SOL    HW118186   4.198   5.270   3.354  0.1502  0.5609  2.3653
 5936SOL    HW218187   4.150   5.396   3.285 -1.0392 -0.8219  0.5597
 5937SOL     OW18188   5.958   3.432   3.445 -0.2795 -0.3908  0.9170
 5937SOL    HW118189   6.050   3.410   3.428 -0.2302  1.3469 -1.7223
 5937SOL    HW218190   5.923   3.356   3.491  2.4207 -1.1674  1.8982
 5938SOL     OW18191   3.102   0.521   1.229  0.5314 -0.0127 -0.8562
 5938SOL    HW118192   3.193   0.497   1.251  0.8207 -0.4054 -2.3785
 5938SOL    HW218193   3.051   0.444   1.254  0.7792 -0.2384 -1.0280
 5939SOL     OW18194   3.134   2.677   0.487  0.2974  0.2631 -0.4110
 5939SOL    HW118195   3.102   2.606   0.432 -1.6896  0.6829  0.1149
 5939SOL    HW218196   3.141   2.753   0.428 -0.1665  0.2852 -0.4394
 5940SOL     OW18197   5.694   1.882   4.499  0.0717 -0.0850  0.4585
 5940SOL    HW118198   5.753   1.854   4.568  0.8701 -0.7597 -0.4611
 5940SOL    HW218199   5.623   1.928   4.544 -0.0328 -1.4904  1.8207
 5941SOL     OW18200   3.456   6.652   3.249  0.3420 -0.1453 -0.5538
 5941SOL    HW118201   3.452   6.558   3.230  2.2395 -0.1332 -1.2414
 5941SOL    HW218202   3.424   6.693   3.168 -1.1806 -0.1801  0.0070
 5942SOL     OW18203   0.757   3.746   5.305 -0.1410 -0.1511  0.6177
 5942SOL    HW118204   0.831   3.714   5.357  0.7416  0.8884  0.0450
 5942SOL    HW218205   0.795   3.766   5.219 -1.0246  0.7011  0.4078
 5943SOL     OW18206   5.117   6.302   4.320  0.7070  0.1723 -0.0459
 5943SOL    HW118207   5.136   6.329   4.410  0.6763  1.0668 -0.2973
 5943SOL    HW218208   5.035   6.253   4.326  0.8838 -0.0642  0.4577
 5944SOL     OW18209   6.728   2.941   2.745  0.2598  0.9219 -0.2184
 5944SOL    HW118210   6.722   3.031   2.775  1.1940  0.8678  0.1485
 5944SOL    HW218211   6.641   2.905   2.762 -0.1053  1.7328 -0.3210
 5945SOL     OW18212   1.025   0.352   5.819  0.0859 -0.3386 -0.2190
 5945SOL    HW118213   1.048   0.369   5.728 -1.0638  2.4803 -0.0839
 5945SOL    HW218214   0.930   0.336   5.818 -0.0075  0.0905  0.4901
 5946SOL     OW18215   0.536   6.154   1.260 -0.2084 -0.0707 -0.1782
 5946SOL    HW118216   0.575   6.241   1.254 -0.8655  0.2374 -0.1023
 5946SOL    HW218217   0.610   6.095   1.273  0.3467  0.3604 -1.2333
 5947SOL     OW18218   2.895   1.667   3.998 -0.4603 -0.0207  0.3998
 5947SOL    HW118219   2.950   1.679   4.075  0.4913 -1.0018 -0.1129
 5947SOL    HW218220   2.819   1.619   4.030 -1.2501  1.6481  1.1810
 5948SOL     OW18221   4.224   3.664   0.985 -0.6230 -0.0874  0.2859
 5948SOL    HW118222   4.230   3.569   0.992 -1.2316 -0.1271  0.3125
 5948SOL    HW218223   4.311   3.692   0.955 -1.3107 -0.9264 -2.7798
 5949SOL     OW18224   6.638   3.369   0.126 -0.0159  0.1969  0.0167
 5949SOL    HW118225   6.564   3.312   0.107  0.1632  0.4196 -1.5028
 5949SOL    HW218226   6.602   3.457   0.121  0.4578  0.3328 -1.3925
 5950SOL     OW18227   4.560   6.736   4.351 -0.4738 -0.2595  0.0449
 5950SOL    HW118228   4.563   6.810   4.291 -5.6709 -0.5733 -1.1366
 5950SOL    HW218229   4.538   6.775   4.436 -0.4541 -0.2353  0.0387
 5951SOL     OW18230   5.268   2.942   3.776 -0.4809  0.1986 -0.1983
 5951SOL    HW118231   5.288   2.963   3.867  1.2285 -2.2144  0.0730
 5951SOL    HW218232   5.183   2.982   3.760 -0.7756  0.7761  2.4071
 5952SOL     OW18233   5.633   2.066   3.077  0.0827  0.0166 -0.3935
 5952SOL    HW118234   5.670   1.979   3.095 -3.0162 -1.5617 -1.1205
 5952SOL    HW218235   5.568   2.079   3.146 -1.4193  0.5298 -1.8707
 5953SOL     OW18236   2.485   5.383   6.186 -0.0117 -0.2329  0.4004
 5953SOL    HW118237   2.558   5.365   6.246 -0.2749 -0.6131  0.6074
 5953SOL    HW218238   2.507   5.468   6.147  0.3107 -0.1254  0.8081
 5954SOL     OW18239   0.959   0.295   5.559 -0.5305 -0.3617  0.1752
 5954SOL    HW118240   0.864   0.291   5.572 -0.6780 -0.8796 -0.9586
 5954SOL    HW218241   0.985   0.204   5.549 -0.1256 -0.1372 -0.9055
 5955SOL     OW18242   5.247   1.594   5.606 -0.1446  0.3974 -0.1378
 5955SOL    HW118243   5.326   1.549   5.636 -0.2970 -0.0216 -0.3400
 5955SOL    HW218244   5.231   1.662   5.671 -1.1586 -1.2505  1.4397
 5956SOL     OW18245   3.115   0.840   6.351  0.0741  0.1444 -0.5374
 5956SOL    HW118246   3.173   0.910   6.383  0.7292 -0.6177 -0.0146
 5956SOL    HW218247   3.120   0.846   6.256  1.0102  0.0959 -0.4961
 5957SOL     OW18248   3.518   5.367   6.709 -0.5167  0.0017  0.2028
 5957SOL    HW118249   3.557   5.279   6.704  1.3435  0.8168 -0.4791
 5957SOL    HW218250   3.449   5.358   6.774 -1.0762 -2.2158 -0.5975
 5958SOL     OW18251   1.335   6.433   4.238 -0.6200  0.0080 -0.0413
 5958SOL    HW118252   1.354   6.341   4.253 -0.9206  0.2829  2.4675
 5958SOL    HW218253   1.403   6.462   4.178 -0.0958 -1.6786 -0.3099
 5959SOL     OW18254   3.978   6.288   0.161 -0.0545 -0.0865  0.8410
 5959SOL    HW118255   3.938   6.206   0.132 -1.3308  1.0019 -0.6612
 5959SOL    HW218256   4.063   6.290   0.115  0.4243 -0.9878  1.6477
 5960SOL     OW18257   3.549   3.645   5.589  0.3192  0.1963 -0.3236
 5960SOL    HW118258   3.471   3.672   5.638 -0.5643 -0.0571 -1.5413
 5960SOL    HW218259   3.516   3.619   5.503  1.5464 -1.4857 -0.3487
 5961SOL     OW18260   1.230   2.799   5.833 -0.0380  0.1247  0.2007
 5961SOL    HW118261   1.233   2.704   5.821 -0.8135  0.3198 -1.9093
 5961SOL    HW218262   1.192   2.833   5.752 -0.8343  2.1725  1.3463
 5962SOL     OW18263   3.759   5.658   4.579 -0.1222  0.1549 -0.5243
 5962SOL    HW118264   3.669   5.627   4.577 -0.0758  0.0629 -1.4492
 5962SOL    HW218265   3.754   5.745   4.619 -1.1288  1.6820 -3.5964
 5963SOL     OW18266   2.666   3.899   5.599  0.1336 -0.7901  0.2320
 5963SOL    HW118267   2.587   3.851   5.621  0.7466 -1.7521  0.3844
 5963SOL    HW218268   2.718   3.898   5.680  0.3828 -0.3189  0.0845
 5964SOL     OW18269   1.341   6.259   5.671 -0.3484 -0.2327 -0.2043
 5964SOL    HW118270   1.282   6.260   5.746 -0.3331 -0.8743 -0.1828
 5964SOL    HW218271   1.394   6.339   5.681 -0.3731 -0.2944  0.4420
 5965SOL     OW18272   1.715   4.589   5.486 -0.0962  0.2332 -0.1811
 5965SOL    HW118273   1.761   4.618   5.565  1.3015 -1.0415 -0.4741
 5965SOL    HW218274   1.642   4.537   5.518  0.7139 -0.6346  0.2818
 5966SOL     OW18275   3.930   2.428   1.051 -0.2272  1.0354 -0.0673
 5966SOL    HW118276   3.962   2.339   1.064 -1.4667  0.4085 -1.0432
 5966SOL    HW218277   3.849   2.417   1.000 -1.0583  2.6401  0.8338
 5967SOL     OW18278   4.492   1.769   0.281  0.3639  0.1468 -0.1972
 5967SOL    HW118279   4.494   1.695   0.342 -0.1068  1.7566  1.8683
 5967SOL    HW218280   4.562   1.750   0.219  0.3848 -1.9288  0.3774
 5968SOL     OW18281   4.718   2.697   0.789 -0.2111 -0.2471  0.3488
 5968SOL    HW118282   4.663   2.637   0.738  0.8637  0.0593 -1.2166
 5968SOL    HW218283   4.794   2.645   0.813  1.4817  0.8025 -2.3457
 5969SOL     OW18284   0.944   2.127   4.913 -0.5292  0.0310  0.1195
 5969SOL    HW118285   0.872   2.076   4.949  0.1478 -0.0474  1.4317
 5969SOL    HW218286   0.941   2.210   4.959 -1.3157  1.0341 -1.6458
 5970SOL     OW18287   6.788   2.394   6.472 -0.0811  0.1224 -0.5933
 5970SOL    HW118288   6.837   2.442   6.406  0.8775 -0.6460 -0.4603
 5970SOL    HW218289   6.711   2.448   6.489  0.2858  0.9295 -1.4292
 5971SOL     OW18290   1.333   2.231   6.586  0.2847 -0.2156 -0.3980
 5971SOL    HW118291   1.289   2.251   6.668 -0.7774  0.4133 -1.1105
 5971SOL    HW218292   1.263   2.213   6.524  1.0773 -2.9651 -0.6389
 5972SOL     OW18293   5.347   2.443   2.219 -0.0352  0.5605  0.2648
 5972SOL    HW118294   5.330   2.519   2.164 -0.4415 -0.6944 -1.4078
 5972SOL    HW218295   5.428   2.405   2.185  1.0906  1.1247  2.1416
 5973SOL     OW18296   5.920   2.263   4.800 -0.7066 -0.3564  0.4962
 5973SOL    HW118297   5.845   2.246   4.857 -0.4815 -1.5703  0.4679
 5973SOL    HW218298   5.991   2.210   4.837 -0.1574 -0.0544 -0.0927
 5974SOL     OW18299   4.810   4.744   4.632 -0.2649 -0.2734 -0.1897
 5974SOL    HW118300   4.802   4.742   4.537  0.0998  1.5344 -0.3019
 5974SOL    HW218301   4.739   4.687   4.664  0.5408 -2.1060 -1.5342
 5975SOL     OW18302   5.826   6.580   0.423 -0.0946 -0.4071 -0.0896
 5975SOL    HW118303   5.906   6.613   0.464  0.0871  0.5274 -1.1233
 5975SOL    HW218304   5.764   6.653   0.431 -1.5800 -1.7874  2.4816
 5976SOL     OW18305   0.171   6.242   2.753  0.4582  0.3567  0.6350
 5976SOL    HW118306   0.202   6.225   2.842 -0.8378 -1.1218  0.8581
 5976SOL    HW218307   0.139   6.157   2.723  0.1993  0.9924 -0.9872
 5977SOL     OW18308   6.650   5.646   3.568  0.4276  0.1573  0.0881
 5977SOL    HW118309   6.619   5.658   3.479 -0.3883 -0.4803  0.2728
 5977SOL    HW218310   6.743   5.624   3.558  0.4966  0.7258 -0.5560
 5978SOL     OW18311   6.035   5.826   1.894  0.2283  0.0475 -0.2986
 5978SOL    HW118312   6.129   5.817   1.903  0.0667 -0.0098  1.7211
 5978SOL    HW218313   6.015   5.791   1.806  2.1262  0.6917 -1.0235
 5979SOL     OW18314   1.519   4.816   6.090 -0.5875  0.2337  0.7764
 5979SOL    HW118315   1.525   4.783   6.180 -1.9682  0.1274  0.8496
 5979SOL    HW218316   1.434   4.859   6.086 -0.4248  0.4696 -0.4113
 5980SOL     OW18317   0.329   0.777   1.302  0.4593 -0.1756  0.2863
 5980SOL    HW118318   0.424   0.785   1.298  0.3577  0.8573 -1.7612
 5980SOL    HW218319   0.297   0.867   1.301 -0.5461 -0.5076  0.7802
 5981SOL     OW18320   0.860   6.524   5.157 -0.3217 -0.6655  0.6620
 5981SOL    HW118321   0.838   6.617   5.161  0.2240 -0.5438  1.0891
 5981SOL    HW218322   0.864   6.497   5.249  0.1321 -0.9556  0.5626
 5982SOL     OW18323   6.616   1.084   4.424  0.4736 -0.0083  0.6503
 5982SOL    HW118324   6.551   1.140   4.466  0.1697  0.3954 -0.3271
 5982SOL    HW218325   6.669   1.144   4.372  0.9242 -0.4837  0.5524
 5983SOL     OW18326   1.791   4.078   2.811  0.2216  0.1899  0.0894
 5983SOL    HW118327   1.710   4.083   2.862  0.3054 -0.7050  0.3250
 5983SOL    HW218328   1.857   4.054   2.875  0.4241 -0.4388 -0.3506
 5984SOL     OW18329   6.390   1.569   1.881  0.1091 -0.5293  0.5085
 5984SOL    HW118330   6.326   1.568   1.810  1.2047 -1.0851 -0.5246
 5984SOL    HW218331   6.374   1.650   1.928 -0.0809  0.2948 -0.9267
 5985SOL     OW18332   6.335   1.811   3.782  0.4031  0.4387 -0.0355
 5985SOL    HW118333   6.355   1.722   3.753  0.4091  0.4670 -0.1195
 5985SOL    HW218334   6.406   1.865   3.747  0.7851  0.3720  0.6147
 5986SOL     OW18335   5.192   2.993   2.303 -0.2694 -0.1274  0.0664
 5986SOL    HW118336   5.106   2.953   2.316 -0.6581  0.7569  0.2312
 5986SOL    HW218337   5.204   3.052   2.377 -0.2954  1.0941 -0.8664
 5987SOL     OW18338   0.038   6.515   2.660  0.3550 -0.1661 -0.2700
 5987SOL    HW118339   0.077   6.442   2.709  1.4085 -0.1331 -1.0189
 5987SOL    HW218340  -0.055   6.494   2.654  0.5409 -1.1229  0.0753
 5988SOL     OW18341   1.683   3.946   4.025 -0.4540 -0.0618  0.1037
 5988SOL    HW118342   1.611   4.003   3.996  1.5783  2.5428 -0.2320
 5988SOL    HW218343   1.691   3.965   4.119  1.7680  2.3081 -0.4264
 5989SOL     OW18344   1.336   2.545   0.205  0.0333 -0.4673  0.3990
 5989SOL    HW118345   1.301   2.630   0.232  1.6989  0.2285  0.4944
 5989SOL    HW218346   1.282   2.519   0.131 -0.2575  0.8663  0.1159
 5990SOL     OW18347   5.118   4.873   2.109  0.4221 -0.0221 -0.2827
 5990SOL    HW118348   5.118   4.965   2.083 -0.1555  0.3746  1.0239
 5990SOL    HW218349   5.058   4.831   2.049 -0.3992  0.7377 -0.0196
 5991SOL     OW18350   3.944   1.427   5.535 -0.3534 -0.2323 -0.4333
 5991SOL    HW118351   4.020   1.431   5.593 -0.7956  0.2377  0.1279
 5991SOL    HW218352   3.914   1.336   5.541  0.5293 -0.5775 -1.1442
 5992SOL     OW18353   2.091   5.275   1.207  0.0999  0.1840 -0.4013
 5992SOL    HW118354   2.092   5.274   1.111  0.6217 -0.7835 -0.4085
 5992SOL    HW218355   2.151   5.204   1.232  0.1437  0.5623  0.6444
 5993SOL     OW18356   2.651   3.679   6.691  0.6173  0.1382  0.3602
 5993SOL    HW118357   2.689   3.766   6.683  1.2871 -0.0500  1.2653
 5993SOL    HW218358   2.559   3.694   6.712  0.3182  0.6027 -1.1645
 5994SOL     OW18359   4.195   0.070   0.836 -0.3061 -0.3013  0.4972
 5994SOL    HW118360   4.254   0.036   0.903 -0.9620 -1.7363  0.3768
 5994SOL    HW218361   4.108   0.065   0.875 -0.3802  2.0497  0.7696
 5995SOL     OW18362   0.683   3.093   5.788  0.3456  0.2302  0.3200
 5995SOL    HW118363   0.714   3.010   5.751 -0.9967 -0.3527  0.4199
 5995SOL    HW218364   0.724   3.161   5.735 -0.1097 -0.5489 -1.0758
 5996SOL     OW18365   2.604   4.428   6.105  0.0879  0.3441  0.4359
 5996SOL    HW118366   2.620   4.465   6.018 -1.5976  2.5641  0.9718
 5996SOL    HW218367   2.630   4.497   6.166  2.5750 -1.6849  1.8478
 5997SOL     OW18368   1.628   5.352   2.198  0.2177  0.3671  0.1957
 5997SOL    HW118369   1.671   5.272   2.169  0.1537  0.9314 -1.5918
 5997SOL    HW218370   1.694   5.399   2.249  0.3856 -0.6013  0.8893
 5998SOL     OW18371   0.580   1.228   4.383 -0.0389  0.1981  0.8872
 5998SOL    HW118372   0.636   1.303   4.402  0.1587  0.2512  0.1167
 5998SOL    HW218373   0.511   1.232   4.450  0.2521  0.7708  1.1604
 5999SOL     OW18374   5.810   6.250   2.698 -0.6281  0.1178  0.0995
 5999SOL    HW118375   5.724   6.233   2.737  0.6735 -3.0083  1.9941
 5999SOL    HW218376   5.852   6.312   2.759 -1.4916  1.7785 -0.9140
 6000SOL     OW18377   6.516   6.392   5.777  0.4037 -0.8274  0.6854
 6000SOL    HW118378   6.596   6.361   5.819  1.1147 -0.8939 -0.6525
 6000SOL    HW218379   6.514   6.346   5.693 -0.3018  0.2332  0.0989
 6001SOL     OW18380   1.963   1.724   0.602  0.0557 -0.3182  0.0401
 6001SOL    HW118381   1.986   1.813   0.631  0.7917 -0.4805 -0.0095
 6001SOL    HW218382   1.890   1.737   0.541  0.7026  0.3569 -0.6295
 6002SOL     OW18383   1.333   3.384   2.032 -0.2884  0.3263  0.3453
 6002SOL    HW118384   1.336   3.477   2.010  0.3745  0.6514  1.7006
 6002SOL    HW218385   1.296   3.382   2.121  0.8281 -0.6132  0.8073
 6003SOL     OW18386   0.604   6.123   1.861  0.3846  0.4144  0.2314
 6003SOL    HW118387   0.533   6.063   1.839  1.1156 -0.6775  0.7221
 6003SOL    HW218388   0.615   6.114   1.955  0.9391  0.8410  0.2145
 6004SOL     OW18389   1.537   3.860   2.771  0.1805 -0.0378 -0.2717
 6004SOL    HW118390   1.498   3.904   2.695  1.4988 -0.0096 -0.9679
 6004SOL    HW218391   1.631   3.864   2.755  0.4191 -1.4534  0.5752
 6005SOL     OW18392   2.416   4.374   0.683  0.0022 -0.0319 -0.0125
 6005SOL    HW118393   2.471   4.300   0.709 -0.2660  0.0535  0.8150
 6005SOL    HW218394   2.472   4.451   0.695  0.3804 -0.1084 -1.1558
 6006SOL     OW18395   0.367   3.814   3.797  0.0154  0.2067 -0.0790
 6006SOL    HW118396   0.436   3.863   3.752  0.6218 -0.1424  0.4677
 6006SOL    HW218397   0.337   3.751   3.733  1.4359 -0.8382  0.2390
 6007SOL     OW18398   2.241   0.332   0.138  0.6100  0.1719  0.0486
 6007SOL    HW118399   2.198   0.395   0.080  0.6075 -2.9088 -3.7141
 6007SOL    HW218400   2.323   0.374   0.164  0.4741  1.8691 -2.0165
 6008SOL     OW18401   6.799   1.880   4.586 -0.1972 -0.1625 -0.5732
 6008SOL    HW118402   6.866   1.881   4.517  0.8805  0.0020  0.4542
 6008SOL    HW218403   6.780   1.972   4.602  2.4209  0.0481  2.0157
 6009SOL     OW18404   2.297   2.430   4.657  0.0952 -0.2977 -0.0900
 6009SOL    HW118405   2.256   2.439   4.743 -0.3794 -1.8300 -0.1095
 6009SOL    HW218406   2.382   2.390   4.675 -0.9645 -2.9561 -0.4040
 6010SOL     OW18407   3.881   6.545   5.788 -0.2109 -0.0200  0.6040
 6010SOL    HW118408   3.885   6.547   5.692  0.8809 -0.9070  0.6192
 6010SOL    HW218409   3.962   6.587   5.816 -1.2194  1.6354  1.1809
 6011SOL     OW18410   2.232   0.219   5.374 -0.3435 -0.2012  0.7432
 6011SOL    HW118411   2.313   0.225   5.325 -0.7754  1.6051  0.1695
 6011SOL    HW218412   2.259   0.195   5.463  0.6058 -1.6776  0.0866
 6012SOL     OW18413   5.237   4.180   3.462 -0.0867  0.5638  0.2119
 6012SOL    HW118414   5.303   4.207   3.527  0.5684 -1.1619  0.3069
 6012SOL    HW218415   5.204   4.263   3.427  2.8860  1.5663 -0.5994
 6013SOL     OW18416   2.301   6.614   4.202 -0.3673 -0.3274  0.2308
 6013SOL    HW118417   2.217   6.570   4.214 -0.7595  0.4058  0.1736
 6013SOL    HW218418   2.308   6.626   4.107 -0.4124  0.0408  0.2763
 6014SOL     OW18419   0.141   3.641   5.027 -0.4802  0.2709 -0.2518
 6014SOL    HW118420   0.093   3.684   4.956  0.1840 -0.2595 -1.0357
 6014SOL    HW218421   0.225   3.618   4.989  0.0534  0.3493  0.8372
 6015SOL     OW18422   4.640   3.025   0.247 -0.0041  0.0128 -0.0722
 6015SOL    HW118423   4.553   3.005   0.211  1.1541 -1.9350 -2.0320
 6015SOL    HW218424   4.671   2.941   0.282  0.4413  1.0627  2.2805
 6016SOL     OW18425   1.475   5.461   5.142  0.1346 -0.4131  0.0614
 6016SOL    HW118426   1.413   5.533   5.124 -0.3431 -0.5382  1.1338
 6016SOL    HW218427   1.555   5.505   5.170 -0.6189 -0.2805  2.1581
 6017SOL     OW18428   1.486   1.434   1.102  0.1597 -0.0754  0.1642
 6017SOL    HW118429   1.449   1.478   1.026 -1.1768 -0.8113  0.3631
 6017SOL    HW218430   1.518   1.505   1.157  0.1007  0.5227 -0.5597
 6018SOL     OW18431   4.588   0.234   3.823  0.2663  0.6654  0.3098
 6018SOL    HW118432   4.520   0.282   3.871 -1.1128  1.0701 -1.8799
 6018SOL    HW218433   4.670   0.262   3.863 -0.6825  2.4818  1.1251
 6019SOL     OW18434   0.762   1.748   1.118 -0.6136 -0.0071  0.0070
 6019SOL    HW118435   0.836   1.690   1.132  0.6262  1.7609  1.2217
 6019SOL    HW218436   0.727   1.764   1.206 -2.5041 -0.8125 -0.5305
 6020SOL     OW18437   3.829   3.671   0.137  0.5184 -0.4564  0.0725
 6020SOL    HW118438   3.793   3.583   0.141  1.0894 -0.7012 -0.2555
 6020SOL    HW218439   3.887   3.671   0.061 -1.0696  0.7984 -1.2240
 6021SOL     OW18440   1.748   2.822   0.973  0.0373  0.4151 -0.0101
 6021SOL    HW118441   1.680   2.861   1.028  0.6737 -0.4402  1.4307
 6021SOL    HW218442   1.829   2.867   1.000  0.5463 -0.8485  0.6536
 6022SOL     OW18443   3.999   4.505   3.006  0.5851 -0.4215 -0.6064
 6022SOL    HW118444   3.954   4.585   2.979  2.7315  1.2607  0.5641
 6022SOL    HW218445   3.929   4.447   3.036 -1.0770  0.7505 -2.0183
 6023SOL     OW18446   1.616   5.204   2.511  0.6231  0.4511  0.2003
 6023SOL    HW118447   1.686   5.269   2.518  0.9631  0.2345 -0.9825
 6023SOL    HW218448   1.563   5.234   2.437 -0.2206  0.3055  0.7354
 6024SOL     OW18449   0.059   0.150   2.089  0.4816  0.0110 -0.8791
 6024SOL    HW118450   0.073   0.190   2.176 -0.7425  0.0638 -0.6908
 6024SOL    HW218451   0.131   0.088   2.080  1.7287  1.3638 -0.6416
 6025SOL     OW18452   5.245   2.077   1.968 -0.2212  0.3321  0.1515
 6025SOL    HW118453   5.316   2.073   2.032  1.1802  0.5284 -1.3016
 6025SOL    HW218454   5.194   2.154   1.992 -0.1930 -0.0320  1.4565
 6026SOL     OW18455   0.464   5.120   3.946 -0.1992 -0.1408 -0.5348
 6026SOL    HW118456   0.397   5.159   3.890 -0.3410 -0.0430 -0.2972
 6026SOL    HW218457   0.479   5.185   4.015  0.7177  0.2005 -1.0304
 6027SOL     OW18458   5.536   2.923   5.597 -0.6747  0.2238 -0.4046
 6027SOL    HW118459   5.535   2.827   5.604  0.5251  0.1907 -0.3913
 6027SOL    HW218460   5.520   2.953   5.687  0.6189 -0.0108 -0.0683
 6028SOL     OW18461   2.243   1.276   2.170 -0.3905  0.4455  0.0786
 6028SOL    HW118462   2.327   1.238   2.142 -0.3068  0.0357  0.8649
 6028SOL    HW218463   2.194   1.287   2.088  0.5666  1.0531 -0.4351
 6029SOL     OW18464   6.426   1.019   6.424 -0.0944  0.1466 -0.0145
 6029SOL    HW118465   6.519   1.012   6.443 -0.2776  0.4527  1.0812
 6029SOL    HW218466   6.383   0.989   6.504 -0.9364  0.4321 -0.3438
 6030SOL     OW18467   6.104   2.082   4.918  0.1717  0.3430  0.6897
 6030SOL    HW118468   6.197   2.102   4.931  0.5508  0.8157 -2.1675
 6030SOL    HW218469   6.077   2.040   5.000  2.7771  0.5637  1.7590
 6031SOL     OW18470   1.548   1.948   4.959 -0.0333  0.8155  0.1278
 6031SOL    HW118471   1.527   2.042   4.958 -1.3779  0.5261  0.1248
 6031SOL    HW218472   1.463   1.904   4.962  0.5632 -0.4206 -0.3698
 6032SOL     OW18473   3.563   0.256   4.952 -0.1834 -0.6589 -0.0699
 6032SOL    HW118474   3.639   0.236   5.006  0.2661  0.5581 -0.2118
 6032SOL    HW218475   3.565   0.352   4.941 -2.4840 -0.4167  1.0137
 6033SOL     OW18476   5.587   2.376   0.914  0.7320 -0.1377 -0.1489
 6033SOL    HW118477   5.551   2.356   0.828  0.8295 -0.2042 -0.1741
 6033SOL    HW218478   5.681   2.359   0.906  0.7429 -0.1351 -0.0324
 6034SOL     OW18479   5.236   5.680   3.875  0.0020  0.6751 -0.2774
 6034SOL    HW118480   5.313   5.629   3.901  0.2618  1.9121  1.4997
 6034SOL    HW218481   5.204   5.636   3.796  0.3564 -2.0690  1.0122
 6035SOL     OW18482   2.558   6.670   0.405 -0.1054 -0.3591 -0.7868
 6035SOL    HW118483   2.585   6.720   0.328 -1.9792 -0.2541 -1.4210
 6035SOL    HW218484   2.523   6.588   0.370 -0.2329 -0.6616  0.0176
 6036SOL     OW18485   0.127   1.996   3.547  0.2963  0.3046  0.3877
 6036SOL    HW118486   0.207   1.992   3.493  0.5113 -1.1161  0.7614
 6036SOL    HW218487   0.057   2.014   3.484  0.8928  1.6195  0.0570
 6037SOL     OW18488   0.079   0.037   6.056  0.5856  0.2064 -0.3140
 6037SOL    HW118489   0.131  -0.042   6.069 -1.9690 -1.4661  0.4422
 6037SOL    HW218490   0.043   0.028   5.967 -1.0483 -0.4112  0.3621
 6038SOL     OW18491   3.929   5.721   3.201  0.1512  0.8390  0.0187
 6038SOL    HW118492   3.895   5.760   3.281 -0.9195 -1.1702  0.6047
 6038SOL    HW218493   3.856   5.669   3.167  1.8115 -1.6455 -0.0201
 6039SOL     OW18494   0.071   4.342   6.494 -0.6314  0.0396  0.1480
 6039SOL    HW118495   0.092   4.249   6.504 -0.4791  0.2493  2.0599
 6039SOL    HW218496   0.019   4.346   6.414 -0.5968 -1.6761 -0.0010
 6040SOL     OW18497   1.868   2.019   3.512  0.0123  0.2988 -0.3725
 6040SOL    HW118498   1.883   2.109   3.543  0.4720 -0.3394  1.3865
 6040SOL    HW218499   1.779   1.999   3.539  0.1317  0.0160 -0.1817
 6041SOL     OW18500   4.148   1.562   1.678 -0.4145 -0.2417  0.5734
 6041SOL    HW118501   4.126   1.577   1.770 -2.7343  0.6872 -0.0480
 6041SOL    HW218502   4.125   1.470   1.662  1.9151 -1.0122  1.3601
 6042SOL     OW18503   2.283   4.294   2.894 -0.1449 -0.4538 -0.0220
 6042SOL    HW118504   2.248   4.372   2.851  1.1135  0.2957  0.2593
 6042SOL    HW218505   2.305   4.234   2.823  2.4510  0.9908 -0.5534
 6043SOL     OW18506   3.725   0.853   5.408 -0.1794  0.2917  0.6014
 6043SOL    HW118507   3.755   0.819   5.324 -1.1987  0.3413  0.1967
 6043SOL    HW218508   3.784   0.925   5.428  0.0587  0.2900 -0.0847
 6044SOL     OW18509   4.353   3.912   1.331 -0.0516  0.0507  0.2412
 6044SOL    HW118510   4.327   3.947   1.417 -1.2826  0.8490 -0.4205
 6044SOL    HW218511   4.441   3.878   1.345 -0.4456 -0.3807  1.9723
 6045SOL     OW18512   5.061   0.703   6.463 -0.1702  0.6269 -0.8041
 6045SOL    HW118513   5.116   0.657   6.527  0.7247  2.7853  0.0569
 6045SOL    HW218514   5.120   0.718   6.389 -0.5175  0.2590 -1.1621
 6046SOL     OW18515   6.169   0.754   0.598 -0.3483  0.1631 -0.5617
 6046SOL    HW118516   6.202   0.820   0.536 -1.6522  1.0177 -0.3887
 6046SOL    HW218517   6.155   0.802   0.679 -3.1887  0.1916 -0.9787
 6047SOL     OW18518   0.276   1.768   4.157 -0.5277  0.3217  0.9358
 6047SOL    HW118519   0.251   1.860   4.167 -0.2554  0.5630 -0.4279
 6047SOL    HW218520   0.355   1.771   4.103 -1.2745 -0.7728 -0.2717
 6048SOL     OW18521   3.382   5.461   6.491  0.0644  0.2066  0.4319
 6048SOL    HW118522   3.439   5.448   6.567  0.7518  0.6240 -0.0153
 6048SOL    HW218523   3.412   5.397   6.427 -0.8815 -0.5344  0.7008
 6049SOL     OW18524   0.186   4.079   4.950  0.0056  0.5810 -0.1184
 6049SOL    HW118525   0.137   4.070   4.868 -0.3422 -1.3782  0.2466
 6049SOL    HW218526   0.132   4.135   5.005 -0.3535  0.9003 -0.7822
 6050SOL     OW18527   5.641   0.868   1.734  0.5459  0.4990  0.3247
 6050SOL    HW118528   5.703   0.797   1.748  1.3012  0.7899 -1.3349
 6050SOL    HW218529   5.580   0.834   1.668  0.5082  1.1446  0.0185
 6051SOL     OW18530   0.843   5.572   5.652  0.8698  0.1791 -0.4828
 6051SOL    HW118531   0.907   5.520   5.700  0.1362  0.2971  0.6456
 6051SOL    HW218532   0.885   5.590   5.568  1.2191 -2.0611 -0.8454
 6052SOL     OW18533   5.461   4.034   2.176  0.1142 -0.9162 -0.0574
 6052SOL    HW118534   5.431   4.029   2.267 -1.5146  1.6216 -0.3436
 6052SOL    HW218535   5.556   4.029   2.182  0.2936  2.0589  2.1870
 6053SOL     OW18536   6.146   3.198   3.836  0.2036  0.2168  0.0523
 6053SOL    HW118537   6.169   3.282   3.796  1.5928 -1.8080 -3.9908
 6053SOL    HW218538   6.079   3.162   3.778 -1.9027 -0.7625  2.8444
 6054SOL     OW18539   6.582   3.736   6.487 -0.2792  0.0237  0.2400
 6054SOL    HW118540   6.665   3.744   6.534 -0.1696  0.9099 -0.0928
 6054SOL    HW218541   6.586   3.803   6.419 -1.2664  0.0719  0.2147
 6055SOL     OW18542   1.773   2.430   3.195  0.0264  0.0507 -0.4403
 6055SOL    HW118543   1.804   2.457   3.282  1.9760  1.8902 -1.6159
 6055SOL    HW218544   1.842   2.372   3.162 -1.2294 -1.5304 -0.3727
 6056SOL     OW18545   1.723   5.598   5.140 -0.3292 -0.3787  0.6801
 6056SOL    HW118546   1.682   5.647   5.069 -1.8139 -3.3485 -0.6825
 6056SOL    HW218547   1.806   5.642   5.154 -1.2344  2.0347 -0.9095
 6057SOL     OW18548   4.261   3.695   1.880  0.1671  0.1470  0.3120
 6057SOL    HW118549   4.196   3.762   1.902 -1.1662 -1.1232  0.4245
 6057SOL    HW218550   4.256   3.688   1.785  1.8741  1.6876  0.0652
 6058SOL     OW18551   6.129   4.653   0.660  0.5175 -0.6212 -0.2574
 6058SOL    HW118552   6.144   4.746   0.647 -0.2754 -0.4159  0.2667
 6058SOL    HW218553   6.211   4.622   0.700  0.8334 -0.1894 -0.5534
 6059SOL     OW18554   2.212   1.926   6.355  0.1744  0.1361  0.1685
 6059SOL    HW118555   2.195   2.019   6.371  1.6583  0.5447 -0.4756
 6059SOL    HW218556   2.303   1.913   6.380  0.8825 -0.4774 -2.4574
 6060SOL     OW18557   1.837   1.313   0.977 -0.3151 -0.4952  0.2426
 6060SOL    HW118558   1.926   1.321   1.012  0.4752  0.8058 -1.9067
 6060SOL    HW218559   1.795   1.397   0.997 -0.8110 -0.8080  0.5486
 6061SOL     OW18560   0.357   1.640   5.904 -0.5572  0.2248  0.3719
 6061SOL    HW118561   0.294   1.707   5.878  0.6276  1.4523  0.5814
 6061SOL    HW218562   0.333   1.618   5.994 -2.8809 -1.9562 -0.6698
 6062SOL     OW18563   0.743   3.130   0.739  0.2886 -0.7239  0.0168
 6062SOL    HW118564   0.741   3.070   0.665  1.0225 -0.8746  0.1119
 6062SOL    HW218565   0.804   3.199   0.713  2.3985 -1.9674  1.3458
 6063SOL     OW18566   4.889   3.970   5.268  0.9459 -0.2341  0.5251
 6063SOL    HW118567   4.833   3.962   5.190  0.4840  1.1726  0.6776
 6063SOL    HW218568   4.854   3.904   5.329 -1.6066  1.5399  1.1810
 6064SOL     OW18569   6.042   5.770   3.818 -0.0829  0.1686  0.5303
 6064SOL    HW118570   6.038   5.789   3.911 -0.2916  1.3741  0.2800
 6064SOL    HW218571   6.132   5.792   3.793 -0.4052  1.0907  0.1820
 6065SOL     OW18572   0.675   0.983   4.137  0.5593  0.0744  0.3831
 6065SOL    HW118573   0.741   0.974   4.205 -0.0944  0.2645  1.0559
 6065SOL    HW218574   0.647   1.075   4.143  0.9174  0.2583 -0.5447
 6066SOL     OW18575   4.609   4.718   1.430  0.0013 -0.4611 -0.2239
 6066SOL    HW118576   4.676   4.651   1.441  0.1831 -0.9436 -3.3808
 6066SOL    HW218577   4.656   4.792   1.391 -1.0019 -0.2948 -1.1769
 6067SOL     OW18578   6.057   1.150   3.823 -0.0439 -0.6003 -0.0129
 6067SOL    HW118579   6.129   1.209   3.845  0.5502 -0.2748 -2.5662
 6067SOL    HW218580   5.987   1.207   3.792 -1.0416 -0.9978  1.4105
 6068SOL     OW18581   1.030   1.092   1.476 -0.1920  0.6203 -0.3514
 6068SOL    HW118582   0.980   1.172   1.494 -2.0908 -0.7764  1.0893
 6068SOL    HW218583   1.046   1.054   1.563  1.2277 -0.2470 -0.9590
 6069SOL     OW18584   4.580   5.901   4.948 -0.4382  0.5243 -0.0841
 6069SOL    HW118585   4.669   5.912   4.914 -0.0588  0.7072  0.9219
 6069SOL    HW218586   4.565   5.806   4.947 -0.4185  0.5263 -0.7024
 6070SOL     OW18587   2.102   0.953   1.258  0.0951  0.1957  0.8114
 6070SOL    HW118588   2.010   0.949   1.231  0.4885 -0.4121 -0.5191
 6070SOL    HW218589   2.151   0.927   1.180  1.2945 -1.9269  2.1652
 6071SOL     OW18590   1.424   2.770   5.292 -0.4501  0.3043  0.0962
 6071SOL    HW118591   1.376   2.736   5.368 -0.6932 -1.2330 -0.7162
 6071SOL    HW218592   1.503   2.718   5.287  0.1262  1.1657 -0.0505
 6072SOL     OW18593   3.144   6.488   2.254 -0.1788  0.0423  0.1765
 6072SOL    HW118594   3.233   6.458   2.275  0.0989  0.1367 -0.8079
 6072SOL    HW218595   3.134   6.570   2.302  0.8591  0.8516 -0.9208
 6073SOL     OW18596   6.477   5.117   4.984 -0.5283  0.2521  0.3164
 6073SOL    HW118597   6.465   5.160   5.069 -0.5472  0.2527  0.3136
 6073SOL    HW218598   6.393   5.129   4.939 -0.3033  0.8085  0.0431
 6074SOL     OW18599   3.647   0.222   2.213  0.5640 -0.1250  0.3571
 6074SOL    HW118600   3.704   0.239   2.289  0.0838  0.3279  0.6250
 6074SOL    HW218601   3.656   0.129   2.197  0.2495 -0.3357  1.3280
 6075SOL     OW18602   4.052   3.979   0.843 -0.5076  0.0026  0.2464
 6075SOL    HW118603   4.142   3.947   0.854 -0.0877  1.2394  0.5263
 6075SOL    HW218604   4.058   4.073   0.857 -2.0262 -0.0279  1.3100
 6076SOL     OW18605   5.300   4.615   0.770  0.3001  0.3788  0.0310
 6076SOL    HW118606   5.360   4.596   0.841  0.1462  0.1328  0.0962
 6076SOL    HW218607   5.338   4.692   0.726  0.5655  0.3313  0.1766
 6077SOL     OW18608   0.687   0.996   0.266 -0.4342 -0.5795 -0.1482
 6077SOL    HW118609   0.764   0.966   0.218  1.7700  1.5589  1.7704
 6077SOL    HW218610   0.689   0.947   0.348  0.9975  1.8111  1.3691
 6078SOL     OW18611   5.839   4.160   0.641 -0.1554 -0.1428  0.3728
 6078SOL    HW118612   5.824   4.240   0.591 -2.5928  1.1393  2.8894
 6078SOL    HW218613   5.874   4.098   0.577  0.2263  2.3826 -2.0524
 6079SOL     OW18614   6.730   4.138   0.841  0.4971  0.3223  0.3698
 6079SOL    HW118615   6.706   4.107   0.929  2.9363  0.9552  1.3597
 6079SOL    HW218616   6.723   4.233   0.846  0.7758  0.3698 -0.0596
 6080SOL     OW18617   1.752   2.353   5.907 -0.4053  0.2980  0.3690
 6080SOL    HW118618   1.792   2.362   5.821 -2.2846  1.0797 -0.4582
 6080SOL    HW218619   1.749   2.258   5.922  0.9104  0.1860  0.0971
 6081SOL     OW18620   1.808   1.917   6.241  0.1863  0.1783 -0.2798
 6081SOL    HW118621   1.800   1.847   6.305  1.4756 -1.0088 -1.3556
 6081SOL    HW218622   1.822   1.996   6.293  1.0864 -0.7388  0.9244
 6082SOL     OW18623   6.777   0.587   0.745  0.2495 -0.1998 -0.2049
 6082SOL    HW118624   6.698   0.592   0.692  0.6452  1.0418 -0.7176
 6082SOL    HW218625   6.746   0.580   0.835 -0.4269 -1.4323 -0.5153
 6083SOL     OW18626   3.302   1.250   2.582  0.6469 -0.5215 -0.1471
 6083SOL    HW118627   3.332   1.196   2.509  1.8410  0.8533 -0.7158
 6083SOL    HW218628   3.275   1.332   2.542  0.6514 -0.0005  0.8863
 6084SOL     OW18629   0.837   0.727   4.282  0.2830  0.2840  0.4611
 6084SOL    HW118630   0.826   0.670   4.207  2.6518  1.1651 -0.6446
 6084SOL    HW218631   0.894   0.678   4.342 -0.5539  0.1026  1.1317
 6085SOL     OW18632   6.455   2.786   4.876 -0.0681  0.0447 -0.2286
 6085SOL    HW118633   6.537   2.748   4.906  0.2592  0.9004 -0.0097
 6085SOL    HW218634   6.480   2.872   4.841 -0.5953 -0.4387 -1.8953
 6086SOL     OW18635   1.503   4.585   2.272 -0.1588 -0.0673 -0.1202
 6086SOL    HW118636   1.556   4.506   2.283 -1.3834 -0.8333  0.4840
 6086SOL    HW218637   1.502   4.626   2.358  0.0652  0.3598 -0.3158
 6087SOL     OW18638   5.777   5.210   4.725  0.0770  0.7641 -0.1663
 6087SOL    HW118639   5.802   5.297   4.756  1.3412  0.2997  0.1778
 6087SOL    HW218640   5.681   5.210   4.730  0.1310  1.3830  1.9793
 6088SOL     OW18641   4.085   3.663   4.991  0.4171 -0.0396  0.1208
 6088SOL    HW118642   4.039   3.723   5.049 -0.4145 -0.3871 -0.1557
 6088SOL    HW218643   4.017   3.629   4.932  1.0152 -0.6233 -0.2588
 6089SOL     OW18644   5.370   6.354   5.509 -0.2074 -0.8224  0.2596
 6089SOL    HW118645   5.381   6.447   5.528  0.3623 -0.8098 -0.0807
 6089SOL    HW218646   5.332   6.352   5.421  1.2502 -0.9134 -0.3966
 6090SOL     OW18647   1.425   5.650   2.047 -0.3361 -0.1541 -0.5567
 6090SOL    HW118648   1.434   5.612   2.134  0.5180 -0.9575 -0.9774
 6090SOL    HW218649   1.515   5.655   2.013 -0.7145 -0.5967 -1.6889
 6091SOL     OW18650   2.235   5.269   4.089  0.5925 -0.2957 -0.0211
 6091SOL    HW118651   2.324   5.233   4.087  0.9154  0.5064 -0.2399
 6091SOL    HW218652   2.246   5.362   4.071 -0.3075 -0.2109 -0.1641
 6092SOL     OW18653   1.177   5.344   5.244 -0.0652 -0.5925  0.3321
 6092SOL    HW118654   1.094   5.359   5.289 -0.5657  0.4920 -0.9048
 6092SOL    HW218655   1.215   5.432   5.235 -0.4301 -0.6379 -2.1843
 6093SOL     OW18656   5.334   4.507   0.183  0.0786  0.2687 -0.4454
 6093SOL    HW118657   5.287   4.585   0.211 -1.5256  0.2509 -2.7498
 6093SOL    HW218658   5.289   4.480   0.103  0.0418 -3.5084  0.6837
 6094SOL     OW18659   6.322   4.065   4.684 -0.1404 -0.3487  0.1531
 6094SOL    HW118660   6.300   3.972   4.671 -2.3775  0.0325  0.6714
 6094SOL    HW218661   6.256   4.096   4.746  0.5538  1.6048 -0.0241
 6095SOL     OW18662   1.942   6.221   6.176 -0.0937 -0.2639  0.3358
 6095SOL    HW118663   1.868   6.282   6.176 -0.0284 -0.1825  0.4608
 6095SOL    HW218664   1.912   6.145   6.126 -0.0161  0.0654 -0.2205
 6096SOL     OW18665   0.264   2.480   2.274  0.1738  0.4205 -0.0296
 6096SOL    HW118666   0.179   2.483   2.316  0.7724  0.1491  1.2534
 6096SOL    HW218667   0.314   2.551   2.315  0.7512  0.2037 -0.3398
 6097SOL     OW18668   6.111   5.411   6.547 -0.1058 -0.3956 -0.0229
 6097SOL    HW118669   6.039   5.352   6.524 -0.6610 -0.2810  1.3250
 6097SOL    HW218670   6.068   5.485   6.588  0.7596 -0.0965  0.3483
 6098SOL     OW18671   4.104   2.625   4.775 -0.0009 -0.1282  0.3553
 6098SOL    HW118672   4.110   2.535   4.809 -0.4603 -0.7056 -1.0203
 6098SOL    HW218673   4.044   2.669   4.836  0.7123 -0.5632  1.4004
 6099SOL     OW18674   6.263   2.741   2.919  0.2264 -0.4868  0.3806
 6099SOL    HW118675   6.268   2.715   3.010 -1.0303 -1.6238  0.1483
 6099SOL    HW218676   6.174   2.720   2.892  0.8894 -1.2086 -1.4058
 6100SOL     OW18677   4.429   5.482   6.103  0.0399 -0.1646  0.2800
 6100SOL    HW118678   4.510   5.518   6.064  0.6303  0.2507  1.8327
 6100SOL    HW218679   4.459   5.436   6.181 -1.1075 -1.1772  0.1483
 6101SOL     OW18680   2.724   1.825   3.855  0.2192  0.5019  0.7271
 6101SOL    HW118681   2.793   1.781   3.905  0.1344  0.1309  0.5186
 6101SOL    HW218682   2.770   1.873   3.787  0.1855 -1.3692 -0.7013
 6102SOL     OW18683   0.877   3.804   4.631 -0.1968 -0.5701 -0.0353
 6102SOL    HW118684   0.928   3.764   4.561  0.4526 -1.2349  0.7995
 6102SOL    HW218685   0.860   3.733   4.692 -1.5863 -0.2144  0.0292
 6103SOL     OW18686   4.000   1.914   2.922 -0.1164  0.3327 -0.4244
 6103SOL    HW118687   4.092   1.887   2.920 -0.1260  0.2124  0.5897
 6103SOL    HW218688   4.002   2.003   2.958 -0.3793  0.4417 -0.6726
 6104SOL     OW18689   2.956   1.546   5.198 -0.3671  0.3338  0.4486
 6104SOL    HW118690   2.878   1.592   5.166 -0.9409  0.1276  1.5173
 6104SOL    HW218691   3.021   1.615   5.210  0.0131  0.3837 -1.4864
 6105SOL     OW18692   6.817   0.933   5.463 -0.1560 -0.0532 -0.3676
 6105SOL    HW118693   6.729   0.949   5.496  0.3158  0.6954  0.5707
 6105SOL    HW218694   6.849   1.019   5.437  0.6538 -0.1569  0.2317
 6106SOL     OW18695   0.207   0.574   3.174  0.4623  0.1535 -0.0945
 6106SOL    HW118696   0.246   0.597   3.090  0.9718 -0.3767 -0.0051
 6106SOL    HW218697   0.215   0.653   3.227 -0.1853  0.6086 -0.6529
 6107SOL     OW18698   6.473   4.430   4.905 -0.2049 -0.3318  0.2431
 6107SOL    HW118699   6.538   4.389   4.847  0.8346  0.5674  0.7170
 6107SOL    HW218700   6.524   4.461   4.980 -1.1497  0.5806  0.5419
 6108SOL     OW18701   5.698   4.959   2.084 -0.4248  0.4867  0.0528
 6108SOL    HW118702   5.638   4.947   2.011 -1.5120 -1.2934  1.1762
 6108SOL    HW218703   5.675   4.890   2.146  1.5871  0.8862  1.3396
 6109SOL     OW18704   1.742   4.831   3.885  0.9135  0.2559 -0.2896
 6109SOL    HW118705   1.739   4.754   3.830  2.0895 -0.3763  0.4762
 6109SOL    HW218706   1.832   4.864   3.876  1.1540  0.1136  1.2247
 6110SOL     OW18707   0.884   1.727   2.593  0.3913  0.7453 -0.4482
 6110SOL    HW118708   0.904   1.667   2.665  1.5771  1.1782 -0.3819
 6110SOL    HW218709   0.958   1.717   2.533 -1.6460 -1.3342 -2.8361
 6111SOL     OW18710   3.792   4.332   1.936 -0.0222  0.4556 -0.0146
 6111SOL    HW118711   3.786   4.375   2.021 -1.0577  0.0043  0.1527
 6111SOL    HW218712   3.856   4.385   1.887  2.7284 -0.8283  1.9213
 6112SOL     OW18713   3.825   4.980   4.249 -0.0835  0.3355  0.3672
 6112SOL    HW118714   3.788   4.987   4.337  0.0918 -3.1544  0.8310
 6112SOL    HW218715   3.914   4.948   4.263  0.5183  1.2770 -1.0670
 6113SOL     OW18716   6.642   2.316   0.699 -0.9542  0.1994  0.5283
 6113SOL    HW118717   6.684   2.266   0.628  0.5922  1.2288  0.6849
 6113SOL    HW218718   6.584   2.377   0.653 -1.5870 -0.5767  0.2654
 6114SOL     OW18719   2.127   6.218   5.330  0.0289 -0.2375 -0.2152
 6114SOL    HW118720   2.055   6.279   5.317 -0.9811 -1.4847 -0.8171
 6114SOL    HW218721   2.117   6.154   5.259  0.0205 -2.0235  1.2975
 6115SOL     OW18722   3.638   4.960   5.161 -0.1869 -0.1499 -0.1985
 6115SOL    HW118723   3.603   4.871   5.173 -0.2442 -0.0030  0.7376
 6115SOL    HW218724   3.575   5.017   5.205  0.2974  0.2856 -0.0617
 6116SOL     OW18725   1.583   1.860   2.133  0.1917 -0.3584  0.0876
 6116SOL    HW118726   1.532   1.939   2.117  0.5133  0.0582  1.0559
 6116SOL    HW218727   1.623   1.874   2.219  1.9535 -0.6507 -0.6263
 6117SOL     OW18728   5.364   1.620   0.799 -0.7501 -0.3640  0.3625
 6117SOL    HW118729   5.339   1.712   0.801 -1.2712 -0.5016  0.2576
 6117SOL    HW218730   5.287   1.573   0.832  0.3498 -0.6043  2.7799
 6118SOL     OW18731   1.918   3.680   4.630 -0.6150  0.8013 -0.4556
 6118SOL    HW118732   1.966   3.725   4.561 -0.8916 -0.0110 -1.1840
 6118SOL    HW218733   1.974   3.690   4.708 -0.1819  1.4950 -0.8471
 6119SOL     OW18734   1.041   0.827   5.806 -0.4205  0.2411 -0.4897
 6119SOL    HW118735   0.986   0.749   5.795 -0.5169  0.0599  1.0923
 6119SOL    HW218736   1.130   0.796   5.786 -0.4144 -0.3738  0.4020
 6120SOL     OW18737   4.311   2.364   4.077  0.2698 -0.0614  0.3281
 6120SOL    HW118738   4.257   2.431   4.035  0.3338  0.8627  1.6526
 6120SOL    HW218739   4.348   2.407   4.154  0.6937 -1.4823  0.9685
 6121SOL     OW18740   4.637   4.107   3.409 -0.2240  0.2575  0.0115
 6121SOL    HW118741   4.723   4.065   3.412 -0.5895 -0.5440 -0.3753
 6121SOL    HW218742   4.647   4.179   3.346  0.0557 -0.0916 -0.3476
 6122SOL     OW18743   6.524   3.436   6.445  0.0639 -0.3183  0.1809
 6122SOL    HW118744   6.557   3.524   6.460  1.0781 -0.6052 -0.2580
 6122SOL    HW218745   6.457   3.447   6.377 -0.6087  0.2466  0.9236
 6123SOL     OW18746   2.690   2.427   4.359  0.3692 -0.1658 -0.7129
 6123SOL    HW118747   2.735   2.491   4.415 -1.2027  1.6426 -1.3915
 6123SOL    HW218748   2.644   2.370   4.420 -0.1720  0.8964 -0.1007
 6124SOL     OW18749   3.259   1.748   6.745  0.3429  0.2315  0.3035
 6124SOL    HW118750   3.299   1.770   6.661 -0.6917 -1.1028 -0.5923
 6124SOL    HW218751   3.171   1.716   6.721 -0.0810  0.1158  1.9227
 6125SOL     OW18752   0.245   5.845   0.184 -0.6696 -0.2319  0.1614
 6125SOL    HW118753   0.238   5.782   0.256 -0.4655  0.4289  0.7768
 6125SOL    HW218754   0.228   5.794   0.105  0.5843 -1.2959  0.5369
 6126SOL     OW18755   4.753   4.708   0.665 -0.5744 -0.0434  0.4904
 6126SOL    HW118756   4.759   4.629   0.720 -0.1468 -0.7984 -0.5976
 6126SOL    HW218757   4.836   4.709   0.617 -1.5296 -0.2578 -1.2377
 6127SOL     OW18758   1.243   4.254   0.256  0.3548  0.5861 -0.0387
 6127SOL    HW118759   1.212   4.180   0.308 -2.8660  0.1699 -2.2244
 6127SOL    HW218760   1.247   4.327   0.318 -0.8508 -0.4267  1.3058
 6128SOL     OW18761   0.585   0.187   3.092  0.1543  0.2257  0.5462
 6128SOL    HW118762   0.610   0.113   3.147 -0.1220 -1.0156 -0.9422
 6128SOL    HW218763   0.510   0.156   3.042  0.3011  1.3550 -0.4169
 6129SOL     OW18764   3.442   2.355   5.364  0.1806 -0.3851  0.5028
 6129SOL    HW118765   3.445   2.450   5.376  3.0750 -0.4722  1.2591
 6129SOL    HW218766   3.378   2.342   5.294 -0.2379  2.1142  0.3103
 6130SOL     OW18767   2.097   4.653   2.147 -0.1274  0.2109 -0.6621
 6130SOL    HW118768   2.070   4.567   2.177  1.6825 -0.4484 -0.7888
 6130SOL    HW218769   2.168   4.636   2.085  0.8340  1.8123 -0.0705
 6131SOL     OW18770   4.254   3.805   3.700 -0.3124  0.6426 -0.3689
 6131SOL    HW118771   4.302   3.887   3.690  1.2950  0.1394  2.3854
 6131SOL    HW218772   4.303   3.742   3.647  1.3251  0.4560  1.2868
 6132SOL     OW18773   0.408   2.409   0.557  0.4143  0.0959  0.1433
 6132SOL    HW118774   0.410   2.493   0.512  0.7000 -0.2929 -0.5912
 6132SOL    HW218775   0.498   2.395   0.586  0.4042 -0.0290  0.1166
 6133SOL     OW18776   0.035   0.658   6.243 -0.0624 -0.2207 -0.4022
 6133SOL    HW118777  -0.047   0.687   6.281  0.8043 -0.9714  2.2422
 6133SOL    HW218778   0.102   0.715   6.282  0.9298 -1.3555 -0.3609
 6134SOL     OW18779   3.578   4.022   0.609 -0.4698  0.1076 -0.3693
 6134SOL    HW118780   3.578   4.032   0.513 -0.4455 -0.4561 -0.4268
 6134SOL    HW218781   3.670   4.010   0.632 -0.3902  0.9584 -0.1931
 6135SOL     OW18782   5.816   2.984   3.088  0.0605 -0.2602  0.2953
 6135SOL    HW118783   5.757   2.908   3.082 -1.7537  0.9437  1.9271
 6135SOL    HW218784   5.759   3.056   3.115  1.3059  2.2560 -3.0915
 6136SOL     OW18785   2.061   0.136   4.985  1.0444 -0.1383  0.3622
 6136SOL    HW118786   2.091   0.064   4.929 -1.7481 -1.3993  0.3264
 6136SOL    HW218787   2.103   0.214   4.948 -0.8001 -0.8379 -3.7526
 6137SOL     OW18788   3.032   2.124   3.885  0.0955 -0.8820  0.0087
 6137SOL    HW118789   3.069   2.187   3.947  1.6609 -0.9880 -0.7864
 6137SOL    HW218790   3.101   2.060   3.871  0.1390 -0.3952 -2.5132
 6138SOL     OW18791   1.553   3.264   4.005 -0.8517  0.8618  0.1637
 6138SOL    HW118792   1.628   3.323   4.008 -2.1126  2.4959  2.4187
 6138SOL    HW218793   1.485   3.312   3.958 -0.8233 -0.2720 -1.1199
 6139SOL     OW18794   2.748   3.291   2.639  0.4182 -0.1659  0.4121
 6139SOL    HW118795   2.783   3.369   2.683  0.6102 -0.3275  0.5506
 6139SOL    HW218796   2.801   3.219   2.674 -0.6637 -0.5458  1.3418
 6140SOL     OW18797   3.974   6.533   3.749  0.3446  0.4515 -0.0847
 6140SOL    HW118798   3.920   6.546   3.828  2.2664  1.5139  1.1290
 6140SOL    HW218799   3.912   6.541   3.677 -1.4096 -0.0413  1.2749
 6141SOL     OW18800   2.222   0.023   2.041  1.0164 -0.1684  0.2001
 6141SOL    HW118801   2.262   0.094   1.991 -1.3198  0.8473 -0.4116
 6141SOL    HW218802   2.256   0.034   2.130  1.6637  0.9534 -0.1647
 6142SOL     OW18803   2.496   6.746   0.899 -0.0785 -0.6518 -0.0893
 6142SOL    HW118804   2.531   6.774   0.814  0.1860  1.8359  0.7428
 6142SOL    HW218805   2.516   6.653   0.903  2.4677 -0.2809 -1.5768
 6143SOL     OW18806   5.794   4.713   4.930 -0.0241 -0.4532 -0.1310
 6143SOL    HW118807   5.750   4.750   4.855 -0.6196 -1.4498 -0.2896
 6143SOL    HW218808   5.738   4.735   5.005 -0.2963 -0.8713 -0.2052
 6144SOL     OW18809   0.684   3.430   4.322  0.2915  0.6358 -0.1253
 6144SOL    HW118810   0.767   3.383   4.310 -0.1789 -0.6974  1.4532
 6144SOL    HW218811   0.710   3.521   4.339  1.3682  0.4293 -0.5953
 6145SOL     OW18812   0.552   2.517   4.392  0.2164  0.1239  0.0485
 6145SOL    HW118813   0.475   2.499   4.447  0.1511  0.8562  0.2151
 6145SOL    HW218814   0.547   2.453   4.322  1.1419 -1.8779  1.7179
 6146SOL     OW18815   6.625   0.006   5.117 -0.1731 -0.2375 -0.3660
 6146SOL    HW118816   6.610   0.040   5.029  2.1921 -1.5689 -1.3766
 6146SOL    HW218817   6.597  -0.085   5.112  0.8993 -0.5919 -0.0503
 6147SOL     OW18818   4.155   6.576   2.727 -0.0788  0.2578 -0.4423
 6147SOL    HW118819   4.105   6.658   2.721 -0.5424  0.1709  1.5465
 6147SOL    HW218820   4.244   6.601   2.701  0.1701  1.8311  1.5777
 6148SOL     OW18821   6.222   5.751   5.947  0.4028 -0.2845  0.1051
 6148SOL    HW118822   6.293   5.815   5.937  0.1826 -0.1700 -0.8331
 6148SOL    HW218823   6.163   5.791   6.011  0.3737  0.3649 -0.3177
 6149SOL     OW18824   1.772   3.356   4.278  0.2055 -0.1170  0.3029
 6149SOL    HW118825   1.758   3.404   4.360  0.5793 -1.7405  1.3705
 6149SOL    HW218826   1.732   3.411   4.211  1.2897  2.0621  1.3099
 6150SOL     OW18827   2.304   2.884   3.918 -0.1460 -0.3515  0.0162
 6150SOL    HW118828   2.384   2.842   3.887 -1.1776 -0.3499 -2.9033
 6150SOL    HW218829   2.323   2.977   3.914 -0.8090 -0.2530 -2.5528
 6151SOL     OW18830   3.726   4.902   1.544  0.3611  0.2160  0.3414
 6151SOL    HW118831   3.661   4.957   1.500 -0.6852 -1.1256  0.1481
 6151SOL    HW218832   3.768   4.960   1.607 -1.1772  1.0810  0.6316
 6152SOL     OW18833   4.873   3.797   5.502 -0.5492  0.2883  0.6120
 6152SOL    HW118834   4.832   3.835   5.580 -1.8785 -0.4200  0.2874
 6152SOL    HW218835   4.846   3.705   5.503  1.9333 -0.5284  0.9570
 6153SOL     OW18836   1.893   3.393   1.982  0.8798  0.0747 -0.3190
 6153SOL    HW118837   1.920   3.484   1.967 -0.1662  1.0048  2.6498
 6153SOL    HW218838   1.798   3.395   1.970  1.0186 -1.1145 -1.9855
 6154SOL     OW18839   0.643   3.860   1.698  0.6481 -0.5092 -0.3480
 6154SOL    HW118840   0.600   3.862   1.612  1.1710 -1.2130 -0.6389
 6154SOL    HW218841   0.696   3.940   1.700  0.4190 -0.3484 -0.5666
 6155SOL     OW18842   3.259   6.692   2.606  0.7161  0.0291  0.0410
 6155SOL    HW118843   3.307   6.670   2.686  0.2950  1.3497  0.6919
 6155SOL    HW218844   3.214   6.611   2.582 -1.0770  0.1882  2.5127
 6156SOL     OW18845   6.142   5.952   6.102 -0.2426 -0.5711  0.3966
 6156SOL    HW118846   6.117   6.039   6.071  1.1715  1.0583  3.3895
 6156SOL    HW218847   6.079   5.933   6.172 -0.5868 -2.0664 -0.2792
 6157SOL     OW18848   4.071   6.174   0.660 -0.0872  0.3333  0.1062
 6157SOL    HW118849   4.023   6.257   0.664 -1.8822 -0.6055 -0.5828
 6157SOL    HW218850   4.074   6.154   0.566 -2.6531 -1.9279  0.3789
 6158SOL     OW18851   0.991   2.282   3.112  0.1522 -0.4218 -0.2289
 6158SOL    HW118852   1.075   2.315   3.145  0.5524 -1.2843 -0.3517
 6158SOL    HW218853   0.986   2.192   3.145  1.1778 -1.8174 -3.5186
 6159SOL     OW18854   4.889   4.500   4.822  0.3338 -0.3195  0.0816
 6159SOL    HW118855   4.902   4.483   4.729  1.7231 -2.7738  0.6523
 6159SOL    HW218856   4.801   4.538   4.827 -0.4860 -1.7277 -2.0789
 6160SOL     OW18857   5.147   1.971   4.438  0.2250 -0.0326 -0.7861
 6160SOL    HW118858   5.208   2.019   4.382  0.0011  1.4208  0.1815
 6160SOL    HW218859   5.200   1.939   4.510  0.1316 -0.1390 -0.7640
 6161SOL     OW18860   5.258   4.467   4.218  0.3294  0.0040  0.0845
 6161SOL    HW118861   5.254   4.425   4.304 -0.0050 -0.3076 -0.0805
 6161SOL    HW218862   5.348   4.455   4.189  0.7112  0.9641  0.8103
 6162SOL     OW18863   1.975   2.957   1.113 -0.0513 -0.0657  0.5679
 6162SOL    HW118864   1.942   2.963   1.202 -0.4840  3.3597  0.3061
 6162SOL    HW218865   2.068   2.977   1.121 -0.1484  0.5348  0.2436
 6163SOL     OW18866   4.123   1.920   6.206  0.0977 -0.1217 -0.2879
 6163SOL    HW118867   4.140   1.986   6.139 -0.1582 -0.0554 -0.2877
 6163SOL    HW218868   4.114   1.969   6.288 -0.2213 -0.1420 -0.3084
 6164SOL     OW18869   6.126   4.416   2.499 -0.4268 -0.0007  0.2479
 6164SOL    HW118870   6.037   4.404   2.532 -0.6792 -1.4720 -0.8411
 6164SOL    HW218871   6.182   4.408   2.577 -1.1707 -0.4387  0.7472
 6165SOL     OW18872   1.090   0.136   6.383 -0.0439  0.5229  0.3348
 6165SOL    HW118873   1.028   0.146   6.455  1.2735  0.0805  1.5701
 6165SOL    HW218874   1.069   0.051   6.345  0.1160  0.1617  1.0501
 6166SOL     OW18875   4.399   0.082   5.233  0.2831  0.5311  0.2815
 6166SOL    HW118876   4.320   0.129   5.260  0.8750  1.9517 -0.3540
 6166SOL    HW218877   4.381  -0.010   5.254 -1.3340  0.8922  0.5973
 6167SOL     OW18878   0.789   5.574   4.197  0.5753 -0.3358 -0.6752
 6167SOL    HW118879   0.712   5.517   4.200 -0.1354  0.6357  1.4046
 6167SOL    HW218880   0.764   5.645   4.138 -0.9877  1.0080  1.4467
 6168SOL     OW18881   1.887   3.221   1.578  0.0294 -0.3284 -0.5695
 6168SOL    HW118882   1.962   3.263   1.619  2.0283 -3.1600 -0.9670
 6168SOL    HW218883   1.892   3.248   1.486 -0.5925  0.9479 -0.2440
 6169SOL     OW18884   2.695   6.815   4.104 -0.7514  0.4248 -1.0755
 6169SOL    HW118885   2.721   6.866   4.182  1.8636 -1.4001 -0.6301
 6169SOL    HW218886   2.641   6.745   4.139 -0.8805  0.5111 -1.1044
 6170SOL     OW18887   1.889   6.620   2.668  0.2340 -0.4141  0.4874
 6170SOL    HW118888   1.857   6.694   2.616  1.2672 -1.6754 -2.1176
 6170SOL    HW218889   1.975   6.649   2.700  1.4633 -1.0457 -2.0498
 6171SOL     OW18890   6.516   4.352   2.732 -0.2352  0.1401 -0.2666
 6171SOL    HW118891   6.561   4.350   2.816 -0.8722  0.4601  0.0971
 6171SOL    HW218892   6.471   4.267   2.727  0.5747 -0.2677 -0.7299
 6172SOL     OW18893   0.904   5.584   0.923 -0.0485  0.0770  0.6419
 6172SOL    HW118894   0.995   5.559   0.942 -0.2707  0.1707  1.8388
 6172SOL    HW218895   0.911   5.676   0.897  0.5322 -0.6175 -2.0411
 6173SOL     OW18896   3.411   4.053   4.506  0.2616  0.1762  0.1493
 6173SOL    HW118897   3.386   4.026   4.595 -0.1329 -2.2802 -0.6184
 6173SOL    HW218898   3.336   4.104   4.475 -0.5646 -0.7860  0.5047
 6174SOL     OW18899   1.445   3.044   2.982 -0.5329 -0.4231 -0.2300
 6174SOL    HW118900   1.440   3.131   2.942 -2.7505 -0.3310  0.1115
 6174SOL    HW218901   1.532   3.041   3.023  0.5303  0.6861 -2.2720
 6175SOL     OW18902   3.618   4.479   5.846  0.0807 -0.2456  0.0089
 6175SOL    HW118903   3.618   4.439   5.759 -0.9121 -0.3629  0.0504
 6175SOL    HW218904   3.540   4.444   5.888  1.1223 -1.0529  1.3625
 6176SOL     OW18905   5.785   2.022   2.160 -0.2342 -0.3065  0.2709
 6176SOL    HW118906   5.823   1.975   2.235 -0.6294 -1.7010 -0.3864
 6176SOL    HW218907   5.811   1.971   2.084 -2.0897 -0.4199 -0.3316
 6177SOL     OW18908   6.175   5.954   0.799 -0.0549 -0.6030 -0.1709
 6177SOL    HW118909   6.113   5.937   0.728 -0.8220  1.0136  0.0808
 6177SOL    HW218910   6.252   5.902   0.776 -0.3905 -0.3362 -2.0223
 6178SOL     OW18911   4.509   6.552   6.736 -0.8233 -0.4743  0.3281
 6178SOL    HW118912   4.463   6.500   6.801 -1.4454  0.5822  0.7479
 6178SOL    HW218913   4.599   6.518   6.738 -1.3701 -2.0591  0.0164
 6179SOL     OW18914   0.447   5.876   4.020  0.0973 -0.1148  0.3041
 6179SOL    HW118915   0.377   5.922   3.972 -1.2669 -0.6847  1.6702
 6179SOL    HW218916   0.472   5.936   4.090 -0.5894 -0.7894  1.1441
 6180SOL     OW18917   0.635   4.490   1.300 -0.4163  0.7198 -0.0607
 6180SOL    HW118918   0.689   4.569   1.304 -0.6898  0.8615  1.4862
 6180SOL    HW218919   0.696   4.418   1.313 -0.2513  0.6941 -0.8994
 6181SOL     OW18920   2.055   4.469   1.698 -0.5509 -0.0445 -0.5238
 6181SOL    HW118921   2.150   4.463   1.692 -0.4569  0.4161  0.3019
 6181SOL    HW218922   2.035   4.559   1.673 -0.7189 -0.0052 -0.2591
 6182SOL     OW18923   1.697   2.190   6.249 -0.1105  0.2050  0.0294
 6182SOL    HW118924   1.642   2.149   6.316  0.4577  0.3094  0.5678
 6182SOL    HW218925   1.671   2.282   6.248  1.8931  0.8987  2.2493
 6183SOL     OW18926   0.719   2.699   4.304  0.4940  0.1439 -0.5000
 6183SOL    HW118927   0.703   2.758   4.378  4.1657  0.0232  0.6057
 6183SOL    HW218928   0.665   2.622   4.323  0.3016  0.6763  1.3694
 6184SOL     OW18929   1.312   4.625   0.799  0.2579 -0.1459 -0.0808
 6184SOL    HW118930   1.294   4.540   0.760 -0.4152  0.3286 -0.8380
 6184SOL    HW218931   1.386   4.659   0.748 -0.3021  0.2653 -0.6214
 6185SOL     OW18932   4.237   0.591   3.827  0.4644 -0.0772  0.7088
 6185SOL    HW118933   4.188   0.618   3.749 -1.3871 -1.5132  1.3159
 6185SOL    HW218934   4.210   0.501   3.843  1.8946 -0.2870  2.2128
 6186SOL     OW18935   4.686   4.983   4.184  0.1305  0.0200  0.1510
 6186SOL    HW118936   4.640   4.939   4.256 -0.3759  0.4010  0.0684
 6186SOL    HW218937   4.749   4.918   4.153 -2.9118 -2.1169 -2.2879
 6187SOL     OW18938   2.285   5.706   4.804 -0.2147 -0.5264  0.2686
 6187SOL    HW118939   2.344   5.776   4.830 -0.2279 -0.0328 -0.9919
 6187SOL    HW218940   2.341   5.639   4.766 -0.3073 -0.8045  0.6043
 6188SOL     OW18941   2.645   3.424   3.583 -0.3797 -0.0151 -0.5266
 6188SOL    HW118942   2.625   3.347   3.531  1.0455 -1.4936  1.0020
 6188SOL    HW218943   2.580   3.423   3.654 -0.6833  0.5145 -0.7861
 6189SOL     OW18944   5.026   4.354   4.061 -0.1193  0.3441 -0.1494
 6189SOL    HW118945   5.014   4.270   4.106  2.5284 -0.6501 -1.1325
 6189SOL    HW218946   5.083   4.404   4.120 -1.0885  1.1824  0.0914
 6190SOL     OW18947   3.501   6.045   1.487 -0.1334 -0.2333 -0.1355
 6190SOL    HW118948   3.524   5.962   1.527  0.4471 -0.0536 -0.0828
 6190SOL    HW218949   3.460   6.095   1.558 -0.6689 -0.5455 -0.2216
 6191SOL     OW18950   0.061   5.695   5.203 -0.2380 -0.1381  0.0023
 6191SOL    HW118951   0.044   5.760   5.134  0.0004  1.1156  1.0919
 6191SOL    HW218952   0.128   5.735   5.257  0.1893 -1.4773  0.4981
 6192SOL     OW18953   0.751   2.113   2.667  0.5313 -0.2838 -0.3425
 6192SOL    HW118954   0.753   2.073   2.754 -0.0484  2.3274  0.9724
 6192SOL    HW218955   0.843   2.130   2.647  0.5890  2.5797  1.6336
 6193SOL     OW18956   2.261   2.757   3.227  0.4619  0.9597  0.5074
 6193SOL    HW118957   2.177   2.752   3.180  0.7158  2.2907 -0.1171
 6193SOL    HW218958   2.237   2.753   3.319 -0.1117 -0.8569  0.3227
 6194SOL     OW18959   6.175   4.729   3.179  0.5529  0.5665 -0.3768
 6194SOL    HW118960   6.185   4.817   3.215 -1.8560 -0.2914  2.9616
 6194SOL    HW218961   6.085   4.727   3.146  0.3468 -0.7597  0.1757
 6195SOL     OW18962   6.009   6.820   4.100  0.3579  0.2073 -0.4888
 6195SOL    HW118963   5.948   6.865   4.158  0.8360 -0.4580  0.5628
 6195SOL    HW218964   6.076   6.885   4.081  0.0855  0.4983 -0.4742
 6196SOL     OW18965   3.201   5.876   1.905  0.0411  0.0682  0.2329
 6196SOL    HW118966   3.131   5.812   1.920 -0.7771  0.6304 -1.0754
 6196SOL    HW218967   3.279   5.822   1.891 -0.4700 -0.6237 -0.0497
 6197SOL     OW18968   3.925   4.821   3.918 -0.0365 -0.0978  0.1925
 6197SOL    HW118969   3.888   4.742   3.959 -1.6950  1.3709  1.7093
 6197SOL    HW218970   3.855   4.854   3.861  0.9427 -0.1361 -1.0662
 6198SOL     OW18971   0.812   4.886   4.818  0.4808  0.4162  0.2935
 6198SOL    HW118972   0.879   4.907   4.883 -0.6284 -1.0459  1.9854
 6198SOL    HW218973   0.830   4.795   4.794  0.5746  0.7862 -1.1132
 6199SOL     OW18974   0.058   1.992   3.833 -0.7445  0.6044  0.0720
 6199SOL    HW118975   0.068   2.006   3.739  0.3696 -1.5695 -0.2070
 6199SOL    HW218976   0.136   2.031   3.872  0.2900 -0.9915 -0.2728
 6200SOL     OW18977   4.273   0.116   5.602  0.1301 -0.2550  0.5560
 6200SOL    HW118978   4.362   0.145   5.621 -0.6988  0.7228  3.5293
 6200SOL    HW218979   4.241   0.179   5.537  1.2360 -0.0005  0.2342
 6201SOL     OW18980   5.818   4.831   0.359 -0.5032  0.0805 -0.0756
 6201SOL    HW118981   5.809   4.879   0.441  1.3752 -0.8793  0.7479
 6201SOL    HW218982   5.871   4.888   0.304  0.5789 -0.4515  0.4047
 6202SOL     OW18983   1.687   4.392   3.306  0.0976 -0.3034  0.4786
 6202SOL    HW118984   1.698   4.343   3.388  1.8367  0.6954  0.8801
 6202SOL    HW218985   1.647   4.475   3.333 -0.5826 -0.5024  0.1121
 6203SOL     OW18986   6.585   3.565   2.209 -0.0011 -0.3009  0.4462
 6203SOL    HW118987   6.550   3.654   2.204  1.1545  0.0983 -2.7683
 6203SOL    HW218988   6.528   3.514   2.153  0.5725 -1.1322  0.6025
 6204SOL     OW18989   4.298   3.397   1.341  0.0536  0.3280 -0.4023
 6204SOL    HW118990   4.305   3.317   1.394  1.3742 -0.1459 -1.2532
 6204SOL    HW218991   4.275   3.465   1.405 -1.4915 -0.7504  0.2858
 6205SOL     OW18992   0.166   5.653   1.416 -0.3728 -0.3376  0.0264
 6205SOL    HW118993   0.223   5.583   1.448  0.1452  0.2189  0.3552
 6205SOL    HW218994   0.180   5.655   1.322  1.0934  0.5747  0.2250
 6206SOL     OW18995   5.760   3.855   0.750 -0.2858  0.2269 -0.1122
 6206SOL    HW118996   5.846   3.883   0.716 -0.0561  0.5323  0.6973
 6206SOL    HW218997   5.781   3.803   0.827 -0.8120 -0.2005 -0.2583
 6207SOL     OW18998   0.226   6.612   3.743 -0.1712  0.1271 -0.2784
 6207SOL    HW118999   0.305   6.638   3.790  0.2970 -0.1417 -0.9111
 6207SOL    HW219000   0.255   6.547   3.680 -0.7432  0.6624 -1.1199
 6208SOL     OW19001   2.260   4.065   1.846  0.3317 -0.2765 -0.6853
 6208SOL    HW119002   2.216   4.137   1.891 -2.7343 -2.0867 -0.4977
 6208SOL    HW219003   2.240   4.079   1.754 -0.2955 -0.9087 -0.6439
 6209SOL     OW19004   5.208   0.212   4.009 -0.3701 -0.0600 -0.2238
 6209SOL    HW119005   5.265   0.268   4.061 -0.5104 -1.5021  1.5986
 6209SOL    HW219006   5.153   0.273   3.959 -0.3082  1.4265  1.4289
 6210SOL     OW19007   2.150   2.972   5.202  0.6233  0.2527 -0.8101
 6210SOL    HW119008   2.194   2.907   5.146  0.5764  0.2874 -0.8870
 6210SOL    HW219009   2.221   3.020   5.244  0.6647 -0.4530 -0.0500
 6211SOL     OW19010   3.525   3.975   3.775  0.4648  0.0720  0.0878
 6211SOL    HW119011   3.559   3.888   3.795  0.5546  0.0392 -0.2009
 6211SOL    HW219012   3.502   4.013   3.860 -0.4254 -0.5814  0.1565
 6212SOL     OW19013   4.038   1.220   3.359 -0.3053  0.1690  0.4346
 6212SOL    HW119014   4.047   1.305   3.401 -1.4787  1.3695 -1.5930
 6212SOL    HW219015   4.008   1.162   3.429 -1.6334  1.9426  1.4210
 6213SOL     OW19016   0.595   2.156   1.853 -0.0258 -0.4857 -0.5758
 6213SOL    HW119017   0.567   2.149   1.761 -1.0978  0.0159 -0.3085
 6213SOL    HW219018   0.687   2.181   1.848  0.2003 -1.4319 -1.5079
 6214SOL     OW19019   1.262   5.186   5.636  0.3161 -0.3164 -0.1464
 6214SOL    HW119020   1.302   5.128   5.571  0.7097  0.8449 -0.9841
 6214SOL    HW219021   1.336   5.227   5.680  0.0430 -0.4851  0.4746
 6215SOL     OW19022   1.958   0.186   6.138  0.2127 -0.4867  0.1272
 6215SOL    HW119023   1.978   0.202   6.230 -1.9394  0.1307  0.5399
 6215SOL    HW219024   1.931   0.271   6.104  0.6635 -0.7791 -1.0029
 6216SOL     OW19025   6.521   1.472   4.764  1.0242 -0.5281  0.0459
 6216SOL    HW119026   6.536   1.518   4.681 -0.2373  1.9071  1.0283
 6216SOL    HW219027   6.427   1.482   4.780  1.2769 -0.6394  1.9054
 6217SOL     OW19028   3.241   3.190   2.726 -0.4533 -0.6357  0.0378
 6217SOL    HW119029   3.331   3.211   2.751 -0.2151 -2.2330  0.6841
 6217SOL    HW219030   3.199   3.165   2.809 -0.5892 -2.8719 -0.6385
 6218SOL     OW19031   1.984   0.698   5.860  0.1893  0.0991 -0.1113
 6218SOL    HW119032   2.075   0.697   5.890  0.1827  1.9045  0.0813
 6218SOL    HW219033   1.967   0.790   5.838 -1.4605 -0.2795 -0.5637
 6219SOL     OW19034   4.845   5.027   3.042 -0.2339  0.2429 -0.0197
 6219SOL    HW119035   4.926   5.046   2.994 -0.0120  0.5359  0.4732
 6219SOL    HW219036   4.778   5.022   2.974  0.2611 -0.4002 -0.4807
 6220SOL     OW19037   0.185   1.603   0.128 -0.9692 -0.2235  0.3129
 6220SOL    HW119038   0.207   1.634   0.216  0.7836  0.5976 -0.3662
 6220SOL    HW219039   0.251   1.537   0.109 -1.3521 -0.4125 -0.3919
 6221SOL     OW19040   2.870   6.643   6.479  0.1738  0.1741  0.0780
 6221SOL    HW119041   2.820   6.586   6.422 -0.2498 -0.4756  1.0823
 6221SOL    HW219042   2.830   6.730   6.467  1.4470  0.5347 -2.1960
 6222SOL     OW19043   4.098   2.932   1.860 -0.2063 -0.1740 -0.3683
 6222SOL    HW119044   4.035   2.947   1.931 -0.8397  1.7537 -1.2602
 6222SOL    HW219045   4.092   2.839   1.841 -0.5899 -0.5779  1.5791
 6223SOL     OW19046   4.076   2.253   3.494  0.0013  0.5980 -0.1652
 6223SOL    HW119047   4.124   2.267   3.576 -2.5689 -0.9722  1.7506
 6223SOL    HW219048   3.984   2.257   3.519 -0.9112  0.2246 -3.0641
 6224SOL     OW19049   5.246   5.011   2.533  0.5098  0.1849  0.8594
 6224SOL    HW119050   5.252   4.922   2.567 -2.3784  0.0686  1.3041
 6224SOL    HW219051   5.293   5.008   2.449 -1.5839 -2.4820 -0.3721
 6225SOL     OW19052   2.926   0.457   5.159  0.2407  0.3883 -0.3015
 6225SOL    HW119053   2.966   0.421   5.080 -1.5178  0.5773 -1.3386
 6225SOL    HW219054   2.990   0.440   5.228  1.6816 -0.0916 -1.6915
 6226SOL     OW19055   1.945   2.527   5.462  0.1038  0.2817  0.6571
 6226SOL    HW119056   2.005   2.597   5.439 -1.0838  1.5802  1.3830
 6226SOL    HW219057   1.915   2.493   5.377  0.4629  0.8367  0.3004
 6227SOL     OW19058   2.082   3.878   6.089  0.0510  0.2633 -0.0424
 6227SOL    HW119059   2.131   3.956   6.115  0.2482  0.1405 -0.0353
 6227SOL    HW219060   2.083   3.879   5.994  1.4276 -0.5566 -0.0675
 6228SOL     OW19061   6.010   3.868   2.120 -0.1149  0.5585  0.7239
 6228SOL    HW119062   6.011   3.802   2.189  0.0686 -0.8162 -0.5380
 6228SOL    HW219063   6.102   3.880   2.096 -0.2965 -0.6527 -0.7599
 6229SOL     OW19064   6.157   5.322   3.094  0.7193  0.1719 -0.0690
 6229SOL    HW119065   6.075   5.368   3.113  0.6049  0.0325 -0.2276
 6229SOL    HW219066   6.220   5.360   3.156  0.5002  0.1744  0.1560
 6230SOL     OW19067   5.015   2.506   4.297 -0.5482  0.3937  0.1741
 6230SOL    HW119068   4.970   2.460   4.226 -0.6314  0.9735 -0.1529
 6230SOL    HW219069   5.107   2.503   4.273 -0.2086 -1.9259  1.4806
 6231SOL     OW19070   1.099   3.364   2.703 -0.1789  0.7194 -0.1990
 6231SOL    HW119071   1.148   3.384   2.782  0.5379 -3.4283  0.6370
 6231SOL    HW219072   1.155   3.394   2.631  2.5103 -1.4645  0.8042
 6232SOL     OW19073   0.330   3.984   5.435 -0.0662 -0.1804  0.6407
 6232SOL    HW119074   0.303   3.970   5.344  2.0310 -0.0582 -0.0669
 6232SOL    HW219075   0.342   4.079   5.441  1.5718 -0.3413  0.4412
 6233SOL     OW19076   0.348   5.080   2.353  0.3062  0.2893 -0.5114
 6233SOL    HW119077   0.410   5.008   2.354 -0.1449 -0.1144 -1.1436
 6233SOL    HW219078   0.285   5.058   2.285 -0.6817  0.5654  0.2688
 6234SOL     OW19079   1.593   0.675   2.893  0.0531 -0.1190 -0.0088
 6234SOL    HW119080   1.620   0.585   2.875  0.5113 -0.4290  2.0543
 6234SOL    HW219081   1.649   0.728   2.837  0.0598 -1.0807 -0.9459
 6235SOL     OW19082   4.928   5.512   5.916 -0.6585 -0.1086 -0.2478
 6235SOL    HW119083   4.950   5.603   5.897 -1.4884 -0.4977 -3.6939
 6235SOL    HW219084   4.987   5.461   5.861 -2.2623 -1.5041 -0.7765
 6236SOL     OW19085   0.479   6.340   2.317 -0.0343  0.0286  0.4140
 6236SOL    HW119086   0.536   6.272   2.282  1.3542 -0.2362  2.9609
 6236SOL    HW219087   0.538   6.410   2.344 -1.3748  2.0405 -1.4594
 6237SOL     OW19088   3.297   1.658   2.290 -0.2429 -0.0375 -0.1937
 6237SOL    HW119089   3.370   1.636   2.348 -0.5526  0.4523  0.3910
 6237SOL    HW219090   3.267   1.573   2.255 -0.1000 -0.3404  0.4143
 6238SOL     OW19091   2.606   3.440   1.861  0.0013  0.4244  0.0247
 6238SOL    HW119092   2.595   3.527   1.821 -2.0726 -0.2180 -0.9539
 6238SOL    HW219093   2.517   3.412   1.881  0.7449 -0.9022  1.6615
 6239SOL     OW19094   4.862   0.762   5.379  0.3464  0.4755  0.1809
 6239SOL    HW119095   4.793   0.715   5.332 -0.3929  1.0982  0.5996
 6239SOL    HW219096   4.854   0.732   5.470 -0.2494  1.5033  0.4865
 6240SOL     OW19097   3.333   5.367   2.444  0.1905  0.2433 -0.2065
 6240SOL    HW119098   3.286   5.433   2.496  1.2555  0.3431  0.6551
 6240SOL    HW219099   3.273   5.348   2.371 -1.3218  0.1271  1.0073
 6241SOL     OW19100   6.844   1.530   3.488  0.0486 -0.3894 -0.0536
 6241SOL    HW119101   6.903   1.592   3.444  0.0125 -1.5534 -1.8533
 6241SOL    HW219102   6.893   1.500   3.564  0.5681  0.8679  0.1364
 6242SOL     OW19103   0.206   2.410   5.612  0.1572  0.4988  0.3483
 6242SOL    HW119104   0.224   2.326   5.569  1.7672 -0.7843  3.2488
 6242SOL    HW219105   0.238   2.476   5.551  0.1368 -1.0286 -1.4064
 6243SOL     OW19106   6.355   4.550   0.795 -0.5408 -0.5412  0.3233
 6243SOL    HW119107   6.436   4.596   0.820 -0.7900  0.6630 -0.9650
 6243SOL    HW219108   6.356   4.471   0.848  1.5151 -0.5953  0.3111
 6244SOL     OW19109   4.930   4.496   6.434  0.5224  0.4396  0.1350
 6244SOL    HW119110   4.928   4.417   6.380 -0.2874  1.0739 -0.7877
 6244SOL    HW219111   5.022   4.509   6.455  0.7162 -0.4598 -0.1392
 6245SOL     OW19112   6.069   2.799   0.666  0.1739 -0.3084 -0.2205
 6245SOL    HW119113   5.992   2.823   0.717  0.4977  0.5295 -0.1089
 6245SOL    HW219114   6.033   2.772   0.581 -0.2710 -0.3562 -0.0232
 6246SOL     OW19115   1.901   5.629   2.890  0.0656  0.0650  0.2242
 6246SOL    HW119116   1.912   5.717   2.854 -1.0431  0.1242  0.0133
 6246SOL    HW219117   1.835   5.638   2.958  1.7183 -0.1683  1.9329
 6247SOL     OW19118   4.901   4.520   3.782  0.5522 -0.5572  0.2189
 6247SOL    HW119119   4.974   4.462   3.762  0.3143 -1.0454  0.7321
 6247SOL    HW219120   4.837   4.464   3.826  0.0715 -0.0326  0.2045
 6248SOL     OW19121   4.356   6.238   2.181 -0.0654  1.1706 -0.0368
 6248SOL    HW119122   4.274   6.218   2.135  0.3950 -0.1383 -0.3246
 6248SOL    HW219123   4.418   6.260   2.111  0.4111  0.0036  0.0062
 6249SOL     OW19124   3.280   3.536   1.301 -0.3327  0.0553 -0.0873
 6249SOL    HW119125   3.185   3.541   1.315 -0.4173 -0.2297 -0.5323
 6249SOL    HW219126   3.304   3.448   1.330 -0.7339 -1.0682 -2.8538
 6250SOL     OW19127   5.749   5.712   2.688  0.2794 -0.2575 -0.3653
 6250SOL    HW119128   5.655   5.700   2.678  0.0138 -2.3519  2.9796
 6250SOL    HW219129   5.784   5.622   2.687  2.1408  0.4344 -0.8400
 6251SOL     OW19130   2.607   5.958   3.836 -0.3827  0.2691 -0.2867
 6251SOL    HW119131   2.618   5.974   3.743 -1.0655 -0.5707 -0.5225
 6251SOL    HW219132   2.696   5.963   3.872 -0.3411  3.1384 -0.5203
 6252SOL     OW19133   2.333   1.158   3.510 -0.2049 -0.3183  0.5382
 6252SOL    HW119134   2.401   1.123   3.567 -2.2521 -2.6964  1.7040
 6252SOL    HW219135   2.274   1.084   3.495 -2.7024  1.6816 -0.1544
 6253SOL     OW19136   2.385   6.005   6.248  0.5363  0.0081 -0.0498
 6253SOL    HW119137   2.305   6.044   6.211 -1.0083 -0.7258  2.2875
 6253SOL    HW219138   2.404   5.931   6.191 -1.8792 -1.2137  0.5730
 6254SOL     OW19139   4.954   1.879   2.455 -0.1075 -0.1659  0.1934
 6254SOL    HW119140   5.024   1.937   2.487 -0.9660  0.5623  0.8125
 6254SOL    HW219141   4.875   1.932   2.461 -0.8722 -1.3003  0.4420
 6255SOL     OW19142   4.997   2.266   1.897 -0.7692  0.0770 -0.1102
 6255SOL    HW119143   5.036   2.332   1.840 -0.1397 -1.9600 -2.1774
 6255SOL    HW219144   5.023   2.293   1.986  0.6876  1.7619 -0.9811
 6256SOL     OW19145   6.145   3.069   0.069 -0.4125  0.0165 -0.4816
 6256SOL    HW119146   6.197   2.988   0.071 -0.6599 -0.1747 -1.2683
 6256SOL    HW219147   6.160   3.104  -0.019 -1.2607  0.1944 -0.5564
 6257SOL     OW19148   5.851   1.992   3.442  0.4527  0.2751  0.0357
 6257SOL    HW119149   5.907   1.915   3.448  1.9643  1.4460  2.3540
 6257SOL    HW219150   5.768   1.965   3.482 -0.1690 -0.9813 -1.9579
 6258SOL     OW19151   1.201   2.960   4.302  0.3055  0.0446  0.5292
 6258SOL    HW119152   1.231   3.047   4.277 -0.1262  0.1269  0.2907
 6258SOL    HW219153   1.165   2.971   4.390 -0.2304  0.2196  0.2926
 6259SOL     OW19154   2.692   6.488   6.353  0.3006 -0.2429 -0.4678
 6259SOL    HW119155   2.725   6.399   6.349 -0.5172 -0.5334 -1.1617
 6259SOL    HW219156   2.642   6.498   6.272  0.5456  0.9102 -0.4918
 6260SOL     OW19157   1.032   3.573   2.094  0.4521 -0.3787 -0.6043
 6260SOL    HW119158   1.005   3.654   2.052  0.2996 -0.2332 -0.2341
 6260SOL    HW219159   1.125   3.584   2.110  0.3461 -0.0941 -0.1627
 6261SOL     OW19160   5.398   0.586   6.081  0.8139  0.6567 -0.3865
 6261SOL    HW119161   5.377   0.612   5.991 -0.6255  2.5619  0.4089
 6261SOL    HW219162   5.326   0.529   6.107  0.6220  1.0352 -0.0826
 6262SOL     OW19163   4.350   3.348   3.244 -0.1716 -0.3406 -0.6574
 6262SOL    HW119164   4.309   3.433   3.262 -1.4244 -1.0087 -0.2737
 6262SOL    HW219165   4.402   3.330   3.322 -0.3763 -0.2080 -0.4903
 6263SOL     OW19166   2.337   3.800   3.738 -0.2294 -0.4904  0.2220
 6263SOL    HW119167   2.274   3.730   3.748  0.6786 -1.2115  1.1589
 6263SOL    HW219168   2.414   3.771   3.787  0.3586  0.9292  0.2099
 6264SOL     OW19169   1.569   2.073   2.737  0.2481  0.5075  0.0810
 6264SOL    HW119170   1.549   2.118   2.819  0.7656  0.6729  0.1224
 6264SOL    HW219171   1.503   2.105   2.675 -0.1869  0.3257  0.4536
 6265SOL     OW19172   3.547   3.395   4.619 -0.6693  0.4469  0.2169
 6265SOL    HW119173   3.608   3.355   4.557  0.5469  1.3354  0.8010
 6265SOL    HW219174   3.533   3.327   4.685  1.0791  0.7829  0.9930
 6266SOL     OW19175   2.059   4.456   4.222  0.5537  0.2860 -0.1979
 6266SOL    HW119176   1.995   4.436   4.154  0.2206 -1.0203  0.4799
 6266SOL    HW219177   2.098   4.371   4.244 -0.4374  0.4105  2.3179
 6267SOL     OW19178   3.581   3.650   0.926 -0.0398  0.0018 -0.7231
 6267SOL    HW119179   3.621   3.737   0.929 -0.9662  0.4198 -0.1179
 6267SOL    HW219180   3.568   3.626   1.018 -1.9806  0.2763 -0.8840
 6268SOL     OW19181   3.535   1.769   5.215  0.8120 -0.3123 -0.2883
 6268SOL    HW119182   3.485   1.848   5.230  0.3957 -0.7545  0.7012
 6268SOL    HW219183   3.572   1.746   5.300  0.9518 -1.1678 -0.5622
 6269SOL     OW19184   0.093   5.620   4.618 -0.3223 -0.1796  0.6674
 6269SOL    HW119185   0.169   5.565   4.632  0.4030  0.5306 -0.3885
 6269SOL    HW219186   0.068   5.606   4.527 -1.4808 -0.4232  1.0034
 6270SOL     OW19187   1.602   6.766   6.732 -0.4311  0.4822 -0.1852
 6270SOL    HW119188   1.522   6.728   6.696 -0.6190  1.1729 -0.5160
 6270SOL    HW219189   1.572   6.819   6.805 -0.1507 -0.1399  0.3924
 6271SOL     OW19190   2.351   2.090   3.643  0.2216  0.5140 -0.1930
 6271SOL    HW119191   2.394   2.150   3.581  0.7872 -0.1485 -0.4598
 6271SOL    HW219192   2.267   2.069   3.601 -0.3128  1.6705  0.2431
 6272SOL     OW19193   5.009   2.150   0.054 -0.1270 -0.0045 -0.0791
 6272SOL    HW119194   5.055   2.093  -0.008  2.4116  3.4131 -1.6948
 6272SOL    HW219195   4.936   2.186   0.003  0.0484  0.4061 -0.0402
 6273SOL     OW19196   4.223   3.485   0.645 -0.1833 -0.2759 -0.3402
 6273SOL    HW119197   4.288   3.512   0.580 -0.1453 -0.9284 -0.5772
 6273SOL    HW219198   4.172   3.565   0.663  0.4232  0.1412 -0.4444
 6274SOL     OW19199   1.692   3.930   1.250  0.0751 -0.5583  0.7842
 6274SOL    HW119200   1.689   3.991   1.323 -1.7437 -0.3832  0.6075
 6274SOL    HW219201   1.769   3.956   1.199 -1.5205  2.7189 -0.1939
 6275SOL     OW19202   0.229   1.691   5.124  0.0414  0.2046 -0.1191
 6275SOL    HW119203   0.183   1.771   5.147 -0.0330 -0.3638  1.9118
 6275SOL    HW219204   0.251   1.650   5.208 -0.3285 -2.1414 -1.0664
 6276SOL     OW19205   1.605   1.630   1.217 -0.3067 -0.0713  0.3799
 6276SOL    HW119206   1.685   1.660   1.260  0.8662  1.7512 -2.7382
 6276SOL    HW219207   1.537   1.690   1.248  0.4593  1.0507 -0.0635
 6277SOL     OW19208   0.595   6.364   1.050 -0.2599 -0.4402  0.4567
 6277SOL    HW119209   0.686   6.342   1.031  0.8003  2.0103  2.1045
 6277SOL    HW219210   0.580   6.447   1.003 -1.5106 -0.6054  0.5182
 6278SOL     OW19211   0.658   0.597   5.281  0.3409 -0.0934  0.9788
 6278SOL    HW119212   0.670   0.513   5.326 -0.0856 -0.3968  0.5418
 6278SOL    HW219213   0.679   0.578   5.190 -2.3626 -0.4290  0.3514
 6279SOL     OW19214   3.424   6.785   4.995 -0.2829  0.3300  0.6702
 6279SOL    HW119215   3.424   6.689   4.999 -0.4765  0.3560  1.8150
 6279SOL    HW219216   3.513   6.810   5.019  0.7673  0.4050 -2.8161
 6280SOL     OW19217   0.704   1.166   5.697 -0.6952 -0.7047  0.8599
 6280SOL    HW119218   0.610   1.159   5.686 -1.2193  1.4723  3.2126
 6280SOL    HW219219   0.726   1.096   5.759 -0.1269 -3.2027 -1.8970
 6281SOL     OW19220   0.948   3.838   5.065 -0.0077 -0.1926 -0.2057
 6281SOL    HW119221   1.016   3.831   4.997 -0.0557  0.5692 -0.3346
 6281SOL    HW219222   0.866   3.836   5.016 -0.0260  2.4399 -0.3989
 6282SOL     OW19223   6.192   3.409   6.529  0.2719 -0.7937  0.0110
 6282SOL    HW119224   6.221   3.498   6.507  1.7609 -1.4675 -0.9043
 6282SOL    HW219225   6.184   3.365   6.445  2.5332 -2.3903  0.5551
 6283SOL     OW19226   1.329   6.078   2.267  0.2862 -0.1777  0.5886
 6283SOL    HW119227   1.403   6.137   2.252  0.6690 -0.6564  0.6042
 6283SOL    HW219228   1.350   5.999   2.218  0.0352 -0.5222  1.0291
 6284SOL     OW19229   3.881   1.460   3.144  0.4097 -0.5564 -0.4930
 6284SOL    HW119230   3.923   1.501   3.068  1.1014 -1.6105 -0.7127
 6284SOL    HW219231   3.791   1.493   3.142  1.0714  1.4043 -0.2810
 6285SOL     OW19232   3.939   2.477   6.229 -0.0778  0.0190  0.0919
 6285SOL    HW119233   3.906   2.556   6.186  1.1351  0.1650 -0.6156
 6285SOL    HW219234   3.902   2.405   6.178 -0.4775  0.1392  0.2049
 6286SOL     OW19235   2.231   0.441   2.979  0.0623  0.2881 -0.2409
 6286SOL    HW119236   2.184   0.384   2.918 -0.3811  0.2996  0.0870
 6286SOL    HW219237   2.163   0.496   3.018  0.2780 -0.0150  0.5843
 6287SOL     OW19238   2.667   1.246   0.068 -0.1183  0.1788 -0.0555
 6287SOL    HW119239   2.603   1.266  -0.000 -0.2855 -0.6487 -0.1451
 6287SOL    HW219240   2.745   1.295   0.042 -1.2184  2.6962  1.0088
 6288SOL     OW19241   5.197   3.085   5.335  0.0118 -0.7932 -0.4361
 6288SOL    HW119242   5.163   3.173   5.318  0.1139 -0.3993  1.2345
 6288SOL    HW219243   5.118   3.030   5.336 -0.0362 -0.7782 -1.6589
 6289SOL     OW19244   5.578   6.084   3.289 -0.6648 -0.2088  0.6477
 6289SOL    HW119245   5.619   6.065   3.205  1.0462  1.3039  1.0671
 6289SOL    HW219246   5.489   6.111   3.267 -0.5798 -0.8411 -0.5611
 6290SOL     OW19247   2.452   6.400   2.726 -0.1370  0.2363 -0.3825
 6290SOL    HW119248   2.397   6.475   2.703 -1.0660  0.0797  1.1954
 6290SOL    HW219249   2.396   6.345   2.781  1.7503  0.3991  1.8836
 6291SOL     OW19250   6.828   1.996   0.722  0.0772 -0.0300 -0.6399
 6291SOL    HW119251   6.841   1.921   0.664 -1.3628 -1.0530  0.2746
 6291SOL    HW219252   6.759   2.047   0.681 -0.5653 -0.4695 -0.1400
 6292SOL     OW19253   6.574   0.986   5.688 -0.3026  0.4266  0.4608
 6292SOL    HW119254   6.503   0.927   5.717  0.5381 -2.6070 -2.9384
 6292SOL    HW219255   6.530   1.053   5.636 -0.8833 -1.9372 -2.3938
 6293SOL     OW19256   2.470   5.856   1.330  0.0829 -0.1794 -0.4485
 6293SOL    HW119257   2.518   5.778   1.301 -0.9255 -0.6102 -1.0103
 6293SOL    HW219258   2.538   5.918   1.355  0.9063 -1.3989  0.4551
 6294SOL     OW19259   3.415   5.342   2.053 -0.4306 -0.1493  0.1893
 6294SOL    HW119260   3.323   5.346   2.030 -0.0747  1.0574 -1.1568
 6294SOL    HW219261   3.448   5.264   2.008 -0.7263 -0.4349  0.4613
 6295SOL     OW19262   3.098   2.372   6.277  0.1228 -0.2376 -0.1275
 6295SOL    HW119263   3.055   2.287   6.280 -0.2575 -0.0480 -0.0912
 6295SOL    HW219264   3.029   2.432   6.249  0.3471  0.0825  0.0016
 6296SOL     OW19265   2.086   1.966   5.805  0.0830 -0.4384 -0.3068
 6296SOL    HW119266   2.012   1.911   5.830 -0.2043  0.2519  0.4079
 6296SOL    HW219267   2.149   1.958   5.876  0.1061  0.0238 -0.2686
 6297SOL     OW19268   1.344   5.758   3.608  0.0396 -0.1947 -0.0587
 6297SOL    HW119269   1.317   5.699   3.537 -2.5922  0.3115  0.4362
 6297SOL    HW219270   1.392   5.828   3.564 -1.4792  0.0672 -1.3885
 6298SOL     OW19271   4.936   4.532   2.970  1.0363 -0.7388  0.2203
 6298SOL    HW119272   5.020   4.565   2.940 -0.4755  2.8919 -0.4768
 6298SOL    HW219273   4.927   4.566   3.059 -0.4479  0.6034 -0.4006
 6299SOL     OW19274   0.636   2.720   0.358  0.0709  0.1879  0.7396
 6299SOL    HW119275   0.648   2.815   0.362  0.9840  0.2741 -1.9689
 6299SOL    HW219276   0.546   2.709   0.328  0.2218  0.2603  0.2400
 6300SOL     OW19277   2.633   0.999   0.830  0.1190  0.5057  0.1708
 6300SOL    HW119278   2.593   1.033   0.750 -0.1293 -1.7978 -0.7710
 6300SOL    HW219279   2.727   1.006   0.815  0.0754 -0.0782 -0.4181
 6301SOL     OW19280   5.385   6.708   2.876 -0.6729  0.1915  0.2738
 6301SOL    HW119281   5.312   6.681   2.820  0.5478 -2.4117 -0.2389
 6301SOL    HW219282   5.460   6.715   2.816  0.1096 -0.0736  1.1998
 6302SOL     OW19283   5.667   5.078   2.803  0.2803 -0.0527  0.0816
 6302SOL    HW119284   5.696   5.076   2.712  0.7379  0.2561  0.2201
 6302SOL    HW219285   5.669   4.987   2.831 -1.7022 -0.4229 -0.7857
 6303SOL     OW19286   5.033   5.934   1.906 -0.1764 -0.0171  0.8059
 6303SOL    HW119287   4.981   5.928   1.986  0.3527 -0.0497  1.1537
 6303SOL    HW219288   5.058   6.026   1.900  0.1748 -0.1017  0.9341
 6304SOL     OW19289   5.633   6.364   0.368 -0.2766 -0.4887 -0.1280
 6304SOL    HW119290   5.704   6.415   0.407 -1.5643 -1.0183  3.2905
 6304SOL    HW219291   5.571   6.430   0.337 -0.0215  0.0239  0.4136
 6305SOL     OW19292   1.293   0.594   5.104 -0.3292  0.1153 -0.7065
 6305SOL    HW119293   1.284   0.614   5.197 -3.7442 -4.8242  0.4181
 6305SOL    HW219294   1.384   0.617   5.084  0.8458  0.7403  3.9836
 6306SOL     OW19295   1.347   3.504   4.045  0.1900  0.1677 -0.3462
 6306SOL    HW119296   1.400   3.583   4.057 -0.2969  0.3680  0.5805
 6306SOL    HW219297   1.318   3.508   3.954 -1.4002  2.0760  0.1766
 6307SOL     OW19298   1.323   5.718   4.610  0.6929 -0.3901 -0.1467
 6307SOL    HW119299   1.383   5.653   4.647  0.8645 -0.8369 -1.1711
 6307SOL    HW219300   1.380   5.779   4.563  0.2979 -1.8921 -2.7815
 6308SOL     OW19301   2.603   1.733   2.927 -0.4472 -0.2328 -0.1152
 6308SOL    HW119302   2.563   1.663   2.876 -2.4695  0.2201  0.7403
 6308SOL    HW219303   2.609   1.698   3.016 -1.7732  0.7332  0.3949
 6309SOL     OW19304   6.144   0.586   3.631 -0.3833 -0.2190  0.5524
 6309SOL    HW119305   6.126   0.661   3.688  2.0831  1.4648 -0.7230
 6309SOL    HW219306   6.127   0.618   3.543  2.4458 -0.4860 -0.1706
 6310SOL     OW19307   6.440   0.310   6.817  0.1058 -0.8517  0.3207
 6310SOL    HW119308   6.533   0.285   6.815  0.1365 -0.7378 -0.9299
 6310SOL    HW219309   6.406   0.270   6.897  1.0627 -1.5253  0.4158
 6311SOL     OW19310   4.883   1.960   3.295 -0.1669  0.1481 -0.1247
 6311SOL    HW119311   4.967   1.994   3.324  0.1676 -0.7765  0.0101
 6311SOL    HW219312   4.890   1.956   3.199  0.2686 -0.7474 -0.0611
 6312SOL     OW19313   1.095   6.819   2.892  0.0887  0.0096  0.2984
 6312SOL    HW119314   1.002   6.841   2.889 -0.2088 -1.2115 -0.2770
 6312SOL    HW219315   1.099   6.729   2.860  1.1643 -0.8888  2.7072
 6313SOL     OW19316   0.952   2.845   0.771  0.4175 -0.1975  0.2067
 6313SOL    HW119317   0.862   2.823   0.798 -0.0390  1.6196  0.2869
 6313SOL    HW219318   0.979   2.771   0.718 -1.5749 -0.2919 -0.7840
 6314SOL     OW19319   1.289   3.636   1.680  0.4678  0.0823 -0.0070
 6314SOL    HW119320   1.200   3.656   1.654  0.9862 -0.3324 -2.2556
 6314SOL    HW219321   1.344   3.664   1.607  1.7584 -3.8341 -0.8408
 6315SOL     OW19322   5.167   1.348   5.596  0.3600  0.1074 -0.2607
 6315SOL    HW119323   5.255   1.310   5.600 -0.3917 -1.6191  1.4136
 6315SOL    HW219324   5.181   1.443   5.599  2.1603 -0.1401  0.2300
 6316SOL     OW19325   2.305   0.113   2.283  0.1118  0.2020  0.0293
 6316SOL    HW119326   2.331   0.202   2.307  0.6695 -0.0498  0.3646
 6316SOL    HW219327   2.321   0.061   2.361 -0.2077 -0.1995 -0.1664
 6317SOL     OW19328   1.363   3.510   5.081 -0.2583  0.1079  0.1457
 6317SOL    HW119329   1.405   3.596   5.091 -1.2303  0.5182  0.8294
 6317SOL    HW219330   1.407   3.455   5.146 -0.9684  0.6256  1.0929
 6318SOL     OW19331   3.021   1.575   0.150 -0.1559 -0.2565  0.4474
 6318SOL    HW119332   3.094   1.629   0.178  0.4542 -0.4410 -0.7168
 6318SOL    HW219333   3.027   1.496   0.204  0.3779 -0.1833  0.4941
 6319SOL     OW19334   1.446   1.012   0.200  0.3018  0.1784  0.3272
 6319SOL    HW119335   1.451   1.028   0.106  2.4252  0.9151  0.4991
 6319SOL    HW219336   1.515   1.068   0.237 -0.8944  0.3957  2.3950
 6320SOL     OW19337   0.078   5.473   1.965 -0.7607 -0.1677 -0.0946
 6320SOL    HW119338   0.018   5.524   1.911  0.0059 -1.5847 -2.4258
 6320SOL    HW219339   0.161   5.520   1.959 -0.7291 -0.2069  0.0379
 6321SOL     OW19340   4.860   0.506   6.384 -0.5326 -0.2403 -0.3624
 6321SOL    HW119341   4.831   0.595   6.364  1.2664  0.4602  0.0030
 6321SOL    HW219342   4.892   0.472   6.301  1.3930  0.5184  0.0100
 6322SOL     OW19343   4.353   0.217   1.986 -0.3913  0.5407 -0.0679
 6322SOL    HW119344   4.342   0.308   1.959 -1.7058  0.1329 -0.9819
 6322SOL    HW219345   4.290   0.168   1.933 -1.6199 -0.5698  2.2457
 6323SOL     OW19346   2.468   6.399   0.219  0.1883 -0.2687 -0.6582
 6323SOL    HW119347   2.401   6.423   0.155  1.0301  0.1018 -1.4230
 6323SOL    HW219348   2.419   6.372   0.296 -0.8582  3.6395  0.2198
 6324SOL     OW19349   0.604   1.901   0.348  0.0016 -0.3880  0.1942
 6324SOL    HW119350   0.638   1.864   0.429  2.9198  1.1460 -0.2112
 6324SOL    HW219351   0.570   1.987   0.373 -1.3824 -0.8862  0.1419
 6325SOL     OW19352   1.037   0.555   4.057  0.5905  0.0789 -0.0705
 6325SOL    HW119353   0.954   0.512   4.077  0.0399  0.2515 -1.7902
 6325SOL    HW219354   1.084   0.493   4.002  0.4767  0.9839 -1.2384
 6326SOL     OW19355   0.577   1.111   6.805 -0.7792  0.4902  0.2954
 6326SOL    HW119356   0.549   1.111   6.896 -0.1162 -1.1065  0.5304
 6326SOL    HW219357   0.660   1.159   6.805  0.0536 -0.8885  0.8485
 6327SOL     OW19358   2.028   5.402   4.899  0.3505 -0.2124 -0.6653
 6327SOL    HW119359   1.989   5.410   4.986  0.7428 -0.1415 -0.4929
 6327SOL    HW219360   2.047   5.492   4.873 -1.4815 -0.0691 -1.6288
 6328SOL     OW19361   1.532   1.950   1.028 -0.1203 -0.5855 -0.0220
 6328SOL    HW119362   1.559   1.956   1.120 -2.2897 -1.7447  0.7758
 6328SOL    HW219363   1.473   2.024   1.016  0.3749 -0.2771 -0.5821
 6329SOL     OW19364   5.394   5.110   3.079 -0.2601 -0.1405 -0.2339
 6329SOL    HW119365   5.425   5.169   3.010 -0.0069  0.5592  0.4541
 6329SOL    HW219366   5.381   5.026   3.036  1.9503 -0.3028 -0.7059
 6330SOL     OW19367   4.347   0.557   3.262  0.4229  0.0193 -0.4371
 6330SOL    HW119368   4.385   0.644   3.262 -1.3774  0.8638  0.4719
 6330SOL    HW219369   4.361   0.524   3.174  0.8558  1.3646 -0.8846
 6331SOL     OW19370   4.745   5.884   5.260 -0.4341  0.2688 -0.1352
 6331SOL    HW119371   4.778   5.802   5.225  1.2665  1.2343 -0.9453
 6331SOL    HW219372   4.725   5.865   5.352 -4.4113 -2.1534 -1.2910
 6332SOL     OW19373   1.773   6.731   4.178 -0.1833 -0.0545 -0.0810
 6332SOL    HW119374   1.833   6.658   4.161  1.4547  1.2043  0.0430
 6332SOL    HW219375   1.728   6.706   4.258 -0.0326 -1.1648 -0.3242
 6333SOL     OW19376   1.079   6.528   2.886 -0.2302  0.0754 -0.7414
 6333SOL    HW119377   1.015   6.502   2.952 -0.2106  0.4587 -0.5658
 6333SOL    HW219378   1.161   6.490   2.916 -0.2766  0.0175 -0.6872
 6334SOL     OW19379   3.586   1.042   5.601 -0.0893 -0.4568 -0.4683
 6334SOL    HW119380   3.661   1.079   5.556  1.1060 -1.3320  0.7331
 6334SOL    HW219381   3.621   0.969   5.652 -1.2038  0.7835  2.3205
 6335SOL     OW19382   4.904   0.063   5.874 -0.2745  0.8286 -0.2789
 6335SOL    HW119383   4.894   0.001   5.802 -1.1425  1.4142 -0.6746
 6335SOL    HW219384   4.925   0.146   5.832  2.4375  0.5419  0.3118
 6336SOL     OW19385   0.348   0.141   0.917  0.2071  0.7855  0.2359
 6336SOL    HW119386   0.303   0.068   0.876 -0.0535  0.6950  0.6764
 6336SOL    HW219387   0.347   0.210   0.851  2.6023 -0.3658 -1.1678
 6337SOL     OW19388   3.825   3.336   3.792  0.1942  0.3054 -0.2597
 6337SOL    HW119389   3.842   3.424   3.824  2.8018 -0.3993  0.6273
 6337SOL    HW219390   3.747   3.307   3.840 -1.0556  2.2703 -1.0092
 6338SOL     OW19391   1.296   5.128   3.437  1.2877 -0.1560 -0.7396
 6338SOL    HW119392   1.290   5.034   3.452  1.2271 -0.1106 -0.4626
 6338SOL    HW219393   1.387   5.151   3.459  1.4538 -0.2337 -1.3177
 6339SOL     OW19394   5.378   6.823   1.357 -0.0298 -0.1514 -0.2166
 6339SOL    HW119395   5.379   6.902   1.411  0.1757 -0.4257  0.1828
 6339SOL    HW219396   5.425   6.758   1.409 -1.0766 -0.8317 -0.0943
 6340SOL     OW19397   6.538   3.315   0.562  0.4994  0.1399 -1.0576
 6340SOL    HW119398   6.450   3.279   0.574  0.7151 -0.3770 -0.9754
 6340SOL    HW219399   6.524   3.401   0.523 -0.1000  0.7647  0.4971
 6341SOL     OW19400   3.992   0.710   3.710  0.1744  0.2920 -0.0594
 6341SOL    HW119401   4.051   0.731   3.638 -0.5301 -1.1761 -1.1200
 6341SOL    HW219402   3.941   0.636   3.678 -3.0562  2.1700  0.3473
 6342SOL     OW19403   2.679   6.489   3.935 -0.2480 -0.3321  0.2827
 6342SOL    HW119404   2.669   6.394   3.935 -1.2148 -0.2454 -0.4358
 6342SOL    HW219405   2.663   6.515   4.026  3.5315 -1.1346  1.3611
 6343SOL     OW19406   3.476   0.472   5.326  0.1535 -0.2306 -0.1372
 6343SOL    HW119407   3.487   0.566   5.344  1.1087  0.2545 -2.7811
 6343SOL    HW219408   3.401   0.468   5.267 -0.0633 -1.1844  0.1934
 6344SOL     OW19409   6.593   0.232   6.082 -0.1450 -0.4513 -0.5888
 6344SOL    HW119410   6.578   0.171   6.154  0.3665 -1.1566 -1.0653
 6344SOL    HW219411   6.617   0.176   6.008  1.3478  0.3831 -0.7681
 6345SOL     OW19412   5.284   5.010   3.790 -0.3103 -0.4837  0.0132
 6345SOL    HW119413   5.260   4.995   3.698  0.6560  0.1217 -0.3557
 6345SOL    HW219414   5.379   5.019   3.789 -0.5009  3.0477  0.4964
 6346SOL     OW19415   0.071   3.730   2.079 -0.0002  0.1412 -0.0724
 6346SOL    HW119416   0.140   3.739   2.145  1.7446  0.7124 -1.8751
 6346SOL    HW219417   0.044   3.638   2.084 -0.1694  0.2562  1.6292
 6347SOL     OW19418   0.248   0.244   1.582 -0.1037 -0.1711 -0.5873
 6347SOL    HW119419   0.335   0.203   1.580 -0.0370 -0.0165 -1.5551
 6347SOL    HW219420   0.262   0.331   1.543 -0.0783  1.1751  2.1971
 6348SOL     OW19421   4.510   2.043   1.066 -0.2784  0.0867  0.4163
 6348SOL    HW119422   4.456   2.014   0.993 -1.9781  1.3966  1.0989
 6348SOL    HW219423   4.461   2.114   1.106  1.7981  1.0975  1.3134
 6349SOL     OW19424   4.150   3.322   0.052  0.0642 -0.0638  0.4318
 6349SOL    HW119425   4.152   3.407   0.009  0.7241  0.5069  1.5336
 6349SOL    HW219426   4.081   3.273   0.007 -1.1231  1.4584  0.5107
 6350SOL     OW19427   6.024   2.726   0.405 -0.6892 -0.1003 -0.0817
 6350SOL    HW119428   5.976   2.647   0.378  1.1361 -1.0104 -0.8146
 6350SOL    HW219429   6.037   2.775   0.324  1.3602 -0.8838 -0.2666
 6351SOL     OW19430   0.596   1.466   3.034  0.2144 -0.3539  0.3393
 6351SOL    HW119431   0.563   1.383   3.068  0.3193 -0.3420  0.4739
 6351SOL    HW219432   0.622   1.447   2.945 -2.2114  0.1638 -0.5529
 6352SOL     OW19433   3.520   5.820   6.282  0.5351  0.0542  0.5162
 6352SOL    HW119434   3.581   5.862   6.221 -0.6120  0.9939 -0.0455
 6352SOL    HW219435   3.509   5.885   6.352  0.1243 -0.0590  0.5589
 6353SOL     OW19436   6.278   0.219   0.562 -0.1213 -0.1995 -0.1962
 6353SOL    HW119437   6.223   0.178   0.628 -0.5774 -0.0712 -0.4922
 6353SOL    HW219438   6.296   0.306   0.597 -1.4091  0.3385 -0.7953
 6354SOL     OW19439   4.851   5.640   0.577 -0.2006  0.0383 -0.2987
 6354SOL    HW119440   4.839   5.709   0.512 -0.2674  0.0214 -0.3038
 6354SOL    HW219441   4.796   5.568   0.546 -2.0212  0.8256  0.9662
 6355SOL     OW19442   6.143   0.819   5.485  0.0124 -0.2682 -0.1439
 6355SOL    HW119443   6.190   0.896   5.452  1.5264 -0.9949  0.2628
 6355SOL    HW219444   6.054   0.830   5.451 -0.0682  2.1116  0.6316
 6356SOL     OW19445   6.742   2.097   4.909 -0.0361 -0.3303 -0.4701
 6356SOL    HW119446   6.836   2.078   4.910 -0.2037 -1.2237  0.3668
 6356SOL    HW219447   6.716   2.082   4.818  0.4712 -1.0085 -0.5164
 6357SOL     OW19448   0.233   5.951   6.753 -0.0397 -0.4013 -0.3167
 6357SOL    HW119449   0.217   5.884   6.687 -0.6010  0.1479 -0.7476
 6357SOL    HW219450   0.329   5.956   6.760  0.0724 -2.8483  1.3826
 6358SOL     OW19451   0.735   0.808   0.485  0.0098 -0.5786  0.0374
 6358SOL    HW119452   0.803   0.778   0.545  1.5640  0.6073 -1.0336
 6358SOL    HW219453   0.737   0.745   0.412 -0.2604 -0.7150  0.1466
 6359SOL     OW19454   6.639   0.460   4.337  0.3896  0.8149  0.8077
 6359SOL    HW119455   6.562   0.417   4.373  0.5986 -1.3529 -1.1043
 6359SOL    HW219456   6.690   0.487   4.413 -1.9569  1.9011  2.1204
 6360SOL     OW19457   1.185   1.552   6.524 -0.0604  0.5309 -0.4289
 6360SOL    HW119458   1.103   1.541   6.476  1.1544 -1.8006 -2.1871
 6360SOL    HW219459   1.187   1.479   6.586  0.2259  1.1964  0.3724
 6361SOL     OW19460   2.050   6.391   2.891 -0.3771  0.0143  0.4679
 6361SOL    HW119461   2.024   6.367   2.802  0.9742  2.8625 -0.8083
 6361SOL    HW219462   2.134   6.347   2.905 -0.2102  0.1809  0.0053
 6362SOL     OW19463   5.638   0.431   4.349  0.1541  0.4618 -0.1938
 6362SOL    HW119464   5.597   0.433   4.435  0.2809 -0.9951 -0.0798
 6362SOL    HW219465   5.728   0.404   4.365  0.8563  2.3945 -0.5763
 6363SOL     OW19466   3.181   1.620   4.581 -0.0795 -0.6793 -0.1191
 6363SOL    HW119467   3.272   1.591   4.577 -0.5893 -2.7474  1.4809
 6363SOL    HW219468   3.187   1.715   4.593  1.8785 -0.8026  0.2391
 6364SOL     OW19469   5.264   6.183   0.174 -0.1697 -0.0739 -0.9275
 6364SOL    HW119470   5.195   6.122   0.201  1.2546 -0.8017  1.3435
 6364SOL    HW219471   5.261   6.253   0.238  0.4926  0.4516 -1.4513
 6365SOL     OW19472   0.296   6.085   5.456  0.4914  0.3109 -0.5717
 6365SOL    HW119473   0.390   6.071   5.470  0.0732 -0.4824  2.0190
 6365SOL    HW219474   0.277   6.165   5.505 -0.2365  0.2845 -0.8077
 6366SOL     OW19475   1.131   5.606   2.370 -0.1805  0.2377 -0.2588
 6366SOL    HW119476   1.089   5.530   2.410 -0.5580  0.3140 -0.5102
 6366SOL    HW219477   1.218   5.573   2.344  0.2993  0.3388  1.1217
 6367SOL     OW19478   2.479   5.610   1.516  0.0966  0.2202 -0.3213
 6367SOL    HW119479   2.424   5.610   1.438  0.6453 -0.7107 -0.7231
 6367SOL    HW219480   2.552   5.551   1.495  0.0536 -0.3585  1.0350
 6368SOL     OW19481   3.937   4.791   2.929 -0.1272 -0.4471 -0.3410
 6368SOL    HW119482   3.919   4.846   3.005  1.1483 -0.1626 -0.2189
 6368SOL    HW219483   3.857   4.793   2.878 -1.4303 -1.5633  1.5417
 6369SOL     OW19484   5.117   0.477   3.982 -0.1803 -0.3353 -0.1279
 6369SOL    HW119485   5.043   0.494   4.039  0.0012  0.6443 -0.1791
 6369SOL    HW219486   5.165   0.560   3.977  0.9545 -0.9569 -0.0422
 6370SOL     OW19487   3.029   1.250   0.541  0.1427 -0.2461 -0.6613
 6370SOL    HW119488   3.081   1.235   0.621 -1.3532 -1.4188  0.1507
 6370SOL    HW219489   3.006   1.162   0.512  0.0941  0.1993 -2.0335
 6371SOL     OW19490   6.681   2.110   3.596  0.1487 -0.5861 -0.8141
 6371SOL    HW119491   6.728   2.069   3.523 -0.9399  1.1144 -2.5674
 6371SOL    HW219492   6.749   2.161   3.642  0.5278 -0.2332 -1.7398
 6372SOL     OW19493   0.458   5.462   3.384 -0.3697  0.2415 -0.1173
 6372SOL    HW119494   0.490   5.492   3.299 -1.0323  0.5067 -0.2828
 6372SOL    HW219495   0.520   5.394   3.411  0.7625  1.2791 -0.0583
 6373SOL     OW19496   3.564   2.688   2.354  0.0572 -0.4274 -0.6411
 6373SOL    HW119497   3.469   2.695   2.358  0.1245  0.3929 -0.3045
 6373SOL    HW219498   3.595   2.734   2.432  0.7453 -0.2805 -0.9920
 6374SOL     OW19499   2.612   4.740   5.397 -0.5265 -0.5861  0.2680
 6374SOL    HW119500   2.593   4.753   5.304  0.0705  3.3232  0.5421
 6374SOL    HW219501   2.706   4.752   5.404 -0.7928  0.8895  1.5767
 6375SOL     OW19502   3.462   4.717   3.186  0.0098  0.2425 -0.2329
 6375SOL    HW119503   3.391   4.765   3.229 -1.6903 -0.6788 -1.8547
 6375SOL    HW219504   3.463   4.631   3.230  0.5691  0.4594  0.1968
 6376SOL     OW19505   2.906   6.636   3.906 -0.3847 -0.6582 -0.0060
 6376SOL    HW119506   2.888   6.683   3.825 -0.2762 -2.5358 -1.1675
 6376SOL    HW219507   2.835   6.572   3.913 -0.6282 -0.2757  1.6243
 6377SOL     OW19508   0.859   2.798   1.904  0.4947  0.2869 -0.3180
 6377SOL    HW119509   0.837   2.822   1.814 -0.8767 -0.8214 -0.3046
 6377SOL    HW219510   0.792   2.840   1.957  1.0605  0.5998  0.1638
 6378SOL     OW19511   5.652   6.617   5.628 -0.0883  0.4060  0.4638
 6378SOL    HW119512   5.557   6.622   5.627 -0.0635  1.6137  1.2384
 6378SOL    HW219513   5.672   6.527   5.655 -1.0255  0.4443  1.3451
 6379SOL     OW19514   3.148   3.285   4.690 -0.0990  0.5422  0.2548
 6379SOL    HW119515   3.175   3.369   4.727 -1.3894  0.4005  1.6287
 6379SOL    HW219516   3.227   3.231   4.694  0.7509  1.6745 -0.6734
 6380SOL     OW19517   6.253   3.046   0.927  0.0424 -0.3715  0.5483
 6380SOL    HW119518   6.284   3.133   0.953  0.0106 -0.4448  0.8353
 6380SOL    HW219519   6.162   3.059   0.901  0.4216 -0.0839 -0.6776
 6381SOL     OW19520   5.104   3.251   3.730 -0.3281  0.5875  0.4216
 6381SOL    HW119521   5.182   3.279   3.778  1.7072  0.8714 -2.7853
 6381SOL    HW219522   5.076   3.172   3.776  1.2054  1.0495  2.3071
 6382SOL     OW19523   0.737   3.086   2.644  0.0491 -0.1047  0.5848
 6382SOL    HW119524   0.832   3.087   2.656  0.1099  0.2057  0.0948
 6382SOL    HW219525   0.724   3.119   2.555 -0.6149  1.7038  1.3049
 6383SOL     OW19526   4.462   1.087   6.083  0.2861 -0.2983 -0.4855
 6383SOL    HW119527   4.531   1.107   6.146 -0.3499  1.2224 -0.2265
 6383SOL    HW219528   4.440   1.171   6.045 -1.8422 -0.6551 -0.1330
 6384SOL     OW19529   6.571   2.051   5.109 -0.1979 -0.3653  0.9846
 6384SOL    HW119530   6.626   2.085   5.038  1.0244  0.0121  2.0722
 6384SOL    HW219531   6.482   2.075   5.084  0.2150 -0.1574 -0.3662
 6385SOL     OW19532   1.460   0.799   1.676  0.0908 -0.2945  0.0475
 6385SOL    HW119533   1.519   0.847   1.733  0.9054 -0.7423 -0.4032
 6385SOL    HW219534   1.381   0.786   1.729  0.5950 -0.1562  0.8463
 6386SOL     OW19535   0.087   2.824   4.148 -0.4046  0.2722 -0.0674
 6386SOL    HW119536   0.031   2.826   4.225  0.4134  0.5049  0.5340
 6386SOL    HW219537   0.158   2.885   4.168  0.3387 -0.3900 -0.5966
 6387SOL     OW19538   0.455   6.845   2.846  0.5382  0.4851  0.2825
 6387SOL    HW119539   0.416   6.909   2.906 -2.2487 -0.5856 -0.2157
 6387SOL    HW219540   0.403   6.853   2.766  1.7598 -0.6738 -0.6697
 6388SOL     OW19541   1.889   1.389   5.587  0.1163  0.0023  0.5857
 6388SOL    HW119542   1.845   1.432   5.513  0.3175  1.1572  1.1256
 6388SOL    HW219543   1.874   1.295   5.571 -0.0505  0.2327 -0.7847
 6389SOL     OW19544   4.909   1.275   0.835 -0.0435  0.1457 -0.3971
 6389SOL    HW119545   4.974   1.212   0.867  2.3407  2.2418 -0.7414
 6389SOL    HW219546   4.921   1.275   0.740  0.6729  1.7242 -0.3365
 6390SOL     OW19547   4.453   4.457   0.934  0.4189  0.4153  0.1322
 6390SOL    HW119548   4.410   4.372   0.922 -0.8050  0.8634  1.1083
 6390SOL    HW219549   4.538   4.436   0.971 -0.0149 -0.3800  0.7115
 6391SOL     OW19550   1.529   1.567   6.132  0.1177  0.1778 -0.0335
 6391SOL    HW119551   1.497   1.657   6.141  0.1241  0.1301  0.5102
 6391SOL    HW219552   1.566   1.563   6.044  1.4947  1.1550  0.4634
 6392SOL     OW19553   4.898   0.434   3.054  0.3472  0.0250  0.1247
 6392SOL    HW119554   4.979   0.414   3.100 -0.1982  0.0446  1.1301
 6392SOL    HW219555   4.911   0.523   3.020  1.1516 -0.3828 -0.6919
 6393SOL     OW19556   6.405   0.726   5.967 -0.4491  0.5512 -0.6582
 6393SOL    HW119557   6.497   0.704   5.955 -0.4873 -0.6725  1.0337
 6393SOL    HW219558   6.405   0.821   5.979  0.8070  0.4179  0.7863
 6394SOL     OW19559   1.118   2.896   3.538 -0.6522  0.3156 -0.3796
 6394SOL    HW119560   1.106   2.824   3.600 -0.6598 -1.5971 -2.4717
 6394SOL    HW219561   1.202   2.935   3.562 -0.8914 -0.0225  1.1112
 6395SOL     OW19562   4.796   2.108   6.433  0.0990 -0.0036 -0.6037
 6395SOL    HW119563   4.712   2.154   6.436  0.4240  0.5782 -0.3311
 6395SOL    HW219564   4.775   2.018   6.460 -0.5057  0.0269 -0.9465
 6396SOL     OW19565   5.185   0.370   6.762 -0.0074  0.0702 -0.2442
 6396SOL    HW119566   5.118   0.394   6.698 -1.1922 -1.4767  0.3500
 6396SOL    HW219567   5.193   0.275   6.754 -1.0997 -0.3900  2.6610
 6397SOL     OW19568   0.437   6.207   4.654  0.5014 -0.4413  0.1384
 6397SOL    HW119569   0.424   6.119   4.617 -0.2359 -0.6753  0.9380
 6397SOL    HW219570   0.359   6.224   4.706  0.6834  0.6572  0.0846
 6398SOL     OW19571   0.593   1.992   1.165  0.1479  0.0033 -0.7599
 6398SOL    HW119572   0.677   2.000   1.210 -0.3723  0.2836  0.1748
 6398SOL    HW219573   0.534   1.955   1.230 -1.1866  2.4894 -0.4328
 6399SOL     OW19574   5.556   5.648   3.859  0.1181  0.0675  0.4797
 6399SOL    HW119575   5.560   5.623   3.951 -1.8384  0.1669  0.6356
 6399SOL    HW219576   5.541   5.743   3.861  2.8370  0.6131 -0.0455
 6400SOL     OW19577   2.061   3.524   5.734 -0.4895  0.0986 -0.3625
 6400SOL    HW119578   2.009   3.516   5.654 -0.9653 -0.5331  0.0020
 6400SOL    HW219579   2.070   3.434   5.766 -2.2944  0.5192  1.5628
 6401SOL     OW19580   4.922   4.084   5.793  0.1963 -0.4335  0.1853
 6401SOL    HW119581   4.912   4.129   5.709 -0.0127 -1.1009 -0.1534
 6401SOL    HW219582   4.958   4.151   5.852 -1.6068  0.6433  0.1307
 6402SOL     OW19583   0.063   3.301   0.222  0.8228  0.0070  0.4759
 6402SOL    HW119584  -0.028   3.323   0.205  0.9299  1.3455  1.4995
 6402SOL    HW219585   0.112   3.342   0.151  0.7934  1.0522  1.0410
 6403SOL     OW19586   5.103   4.206   0.667 -0.0991 -0.4004 -0.0976
 6403SOL    HW119587   5.158   4.240   0.597 -0.5849 -1.0645 -0.8124
 6403SOL    HW219588   5.073   4.121   0.635  2.0114 -2.1015  2.0733
 6404SOL     OW19589   2.783   6.318   2.411 -0.1415  0.3797 -0.6802
 6404SOL    HW119590   2.692   6.311   2.441  0.2466  1.2590  0.8163
 6404SOL    HW219591   2.811   6.228   2.400 -1.2560  0.0963 -1.3797
 6405SOL     OW19592   0.257   4.658   2.675 -0.3847  0.3004 -0.4085
 6405SOL    HW119593   0.276   4.590   2.611 -3.4292 -1.7199  0.5812
 6405SOL    HW219594   0.299   4.627   2.756 -1.2594 -0.1207 -0.1053
 6406SOL     OW19595   2.495   0.321   1.618 -0.2950 -0.0191  0.1171
 6406SOL    HW119596   2.401   0.307   1.606 -0.5157 -0.3495  1.9180
 6406SOL    HW219597   2.534   0.234   1.608 -0.4111 -0.1928  1.0611
 6407SOL     OW19598   5.865   6.279   5.045  0.1563 -0.0959 -0.0576
 6407SOL    HW119599   5.946   6.265   4.997 -0.9618 -0.9311 -1.7972
 6407SOL    HW219600   5.808   6.325   4.984 -1.2346 -0.9891  0.5060
 6408SOL     OW19601   6.263   3.967   4.984 -0.0674 -0.3028  0.5097
 6408SOL    HW119602   6.209   3.916   5.044 -0.8030 -0.0338  0.0842
 6408SOL    HW219603   6.202   4.002   4.919  0.4701  0.7693  0.5432
 6409SOL     OW19604   1.418   2.695   6.267 -0.4513 -0.3137  0.6924
 6409SOL    HW119605   1.474   2.724   6.196 -0.6753 -0.5370  0.4218
 6409SOL    HW219606   1.333   2.678   6.226 -0.1640 -1.9611  0.7096
 6410SOL     OW19607   4.868   4.341   3.440  0.3634  0.1423  0.4597
 6410SOL    HW119608   4.847   4.332   3.533 -1.5903 -0.0348  0.0428
 6410SOL    HW219609   4.936   4.276   3.424  1.5889  0.9905  2.0001
 6411SOL     OW19610   5.619   4.412   2.960 -0.3499  0.5696 -0.1893
 6411SOL    HW119611   5.537   4.372   2.931 -0.3965 -0.6238  1.4570
 6411SOL    HW219612   5.600   4.506   2.963 -1.6409  0.3160  0.0892
 6412SOL     OW19613   2.172   4.892   3.424  0.8285  0.0270  0.3513
 6412SOL    HW119614   2.249   4.836   3.435  0.3080 -0.6610  0.5871
 6412SOL    HW219615   2.172   4.948   3.501  1.6256  0.7086 -0.1249
 6413SOL     OW19616   6.664   4.569   5.750 -0.3142  0.1656  0.2630
 6413SOL    HW119617   6.657   4.663   5.732  0.2320  0.1055 -0.2673
 6413SOL    HW219618   6.613   4.527   5.681  1.4673 -0.0450 -0.9929
 6414SOL     OW19619   5.625   2.369   2.767 -0.0060  0.4346 -0.5619
 6414SOL    HW119620   5.557   2.331   2.823 -0.4609 -2.8331 -3.0189
 6414SOL    HW219621   5.578   2.401   2.690  0.9631  0.8533 -0.9971
 6415SOL     OW19622   2.283   5.708   5.595  0.1273 -0.0501 -0.7437
 6415SOL    HW119623   2.304   5.654   5.672  1.1512  0.0014 -0.9663
 6415SOL    HW219624   2.199   5.674   5.564 -0.5137  0.1903  0.6294
 6416SOL     OW19625   3.658   4.443   0.834 -0.0685 -0.4484 -0.1966
 6416SOL    HW119626   3.737   4.459   0.886  0.6281 -1.0978 -0.9997
 6416SOL    HW219627   3.626   4.358   0.865 -0.7931  0.0808  0.5253
 6417SOL     OW19628   0.716   5.837   1.931  0.6245  0.2658 -0.0116
 6417SOL    HW119629   0.770   5.906   1.970 -0.1345 -0.0819  1.7320
 6417SOL    HW219630   0.729   5.848   1.836 -0.1330  3.3374  0.1282
 6418SOL     OW19631   2.020   5.687   6.227  0.0007 -0.2309  0.2149
 6418SOL    HW119632   1.950   5.749   6.203 -0.1006 -0.2768  0.3871
 6418SOL    HW219633   2.052   5.719   6.311 -0.2652 -0.5905  0.4554
 6419SOL     OW19634   4.935   5.611   0.845  0.5019 -0.4288  0.5542
 6419SOL    HW119635   4.902   5.622   0.756 -2.8405  1.1157  1.8012
 6419SOL    HW219636   4.920   5.518   0.865 -0.2773 -0.4307  0.0145
 6420SOL     OW19637   4.289   3.146   5.967 -0.2011 -0.5961  0.4373
 6420SOL    HW119638   4.335   3.062   5.964 -1.0420 -1.0579  0.0733
 6420SOL    HW219639   4.339   3.199   6.029  1.7290 -0.5173 -1.0774
 6421SOL     OW19640   5.498   6.749   3.112  0.5926 -0.2085  0.5787
 6421SOL    HW119641   5.589   6.738   3.086 -0.0523 -1.1869 -1.4142
 6421SOL    HW219642   5.449   6.751   3.030 -1.2733 -0.4837  1.6245
 6422SOL     OW19643   6.417   5.977   6.793 -0.6763 -0.0875 -0.4705
 6422SOL    HW119644   6.336   5.990   6.743 -1.1766 -0.3733  0.2548
 6422SOL    HW219645   6.467   5.915   6.741 -0.9785 -0.0171 -0.8555
 6423SOL     OW19646   3.291   1.436   5.767 -0.5705 -0.0300  0.4294
 6423SOL    HW119647   3.237   1.361   5.741  0.4979 -0.2842 -1.2224
 6423SOL    HW219648   3.378   1.415   5.733 -0.1047  1.6927  0.4681
 6424SOL     OW19649   0.639   2.301   5.384  0.4247 -0.3162  0.2623
 6424SOL    HW119650   0.598   2.218   5.358 -1.4010  0.2469  1.2289
 6424SOL    HW219651   0.688   2.279   5.463  2.2864 -1.0264 -0.9887
 6425SOL     OW19652   4.735   3.074   4.393 -0.2052  0.0325  0.6888
 6425SOL    HW119653   4.716   2.990   4.351  0.8866  0.5796 -1.0036
 6425SOL    HW219654   4.742   3.053   4.486  0.6870 -1.8989  0.2348
 6426SOL     OW19655   0.108   5.764   3.219  0.2096  0.3940  0.1460
 6426SOL    HW119656   0.043   5.832   3.234  0.8238  1.5381 -1.9059
 6426SOL    HW219657   0.183   5.789   3.274  0.2893  1.1951 -0.3131
 6427SOL     OW19658   4.630   3.138   0.486  0.1855 -0.5161 -0.2040
 6427SOL    HW119659   4.663   3.128   0.397 -0.4361 -2.0157 -0.2900
 6427SOL    HW219660   4.629   3.050   0.522  0.5191  0.0679  1.3473
 6428SOL     OW19661   4.984   4.124   4.226  0.3191  0.6713 -0.1724
 6428SOL    HW119662   4.894   4.103   4.247  0.2879  0.9268 -0.0495
 6428SOL    HW219663   5.032   4.116   4.308  1.0944 -2.8559 -0.7806
 6429SOL     OW19664   5.899   0.815   5.234 -0.5389  0.1925  0.1884
 6429SOL    HW119665   5.823   0.874   5.243 -0.3804  0.6013 -0.9994
 6429SOL    HW219666   5.928   0.828   5.144  0.1327 -0.9633  0.2317
 6430SOL     OW19667   0.653   6.345   5.731 -0.1939 -0.6186 -0.9172
 6430SOL    HW119668   0.646   6.254   5.760  0.8160 -1.0910 -2.0693
 6430SOL    HW219669   0.575   6.359   5.677 -0.1709 -0.9083 -1.0237
 6431SOL     OW19670   2.811   0.962   0.634  0.2063  0.3965  0.2047
 6431SOL    HW119671   2.839   0.880   0.674 -0.4744  0.4175  0.7426
 6431SOL    HW219672   2.813   0.944   0.540 -0.6000 -0.4679  0.3332
 6432SOL     OW19673   1.271   2.677   1.421 -0.3033 -0.3284 -0.3511
 6432SOL    HW119674   1.286   2.666   1.328 -0.3743 -0.1104 -0.3898
 6432SOL    HW219675   1.176   2.671   1.431 -0.1681 -2.9537  0.0580
 6433SOL     OW19676   6.425   3.463   4.755  0.1674 -0.0398  0.8806
 6433SOL    HW119677   6.338   3.464   4.716 -1.1810  0.7620  3.6297
 6433SOL    HW219678   6.483   3.493   4.685 -1.8026 -0.1347 -0.9023
 6434SOL     OW19679   1.696   6.076   5.094  0.1344 -0.4377  0.4603
 6434SOL    HW119680   1.630   6.119   5.039  1.5084 -0.9297 -1.6766
 6434SOL    HW219681   1.654   5.995   5.121 -0.0010 -1.0392 -1.3820
 6435SOL     OW19682   5.802   2.170   2.874 -0.5235  0.1629 -0.0060
 6435SOL    HW119683   5.738   2.238   2.854 -0.7252 -0.0657 -0.1431
 6435SOL    HW219684   5.763   2.122   2.947  0.4218  1.2940  1.3058
 6436SOL     OW19685   1.351   0.328   3.557 -0.3665  0.1692  0.3111
 6436SOL    HW119686   1.275   0.382   3.533  0.7260  1.0500 -1.3444
 6436SOL    HW219687   1.422   0.391   3.570  0.0555 -0.6182  2.1249
 6437SOL     OW19688   1.493   3.941   0.529 -0.3568  0.1363 -0.1077
 6437SOL    HW119689   1.478   3.855   0.567 -2.0312  0.6937  0.6088
 6437SOL    HW219690   1.434   3.945   0.454 -0.3002  0.6518 -0.1298
 6438SOL     OW19691   6.315   1.427   3.374  0.7210 -0.3518 -0.3449
 6438SOL    HW119692   6.322   1.456   3.466 -1.0778 -1.5965  0.2435
 6438SOL    HW219693   6.394   1.375   3.359  3.2181  3.2131 -0.9232
 6439SOL     OW19694   2.401   4.348   2.427  0.0051  0.0296  0.2949
 6439SOL    HW119695   2.418   4.440   2.450 -0.5170 -0.3976  2.6190
 6439SOL    HW219696   2.385   4.305   2.511  1.1171 -2.3983 -0.6510
 6440SOL     OW19697   1.821   5.708   2.227 -0.4323 -0.4139  0.6415
 6440SOL    HW119698   1.862   5.632   2.268 -0.0860  0.6001  2.3100
 6440SOL    HW219699   1.787   5.676   2.144 -0.5366 -2.4388  1.4143
 6441SOL     OW19700   5.150   4.229   6.454  0.1319  0.5465 -0.3616
 6441SOL    HW119701   5.185   4.152   6.498 -0.9562 -0.2837 -0.9102
 6441SOL    HW219702   5.056   4.210   6.443 -0.9359  3.3301  2.4662
 6442SOL     OW19703   5.616   4.950   4.320  0.2894  0.0223 -0.5307
 6442SOL    HW119704   5.628   4.867   4.276 -0.8284 -1.7196  2.1782
 6442SOL    HW219705   5.699   4.967   4.364  0.5642  0.4246 -1.2000
 6443SOL     OW19706   3.924   4.465   3.455  0.1904  0.2967  0.3031
 6443SOL    HW119707   3.888   4.428   3.374  0.0296 -0.2125  0.6033
 6443SOL    HW219708   3.996   4.406   3.478  1.0821  1.1806 -0.1659
 6444SOL     OW19709   5.653   3.856   6.493 -0.0173 -0.0425 -0.3115
 6444SOL    HW119710   5.732   3.910   6.485 -0.9202  1.3007 -0.6414
 6444SOL    HW219711   5.678   3.785   6.551  1.4710  0.2784 -0.5125
 6445SOL     OW19712   6.638   6.423   1.108  0.1942  0.3485  0.2319
 6445SOL    HW119713   6.658   6.431   1.202  1.7925  3.3974 -0.2586
 6445SOL    HW219714   6.723   6.411   1.066 -0.4894 -0.7340 -0.9085
 6446SOL     OW19715   3.003   5.200   4.163  0.1518  0.3041 -0.3639
 6446SOL    HW119716   2.977   5.276   4.111 -1.0520 -0.9323 -1.6433
 6446SOL    HW219717   3.052   5.145   4.102  1.1271  0.0791  0.5857
 6447SOL     OW19718   4.643   3.151   4.962 -0.6087  0.3303  0.1465
 6447SOL    HW119719   4.688   3.072   4.991 -0.4664  0.6126  0.6956
 6447SOL    HW219720   4.597   3.183   5.039 -0.6438  0.7998 -0.0634
 6448SOL     OW19721   5.851   5.825   3.618  0.4370  0.8552  0.4975
 6448SOL    HW119722   5.918   5.792   3.679  2.0920 -0.0530 -1.6854
 6448SOL    HW219723   5.858   5.920   3.624  1.3433  0.7769  0.9352
 6449SOL     OW19724   2.286   6.264   2.939  0.3676 -0.3441 -0.2766
 6449SOL    HW119725   2.348   6.288   3.008 -0.5826 -1.4284  1.0131
 6449SOL    HW219726   2.275   6.169   2.948 -0.5095 -0.3677 -1.3077
 6450SOL     OW19727   3.824   1.708   2.818 -0.2616  0.0267  0.2480
 6450SOL    HW119728   3.886   1.758   2.871  1.1270  0.5362 -1.7240
 6450SOL    HW219729   3.778   1.774   2.766 -0.3661 -0.5459 -0.4068
 6451SOL     OW19730   3.122   5.298   4.425 -0.0286  0.1294 -0.2124
 6451SOL    HW119731   3.177   5.340   4.491 -1.0861  0.1109  0.7029
 6451SOL    HW219732   3.114   5.363   4.356 -0.0673  0.6934  0.3166
 6452SOL     OW19733   0.367   2.876   0.232  0.4861  0.0704  0.0760
 6452SOL    HW119734   0.397   2.919   0.312  0.7292  0.6030 -0.2963
 6452SOL    HW219735   0.349   2.786   0.259  0.4791  0.2639  0.7493
 6453SOL     OW19736   0.511   0.702   4.786 -0.9312  0.2617  0.0075
 6453SOL    HW119737   0.534   0.665   4.871  0.6125  0.3572 -0.3370
 6453SOL    HW219738   0.451   0.774   4.806 -0.7383  0.1572  0.9992
 6454SOL     OW19739   1.411   2.811   0.911 -0.2935  0.0598 -0.4182
 6454SOL    HW119740   1.495   2.817   0.956  0.3084 -2.8321 -0.9692
 6454SOL    HW219741   1.429   2.841   0.822 -0.0943  0.3764 -0.2739
 6455SOL     OW19742   1.821   6.668   2.261 -0.4320 -0.3256  0.4301
 6455SOL    HW119743   1.834   6.719   2.181 -0.6080  0.7658  1.0756
 6455SOL    HW219744   1.785   6.585   2.231 -1.4330  0.4421 -0.5581
 6456SOL     OW19745   3.649   4.470   6.616  0.1591 -0.3095 -0.1559
 6456SOL    HW119746   3.652   4.513   6.530 -2.0831  1.7488  0.6876
 6456SOL    HW219747   3.556   4.455   6.632  0.3255  1.0210  2.6546
 6457SOL     OW19748   6.545   4.319   5.381 -0.0727 -0.0794 -0.2693
 6457SOL    HW119749   6.575   4.328   5.291  2.5572 -0.3509  0.4830
 6457SOL    HW219750   6.599   4.249   5.418 -0.9429  0.1372  1.5554
 6458SOL     OW19751   6.286   5.675   5.637 -0.0791 -0.2166 -0.1358
 6458SOL    HW119752   6.289   5.756   5.687  1.3162 -0.1818 -0.2395
 6458SOL    HW219753   6.326   5.697   5.553  1.5618 -1.2836  0.3025
 6459SOL     OW19754   4.343   5.520   1.882  0.5412  0.2307  0.1625
 6459SOL    HW119755   4.336   5.525   1.977  0.0036  0.1856  0.1301
 6459SOL    HW219756   4.427   5.476   1.866  0.3053 -0.4148  0.6311
 6460SOL     OW19757   6.572   4.276   3.571  0.5606 -0.2121  0.9566
 6460SOL    HW119758   6.610   4.255   3.656  0.2487  0.0549  1.1619
 6460SOL    HW219759   6.538   4.365   3.580  0.9608  0.0061  0.4042
 6461SOL     OW19760   6.626   0.948   1.581 -0.1010 -0.4063  0.3018
 6461SOL    HW119761   6.554   0.885   1.584 -0.3983 -0.0720  0.2034
 6461SOL    HW219762   6.672   0.936   1.664  0.2042 -1.1721  0.0286
 6462SOL     OW19763   5.857   4.467   5.244 -0.5689  0.3482  0.3200
 6462SOL    HW119764   5.868   4.375   5.221 -1.4156 -0.0768  1.5397
 6462SOL    HW219765   5.797   4.467   5.318 -0.4464  1.8782  0.4618
 6463SOL     OW19766   1.732   0.745   3.407 -0.4294 -0.2571  0.3369
 6463SOL    HW119767   1.795   0.806   3.369 -0.6843  1.2013  2.1010
 6463SOL    HW219768   1.679   0.798   3.466 -0.8598 -2.1215  1.7597
 6464SOL     OW19769   6.255   5.495   0.739 -0.0024  0.3252  0.0974
 6464SOL    HW119770   6.269   5.589   0.741  1.7078  0.1085  0.2841
 6464SOL    HW219771   6.241   5.474   0.647  0.7424  0.6360 -0.0910
 6465SOL     OW19772   3.609   2.312   1.493  0.2206 -0.1494  0.3196
 6465SOL    HW119773   3.629   2.398   1.531  0.1998  0.8947 -1.9116
 6465SOL    HW219774   3.682   2.295   1.433  0.0782 -1.5781  0.5329
 6466SOL     OW19775   0.433   6.684   1.198  0.0533  0.1218 -0.5719
 6466SOL    HW119776   0.449   6.658   1.107  0.9628  1.4934 -0.8333
 6466SOL    HW219777   0.338   6.688   1.206 -0.0440 -0.6232 -1.2719
 6467SOL     OW19778   0.728   4.268   2.081  0.3990 -0.2697 -0.2739
 6467SOL    HW119779   0.798   4.288   2.143  0.5136 -1.4184 -0.0139
 6467SOL    HW219780   0.647   4.287   2.128  0.3464 -3.5921  1.2815
 6468SOL     OW19781   5.088   4.738   4.648 -0.1093  0.2650  0.3348
 6468SOL    HW119782   4.996   4.715   4.634  0.0383  0.2579 -0.6743
 6468SOL    HW219783   5.090   4.833   4.636 -0.2926  0.5224  2.1346
 6469SOL     OW19784   0.797   4.419   3.921  0.2996 -0.1792 -0.1272
 6469SOL    HW119785   0.740   4.457   3.987 -0.4772 -1.3354 -0.1058
 6469SOL    HW219786   0.833   4.494   3.874 -0.0693  0.6106  0.8245
 6470SOL     OW19787   3.334   3.007   3.167  0.0343 -0.7072  0.2592
 6470SOL    HW119788   3.285   2.933   3.132  0.6028 -0.4328 -1.1925
 6470SOL    HW219789   3.425   2.990   3.142  0.0420  0.9601 -1.0484
 6471SOL     OW19790   5.632   0.176   1.007 -0.5934 -0.2121  0.0911
 6471SOL    HW119791   5.559   0.130   1.047  0.4163 -0.5978  1.5748
 6471SOL    HW219792   5.592   0.238   0.947 -2.0580 -1.7422 -0.6011
 6472SOL     OW19793   3.695   2.955   2.159 -0.3811 -0.7421 -0.0484
 6472SOL    HW119794   3.643   3.032   2.138 -0.8124 -0.7592  0.8810
 6472SOL    HW219795   3.698   2.954   2.255  0.9589 -0.9946 -0.0741
 6473SOL     OW19796   2.402   0.574   6.451  0.1610  0.1340  0.1310
 6473SOL    HW119797   2.426   0.556   6.542  2.1689  0.0288 -0.3720
 6473SOL    HW219798   2.370   0.491   6.417  1.0858 -0.2965  0.2740
 6474SOL     OW19799   0.255   1.367   4.752  0.0006  0.1753  0.1370
 6474SOL    HW119800   0.298   1.405   4.675  1.0233 -1.1688  0.0013
 6474SOL    HW219801   0.223   1.442   4.801 -1.9527  1.0536 -2.2696
 6475SOL     OW19802   2.266   1.441   3.371 -1.2372 -0.0369 -0.2813
 6475SOL    HW119803   2.175   1.463   3.351 -1.7437 -1.7818 -0.0253
 6475SOL    HW219804   2.317   1.490   3.307 -2.3118  1.3468 -0.1322
 6476SOL     OW19805   6.799   4.614   6.216  0.1641 -0.0745  0.9687
 6476SOL    HW119806   6.765   4.660   6.140 -1.9361 -1.4459  0.9989
 6476SOL    HW219807   6.893   4.631   6.214  0.3874 -0.9483 -2.5701
 6477SOL     OW19808   5.830   4.505   6.794  0.1592 -0.1297  0.0107
 6477SOL    HW119809   5.788   4.486   6.710  1.2674 -1.2875 -0.3258
 6477SOL    HW219810   5.761   4.544   6.848 -0.3305  1.5916 -1.7466
 6478SOL     OW19811   3.569   1.568   2.332 -0.1784 -0.1858  0.1983
 6478SOL    HW119812   3.640   1.512   2.362  1.8312  2.4683  0.8090
 6478SOL    HW219813   3.576   1.565   2.236 -0.9625 -1.8815  0.1494
 6479SOL     OW19814   5.418   3.832   5.770  0.4105 -0.9612 -0.1785
 6479SOL    HW119815   5.375   3.826   5.855 -0.5818  1.0476 -0.4660
 6479SOL    HW219816   5.346   3.823   5.707  0.9961 -1.4846 -0.7800
 6480SOL     OW19817   0.395   1.826   4.946 -0.2346 -0.5202 -0.3892
 6480SOL    HW119818   0.450   1.756   4.913  0.4276  0.2526 -0.9640
 6480SOL    HW219819   0.352   1.789   5.023  1.7337 -0.8871  0.5885
 6481SOL     OW19820   4.928   1.763   2.202  0.0661 -0.4084  0.0942
 6481SOL    HW119821   4.965   1.815   2.273 -0.2185 -0.4986  0.3109
 6481SOL    HW219822   4.951   1.811   2.122 -0.4155  0.1958  0.3110
 6482SOL     OW19823   6.072   6.041   2.970  0.5900  0.4602  0.2517
 6482SOL    HW119824   6.013   5.982   2.924 -0.8030  2.0106 -0.0623
 6482SOL    HW219825   6.157   6.028   2.927  0.2529 -1.0269 -0.0157
 6483SOL     OW19826   1.263   1.308   4.771  0.1544  0.1802  0.4964
 6483SOL    HW119827   1.302   1.395   4.781  2.6717 -0.9830  1.6866
 6483SOL    HW219828   1.302   1.273   4.691 -0.4064 -0.0945  0.3381
 6484SOL     OW19829   3.458   1.113   2.387 -0.1740  0.3263  0.4212
 6484SOL    HW119830   3.499   1.111   2.473  0.3911 -0.7484  0.1428
 6484SOL    HW219831   3.526   1.147   2.328 -0.1029 -0.2212  0.1796
 6485SOL     OW19832   6.404   2.709   2.229  0.2869 -0.1755 -0.3814
 6485SOL    HW119833   6.392   2.679   2.319  0.4316 -1.6716 -0.8309
 6485SOL    HW219834   6.315   2.713   2.193  0.3171 -0.9110 -0.5603
 6486SOL     OW19835   3.399   2.359   0.283 -0.3552  0.5077 -0.9309
 6486SOL    HW119836   3.449   2.390   0.207  2.0651 -1.2651 -0.1661
 6486SOL    HW219837   3.427   2.269   0.295 -0.4720  0.7914  2.2085
 6487SOL     OW19838   6.295   4.578   5.886 -0.4918 -0.1828  0.3552
 6487SOL    HW119839   6.315   4.590   5.793 -0.6722  0.2795  0.3711
 6487SOL    HW219840   6.381   4.575   5.929 -0.4115  1.4938  0.3896
 6488SOL     OW19841   1.622   0.910   1.919  0.0680  0.0780 -0.0854
 6488SOL    HW119842   1.631   0.816   1.938 -1.0937  0.0914  0.6633
 6488SOL    HW219843   1.642   0.953   2.002  0.0272  0.4544 -0.2702
 6489SOL     OW19844   2.495   4.302   5.773 -0.1396  0.4647  0.8772
 6489SOL    HW119845   2.515   4.302   5.679 -0.6815  1.0106  0.7554
 6489SOL    HW219846   2.514   4.392   5.802 -0.4614  0.4402  1.1772
 6490SOL     OW19847   5.452   3.494   0.533 -0.2917  0.0610  0.2884
 6490SOL    HW119848   5.543   3.519   0.547 -0.0902 -0.7193  0.3964
 6490SOL    HW219849   5.424   3.458   0.618 -0.8258  0.6649  0.3786
 6491SOL     OW19850   0.202   2.810   4.990  0.4774  0.4827  0.2287
 6491SOL    HW119851   0.249   2.805   4.907 -1.8139 -2.2934 -1.0659
 6491SOL    HW219852   0.148   2.889   4.982  1.3092  1.0249 -0.2785
 6492SOL     OW19853   5.794   4.998   6.587 -0.4955  0.0516  0.0968
 6492SOL    HW119854   5.759   4.927   6.533  0.5615 -0.2709 -0.2009
 6492SOL    HW219855   5.845   4.954   6.655 -0.2339  0.5010  0.1975
 6493SOL     OW19856   6.694   3.099   6.684 -0.0244 -0.2776 -0.2561
 6493SOL    HW119857   6.787   3.087   6.668  0.6631  2.4251  1.1005
 6493SOL    HW219858   6.682   3.079   6.777 -0.4543  0.8710 -0.0461
 6494SOL     OW19859   1.715   1.609   0.147 -0.2611 -0.3228 -0.4159
 6494SOL    HW119860   1.641   1.606   0.087  0.4053 -0.4379 -1.2531
 6494SOL    HW219861   1.718   1.522   0.187 -1.0310 -0.0772  0.2087
 6495SOL     OW19862   5.010   2.391   5.330  0.0746  0.0554  0.0042
 6495SOL    HW119863   4.997   2.407   5.237 -0.4216  0.2165  0.1015
 6495SOL    HW219864   4.942   2.442   5.374 -0.5426 -1.0717  0.3875
 6496SOL     OW19865   0.617   5.114   6.539  0.8664  0.4135  0.4078
 6496SOL    HW119866   0.553   5.153   6.479  1.2176  1.1936  0.5185
 6496SOL    HW219867   0.575   5.034   6.571  0.7192 -0.0922 -0.9724
 6497SOL     OW19868   5.889   6.046   1.846  0.1092  0.0764  0.6063
 6497SOL    HW119869   5.947   5.970   1.850  0.5278  0.3774  0.3089
 6497SOL    HW219870   5.901   6.090   1.929  0.5202  0.2904  0.4359
 6498SOL     OW19871   2.433   4.901   3.526  0.7692  0.4479 -0.0827
 6498SOL    HW119872   2.439   4.865   3.615  0.9082  0.0751 -0.2399
 6498SOL    HW219873   2.472   4.988   3.532 -0.5897  1.0485  0.5593
 6499SOL     OW19874   3.985   0.455   5.919 -0.1647  0.2038 -0.6948
 6499SOL    HW119875   3.992   0.452   6.014 -0.5559  0.2824 -0.6614
 6499SOL    HW219876   3.894   0.431   5.901  0.0603 -0.3809 -1.0808
 6500SOL     OW19877   6.372   0.091   2.062  0.2047 -0.0162 -0.3151
 6500SOL    HW119878   6.284   0.065   2.090  0.9029 -2.0772  0.1512
 6500SOL    HW219879   6.360   0.119   1.971 -0.8440 -0.9354 -0.4944
 6501SOL     OW19880   0.022   1.825   2.480 -0.3775 -0.5105  0.9408
 6501SOL    HW119881  -0.019   1.828   2.394  0.0620  0.2075  0.7501
 6501SOL    HW219882  -0.041   1.868   2.538  0.3964  1.2948  0.5110
 6502SOL     OW19883   4.787   0.603   0.935  0.2582 -0.2281 -0.0807
 6502SOL    HW119884   4.828   0.540   0.994 -0.8821 -0.9109  0.0127
 6502SOL    HW219885   4.772   0.553   0.854 -1.2544 -0.2941  0.2156
 6503SOL     OW19886   6.397   4.299   3.002 -0.2998  0.0000 -0.2293
 6503SOL    HW119887   6.378   4.390   2.981 -0.4082  0.0161 -0.0622
 6503SOL    HW219888   6.456   4.303   3.077 -0.6350 -0.0728  0.0412
 6504SOL     OW19889   4.357   3.941   0.805  0.2307  0.3199  0.0316
 6504SOL    HW119890   4.404   3.861   0.831 -0.2662  0.0410  0.1008
 6504SOL    HW219891   4.420   3.991   0.754  0.8459  0.3118  0.7570
 6505SOL     OW19892   5.281   0.805   0.494 -0.1959  0.2962 -0.0959
 6505SOL    HW119893   5.347   0.874   0.493 -1.2225  1.3035 -1.0001
 6505SOL    HW219894   5.313   0.741   0.431  1.7164 -1.0614  2.0960
 6506SOL     OW19895   1.175   3.263   6.588  0.0335 -0.5806  0.2112
 6506SOL    HW119896   1.134   3.349   6.587 -0.2306 -0.6692  1.4583
 6506SOL    HW219897   1.231   3.264   6.666  0.1215 -1.4811  0.1736
 6507SOL     OW19898   4.484   6.070   6.401  0.0259 -0.7666 -0.0439
 6507SOL    HW119899   4.494   6.031   6.314  0.2695  1.1558 -0.9136
 6507SOL    HW219900   4.443   6.000   6.454 -0.2409 -1.9234 -1.7080
 6508SOL     OW19901   0.294   0.800   2.045  0.5686 -0.1644  0.3597
 6508SOL    HW119902   0.248   0.743   1.984 -0.7975  1.5503 -0.3038
 6508SOL    HW219903   0.357   0.848   1.992 -0.0232  0.7144  0.4335
 6509SOL     OW19904   4.499   3.376   2.956  0.2829  0.6099 -0.6029
 6509SOL    HW119905   4.498   3.338   2.869 -0.3369 -1.1123  0.1066
 6509SOL    HW219906   4.556   3.318   3.007  0.3378  1.3653  0.2331
 6510SOL     OW19907   1.275   6.177   6.391  0.0991 -0.4853 -0.2636
 6510SOL    HW119908   1.364   6.193   6.359  1.5012 -1.1248  2.9588
 6510SOL    HW219909   1.249   6.260   6.432 -1.4680  0.1753 -2.4332
 6511SOL     OW19910   3.612   6.010   3.876  0.6144 -0.0640  0.5205
 6511SOL    HW119911   3.643   6.065   3.949  0.9966  0.5243 -0.0785
 6511SOL    HW219912   3.667   5.932   3.882 -0.8929 -1.0852  2.2647
 6512SOL     OW19913   2.458   5.138   2.556 -0.2334  0.4084  0.2160
 6512SOL    HW119914   2.365   5.164   2.556  0.1472  2.2708  3.1483
 6512SOL    HW219915   2.484   5.144   2.464 -2.6745  1.2157 -0.5168
 6513SOL     OW19916   1.320   1.409   5.969 -0.6937  0.2204 -0.0561
 6513SOL    HW119917   1.372   1.342   6.014 -1.1173 -0.0594  0.0195
 6513SOL    HW219918   1.277   1.361   5.898  0.4666  0.7773 -1.1704
 6514SOL     OW19919   4.521   2.571   0.402  0.6088 -0.1596  0.0140
 6514SOL    HW119920   4.486   2.566   0.491 -2.5743  1.3886 -0.9921
 6514SOL    HW219921   4.448   2.544   0.347  2.1471 -0.0159 -2.1937
 6515SOL     OW19922   3.521   2.282   3.944 -0.3063 -0.3024  0.3973
 6515SOL    HW119923   3.597   2.340   3.947 -0.7523  0.4153 -1.2588
 6515SOL    HW219924   3.541   2.213   4.007  2.0322 -0.5259 -0.4948
 6516SOL     OW19925   5.981   4.379   4.523 -0.6901  0.2527 -0.0843
 6516SOL    HW119926   5.948   4.315   4.586  0.6088 -0.6468 -0.2945
 6516SOL    HW219927   6.058   4.417   4.565  0.2620 -0.4413 -1.1404
 6517SOL     OW19928   2.137   3.058   3.732  0.7645 -0.3717  0.1197
 6517SOL    HW119929   2.202   2.992   3.758  1.5891 -0.2541 -1.4788
 6517SOL    HW219930   2.188   3.137   3.716  0.1495 -0.0997 -0.5454
 6518SOL     OW19931   4.792   3.717   1.676 -0.1519 -0.0066  0.0108
 6518SOL    HW119932   4.753   3.744   1.592 -0.5852  0.9658  0.5048
 6518SOL    HW219933   4.879   3.757   1.676 -0.5461  0.8868  0.4585
 6519SOL     OW19934   4.126   0.786   3.454 -0.6303 -0.3758  0.3339
 6519SOL    HW119935   4.134   0.805   3.361 -1.0526  0.5142  0.4741
 6519SOL    HW219936   4.208   0.744   3.477 -0.5206 -0.5945 -0.4386
 6520SOL     OW19937   5.248   1.289   6.113  0.7904  0.2023  0.3979
 6520SOL    HW119938   5.330   1.240   6.126  0.5787  0.2066  1.8735
 6520SOL    HW219939   5.269   1.378   6.139  0.2999  0.1745  0.9219
 6521SOL     OW19940   3.117   5.425   3.254 -0.4506  0.1022  0.0689
 6521SOL    HW119941   3.060   5.372   3.310 -1.6087  0.6958 -0.5126
 6521SOL    HW219942   3.090   5.403   3.165  0.9738 -0.3949 -0.2681
 6522SOL     OW19943   5.783   1.684   6.755  0.5214 -0.4577  0.0558
 6522SOL    HW119944   5.827   1.606   6.723  0.5623  0.1955 -1.5631
 6522SOL    HW219945   5.725   1.652   6.824  2.2576 -1.5657  1.0680
 6523SOL     OW19946   1.058   4.542   4.098  0.4659  0.1322 -0.5217
 6523SOL    HW119947   1.108   4.489   4.036 -0.8156  0.0851 -1.5591
 6523SOL    HW219948   1.009   4.479   4.151  0.6110  0.2181 -0.2803
 6524SOL     OW19949   1.239   0.442   3.904  0.3234 -0.3526  0.0946
 6524SOL    HW119950   1.204   0.510   3.846 -0.2253  0.2485  1.1234
 6524SOL    HW219951   1.330   0.433   3.876  0.2082  0.2850 -0.5344
 6525SOL     OW19952   5.542   6.471   2.228  0.3604  0.2940 -0.3798
 6525SOL    HW119953   5.585   6.388   2.247 -0.1676  0.2919  0.9094
 6525SOL    HW219954   5.454   6.462   2.266  0.4151  1.5599  0.1150
 6526SOL     OW19955   4.440   5.467   4.099 -0.5806 -0.7706 -0.1987
 6526SOL    HW119956   4.360   5.463   4.151 -1.0084 -0.5046 -0.8273
 6526SOL    HW219957   4.422   5.412   4.022 -0.2012 -0.6264 -0.3936
 6527SOL     OW19958   1.846   4.805   0.967  0.0776 -0.0941  0.2082
 6527SOL    HW119959   1.888   4.722   0.989  2.0497  1.0996  1.2277
 6527SOL    HW219960   1.804   4.833   1.049  0.2729  0.3743  0.1525
 6528SOL     OW19961   3.233   4.866   2.142  0.1228 -0.3810  0.0192
 6528SOL    HW119962   3.268   4.780   2.162 -0.4147 -0.9281 -1.2606
 6528SOL    HW219963   3.262   4.922   2.214 -0.1764 -1.7897  1.2738
 6529SOL     OW19964   4.612   2.948   1.843 -0.9652  0.1656  0.1111
 6529SOL    HW119965   4.548   2.994   1.788  0.6242  1.9402 -0.3450
 6529SOL    HW219966   4.561   2.878   1.885 -2.8063  0.4227 -1.5406
 6530SOL     OW19967   5.955   0.830   1.071  0.2395 -0.0188  0.0246
 6530SOL    HW119968   5.994   0.916   1.060 -0.4425  0.2966  0.0156
 6530SOL    HW219969   5.892   0.823   0.999 -1.0786  0.2584  1.1185
 6531SOL     OW19970   1.891   4.862   6.496  0.0801  0.7860  0.3418
 6531SOL    HW119971   1.911   4.821   6.412 -0.9892 -0.7520  0.7896
 6531SOL    HW219972   1.825   4.928   6.475 -0.2004  0.3920 -0.0321
 6532SOL     OW19973   3.071   0.173   1.188 -0.0163  0.2469 -0.0710
 6532SOL    HW119974   3.096   0.098   1.243  0.0707 -0.2735 -0.7987
 6532SOL    HW219975   3.008   0.221   1.241 -1.4502 -1.3227 -0.2709
 6533SOL     OW19976   4.368   2.503   3.069  0.3085 -0.5908 -0.2803
 6533SOL    HW119977   4.439   2.454   3.111  0.9468  0.4422 -0.1106
 6533SOL    HW219978   4.412   2.557   3.003 -0.5337 -1.2085 -1.3819
 6534SOL     OW19979   2.810   4.450   5.361  0.1957  0.6080  0.0725
 6534SOL    HW119980   2.828   4.372   5.309  0.8614 -1.2540  2.8569
 6534SOL    HW219981   2.728   4.484   5.325  0.3515 -0.8372 -1.8222
 6535SOL     OW19982   4.444   6.009   3.345 -1.0947 -0.1096 -0.1145
 6535SOL    HW119983   4.360   6.055   3.345 -1.1780 -0.2245  1.0931
 6535SOL    HW219984   4.429   5.931   3.399 -0.7923 -1.2722 -1.6626
 6536SOL     OW19985   6.429   4.663   3.251 -0.2259  0.4021  0.1600
 6536SOL    HW119986   6.340   4.698   3.240 -0.5964 -0.9564 -1.7189
 6536SOL    HW219987   6.486   4.733   3.220 -0.6173  1.1462  1.0336
 6537SOL     OW19988   4.947   2.307   0.680 -1.0672 -0.1685  0.5030
 6537SOL    HW119989   4.865   2.258   0.682 -0.0530 -1.9483  0.3156
 6537SOL    HW219990   4.948   2.348   0.593 -2.2104  0.7676  0.8952
 6538SOL     OW19991   1.599   2.644   3.125  0.1132  0.1332  0.5403
 6538SOL    HW119992   1.663   2.577   3.147 -2.1450 -2.2053  0.5088
 6538SOL    HW219993   1.563   2.672   3.209 -1.3077 -1.2406  0.4240
 6539SOL     OW19994   2.974   3.685   3.326  0.1306  0.2340 -0.3500
 6539SOL    HW119995   2.970   3.589   3.329  1.0484  0.2062  0.4532
 6539SOL    HW219996   2.940   3.707   3.239  0.2771 -0.8380 -0.6986
 6540SOL     OW19997   6.834   5.463   3.798 -0.0523 -0.2225  0.3762
 6540SOL    HW119998   6.752   5.465   3.848 -0.2401 -1.2972  0.1437
 6540SOL    HW219999   6.841   5.372   3.767  0.6406  0.1387 -0.5854
 6541SOL     OW20000   4.305   6.041   5.534  0.3893 -0.7392  0.0394
 6541SOL    HW120001   4.367   5.988   5.584  0.6208  0.0350  0.5912
 6541SOL    HW220002   4.276   6.108   5.595 -2.1350 -1.9271  0.2512
 6542SOL     OW20003   5.491   5.644   2.740 -0.1601 -0.3466  0.6219
 6542SOL    HW120004   5.441   5.669   2.817 -2.1769  0.6723 -0.9141
 6542SOL    HW220005   5.459   5.556   2.719 -1.7959  0.4812 -0.6257
 6543SOL     OW20006   1.133   0.516   3.604 -0.0243 -0.4299 -0.3636
 6543SOL    HW120007   1.104   0.445   3.662  1.7438  0.9340  2.3896
 6543SOL    HW220008   1.053   0.563   3.582 -0.8337 -1.3928  0.4025
 6544SOL     OW20009   2.268   5.092   4.830 -0.1026  0.6071  0.6696
 6544SOL    HW120010   2.193   5.052   4.873 -0.6700  1.6863  0.7305
 6544SOL    HW220011   2.231   5.132   4.750  0.5894  0.2692  0.1731
 6545SOL     OW20012   1.907   3.165   0.958 -0.0031  0.5917 -0.3078
 6545SOL    HW120013   1.959   3.102   1.008  1.2873  2.3957  0.7507
 6545SOL    HW220014   1.843   3.199   1.021  0.2337  1.3164 -0.4374
 6546SOL     OW20015   2.114   0.492   3.543  0.3011  0.6568  0.0270
 6546SOL    HW120016   2.164   0.537   3.611  0.1138 -0.7019  1.1246
 6546SOL    HW220017   2.038   0.457   3.589  0.8882 -1.5335 -0.5263
 6547SOL     OW20018   3.551   5.115   1.178 -0.3475  0.2243 -0.0001
 6547SOL    HW120019   3.621   5.050   1.168  0.1699  0.9586 -1.4345
 6547SOL    HW220020   3.527   5.110   1.270  2.5571  0.9173  0.8997
 6548SOL     OW20021   6.761   4.115   0.355 -0.1489  0.3200 -0.1734
 6548SOL    HW120022   6.705   4.161   0.293 -0.2422 -0.9607 -1.0739
 6548SOL    HW220023   6.714   4.122   0.438 -0.3548  1.4767 -0.3638
 6549SOL     OW20024   1.432   3.545   4.762  0.4126  0.2602 -0.1827
 6549SOL    HW120025   1.512   3.597   4.763  0.9420 -0.5208  1.3352
 6549SOL    HW220026   1.417   3.522   4.854 -0.6684 -0.9459 -0.6254
 6550SOL     OW20027   2.234   4.169   6.764 -0.4056 -0.2490  0.3509
 6550SOL    HW120028   2.167   4.202   6.704  1.3992 -1.0857 -2.3271
 6550SOL    HW220029   2.272   4.248   6.803 -1.8294  0.3067  0.6660
 6551SOL     OW20030   5.678   0.121   3.252  0.1584  0.2198 -0.7310
 6551SOL    HW120031   5.728   0.202   3.242  0.1872  0.6853  2.3388
 6551SOL    HW220032   5.732   0.067   3.310 -0.9255 -1.0542 -0.8583
 6552SOL     OW20033   1.892   1.747   5.565 -0.0414  0.3902 -0.0492
 6552SOL    HW120034   1.859   1.768   5.652 -1.9935 -2.7385  0.1107
 6552SOL    HW220035   1.949   1.672   5.578 -0.6894 -0.3945 -1.4861
 6553SOL     OW20036   2.939   5.396   3.478  0.1450 -0.3266  0.0889
 6553SOL    HW120037   2.896   5.478   3.452 -0.8423 -0.9368 -0.2810
 6553SOL    HW220038   2.868   5.331   3.477  0.9239 -1.1968  0.3032
 6554SOL     OW20039   0.678   2.966   2.018  0.2697  0.7691  0.0943
 6554SOL    HW120040   0.590   2.947   2.051  0.0770 -1.1015 -1.3159
 6554SOL    HW220041   0.664   3.002   1.930  0.8852  2.1635  0.5427
 6555SOL     OW20042   3.339   3.806   4.252  0.2899  0.1641  0.2401
 6555SOL    HW120043   3.413   3.813   4.314 -0.1787  0.7949  0.7508
 6555SOL    HW220044   3.330   3.713   4.236 -0.1564 -0.0992  1.8630
 6556SOL     OW20045   0.156   3.140   1.765 -0.1029 -0.4560 -0.0061
 6556SOL    HW120046   0.144   3.229   1.801 -0.5284 -0.2597 -0.6119
 6556SOL    HW220047   0.167   3.154   1.671  2.4341 -0.8579  0.1802
 6557SOL     OW20048   0.541   1.245   4.122  0.2607  0.3260  0.1350
 6557SOL    HW120049   0.450   1.220   4.103 -0.2803  2.7486 -0.8191
 6557SOL    HW220050   0.549   1.234   4.217 -1.1071  0.2917  0.2695
 6558SOL     OW20051   0.784   5.124   6.146  0.2878  0.4498  0.4872
 6558SOL    HW120052   0.824   5.066   6.081 -1.3734  0.0698 -0.2573
 6558SOL    HW220053   0.690   5.114   6.132 -0.1062  0.9506  2.4657
 6559SOL     OW20054   4.899   0.211   0.579  0.5704 -0.4501  0.0098
 6559SOL    HW120055   4.897   0.273   0.506  0.6001  1.6544  1.6891
 6559SOL    HW220056   4.992   0.197   0.596  0.6500  1.2465  1.2942
 6560SOL     OW20057   4.362   6.368   3.508  0.0142 -0.0986  0.1395
 6560SOL    HW120058   4.455   6.363   3.531  0.0860 -0.4053 -0.2013
 6560SOL    HW220059   4.317   6.377   3.592  0.3663  0.2638  0.2927
 6561SOL     OW20060   5.763   6.174   3.812  0.6242 -0.4912  1.1783
 6561SOL    HW120061   5.790   6.098   3.863  2.7701 -2.0646 -1.9579
 6561SOL    HW220062   5.688   6.143   3.760  2.2423 -0.9920 -0.9949
 6562SOL     OW20063   3.436   4.427   4.086 -0.1355 -0.2276  0.1113
 6562SOL    HW120064   3.478   4.399   4.167  0.6080 -0.9714 -0.5094
 6562SOL    HW220065   3.350   4.458   4.112  0.1417 -0.3447  1.1962
 6563SOL     OW20066   5.610   4.695   3.816 -0.4665 -0.7372  0.7870
 6563SOL    HW120067   5.586   4.729   3.730 -2.0067  0.5375  1.6789
 6563SOL    HW220068   5.689   4.744   3.840 -0.6791 -0.2922  0.5816
 6564SOL     OW20069   0.939   6.758   4.350  0.1976  0.1035  0.3647
 6564SOL    HW120070   1.031   6.780   4.358  0.0154  0.3440  2.2615
 6564SOL    HW220071   0.895   6.842   4.333  0.3853 -0.1227 -1.3492
 6565SOL     OW20072   3.070   3.597   4.475  0.4756  0.1434 -0.4208
 6565SOL    HW120073   3.162   3.572   4.481 -0.1563 -2.5428 -0.6213
 6565SOL    HW220074   3.058   3.664   4.542  2.1457 -0.9267  1.0174
 6566SOL     OW20075   2.029   0.015   4.528  0.3741  0.4294 -1.2086
 6566SOL    HW120076   2.106   0.011   4.471  1.6395  0.9262  0.3853
 6566SOL    HW220077   1.987   0.097   4.505  1.1848  0.8959 -1.0749
 6567SOL     OW20078   5.040   6.597   0.878  0.0817  0.3854 -0.1367
 6567SOL    HW120079   4.986   6.666   0.840 -1.2453  0.3565  1.6096
 6567SOL    HW220080   4.980   6.524   0.892  1.4405 -1.2159 -1.9311
 6568SOL     OW20081   3.553   3.524   4.907 -0.2205 -0.1579 -0.2372
 6568SOL    HW120082   3.502   3.449   4.936 -1.3835  0.7411  0.1455
 6568SOL    HW220083   3.492   3.577   4.856  0.6651  0.3571 -0.7966
 6569SOL     OW20084   4.243   5.071   2.792  0.1685  0.0705 -0.4249
 6569SOL    HW120085   4.216   5.106   2.876 -1.3224 -1.3942 -0.2386
 6569SOL    HW220086   4.289   5.143   2.749 -1.4467  1.7321  0.5161
 6570SOL     OW20087   5.356   6.152   2.277  0.2336  0.0712 -0.2536
 6570SOL    HW120088   5.336   6.176   2.367 -0.2770  0.0637 -0.3625
 6570SOL    HW220089   5.449   6.171   2.267  0.1967  0.4641  0.1474
 6571SOL     OW20090   4.286   6.356   4.660  0.0663  0.4743 -0.0195
 6571SOL    HW120091   4.310   6.382   4.749 -0.8602  0.3501  0.2772
 6571SOL    HW220092   4.323   6.425   4.605  0.1194  0.8907  0.5190
 6572SOL     OW20093   5.804   3.859   1.195  0.0434 -0.3938  0.3507
 6572SOL    HW120094   5.759   3.816   1.267 -2.1588  0.2838 -0.5581
 6572SOL    HW220095   5.856   3.927   1.238 -0.6857 -0.4478  1.3627
 6573SOL     OW20096   6.055   3.203   1.497 -0.7509  0.0589 -0.1790
 6573SOL    HW120097   6.123   3.242   1.443  0.3968  0.0918  1.2160
 6573SOL    HW220098   5.973   3.243   1.467  0.1117  1.7549 -0.3687
 6574SOL     OW20099   2.416   4.777   6.784 -0.1544  0.2572 -0.1972
 6574SOL    HW120100   2.398   4.827   6.705  0.5348  0.7843 -0.0257
 6574SOL    HW220101   2.429   4.843   6.852 -0.4392 -0.1851  0.3001
 6575SOL     OW20102   5.620   5.957   5.052  0.5020 -0.4378 -0.1556
 6575SOL    HW120103   5.656   6.032   5.098 -0.4481  1.4672 -2.2916
 6575SOL    HW220104   5.525   5.969   5.058  0.3187  0.2717 -2.9441
 6576SOL     OW20105   0.935   2.193   0.895  0.5877 -0.3167 -0.1905
 6576SOL    HW120106   0.846   2.183   0.861  1.1709 -3.5302 -1.1913
 6576SOL    HW220107   0.947   2.116   0.950  3.3128 -1.0354 -1.6100
 6577SOL     OW20108   0.136   2.104   5.736  0.1307  0.0438 -0.2508
 6577SOL    HW120109   0.075   2.132   5.804  0.3975  0.6322 -0.2426
 6577SOL    HW220110   0.221   2.099   5.779 -0.1155 -2.2077  0.0934
 6578SOL     OW20111   0.539   0.561   6.169  0.1533 -0.0471  0.5147
 6578SOL    HW120112   0.623   0.518   6.177  0.1602 -0.1859 -0.1723
 6578SOL    HW220113   0.501   0.524   6.089 -1.1963 -1.0703  1.5964
 6579SOL     OW20114   4.284   3.123   3.553 -0.4781  0.2051  0.4034
 6579SOL    HW120115   4.223   3.164   3.493 -0.1221  1.0759  0.6300
 6579SOL    HW220116   4.360   3.181   3.554  0.2177 -0.6847  0.3905
 6580SOL     OW20117   3.591   0.148   0.817  0.4749 -0.2039 -0.4132
 6580SOL    HW120118   3.542   0.107   0.747 -1.3884  1.9278 -0.4659
 6580SOL    HW220119   3.663   0.194   0.773  0.7121 -0.7939 -0.6491
 6581SOL     OW20120   3.687   4.149   6.163  0.1662 -0.1809 -0.0383
 6581SOL    HW120121   3.642   4.067   6.143  1.3735 -0.6164 -1.0790
 6581SOL    HW220122   3.768   4.121   6.206 -1.1698  0.6408  3.3450
 6582SOL     OW20123   5.286   0.866   3.345  0.0629 -0.1199  0.2835
 6582SOL    HW120124   5.253   0.861   3.435  1.0589  2.5487  0.8850
 6582SOL    HW220125   5.379   0.847   3.353  0.6869  2.5583  0.3034
 6583SOL     OW20126   1.784   0.406   3.461  0.2223  0.0495 -0.8518
 6583SOL    HW120127   1.823   0.319   3.454  0.8263  0.3338 -1.0616
 6583SOL    HW220128   1.768   0.418   3.555 -1.6966 -1.0734 -0.9962
 6584SOL     OW20129   4.669   1.227   3.146 -0.0111  0.4648  0.0803
 6584SOL    HW120130   4.612   1.300   3.122  0.4506  0.2775 -1.7297
 6584SOL    HW220131   4.636   1.153   3.094  0.9340 -0.0164  0.1409
 6585SOL     OW20132   5.522   4.013   1.648 -0.1889 -0.2624 -0.0496
 6585SOL    HW120133   5.485   3.932   1.683 -0.3614  0.6364  1.9957
 6585SOL    HW220134   5.466   4.083   1.683  0.7307  0.8271 -0.6751
 6586SOL     OW20135   4.177   6.823   0.353 -0.4232  0.0347 -0.0143
 6586SOL    HW120136   4.213   6.879   0.421  0.4682 -0.0481 -0.3972
 6586SOL    HW220137   4.099   6.785   0.391 -1.6460  2.3059 -0.0768
 6587SOL     OW20138   3.189   3.253   5.375  0.2498  0.0284 -0.1794
 6587SOL    HW120139   3.256   3.189   5.399 -0.4757 -0.0679  1.8199
 6587SOL    HW220140   3.153   3.282   5.459 -1.8981  0.3992 -1.1584
 6588SOL     OW20141   0.218   4.757   5.181 -0.3537  0.5282  0.2917
 6588SOL    HW120142   0.132   4.767   5.223 -0.1736 -1.2031  1.1415
 6588SOL    HW220143   0.236   4.663   5.184  1.3809  0.8071 -0.2752
 6589SOL     OW20144   5.406   5.742   4.563 -0.1162 -0.0026  0.9867
 6589SOL    HW120145   5.400   5.822   4.614  2.4174  0.8021  0.1706
 6589SOL    HW220146   5.435   5.770   4.477 -0.3519 -1.7096  0.3023
 6590SOL     OW20147   1.272   2.404   5.555 -0.5409  0.0692  0.0146
 6590SOL    HW120148   1.181   2.403   5.525 -0.2115  0.7153 -1.0848
 6590SOL    HW220149   1.287   2.316   5.588 -1.3610 -0.2532 -0.4305
 6591SOL     OW20150   1.017   5.292   6.356 -0.1726  0.0437  0.2831
 6591SOL    HW120151   1.017   5.207   6.314  1.0018  0.0628  0.2000
 6591SOL    HW220152   0.959   5.346   6.302 -0.9455 -0.6988  0.3588
 6592SOL     OW20153   3.094   2.693   4.243  0.0571 -0.2154 -0.1389
 6592SOL    HW120154   3.049   2.611   4.219 -0.8714 -0.0105  0.8376
 6592SOL    HW220155   3.126   2.678   4.332  0.1056  0.3864 -0.0511
 6593SOL     OW20156   1.505   1.147   1.745  0.1923  0.2518  0.2093
 6593SOL    HW120157   1.416   1.150   1.713  0.5673 -1.0576 -1.0526
 6593SOL    HW220158   1.502   1.088   1.821 -0.4313  2.2379  1.8299
 6594SOL     OW20159   4.485   6.568   4.023  0.6612 -0.3716  0.5558
 6594SOL    HW120160   4.577   6.546   4.039  0.7317 -0.3987  0.1382
 6594SOL    HW220161   4.487   6.652   3.978  0.4877 -0.3909  0.5082
 6595SOL     OW20162   4.771   5.095   1.881  0.0346 -0.1731  0.3530
 6595SOL    HW120163   4.741   5.072   1.969  0.4376 -0.4426  0.4190
 6595SOL    HW220164   4.775   5.012   1.834 -1.4058  0.0994 -0.3134
 6596SOL     OW20165   4.331   4.156   0.540  0.4051 -0.7306  0.1035
 6596SOL    HW120166   4.302   4.103   0.466 -1.4693  0.3219  0.0202
 6596SOL    HW220167   4.349   4.242   0.501 -2.5458  0.4444  1.0508
 6597SOL     OW20168   6.402   6.022   2.360 -0.0874 -0.0270  0.1902
 6597SOL    HW120169   6.414   5.928   2.343 -0.8855  0.1188 -1.2763
 6597SOL    HW220170   6.482   6.048   2.406 -1.0329 -1.9998  3.2640
 6598SOL     OW20171   1.935   3.283   3.336  0.6235  0.1540 -0.0934
 6598SOL    HW120172   1.971   3.346   3.399  0.3358  0.8553 -0.6214
 6598SOL    HW220173   1.962   3.317   3.251 -0.7677  0.3624 -0.4699
 6599SOL     OW20174   6.243   2.796   2.459  0.3587  0.2337  0.4706
 6599SOL    HW120175   6.222   2.805   2.552  1.4869  3.0660  0.5336
 6599SOL    HW220176   6.159   2.806   2.415 -0.1008 -0.5244  1.1382
 6600SOL     OW20177   4.941   3.941   2.836  1.0529  0.1667 -0.6446
 6600SOL    HW120178   4.880   3.912   2.769  1.1441 -2.5959  0.3557
 6600SOL    HW220179   5.028   3.917   2.802  1.1958 -0.0881 -0.1173
 6601SOL     OW20180   4.456   0.526   5.431 -0.4297  0.6133  0.4733
 6601SOL    HW120181   4.374   0.556   5.470 -1.4440  1.0280 -1.8344
 6601SOL    HW220182   4.429   0.470   5.358  1.3794 -0.8168  0.8095
 6602SOL     OW20183   1.228   6.795   1.402 -0.1808 -0.2234  0.1107
 6602SOL    HW120184   1.286   6.782   1.327  0.3467 -0.3363  0.5204
 6602SOL    HW220185   1.142   6.812   1.365  0.4792  1.9573 -0.5831
 6603SOL     OW20186   0.400   3.514   3.299  0.0230  0.1609  0.3869
 6603SOL    HW120187   0.413   3.463   3.219  0.4097  0.5597  0.1935
 6603SOL    HW220188   0.306   3.509   3.316 -0.0742  0.1612 -0.1522
 6604SOL     OW20189   3.201   4.061   6.730 -0.5024 -0.0057  0.3794
 6604SOL    HW120190   3.271   4.076   6.666  0.3894 -0.1593  1.2900
 6604SOL    HW220191   3.127   4.111   6.697  0.0557  0.2117 -0.5790
 6605SOL     OW20192   0.303   1.303   5.935 -0.3877  0.7746 -0.1984
 6605SOL    HW120193   0.221   1.352   5.932 -0.5686  0.4571 -0.4698
 6605SOL    HW220194   0.368   1.366   5.967 -0.8044  0.9323  0.3586
 6606SOL     OW20195   4.488   5.969   6.139  0.4067  0.8179 -0.8793
 6606SOL    HW120196   4.407   5.918   6.132  0.2452  0.3880  2.3635
 6606SOL    HW220197   4.486   6.027   6.063 -2.0457 -0.4051 -1.8749
 6607SOL     OW20198   6.327   6.475   0.201  0.0947 -0.5115 -0.1708
 6607SOL    HW120199   6.360   6.554   0.158 -0.2180 -0.4081 -0.2314
 6607SOL    HW220200   6.255   6.507   0.256 -0.4750 -0.8396 -0.7111
 6608SOL     OW20201   6.399   0.676   4.722  0.0448  0.1594 -0.2009
 6608SOL    HW120202   6.448   0.676   4.640 -0.4952 -0.2593 -0.5279
 6608SOL    HW220203   6.396   0.585   4.749  1.4763  0.4497  1.0632
 6609SOL     OW20204   1.221   1.388   6.739 -0.4103  0.1683  0.4576
 6609SOL    HW120205   1.211   1.295   6.759 -0.1954  0.0123 -0.1397
 6609SOL    HW220206   1.154   1.431   6.792  0.0924 -0.2309  1.4509
 6610SOL     OW20207   6.178   5.439   2.022  0.3658 -0.9103  0.4098
 6610SOL    HW120208   6.265   5.458   1.987 -0.3115 -0.9291 -1.3662
 6610SOL    HW220209   6.179   5.345   2.039  0.4464 -1.0560 -0.3630
 6611SOL     OW20210   4.374   1.213   3.453  0.0876 -0.1593  0.4022
 6611SOL    HW120211   4.461   1.231   3.489  0.5591  1.1915 -1.2881
 6611SOL    HW220212   4.371   1.117   3.447  2.6603 -0.2536 -2.0820
 6612SOL     OW20213   3.342   4.030   4.080  0.2968  0.5251  0.1792
 6612SOL    HW120214   3.352   3.955   4.139  1.1967  0.4661 -0.0333
 6612SOL    HW220215   3.303   3.992   4.001  1.5135  0.0948 -0.2484
 6613SOL     OW20216   0.887   6.366   2.140 -0.2019  0.1759  0.3415
 6613SOL    HW120217   0.879   6.313   2.060  2.2665 -0.4731  0.4332
 6613SOL    HW220218   0.954   6.320   2.192 -0.6655  1.4079  2.1182
 6614SOL     OW20219   2.845   3.733   2.633 -0.6267 -0.2717  0.6198
 6614SOL    HW120220   2.797   3.687   2.564 -0.0803 -0.1446  0.1421
 6614SOL    HW220221   2.900   3.665   2.673  0.2608 -0.0424 -0.1568
 6615SOL     OW20222   3.034   5.039   3.612  0.5236 -0.5987 -0.0537
 6615SOL    HW120223   2.985   4.958   3.626 -1.9204  0.0362 -3.5355
 6615SOL    HW220224   3.124   5.011   3.599 -0.1698 -2.7534 -0.6718
 6616SOL     OW20225   3.884   5.683   2.444 -0.1706  0.4588  0.2183
 6616SOL    HW120226   3.965   5.727   2.417 -1.6790  3.0834 -0.3880
 6616SOL    HW220227   3.864   5.624   2.371  1.6561 -1.0368  0.8368
 6617SOL     OW20228   4.694   5.254   2.812 -0.5374  0.0101  0.1658
 6617SOL    HW120229   4.644   5.172   2.812 -0.1101 -0.2584  1.2845
 6617SOL    HW220230   4.628   5.323   2.821 -0.7389 -0.3251  1.3085
 6618SOL     OW20231   6.025   3.020   2.935  0.5177 -0.0522  0.0157
 6618SOL    HW120232   6.005   3.004   2.843  1.9422 -1.0236 -0.1489
 6618SOL    HW220233   5.941   3.009   2.980  0.0801 -1.0024 -0.9870
 6619SOL     OW20234   6.716   0.269   5.550  0.3549  0.2775  0.2971
 6619SOL    HW120235   6.625   0.250   5.574  0.2489 -0.0713 -0.3575
 6619SOL    HW220236   6.724   0.238   5.460  1.6003 -1.2200  0.8900
 6620SOL     OW20237   0.361   2.088   2.011 -0.4483 -0.2222 -0.6507
 6620SOL    HW120238   0.415   2.009   2.021  0.9436  0.3989 -2.5202
 6620SOL    HW220239   0.414   2.146   1.956 -0.8508  2.6011  1.6811
 6621SOL     OW20240   6.407   4.505   4.544 -0.3857  0.2162 -0.1859
 6621SOL    HW120241   6.329   4.512   4.600  1.1768 -0.3688  2.2304
 6621SOL    HW220242   6.378   4.536   4.459 -2.5812  2.5137  1.2543
 6622SOL     OW20243   0.939   3.280   5.436 -0.2431 -0.1442 -0.0707
 6622SOL    HW120244   0.992   3.202   5.421 -2.4587 -2.1387  1.5609
 6622SOL    HW220245   0.862   3.267   5.381 -1.1716  0.2634  1.0739
 6623SOL     OW20246   3.926   1.564   2.583 -0.5534 -1.0493 -0.2273
 6623SOL    HW120247   4.012   1.535   2.614  0.5158  0.1448 -1.9621
 6623SOL    HW220248   3.907   1.643   2.634 -0.3836 -1.0146 -0.2180
 6624SOL     OW20249   2.841   3.472   4.446 -0.3035 -0.2272 -0.4712
 6624SOL    HW120250   2.925   3.517   4.459 -0.1991 -0.1749 -1.2554
 6624SOL    HW220251   2.865   3.380   4.434 -0.3999 -0.2853 -0.2161
 6625SOL     OW20252   1.582   6.705   3.878  0.0889  0.5163  0.1229
 6625SOL    HW120253   1.672   6.726   3.855  0.0080  0.8044  0.0675
 6625SOL    HW220254   1.550   6.782   3.925  0.0191  0.2267  0.5504
 6626SOL     OW20255   0.862   4.021   2.495  0.5399  0.1814  0.1884
 6626SOL    HW120256   0.905   4.004   2.411  1.0798  0.9174  0.3137
 6626SOL    HW220257   0.931   4.012   2.560 -0.3179 -2.7413  0.8524
 6627SOL     OW20258   2.021   1.563   2.337 -0.5097  0.2560  0.0121
 6627SOL    HW120259   2.074   1.576   2.258  0.3777  1.5968  0.7860
 6627SOL    HW220260   1.985   1.474   2.328 -0.3267  0.3270 -1.8170
 6628SOL     OW20261   3.212   1.992   0.234  0.3423 -0.2067  0.0476
 6628SOL    HW120262   3.299   2.017   0.268  1.0331 -0.8565 -1.1789
 6628SOL    HW220263   3.206   2.038   0.151 -0.3986 -0.3651  0.0143
 6629SOL     OW20264   4.967   2.582   1.126 -0.0318  0.4795  0.0363
 6629SOL    HW120265   4.879   2.549   1.144 -0.5947  0.8453 -1.8783
 6629SOL    HW220266   4.960   2.677   1.136  0.1638  0.5073 -0.0801
 6630SOL     OW20267   4.355   0.251   3.097  0.3404  0.6888 -0.0323
 6630SOL    HW120268   4.382   0.224   3.185 -0.3991 -0.0344 -0.0168
 6630SOL    HW220269   4.300   0.179   3.066  0.7832  0.8282 -1.1867
 6631SOL     OW20270   1.214   4.217   6.456 -0.0383  0.2269 -0.2739
 6631SOL    HW120271   1.151   4.252   6.393 -0.1831  0.1593 -0.1653
 6631SOL    HW220272   1.293   4.270   6.442  0.3034 -0.5197 -1.2894
 6632SOL     OW20273   6.298   6.216   3.580  0.0531 -0.3993  0.1311
 6632SOL    HW120274   6.311   6.178   3.493  2.3333  0.4381  0.0390
 6632SOL    HW220275   6.372   6.184   3.632 -1.0935 -0.6287  1.6933
 6633SOL     OW20276   2.681   0.344   5.270 -0.6155  0.0798 -0.2104
 6633SOL    HW120277   2.663   0.368   5.361 -2.0630  0.3803 -0.5392
 6633SOL    HW220278   2.775   0.355   5.260 -0.4584  0.1896  1.2099
 6634SOL     OW20279   4.100   4.899   0.292  0.0541  0.4123 -0.5138
 6634SOL    HW120280   4.023   4.919   0.344  1.1311 -0.6357  1.6269
 6634SOL    HW220281   4.066   4.879   0.205 -2.0690  0.1268  0.3243
 6635SOL     OW20282   2.036   4.997   4.985  0.1524  0.2908 -0.4061
 6635SOL    HW120283   2.042   4.920   5.042 -0.8372 -0.1821 -0.9170
 6635SOL    HW220284   1.991   5.063   5.038  0.3856  0.2903 -0.2053
 6636SOL     OW20285   0.728   1.049   6.345  0.7563 -0.4098 -0.0013
 6636SOL    HW120286   0.755   1.015   6.430  1.2028 -1.4085 -0.5247
 6636SOL    HW220287   0.810   1.074   6.301  0.3780  3.6414  1.2194
 6637SOL     OW20288   4.237   5.591   5.958  0.0333  0.1423  0.2735
 6637SOL    HW120289   4.297   5.630   5.894  0.2717  0.8574  0.9159
 6637SOL    HW220290   4.291   5.531   6.008  0.2182  0.7771  0.8440
 6638SOL     OW20291   3.438   3.545   6.473 -0.0483  0.0497  0.0944
 6638SOL    HW120292   3.475   3.609   6.412  0.3916 -0.0416  0.2570
 6638SOL    HW220293   3.437   3.591   6.557 -1.6533  0.5461 -0.1753
 6639SOL     OW20294   1.927   3.763   3.409 -0.5217 -0.3341  0.1585
 6639SOL    HW120295   1.985   3.690   3.385 -1.9328 -0.5142 -3.2230
 6639SOL    HW220296   1.964   3.839   3.365 -1.3184  0.1575  0.3236
 6640SOL     OW20297   3.995   1.567   0.264  0.1246 -0.0664 -0.1033
 6640SOL    HW120298   3.991   1.473   0.245  0.7240 -0.1798  0.3049
 6640SOL    HW220299   3.927   1.605   0.209  0.3902 -0.6456 -0.8455
 6641SOL     OW20300   0.185   1.735   3.723 -0.0780 -0.1391 -0.3612
 6641SOL    HW120301   0.184   1.801   3.654  2.1738  0.6470  0.2624
 6641SOL    HW220302   0.147   1.778   3.799  1.7788  0.6580  0.1659
 6642SOL     OW20303   3.224   5.881   1.199 -0.2769  0.0069  0.3519
 6642SOL    HW120304   3.252   5.904   1.111  1.4167 -1.4480  0.4294
 6642SOL    HW220305   3.229   5.962   1.249 -1.3431  0.8620 -0.8797
 6643SOL     OW20306   3.135   2.451   0.327  0.4531 -0.0746  0.3687
 6643SOL    HW120307   3.076   2.396   0.276  0.3907 -0.6519  1.0440
 6643SOL    HW220308   3.221   2.411   0.317  0.4623 -0.1194  0.6036
 6644SOL     OW20309   4.491   3.653   6.367 -0.3276  0.4773  0.2484
 6644SOL    HW120310   4.546   3.591   6.318 -0.5699  0.5616 -0.1390
 6644SOL    HW220311   4.409   3.655   6.318 -1.7893 -1.8314  2.3894
 6645SOL     OW20312   1.441   5.288   6.641  0.7556  0.6188 -0.0783
 6645SOL    HW120313   1.475   5.363   6.690  1.1493 -0.6193  1.6339
 6645SOL    HW220314   1.507   5.220   6.652 -0.4613 -0.5830  0.0094
 6646SOL     OW20315   3.770   4.176   2.877 -0.6797 -0.5063  0.0147
 6646SOL    HW120316   3.815   4.180   2.961  0.1978  2.9314 -0.4376
 6646SOL    HW220317   3.840   4.165   2.813 -1.2447 -2.0376 -0.3861
 6647SOL     OW20318   3.367   3.557   4.524  0.6331  0.3544 -0.0552
 6647SOL    HW120319   3.434   3.493   4.549 -0.0363 -0.5016 -0.3741
 6647SOL    HW220320   3.361   3.550   4.429 -0.5724 -0.3097  0.0359
 6648SOL     OW20321   5.559   1.413   5.508  0.0864 -0.0642 -0.0943
 6648SOL    HW120322   5.644   1.377   5.535 -0.0084 -2.0385 -2.1038
 6648SOL    HW220323   5.532   1.469   5.580  1.9597 -1.3117  1.6747
 6649SOL     OW20324   2.685   3.106   5.348  0.4882 -0.7216  0.3506
 6649SOL    HW120325   2.634   3.069   5.276 -0.4835 -1.1909  1.2584
 6649SOL    HW220326   2.774   3.074   5.333  0.1910 -1.2209 -0.3691
 6650SOL     OW20327   2.007   1.427   3.160  0.2103 -0.2637  0.1104
 6650SOL    HW120328   2.056   1.417   3.078 -1.8333  0.7631 -1.3341
 6650SOL    HW220329   1.993   1.522   3.167  1.2290 -0.2102  2.2562
 6651SOL     OW20330   6.607   5.528   2.498 -0.2852  0.0213  0.0687
 6651SOL    HW120331   6.598   5.459   2.433 -2.5982 -0.6550  1.0133
 6651SOL    HW220332   6.702   5.544   2.503  0.0207 -0.2734 -2.9968
 6652SOL     OW20333   2.878   5.677   3.505 -0.9535  0.1758 -0.2474
 6652SOL    HW120334   2.953   5.700   3.450  0.5795 -2.4722  0.5570
 6652SOL    HW220335   2.899   5.715   3.590 -0.9181  0.1493 -0.2438
 6653SOL     OW20336   3.966   5.619   1.257  0.0959 -0.4623 -0.1303
 6653SOL    HW120337   3.874   5.634   1.236 -0.5010 -1.3143  1.6658
 6653SOL    HW220338   4.000   5.568   1.183 -1.3653 -1.6874  0.0004
 6654SOL     OW20339   0.172   4.747   0.248 -0.2229 -0.3530 -0.2351
 6654SOL    HW120340   0.202   4.797   0.325 -0.9089 -0.3980  0.0636
 6654SOL    HW220341   0.092   4.704   0.277 -0.7344 -0.0104 -1.1267
 6655SOL     OW20342   5.968   2.913   5.454  0.1038 -0.0070 -0.0172
 6655SOL    HW120343   5.887   2.936   5.409  0.5904 -1.1784 -1.5805
 6655SOL    HW220344   6.037   2.960   5.406  0.3360  1.3718  1.5957
 6656SOL     OW20345   1.210   2.121   3.465  0.5308 -0.2861 -0.3293
 6656SOL    HW120346   1.188   2.095   3.555 -0.7199 -0.5429 -0.6925
 6656SOL    HW220347   1.264   2.049   3.433  1.9758  0.3537  0.5834
 6657SOL     OW20348   0.137   3.655   5.499 -0.1916  0.3535  0.1424
 6657SOL    HW120349   0.211   3.706   5.466  0.6587 -0.8018  0.1728
 6657SOL    HW220350   0.094   3.712   5.562  0.5119  1.1569 -0.0876
 6658SOL     OW20351   3.299   4.130   0.184  0.4000  0.2898 -0.0866
 6658SOL    HW120352   3.280   4.047   0.139  2.8327  0.6614 -2.0273
 6658SOL    HW220353   3.363   4.106   0.251  1.1447  0.5735 -0.6837
 6659SOL     OW20354   0.531   0.420   3.247 -0.0270 -0.4406  0.0215
 6659SOL    HW120355   0.570   0.344   3.204  0.7085 -0.0531 -0.0177
 6659SOL    HW220356   0.466   0.452   3.185  0.4236 -0.3987 -0.4384
 6660SOL     OW20357   3.172   6.283   4.901 -0.0099 -0.2181  0.4422
 6660SOL    HW120358   3.179   6.227   4.824 -0.9606 -1.2684  1.0976
 6660SOL    HW220359   3.153   6.370   4.865 -0.6773 -0.7380 -0.5141
 6661SOL     OW20360   2.384   1.250   6.696 -0.0072  0.0532  0.4446
 6661SOL    HW120361   2.384   1.170   6.644 -2.3812 -1.4943  2.6023
 6661SOL    HW220362   2.455   1.302   6.660  0.2881 -2.1034 -2.4203
 6662SOL     OW20363   0.445   2.170   0.075 -0.0076 -0.0516 -0.2834
 6662SOL    HW120364   0.366   2.169   0.022 -0.8840 -1.4033  0.9792
 6662SOL    HW220365   0.511   2.127   0.021 -0.8113 -1.1654 -0.4089
 6663SOL     OW20366   5.514   2.314   0.360 -0.3958  0.1732  0.2640
 6663SOL    HW120367   5.452   2.384   0.341 -0.0265  0.4827  0.1844
 6663SOL    HW220368   5.459   2.238   0.380 -0.8074  0.0839 -1.0822
 6664SOL     OW20369   3.032   2.049   4.340  0.0656  0.4778  0.1745
 6664SOL    HW120370   2.939   2.047   4.315 -0.6080 -1.6515  2.4518
 6664SOL    HW220371   3.074   1.987   4.281 -0.1197  0.7658 -0.2678
 6665SOL     OW20372   1.461   6.225   0.161  0.9432  0.5007  0.2678
 6665SOL    HW120373   1.434   6.317   0.166  1.7116  0.7205  0.5585
 6665SOL    HW220374   1.458   6.194   0.251  0.8494  0.2936  0.1937
 6666SOL     OW20375   5.508   0.214   6.642 -0.5851  0.0278  0.4715
 6666SOL    HW120376   5.506   0.211   6.546  0.5495 -0.3490  0.4529
 6666SOL    HW220377   5.487   0.305   6.663  2.5498  1.0301 -0.2742
 6667SOL     OW20378   3.158   0.269   2.565  0.5327  0.2472 -0.5099
 6667SOL    HW120379   3.067   0.241   2.558 -0.4035  2.8247 -0.0391
 6667SOL    HW220380   3.196   0.213   2.632 -1.3112  0.3945  0.7200
 6668SOL     OW20381   5.149   4.511   3.579 -0.3148 -0.3103 -0.4177
 6668SOL    HW120382   5.127   4.488   3.489 -0.6073  0.3246 -0.5125
 6668SOL    HW220383   5.091   4.584   3.601 -0.6046 -0.7868  0.4572
 6669SOL     OW20384   5.646   2.634   0.196  0.0857 -0.2799  0.0533
 6669SOL    HW120385   5.576   2.608   0.135 -0.4738  2.0606 -0.3995
 6669SOL    HW220386   5.607   2.624   0.283 -1.1787  1.7612 -0.2175
 6670SOL     OW20387   3.459   0.393   1.543 -0.0319 -0.0751  0.0453
 6670SOL    HW120388   3.524   0.358   1.604 -1.1642  1.9027  2.5705
 6670SOL    HW220389   3.511   0.444   1.479  1.0927 -1.0996  0.1126
 6671SOL     OW20390   5.445   2.634   3.853 -0.3360 -0.7726  0.1506
 6671SOL    HW120391   5.366   2.646   3.801 -0.0431  0.1657 -0.1017
 6671SOL    HW220392   5.517   2.650   3.792  0.0043  0.7530  0.8987
 6672SOL     OW20393   3.845   1.297   4.301 -0.0635  0.3424 -0.3585
 6672SOL    HW120394   3.900   1.280   4.224 -0.9630  1.8807 -1.3976
 6672SOL    HW220395   3.868   1.387   4.326  0.6764 -0.3543  1.5969
 6673SOL     OW20396   2.605   4.573   4.427  0.4582  0.2099 -0.1453
 6673SOL    HW120397   2.667   4.540   4.492  1.1885 -0.6203 -1.2191
 6673SOL    HW220398   2.532   4.608   4.479  1.1259 -0.1913  1.1135
 6674SOL     OW20399   0.937   0.190   0.869  0.0716  0.0621 -0.3559
 6674SOL    HW120400   1.016   0.227   0.910  0.5620 -0.5566 -0.7249
 6674SOL    HW220401   0.898   0.135   0.937  0.1252  0.1274 -0.2721
 6675SOL     OW20402   5.127   1.607   1.706  0.3691 -0.2042 -0.4996
 6675SOL    HW120403   5.169   1.683   1.747 -1.5448  0.1694  0.8714
 6675SOL    HW220404   5.147   1.534   1.765  1.0408 -0.5211 -1.0972
 6676SOL     OW20405   0.098   4.693   1.217 -0.0584  0.2553 -0.0521
 6676SOL    HW120406   0.103   4.662   1.307  1.2556  1.5363  0.3616
 6676SOL    HW220407   0.013   4.737   1.211 -1.0446 -1.5506 -0.0661
 6677SOL     OW20408   2.101   1.515   1.515  0.5005 -0.2998  0.2919
 6677SOL    HW120409   2.077   1.434   1.561 -1.4407  1.3994  2.4966
 6677SOL    HW220410   2.146   1.567   1.581 -0.2606  1.2879 -0.3962
 6678SOL     OW20411   0.169   3.209   0.843  0.3890  0.3315  0.2692
 6678SOL    HW120412   0.078   3.181   0.843  1.1069 -2.3861  1.8945
 6678SOL    HW220413   0.176   3.269   0.769 -2.6354  0.4629 -0.0311
 6679SOL     OW20414   1.014   3.016   1.525  0.2034 -0.2440 -0.3154
 6679SOL    HW120415   0.951   2.946   1.541  0.8386 -1.1554 -1.5756
 6679SOL    HW220416   0.996   3.081   1.592 -2.0327 -0.5036 -0.5887
 6680SOL     OW20417   2.889   1.505   6.326 -0.1702  0.5572 -0.3230
 6680SOL    HW120418   2.837   1.553   6.261 -0.6118 -0.5082 -0.7715
 6680SOL    HW220419   2.934   1.438   6.276 -2.3787 -1.8739  0.7154
 6681SOL     OW20420   2.832   6.613   5.734  0.0596  0.0219 -0.9344
 6681SOL    HW120421   2.793   6.667   5.666 -0.2669 -0.9809 -1.5602
 6681SOL    HW220422   2.767   6.611   5.804  1.1323  2.5844  0.2779
 6682SOL     OW20423   4.698   4.805   2.370 -0.6177  0.6809  0.7351
 6682SOL    HW120424   4.714   4.758   2.288 -1.7129  0.3746  0.6701
 6682SOL    HW220425   4.615   4.851   2.355  0.1010  2.1207  1.0389
 6683SOL     OW20426   5.534   0.116   5.474  0.0879  0.3255 -0.1365
 6683SOL    HW120427   5.521   0.201   5.516 -2.5452  0.6541 -1.3834
 6683SOL    HW220428   5.607   0.129   5.414  1.5413  0.8440  1.6442
 6684SOL     OW20429   1.471   3.750   1.466 -0.6223  0.0682  0.1674
 6684SOL    HW120430   1.434   3.835   1.490 -3.1394 -0.7739 -0.3553
 6684SOL    HW220431   1.462   3.747   1.370  1.7602  0.1573 -0.1111
 6685SOL     OW20432   0.724   2.740   1.417 -0.5220  0.0418 -0.7332
 6685SOL    HW120433   0.724   2.665   1.358 -1.3781 -1.0871  0.6423
 6685SOL    HW220434   0.635   2.775   1.412 -0.0673  1.1400 -1.5385
 6686SOL     OW20435   3.604   3.440   4.162  0.3309 -0.0914  0.1867
 6686SOL    HW120436   3.576   3.383   4.091  0.4293 -1.0045  0.8582
 6686SOL    HW220437   3.649   3.512   4.119 -0.9770  0.2011 -0.7752
 6687SOL     OW20438   5.685   1.001   6.254  0.7681 -0.3099 -0.0880
 6687SOL    HW120439   5.743   1.076   6.239  2.1252 -1.0838  1.0269
 6687SOL    HW220440   5.738   0.925   6.230  0.2881 -1.0551  1.1545
 6688SOL     OW20441   0.706   6.185   6.772  0.1593 -0.5065  0.2410
 6688SOL    HW120442   0.670   6.264   6.811  1.7205  0.3990 -0.0900
 6688SOL    HW220443   0.759   6.146   6.842  0.0612 -0.8188  0.1429
 6689SOL     OW20444   4.766   5.979   6.013  0.1552  0.1385  0.2538
 6689SOL    HW120445   4.697   5.938   6.066 -0.0760  2.2332  1.6987
 6689SOL    HW220446   4.730   6.065   5.990  1.5623  0.5353 -0.5688
 6690SOL     OW20447   1.291   0.875   0.373  0.4779 -0.2463  0.0803
 6690SOL    HW120448   1.316   0.932   0.300 -1.7864  0.3057 -0.3177
 6690SOL    HW220449   1.250   0.799   0.332 -0.9342  0.1293  0.7480
 6691SOL     OW20450   1.954   3.666   1.976 -0.2753  0.1551 -0.7684
 6691SOL    HW120451   2.010   3.740   1.952 -1.6835  1.4015 -0.3551
 6691SOL    HW220452   1.865   3.701   1.975 -0.8597 -1.1003  0.9793
 6692SOL     OW20453   6.301   1.841   4.302  0.1038  0.0557  0.2137
 6692SOL    HW120454   6.308   1.882   4.216  3.1316  2.3123  1.3361
 6692SOL    HW220455   6.229   1.888   4.345  0.4459  0.9352 -0.1502
 6693SOL     OW20456   3.306   3.370   6.752  0.0385 -0.5108 -0.5649
 6693SOL    HW120457   3.336   3.377   6.842 -1.3052 -0.4143 -0.1009
 6693SOL    HW220458   3.275   3.458   6.730 -0.9090 -0.8469 -0.6294
 6694SOL     OW20459   4.146   2.288   0.746  0.0934 -0.1789 -0.3311
 6694SOL    HW120460   4.147   2.271   0.652 -0.0271 -0.1232 -0.3429
 6694SOL    HW220461   4.201   2.366   0.756  0.6337 -0.5622 -0.2779
 6695SOL     OW20462   3.544   4.059   1.214 -0.1568  0.2291 -0.7979
 6695SOL    HW120463   3.627   4.012   1.206  0.6949  1.7963 -1.6330
 6695SOL    HW220464   3.524   4.056   1.308  1.0362  0.1338 -0.5247
 6696SOL     OW20465   2.935   6.026   0.573  0.6240 -0.8184  0.0137
 6696SOL    HW120466   3.017   5.981   0.555 -0.0855 -2.5536  0.8992
 6696SOL    HW220467   2.927   6.090   0.502  3.7296  0.8860  1.0312
 6697SOL     OW20468   0.424   0.489   5.716 -0.4951 -0.3301 -0.2463
 6697SOL    HW120469   0.366   0.485   5.792 -0.0846 -0.2852  0.0704
 6697SOL    HW220470   0.377   0.545   5.654 -0.8948 -0.4794 -0.0862
 6698SOL     OW20471   3.795   2.598   0.298 -0.3883  0.0909  0.2655
 6698SOL    HW120472   3.834   2.510   0.295 -1.9254 -0.6141 -1.9423
 6698SOL    HW220473   3.716   2.586   0.352 -0.9913 -0.1074 -0.6333
 6699SOL     OW20474   0.609   3.482   2.534  0.0129 -0.0613  0.2010
 6699SOL    HW120475   0.645   3.490   2.623  0.4266  1.1970 -0.0640
 6699SOL    HW220476   0.515   3.490   2.546  0.1384  1.4365  0.4191
 6700SOL     OW20477   5.353   0.489   0.406  0.0474  0.1505  0.0291
 6700SOL    HW120478   5.409   0.550   0.358  1.3704 -0.0704  1.2349
 6700SOL    HW220479   5.291   0.457   0.340 -0.9735  3.0777 -0.5678
 6701SOL     OW20480   1.839   5.945   5.276 -0.5156 -0.2507  0.0697
 6701SOL    HW120481   1.900   5.897   5.221  1.1866 -0.6298  2.1469
 6701SOL    HW220482   1.799   6.010   5.218  2.0036  0.1634 -1.3436
 6702SOL     OW20483   6.201   4.413   4.930  0.2178 -0.2565 -0.0106
 6702SOL    HW120484   6.183   4.436   5.021 -0.6609 -2.1281  0.3486
 6702SOL    HW220485   6.296   4.420   4.922  0.2185  0.8884  0.7525
 6703SOL     OW20486   6.195   4.375   3.926  0.2107 -0.3150  0.1210
 6703SOL    HW120487   6.278   4.384   3.879 -0.2165 -0.1782 -0.6214
 6703SOL    HW220488   6.132   4.349   3.858 -0.1899 -1.2090  0.8160
 6704SOL     OW20489   4.229   6.262   1.334  0.5233 -0.0881 -0.4173
 6704SOL    HW120490   4.275   6.186   1.298  2.4297 -0.5638  2.6427
 6704SOL    HW220491   4.148   6.227   1.370  0.5340 -0.3299 -0.6279
 6705SOL     OW20492   5.356   3.289   6.778 -0.0455  0.4464 -0.4954
 6705SOL    HW120493   5.318   3.234   6.846  1.7975  1.1944  1.2471
 6705SOL    HW220494   5.304   3.369   6.779 -0.4269  0.1992 -0.4448
 6706SOL     OW20495   6.522   5.181   3.393 -0.4448 -0.2154 -0.6198
 6706SOL    HW120496   6.601   5.154   3.344  1.3251  1.8182  0.9272
 6706SOL    HW220497   6.495   5.262   3.351 -2.1979 -1.2323 -1.5553
 6707SOL     OW20498   0.125   2.577   5.092  0.3674  0.4937  0.4508
 6707SOL    HW120499   0.144   2.667   5.066 -1.1312  0.4385 -0.9801
 6707SOL    HW220500   0.142   2.525   5.014  1.0860 -0.4580  1.2276
 6708SOL     OW20501   6.817   0.545   4.159  0.3452  0.3212  0.1734
 6708SOL    HW120502   6.768   0.509   4.233 -0.5212  1.4966  0.1921
 6708SOL    HW220503   6.838   0.634   4.185 -1.1492  1.2241 -1.5224
 6709SOL     OW20504   2.503   0.945   2.512 -0.5686  0.1056 -0.3096
 6709SOL    HW120505   2.535   0.865   2.469 -1.1267  0.0235 -0.5808
 6709SOL    HW220506   2.409   0.931   2.522 -0.6312  0.6272 -0.1309
 6710SOL     OW20507   4.842   2.851   3.714 -0.3234  0.1360 -0.0404
 6710SOL    HW120508   4.747   2.862   3.716 -0.2903  0.4782  1.7569
 6710SOL    HW220509   4.866   2.859   3.622 -1.7002  3.1171 -0.2483
 6711SOL     OW20510   0.691   5.845   5.589 -0.1097 -0.0959 -0.2410
 6711SOL    HW120511   0.674   5.899   5.666 -1.0694  0.0149 -0.5067
 6711SOL    HW220512   0.663   5.757   5.614  1.0126 -0.3920  0.0329
 6712SOL     OW20513   5.486   4.240   3.821 -0.4533  0.0305  0.2557
 6712SOL    HW120514   5.513   4.258   3.731  2.1327  2.0427  1.3321
 6712SOL    HW220515   5.402   4.286   3.831  0.6745  2.3012 -0.3155
 6713SOL     OW20516   1.351   4.327   1.078 -0.2323  0.3146 -0.4533
 6713SOL    HW120517   1.296   4.406   1.079  0.5378  0.8595  0.4404
 6713SOL    HW220518   1.353   4.301   0.986  0.1637  1.8246 -0.9010
 6714SOL     OW20519   3.973   1.546   1.233 -0.1120  0.0038  0.5272
 6714SOL    HW120520   4.017   1.600   1.299 -1.9691 -0.2539  2.0828
 6714SOL    HW220521   3.932   1.610   1.175 -1.0856  0.3054  1.5057
 6715SOL     OW20522   0.099   6.763   2.778 -0.3315  0.3302 -0.5422
 6715SOL    HW120523   0.158   6.809   2.719  0.6940 -1.0455 -0.6321
 6715SOL    HW220524   0.097   6.673   2.746  0.2049 -0.4517  1.4485
 6716SOL     OW20525   5.564   2.401   2.426 -0.0877  0.2537  0.4173
 6716SOL    HW120526   5.577   2.493   2.402  0.6977  0.1640  0.4519
 6716SOL    HW220527   5.553   2.356   2.343  3.1484 -0.1349  0.0678
 6717SOL     OW20528   6.320   4.696   3.892  0.4335  0.3962 -0.2390
 6717SOL    HW120529   6.361   4.777   3.921  0.6435  0.3485 -0.3966
 6717SOL    HW220530   6.266   4.668   3.965  2.5430 -0.8368  0.9287
 6718SOL     OW20531   2.278   4.882   2.349  0.7774  0.1918  0.4345
 6718SOL    HW120532   2.183   4.882   2.340  0.8508 -0.8456 -0.5340
 6718SOL    HW220533   2.307   4.957   2.296  0.5185  0.3232  0.4783
 6719SOL     OW20534   1.575   0.737   0.169  0.0642 -0.3082  0.2059
 6719SOL    HW120535   1.646   0.727   0.233  1.5388  1.6003 -1.0267
 6719SOL    HW220536   1.549   0.829   0.177 -2.3655 -0.9433  0.6337
 6720SOL     OW20537   2.502   6.045   4.383 -0.5205  0.3972  0.5399
 6720SOL    HW120538   2.450   6.016   4.307 -1.6685  0.8547  1.1237
 6720SOL    HW220539   2.486   6.139   4.388  0.3010  0.5290  0.8027
 6721SOL     OW20540   5.298   4.142   4.795  0.5134 -0.5406 -0.2230
 6721SOL    HW120541   5.318   4.183   4.879  0.1824 -2.0516  0.6361
 6721SOL    HW220542   5.234   4.200   4.755  0.6651  0.1971  0.5699
 6722SOL     OW20543   1.234   0.712   1.820 -0.3589  0.0408  0.1153
 6722SOL    HW120544   1.195   0.706   1.907 -0.6034  0.2793  0.0228
 6722SOL    HW220545   1.232   0.622   1.787  0.8514 -0.2750  0.8309
 6723SOL     OW20546   0.431   1.860   4.427 -0.0536 -0.1100 -0.2837
 6723SOL    HW120547   0.477   1.800   4.485  1.8326  2.1573  0.7118
 6723SOL    HW220548   0.387   1.803   4.363  1.9741 -2.5058  0.3096
 6724SOL     OW20549   6.449   3.366   5.435  0.0725 -0.2595  0.1888
 6724SOL    HW120550   6.478   3.457   5.434  0.3232 -0.3345 -0.8265
 6724SOL    HW220551   6.510   3.322   5.494  0.0797  0.1872  0.5206
 6725SOL     OW20552   2.173   4.135   6.192 -0.0074 -0.4049 -0.3352
 6725SOL    HW120553   2.199   4.123   6.284 -1.6163  1.3257  0.4347
 6725SOL    HW220554   2.223   4.211   6.163  1.5238 -1.7486 -1.4020
 6726SOL     OW20555   5.188   4.986   0.250 -0.5360 -0.2419 -0.0047
 6726SOL    HW120556   5.203   5.070   0.293  2.5657 -0.6582 -0.0850
 6726SOL    HW220557   5.162   4.927   0.321  1.9127 -0.2854  0.9236
 6727SOL     OW20558   4.117   5.211   5.446  0.7988  0.1671  0.3284
 6727SOL    HW120559   4.161   5.260   5.516  1.8754  1.1302 -0.9664
 6727SOL    HW220560   4.189   5.179   5.391  0.0242 -1.4569  0.1871
 6728SOL     OW20561   2.255   3.837   5.034 -0.1397 -0.4492  0.2792
 6728SOL    HW120562   2.216   3.841   5.121  0.1850 -0.1721  0.4172
 6728SOL    HW220563   2.187   3.867   4.975 -0.0732  0.2146  0.5366
 6729SOL     OW20564   5.020   2.256   6.073 -0.2205  0.0993 -0.6786
 6729SOL    HW120565   4.934   2.263   6.114  0.4340 -0.4498  0.8782
 6729SOL    HW220566   5.034   2.342   6.032 -0.3416  1.2430  1.5015
 6730SOL     OW20567   0.334   5.671   6.703  0.4650 -0.4622  0.5546
 6730SOL    HW120568   0.355   5.759   6.734  2.8155 -0.2643 -1.3514
 6730SOL    HW220569   0.251   5.650   6.747 -0.3882  2.8101  0.8185
 6731SOL     OW20570   0.780   5.949   0.112  0.5488  0.6854  0.3476
 6731SOL    HW120571   0.729   5.868   0.104 -0.7625  1.5776 -0.6888
 6731SOL    HW220572   0.753   5.987   0.195 -0.1280  0.9184  0.0227
 6732SOL     OW20573   4.297   3.028   4.900  0.2894  0.2518  0.3995
 6732SOL    HW120574   4.328   3.011   4.812  1.3544  2.9450  0.1628
 6732SOL    HW220575   4.294   2.942   4.942 -0.4848 -1.1304 -2.2865
 6733SOL     OW20576   0.824   4.924   4.487 -0.0519 -0.7877 -0.7298
 6733SOL    HW120577   0.745   4.941   4.539  0.8634 -1.1309  0.8132
 6733SOL    HW220578   0.821   4.990   4.418 -2.0963 -1.2918 -1.2062
 6734SOL     OW20579   2.895   0.511   3.127  0.1454 -0.7125  0.4958
 6734SOL    HW120580   2.963   0.546   3.069 -0.9050  0.2599 -0.1927
 6734SOL    HW220581   2.844   0.452   3.072 -0.0418 -0.8420  0.8056
 6735SOL     OW20582   1.854   0.219   4.469  0.3932  0.5956 -0.0504
 6735SOL    HW120583   1.891   0.280   4.532  1.4543 -1.1256  1.0918
 6735SOL    HW220584   1.762   0.245   4.461  0.2954  1.0439  2.0067
 6736SOL     OW20585   5.512   1.905   5.572  0.9835 -0.3971  0.4293
 6736SOL    HW120586   5.471   1.877   5.490  0.3942 -1.1728  0.9802
 6736SOL    HW220587   5.533   1.997   5.557  0.3955 -0.3815 -0.4047
 6737SOL     OW20588   1.946   4.732   0.596  0.0997  0.0498 -0.3016
 6737SOL    HW120589   1.850   4.727   0.592 -0.0184  0.3303  1.3544
 6737SOL    HW220590   1.968   4.810   0.545 -0.5989  0.1862 -0.4032
 6738SOL     OW20591   4.356   4.628   5.324  0.3940 -0.1735 -0.0845
 6738SOL    HW120592   4.322   4.553   5.276  0.2357 -0.1048 -0.0815
 6738SOL    HW220593   4.451   4.616   5.324  0.3572 -0.4778  0.0913
 6739SOL     OW20594   4.529   0.323   0.614  0.1123 -0.0244 -0.0648
 6739SOL    HW120595   4.543   0.249   0.555  0.9223  1.4272 -1.7668
 6739SOL    HW220596   4.614   0.368   0.616 -0.2466  0.6365  1.2770
 6740SOL     OW20597   5.967   1.090   6.195  0.7317  1.0791  0.0274
 6740SOL    HW120598   5.969   1.175   6.151 -0.3775  0.0480 -2.2059
 6740SOL    HW220599   6.025   1.034   6.143  0.1848  0.0704  0.4613
 6741SOL     OW20600   6.461   5.967   4.927  0.7204  0.3543 -0.0386
 6741SOL    HW120601   6.537   5.953   4.870  1.6218 -0.4536  1.3157
 6741SOL    HW220602   6.424   5.880   4.940 -0.0581  0.6606 -0.1650
 6742SOL     OW20603   6.827   1.273   6.769 -0.1149 -0.4718  0.2096
 6742SOL    HW120604   6.764   1.240   6.833 -0.7521 -0.5984 -0.4782
 6742SOL    HW220605   6.909   1.230   6.793  0.0166  0.5821  1.8359
 6743SOL     OW20606   4.505   0.430   4.518  0.2604 -0.3770 -0.1971
 6743SOL    HW120607   4.444   0.417   4.446 -0.0047  0.9929 -0.2377
 6743SOL    HW220608   4.540   0.518   4.504  1.3828 -0.6985  0.4720
 6744SOL     OW20609   5.778   5.554   6.690 -0.3729  0.0398  0.1440
 6744SOL    HW120610   5.836   5.611   6.639 -0.2582  1.8646  2.1590
 6744SOL    HW220611   5.749   5.488   6.628  2.7559 -0.1587 -1.3202
 6745SOL     OW20612   6.692   4.919   3.657  0.2348 -0.4117  0.6695
 6745SOL    HW120613   6.743   4.927   3.738 -0.4158 -2.7152  1.3892
 6745SOL    HW220614   6.750   4.951   3.589  2.1090 -1.5226  1.6565
 6746SOL     OW20615   1.983   3.032   2.923 -0.0526 -0.0785 -0.0673
 6746SOL    HW120616   1.935   2.963   2.968 -0.9741  0.9446  0.5767
 6746SOL    HW220617   2.020   2.990   2.845  0.2127 -1.5017  0.8110
 6747SOL     OW20618   4.353   5.473   0.622 -0.1820 -0.5602  0.2566
 6747SOL    HW120619   4.289   5.419   0.576  0.3149 -0.4374 -0.6027
 6747SOL    HW220620   4.348   5.558   0.578 -0.7748  0.0395  1.4289
 6748SOL     OW20621   0.890   0.427   2.007 -0.2917  0.6367  0.2592
 6748SOL    HW120622   0.982   0.431   2.034 -0.4242  0.8693  0.6899
 6748SOL    HW220623   0.841   0.430   2.089 -0.6858  0.5105  0.0310
 6749SOL     OW20624   4.598   6.633   2.979 -0.6668 -0.6639  0.0925
 6749SOL    HW120625   4.560   6.665   3.061  0.5750  0.6065  0.2146
 6749SOL    HW220626   4.653   6.560   3.004 -0.8143 -0.7057  0.2970
 6750SOL     OW20627   4.640   5.209   6.743 -0.3551  0.2598 -0.0996
 6750SOL    HW120628   4.729   5.190   6.772 -1.1081  0.3116  2.4902
 6750SOL    HW220629   4.605   5.124   6.716  0.2557  0.1373 -0.5368
 6751SOL     OW20630   5.150   5.331   0.758 -0.1834  0.1448  0.1737
 6751SOL    HW120631   5.059   5.304   0.772 -0.4692  0.8943 -0.1658
 6751SOL    HW220632   5.145   5.395   0.688  0.7863 -0.8407 -0.8316
 6752SOL     OW20633   4.535   4.460   3.349 -0.0733  0.0397  0.1179
 6752SOL    HW120634   4.594   4.396   3.309  0.2912 -0.4323  1.3647
 6752SOL    HW220635   4.458   4.459   3.293  0.9712  0.4694 -1.3928
 6753SOL     OW20636   4.224   2.342   2.670  0.1183 -0.1262  0.1466
 6753SOL    HW120637   4.249   2.273   2.609 -0.9527  0.3084 -0.8131
 6753SOL    HW220638   4.297   2.346   2.732  1.4010 -0.3475 -1.2804
 6754SOL     OW20639   3.566   0.702   2.226 -0.3018  0.0238  0.7016
 6754SOL    HW120640   3.654   0.701   2.262 -0.5387 -0.8847  1.2879
 6754SOL    HW220641   3.572   0.648   2.147 -0.3136 -0.0043  0.7195
 6755SOL     OW20642   5.824   2.732   1.332  1.0711  0.2529  0.0090
 6755SOL    HW120643   5.764   2.671   1.375  2.4343 -0.8688  0.3849
 6755SOL    HW220644   5.787   2.744   1.245 -1.5779  2.3130  1.2378
 6756SOL     OW20645   4.767   6.429   6.774  0.2572 -0.1956 -0.1348
 6756SOL    HW120646   4.766   6.345   6.820 -0.0309  1.7084  3.7716
 6756SOL    HW220647   4.852   6.466   6.794 -0.2560  1.1477 -0.3413
 6757SOL     OW20648   1.066   3.982   2.705 -0.1178 -0.0924  0.0304
 6757SOL    HW120649   1.111   3.916   2.757 -1.3172  0.4000  1.7826
 6757SOL    HW220650   1.092   4.066   2.744  1.9825  0.6396 -2.6261
 6758SOL     OW20651   4.644   2.362   0.761 -0.0751 -0.0620 -0.2896
 6758SOL    HW120652   4.664   2.326   0.847 -1.2920 -1.3754 -0.5175
 6758SOL    HW220653   4.679   2.298   0.699 -1.1779 -0.2778 -0.7219
 6759SOL     OW20654   5.593   3.828   1.401 -0.7207 -0.5512 -0.1726
 6759SOL    HW120655   5.624   3.919   1.403  1.5032 -1.1990 -1.5003
 6759SOL    HW220656   5.595   3.801   1.493  2.6189 -0.4155 -0.0838
 6760SOL     OW20657   3.562   3.106   4.257  0.1941  0.2112 -0.3580
 6760SOL    HW120658   3.609   3.141   4.181  1.1602 -0.2208  0.0229
 6760SOL    HW220659   3.617   3.034   4.287 -0.4287  0.0734  0.4609
 6761SOL     OW20660   5.711   2.376   3.787  0.3608  0.4524  0.5247
 6761SOL    HW120661   5.804   2.380   3.807  0.4808 -0.7779  0.2921
 6761SOL    HW220662   5.684   2.468   3.777  1.7044  0.7948 -0.1701
 6762SOL     OW20663   5.460   1.883   0.140 -0.3434 -0.2614  0.1874
 6762SOL    HW120664   5.426   1.796   0.122 -0.2767  0.1702 -2.3879
 6762SOL    HW220665   5.546   1.869   0.179 -0.2266 -1.3570 -0.4387
 6763SOL     OW20666   0.392   2.409   3.111  0.3169  0.2126  0.1475
 6763SOL    HW120667   0.470   2.356   3.101  0.5797  0.1257  2.1477
 6763SOL    HW220668   0.361   2.425   3.022  1.3184 -1.6458 -0.5698
 6764SOL     OW20669   4.473   4.188   6.171 -0.2914 -0.2925  0.3734
 6764SOL    HW120670   4.548   4.236   6.135  0.3416 -1.6229 -0.1601
 6764SOL    HW220671   4.404   4.199   6.106  1.1282 -3.4678 -1.9133
 6765SOL     OW20672   5.812   2.973   4.218 -0.0819 -0.2591  0.1061
 6765SOL    HW120673   5.852   3.031   4.153 -0.5736 -2.0478 -1.8888
 6765SOL    HW220674   5.867   2.895   4.217 -1.3034 -1.1407  0.3031
 6766SOL     OW20675   4.861   0.874   0.850 -0.6218  0.5378 -0.0732
 6766SOL    HW120676   4.849   0.802   0.912  2.0565  0.0173 -0.0694
 6766SOL    HW220677   4.844   0.834   0.764  0.3465  0.0117 -0.0298
 6767SOL     OW20678   1.087   5.850   4.694  0.7635 -0.0787 -0.1578
 6767SOL    HW120679   1.124   5.938   4.695  0.2450  0.2076 -2.1686
 6767SOL    HW220680   1.155   5.796   4.654  0.2099 -0.1301 -1.0544
 6768SOL     OW20681   1.585   6.554   1.228  0.1440  0.1994 -0.1792
 6768SOL    HW120682   1.494   6.571   1.253  0.2264 -0.2591  0.4288
 6768SOL    HW220683   1.585   6.462   1.201  0.8867 -0.4776  1.9806
 6769SOL     OW20684   3.495   1.816   2.105 -0.5271  1.3207 -0.4843
 6769SOL    HW120685   3.535   1.772   2.030 -0.7410  0.6108 -0.1840
 6769SOL    HW220686   3.429   1.755   2.137  0.4482  1.0085  1.1019
 6770SOL     OW20687   2.198   5.161   2.470  0.1434 -0.5402  0.6200
 6770SOL    HW120688   2.150   5.095   2.519 -3.2351  0.3400 -1.1868
 6770SOL    HW220689   2.147   5.242   2.483 -0.4945 -0.0810 -3.4292
 6771SOL     OW20690   3.213   3.946   5.941 -0.4103  0.0643 -0.1183
 6771SOL    HW120691   3.174   3.862   5.916 -0.3074  0.1674 -0.6510
 6771SOL    HW220692   3.187   4.005   5.871  0.6699  0.1455 -0.4761
 6772SOL     OW20693   1.552   5.135   3.556  0.4039  0.4451  0.3217
 6772SOL    HW120694   1.645   5.132   3.533 -0.1749 -0.7296 -2.2255
 6772SOL    HW220695   1.541   5.064   3.619  1.5626  2.0121  2.4433
 6773SOL     OW20696   0.045   3.636   6.051 -0.4514 -0.1951  1.1204
 6773SOL    HW120697  -0.040   3.591   6.059 -0.3818 -0.1225  2.4230
 6773SOL    HW220698   0.036   3.687   5.970 -1.5050 -0.4847  1.0247
 6774SOL     OW20699   1.225   5.978   1.836 -0.0661  0.3068 -0.1344
 6774SOL    HW120700   1.247   5.926   1.913  0.4173 -0.7698 -0.9680
 6774SOL    HW220701   1.302   5.971   1.780 -0.7718  0.2905 -1.1180
 6775SOL     OW20702   1.743   2.942   5.874  0.1239 -0.0370  0.0485
 6775SOL    HW120703   1.698   3.017   5.914 -0.7554  0.0471 -1.0614
 6775SOL    HW220704   1.834   2.951   5.901  0.2223  1.9629 -0.8312
 6776SOL     OW20705   1.434   1.487   0.046 -0.4033 -0.1353 -0.9414
 6776SOL    HW120706   1.394   1.488   0.133  0.4501  1.2566 -0.5238
 6776SOL    HW220707   1.363   1.461  -0.013 -1.3929  0.3582 -0.0066
 6777SOL     OW20708   2.159   0.946   3.763 -0.4516 -0.3637  0.2198
 6777SOL    HW120709   2.084   1.005   3.774  0.0988  0.1329  1.5019
 6777SOL    HW220710   2.157   0.922   3.671 -2.7071 -1.0392  0.3660
 6778SOL     OW20711   6.490   3.167   2.680  0.3736  0.7037 -0.0372
 6778SOL    HW120712   6.500   3.094   2.619  3.0860  0.9785 -0.0005
 6778SOL    HW220713   6.492   3.245   2.625 -1.4761  0.8523  0.0352
 6779SOL     OW20714   0.949   0.234   6.061 -0.0236  0.0503 -0.2232
 6779SOL    HW120715   1.000   0.251   6.140 -0.6891 -0.5116  0.3370
 6779SOL    HW220716   0.988   0.291   5.994  1.3828 -0.4239  0.1705
 6780SOL     OW20717   4.593   0.781   5.952 -0.1785  0.3861  1.0435
 6780SOL    HW120718   4.553   0.748   5.872  0.4308 -1.0246  1.2726
 6780SOL    HW220719   4.522   0.824   5.999 -0.8664  0.0090  0.3678
 6781SOL     OW20720   0.849   4.322   6.712 -0.4323 -0.1835 -0.3044
 6781SOL    HW120721   0.774   4.273   6.747 -1.9878  1.1397 -1.6664
 6781SOL    HW220722   0.858   4.396   6.771  1.2182 -1.4099  1.0969
 6782SOL     OW20723   1.902   3.934   6.297  0.6112  0.1386 -0.3312
 6782SOL    HW120724   1.812   3.904   6.280 -0.3526  1.4543  2.0112
 6782SOL    HW220725   1.947   3.921   6.213 -1.3228 -1.9820 -1.1634
 6783SOL     OW20726   2.026   4.932   2.622  0.0789  0.0470  0.3236
 6783SOL    HW120727   2.072   4.866   2.570  1.1217  1.5275 -0.7189
 6783SOL    HW220728   1.938   4.935   2.584  0.1643 -0.4170  0.0839
 6784SOL     OW20729   4.172   1.487   0.889 -0.3133  0.0863 -0.9649
 6784SOL    HW120730   4.255   1.509   0.845 -0.1348 -0.5888 -0.9832
 6784SOL    HW220731   4.191   1.404   0.934 -0.4823  0.7726  0.4190
 6785SOL     OW20732   6.659   2.094   2.357  0.2816 -0.2565  0.1520
 6785SOL    HW120733   6.746   2.055   2.343 -0.5690 -2.4299  0.6223
 6785SOL    HW220734   6.617   2.037   2.420 -1.9365  0.0705 -0.9455
 6786SOL     OW20735   3.351   0.886   2.294 -0.0896 -0.0783  0.3180
 6786SOL    HW120736   3.431   0.848   2.257 -0.5510 -0.6704 -0.1029
 6786SOL    HW220737   3.376   0.975   2.320  0.2014  0.4869 -1.7027
 6787SOL     OW20738   4.700   6.500   3.676 -0.4854  0.6363  0.4910
 6787SOL    HW120739   4.785   6.493   3.634  0.7576  1.8195  2.6437
 6787SOL    HW220740   4.705   6.442   3.752 -1.0742  1.7167  1.3941
 6788SOL     OW20741   4.283   1.877   5.177 -0.0001  0.1512  0.0855
 6788SOL    HW120742   4.327   1.922   5.249 -1.3095 -1.0913  1.7498
 6788SOL    HW220743   4.346   1.811   5.149  0.3456  0.3243  0.4429
 6789SOL     OW20744   1.695   4.926   2.025  0.1351 -0.0104 -0.2434
 6789SOL    HW120745   1.699   4.831   2.031 -0.4705 -0.0930 -0.9922
 6789SOL    HW220746   1.633   4.943   1.954  3.6115  0.8953 -3.4139
 6790SOL     OW20747   4.281   2.307   5.493  0.0576  0.2265  0.2495
 6790SOL    HW120748   4.328   2.349   5.422  1.7719 -2.3215 -0.2395
 6790SOL    HW220749   4.188   2.315   5.469  0.4202  2.0284 -0.6908
 6791SOL     OW20750   0.904   0.162   0.604 -0.5834 -0.3428 -0.3252
 6791SOL    HW120751   0.979   0.221   0.605 -0.9263  0.1308 -1.4240
 6791SOL    HW220752   0.872   0.163   0.694  1.9137 -2.1339  0.6946
 6792SOL     OW20753   6.035   1.951   3.983 -0.5836  0.7243 -0.2943
 6792SOL    HW120754   6.000   2.029   4.026 -1.3862  0.8410 -1.1410
 6792SOL    HW220755   6.019   1.965   3.890 -0.2485 -0.2102 -0.5063
 6793SOL     OW20756   4.353   6.835   2.378  0.1308  0.3775 -0.1578
 6793SOL    HW120757   4.287   6.902   2.393  1.1199  0.8667  2.4504
 6793SOL    HW220758   4.408   6.837   2.456  1.5287 -1.9658 -0.9750
 6794SOL     OW20759   0.817   3.478   5.906 -0.5879  0.1051 -0.4435
 6794SOL    HW120760   0.733   3.506   5.942 -1.3825 -0.7286 -1.5606
 6794SOL    HW220761   0.795   3.409   5.843  0.9252 -0.0554 -0.8545
 6795SOL     OW20762   3.167   1.918   2.266 -0.5210 -0.2646 -0.0611
 6795SOL    HW120763   3.171   1.824   2.285  1.1017  0.3019  3.0568
 6795SOL    HW220764   3.209   1.927   2.180 -0.4998 -2.3415 -0.3129
 6796SOL     OW20765   5.708   3.979   2.164 -0.3096  0.1455  0.0223
 6796SOL    HW120766   5.739   3.985   2.073 -0.3912 -0.1117 -0.0238
 6796SOL    HW220767   5.787   3.986   2.217 -0.3723  1.3994 -0.0258
 6797SOL     OW20768   3.878   2.770   4.050 -0.1771  0.4635  0.7131
 6797SOL    HW120769   3.959   2.805   4.086  0.5656 -0.3179 -0.1386
 6797SOL    HW220770   3.817   2.844   4.051  1.0045  1.4855  0.0195
 6798SOL     OW20771   6.717   2.304   3.242 -0.1563  0.4226  0.5476
 6798SOL    HW120772   6.747   2.214   3.245  2.9651  1.2071 -1.6480
 6798SOL    HW220773   6.771   2.350   3.306  0.5121  1.1716 -0.5052
 6799SOL     OW20774   5.152   1.458   2.406 -0.0005  0.4059 -0.0444
 6799SOL    HW120775   5.170   1.500   2.490  1.4460 -1.1591  0.4827
 6799SOL    HW220776   5.062   1.484   2.385  0.3732  2.6638  0.8593
 6800SOL     OW20777   4.440   1.318   0.520  0.5165  0.1520  0.1567
 6800SOL    HW120778   4.405   1.237   0.556 -0.6553  0.6392  0.1370
 6800SOL    HW220779   4.416   1.316   0.428  1.3250  0.0848 -0.0624
 6801SOL     OW20780   4.622   1.736   5.234  0.0646 -0.0856 -0.3317
 6801SOL    HW120781   4.613   1.702   5.145  1.6495  0.5139 -0.7494
 6801SOL    HW220782   4.716   1.753   5.244 -0.0267 -0.5408  1.6117
 6802SOL     OW20783   1.176   2.030   6.141  0.3504  0.5945  0.0280
 6802SOL    HW120784   1.137   2.091   6.079 -1.4128  1.5674  2.0035
 6802SOL    HW220785   1.179   1.947   6.094  0.1916  1.5435 -1.7473
 6803SOL     OW20786   0.038   1.768   0.605 -0.1955 -0.2406  0.0295
 6803SOL    HW120787   0.086   1.688   0.628  0.9878  0.3980 -0.1640
 6803SOL    HW220788  -0.040   1.736   0.560 -1.0680 -1.3999  2.1696
 6804SOL     OW20789   5.060   5.242   6.050  0.1905 -0.0419 -0.1016
 6804SOL    HW120790   5.110   5.207   6.125 -0.4072  0.1621  0.3976
 6804SOL    HW220791   5.114   5.314   6.018  0.2423  0.1504  0.4068
 6805SOL     OW20792   6.493   5.613   1.327 -0.7825  0.2321 -0.2164
 6805SOL    HW120793   6.464   5.704   1.321 -1.5131  0.0103 -0.1374
 6805SOL    HW220794   6.502   5.585   1.236  0.8661  0.8120 -0.2602
 6806SOL     OW20795   1.655   5.732   4.649 -0.2978  0.3122  0.4013
 6806SOL    HW120796   1.711   5.778   4.587  1.1487  0.4099  1.7257
 6806SOL    HW220797   1.695   5.646   4.658 -1.9226 -0.6034 -0.6412
 6807SOL     OW20798   3.559   3.747   0.471 -0.0122 -0.5999  0.1456
 6807SOL    HW120799   3.647   3.781   0.453 -0.0071  0.4841  1.9593
 6807SOL    HW220800   3.507   3.825   0.491 -2.0436 -0.9421 -3.0014
 6808SOL     OW20801   5.426   6.357   4.214 -0.4820 -0.3913  0.6994
 6808SOL    HW120802   5.350   6.308   4.182 -0.1318 -1.3798  1.3510
 6808SOL    HW220803   5.390   6.443   4.239 -0.9155  0.1468 -1.5149
 6809SOL     OW20804   3.530   6.224   3.402 -0.5589 -0.3502  0.5544
 6809SOL    HW120805   3.581   6.149   3.432  0.0716 -0.4116 -0.6244
 6809SOL    HW220806   3.489   6.258   3.482  2.3321  0.4985  1.8377
 6810SOL     OW20807   1.793   6.311   1.290  0.0046 -0.3174  0.4418
 6810SOL    HW120808   1.782   6.273   1.377 -0.8271 -1.3329 -0.0780
 6810SOL    HW220809   1.714   6.286   1.242  1.2535 -1.4420 -1.1824
 6811SOL     OW20810   2.112   3.901   5.333  0.0233  0.6054 -0.8505
 6811SOL    HW120811   2.112   3.996   5.333  0.0068  0.6054 -1.3422
 6811SOL    HW220812   2.197   3.876   5.368 -1.0436  0.7912  2.2413
 6812SOL     OW20813   0.660   0.719   0.948  0.3385 -0.3365  0.2546
 6812SOL    HW120814   0.619   0.633   0.946  2.2057 -1.2820 -1.6750
 6812SOL    HW220815   0.598   0.777   0.905 -0.7724 -0.7665  1.2326
 6813SOL     OW20816   2.862   5.313   2.036 -0.0896  0.1607  0.1070
 6813SOL    HW120817   2.862   5.236   1.980  0.8272  0.0113  0.2883
 6813SOL    HW220818   2.771   5.342   2.038 -0.0331  0.6095 -2.0450
 6814SOL     OW20819   1.836   0.589   0.609  0.1838  1.1753  0.1219
 6814SOL    HW120820   1.851   0.630   0.695  0.2274 -1.1326  1.2825
 6814SOL    HW220821   1.907   0.526   0.600 -1.0127 -0.1078 -0.6342
 6815SOL     OW20822   3.499   1.509   0.101  0.1426 -0.2079 -0.0035
 6815SOL    HW120823   3.446   1.549   0.170  0.8944 -2.2368  1.8711
 6815SOL    HW220824   3.500   1.574   0.031 -2.2676  1.1534  1.0892
 6816SOL     OW20825   5.906   1.680   6.240 -0.3560 -0.0512 -0.3061
 6816SOL    HW120826   5.909   1.770   6.208  0.7686  0.1562  0.3321
 6816SOL    HW220827   5.994   1.663   6.272 -0.1426 -1.8700 -1.7180
 6817SOL     OW20828   5.689   4.766   5.222 -0.0550  0.1242  0.1735
 6817SOL    HW120829   5.740   4.685   5.228 -0.5089 -0.2588 -0.8721
 6817SOL    HW220830   5.713   4.815   5.301 -0.0174 -1.1628  1.0005
 6818SOL     OW20831   5.971   3.117   4.975  0.0235 -0.0792  0.0037
 6818SOL    HW120832   5.995   3.025   4.981 -1.6877 -0.5939 -0.4214
 6818SOL    HW220833   5.928   3.136   5.059 -2.3160 -0.5577 -1.0086
 6819SOL     OW20834   6.814   1.858   5.489 -0.5998  0.0696  0.2398
 6819SOL    HW120835   6.887   1.802   5.463 -0.4522  0.4712 -0.2306
 6819SOL    HW220836   6.851   1.946   5.492 -0.6862  0.0723  1.5653
 6820SOL     OW20837   6.268   0.581   4.444  0.1647 -0.0045  0.1221
 6820SOL    HW120838   6.181   0.577   4.483 -0.1793  0.5808 -0.5607
 6820SOL    HW220839   6.286   0.674   4.433  1.6760 -0.0096  1.9419
 6821SOL     OW20840   1.713   4.896   2.699 -0.2849  0.1338  0.0813
 6821SOL    HW120841   1.734   4.942   2.780 -1.0508  0.7679 -0.0728
 6821SOL    HW220842   1.736   4.957   2.630 -0.9881  0.1620 -0.1350
 6822SOL     OW20843   5.660   2.908   3.570 -0.0117  0.7507  0.2581
 6822SOL    HW120844   5.750   2.940   3.563  0.4179 -0.0110  1.8327
 6822SOL    HW220845   5.627   2.944   3.652 -0.5498 -0.3285  0.5454
 6823SOL     OW20846   3.954   2.165   2.206 -0.4208  0.1958  0.0197
 6823SOL    HW120847   3.968   2.259   2.193 -2.2242  0.3759 -0.9946
 6823SOL    HW220848   3.961   2.153   2.300 -0.5718  1.4364  0.2110
 6824SOL     OW20849   2.274   4.030   4.565  0.6714 -0.1455 -0.1998
 6824SOL    HW120850   2.188   4.009   4.528  1.2180 -0.7906 -1.1406
 6824SOL    HW220851   2.290   3.963   4.631 -0.1774  0.8399  1.0744
 6825SOL     OW20852   5.033   0.130   3.698  0.4972 -0.5661  0.0789
 6825SOL    HW120853   5.118   0.099   3.667  0.7390 -0.0493  0.2149
 6825SOL    HW220854   5.041   0.225   3.698  0.7223 -0.5337  2.2590
 6826SOL     OW20855   5.181   1.128   0.440  0.0643 -0.1194 -0.2583
 6826SOL    HW120856   5.183   1.083   0.525 -1.0613 -0.3047 -0.3225
 6826SOL    HW220857   5.272   1.153   0.425  0.7732 -2.4404 -0.2672
 6827SOL     OW20858   6.680   6.365   3.694  0.1115 -1.0676  0.4990
 6827SOL    HW120859   6.715   6.441   3.740 -1.0261 -0.5242  0.4978
 6827SOL    HW220860   6.684   6.388   3.601 -1.0791 -0.6098  0.5423
 6828SOL     OW20861   5.766   4.480   6.185  0.3784  0.2870 -0.0079
 6828SOL    HW120862   5.742   4.399   6.231  0.6857 -0.3255 -0.8973
 6828SOL    HW220863   5.789   4.541   6.255  0.8717 -0.6354  0.6569
 6829SOL     OW20864   5.703   6.163   5.246 -0.3370 -0.3529 -0.4007
 6829SOL    HW120865   5.758   6.218   5.190  0.9464  2.2182  3.0069
 6829SOL    HW220866   5.618   6.205   5.246  0.0126  0.3831  0.4644
 6830SOL     OW20867   6.333   0.120   1.212 -0.0390 -0.8846 -0.6061
 6830SOL    HW120868   6.249   0.095   1.250  0.3675 -0.8756  0.3315
 6830SOL    HW220869   6.311   0.178   1.139 -0.8282 -0.4526 -0.0337
 6831SOL     OW20870   6.521   0.606   2.192 -0.6464  0.0796 -0.3710
 6831SOL    HW120871   6.445   0.663   2.183 -0.6368  0.2353  0.5096
 6831SOL    HW220872   6.543   0.608   2.285  3.2832  3.8145 -1.0795
 6832SOL     OW20873   0.959   3.224   1.713  0.4611 -0.2205 -0.4286
 6832SOL    HW120874   0.879   3.253   1.668  0.8640  1.0705 -0.3623
 6832SOL    HW220875   0.973   3.290   1.781  2.6316  0.6903 -1.6558
 6833SOL     OW20876   5.958   0.373   1.402 -0.2901  0.4118  0.3845
 6833SOL    HW120877   5.878   0.325   1.425  0.0757 -0.7320 -0.6341
 6833SOL    HW220878   5.960   0.372   1.307 -0.0074  2.0665  0.3437
 6834SOL     OW20879   2.702   2.506   5.807 -0.2425 -0.4644  0.2384
 6834SOL    HW120880   2.788   2.466   5.813 -0.5058 -1.0291  0.3859
 6834SOL    HW220881   2.643   2.443   5.849 -0.8001 -0.3276 -0.3111
 6835SOL     OW20882   4.343   2.470   1.359  0.0831 -0.1405  0.1653
 6835SOL    HW120883   4.429   2.432   1.373 -0.8684 -2.5971 -0.1447
 6835SOL    HW220884   4.341   2.493   1.266  0.3191 -0.2839  0.1247
 6836SOL     OW20885   4.805   1.595   0.593 -0.3928 -0.2753 -0.1002
 6836SOL    HW120886   4.815   1.507   0.556  0.5582 -0.5034  0.6541
 6836SOL    HW220887   4.831   1.654   0.523 -1.8735 -0.5218 -0.9162
 6837SOL     OW20888   2.899   6.566   4.504 -0.2863  0.0365  0.0463
 6837SOL    HW120889   2.935   6.487   4.543 -0.3389  0.4207  0.8881
 6837SOL    HW220890   2.943   6.638   4.548  0.5916  0.4991 -1.4947
 6838SOL     OW20891   6.048   0.864   0.068 -0.0155  0.2828  0.5419
 6838SOL    HW120892   6.003   0.803   0.126 -1.4983 -1.1024 -1.8872
 6838SOL    HW220893   6.090   0.808   0.003 -0.7822  1.7950 -1.3408
 6839SOL     OW20894   5.559   1.917   3.508  0.0291  0.2540  0.0607
 6839SOL    HW120895   5.526   2.003   3.482 -0.7535  0.8956  2.8772
 6839SOL    HW220896   5.491   1.856   3.480  0.6240  0.4546 -2.0268
 6840SOL     OW20897   6.493   5.770   2.990  0.2608 -0.5837  0.2979
 6840SOL    HW120898   6.506   5.683   3.029  2.0223 -0.6458 -0.3740
 6840SOL    HW220899   6.407   5.797   3.023 -0.3322 -2.5545  0.5449
 6841SOL     OW20900   6.558   0.321   2.212 -0.9058  0.1160  0.2961
 6841SOL    HW120901   6.468   0.287   2.207 -1.3232  1.0000  1.2980
 6841SOL    HW220902   6.547   0.415   2.221 -0.0140  0.0679  2.9850
 6842SOL     OW20903   5.033   3.386   2.401  0.1830  0.2064 -0.5633
 6842SOL    HW120904   4.958   3.366   2.345  0.5542  1.3533 -1.4846
 6842SOL    HW220905   5.032   3.316   2.467 -1.1971 -0.2623 -1.0465
 6843SOL     OW20906   5.187   1.055   6.468 -0.0451  0.3560  1.2536
 6843SOL    HW120907   5.195   1.151   6.470 -0.1659  0.3595  2.4735
 6843SOL    HW220908   5.150   1.033   6.553 -0.7499 -0.7207  0.6915
 6844SOL     OW20909   2.714   6.630   5.287  0.2688  0.0343 -0.1095
 6844SOL    HW120910   2.711   6.541   5.251  1.7361 -0.2760  0.4714
 6844SOL    HW220911   2.760   6.681   5.221  1.4767 -0.1667  0.5513
 6845SOL     OW20912   6.631   6.836   4.378 -0.0108 -0.0401  0.2514
 6845SOL    HW120913   6.694   6.895   4.337  1.3055 -1.9866 -0.7191
 6845SOL    HW220914   6.678   6.753   4.386 -1.5229 -0.8011  2.2158
 6846SOL     OW20915   6.600   5.363   1.308 -0.2944  0.2271  0.6604
 6846SOL    HW120916   6.649   5.320   1.238  1.0875 -0.2040  1.8430
 6846SOL    HW220917   6.545   5.294   1.345  0.0278  0.0947  0.9007
 6847SOL     OW20918   2.413   1.906   5.921  0.2902 -0.3659  0.5922
 6847SOL    HW120919   2.464   1.966   5.866  0.0817 -0.7617 -0.0430
 6847SOL    HW220920   2.419   1.943   6.009  0.2796  0.5072  0.2331
 6848SOL     OW20921   3.563   3.208   5.327  0.2628 -0.0157  0.4095
 6848SOL    HW120922   3.649   3.237   5.358  0.5486 -1.4687  1.0608
 6848SOL    HW220923   3.501   3.243   5.391  0.4736  0.1560  0.5208
 6849SOL     OW20924   2.942   6.321   5.254 -0.2436 -0.2965 -0.4101
 6849SOL    HW120925   2.887   6.375   5.196 -1.4398 -0.8553  0.1867
 6849SOL    HW220926   2.880   6.270   5.306  0.8480 -1.9643 -0.6626
 6850SOL     OW20927   6.579   1.328   6.516 -0.2583 -0.1261  0.4680
 6850SOL    HW120928   6.605   1.377   6.438  0.5138 -1.5661 -0.2167
 6850SOL    HW220929   6.637   1.361   6.585 -0.1503  0.3380  0.1652
 6851SOL     OW20930   3.176   2.398   4.659  0.6071 -0.0216  0.5119
 6851SOL    HW120931   3.258   2.416   4.613  1.1106 -1.6902  0.7097
 6851SOL    HW220932   3.112   2.380   4.589  0.8114 -0.3337  0.4064
 6852SOL     OW20933   1.699   3.558   1.709  0.1172 -0.2379  0.0082
 6852SOL    HW120934   1.622   3.516   1.672  0.6155 -0.4494 -0.8314
 6852SOL    HW220935   1.681   3.652   1.702  0.6268 -0.2283 -1.8145
 6853SOL     OW20936   2.148   6.836   6.185  0.5579  0.3021  0.2987
 6853SOL    HW120937   2.102   6.898   6.128  0.5682  0.3839  0.3797
 6853SOL    HW220938   2.078   6.783   6.224  0.5060  0.6384  0.6730
 6854SOL     OW20939   4.145   1.567   5.019 -0.2186  0.2252  0.5893
 6854SOL    HW120940   4.226   1.543   4.974 -0.2003 -0.8020  1.1494
 6854SOL    HW220941   4.081   1.504   4.989 -0.0516 -0.9174  2.4455
 6855SOL     OW20942   2.192   4.565   3.764  0.3894 -0.3001 -0.2489
 6855SOL    HW120943   2.240   4.648   3.768 -1.6243  0.8868  2.5384
 6855SOL    HW220944   2.246   4.504   3.816 -0.7039  0.9234  2.5507
 6856SOL     OW20945   5.582   3.407   0.012 -0.8013 -0.7794 -0.0329
 6856SOL    HW120946   5.498   3.362   0.002 -1.7304  1.1090 -1.4604
 6856SOL    HW220947   5.635   3.375  -0.061 -1.7099  0.8183 -1.4781
 6857SOL     OW20948   0.748   4.730   2.472 -0.2190 -0.1861  0.0448
 6857SOL    HW120949   0.808   4.801   2.492  1.7207 -1.9504  0.9067
 6857SOL    HW220950   0.740   4.681   2.554 -1.2194 -1.1465 -0.5946
 6858SOL     OW20951   5.710   4.596   5.930 -0.2217 -0.0438 -0.3545
 6858SOL    HW120952   5.717   4.552   6.015 -0.4060 -0.3533 -0.5008
 6858SOL    HW220953   5.778   4.663   5.933 -0.7701  0.4987  0.3683
 6859SOL     OW20954   6.789   2.848   5.210  0.0093  0.2948  0.5347
 6859SOL    HW120955   6.795   2.753   5.223 -1.3251 -0.1464 -1.6238
 6859SOL    HW220956   6.879   2.877   5.200  0.3658 -0.9396  0.0242
 6860SOL     OW20957   0.135   5.026   0.810  0.1086 -0.3860  0.2357
 6860SOL    HW120958   0.182   4.952   0.848 -0.2186  0.2387  1.9540
 6860SOL    HW220959   0.064   5.043   0.871 -0.9424  0.1833 -1.1022
 6861SOL     OW20960   0.229   1.318   6.280  0.6832  0.0964  0.2162
 6861SOL    HW120961   0.303   1.258   6.278  0.6063 -0.0179 -2.1272
 6861SOL    HW220962   0.158   1.268   6.320  1.5489 -0.1720  1.4519
 6862SOL     OW20963   4.092   1.108   0.738  0.1940 -0.1100  0.2523
 6862SOL    HW120964   4.101   1.158   0.819 -4.9960 -2.0830  2.5104
 6862SOL    HW220965   4.036   1.162   0.683  0.3435 -0.5251 -0.3121
 6863SOL     OW20966   2.677   4.574   0.403  0.4922  0.2182 -0.1095
 6863SOL    HW120967   2.733   4.588   0.479  0.1247 -1.6910  0.5487
 6863SOL    HW220968   2.736   4.582   0.328  1.0497  1.1416  0.4094
 6864SOL     OW20969   0.269   0.781   5.827 -0.4642 -0.1075  0.0449
 6864SOL    HW120970   0.364   0.778   5.821 -0.2560  2.7001  0.5283
 6864SOL    HW220971   0.249   0.757   5.917 -0.1336  0.1514  0.1878
 6865SOL     OW20972   6.701   1.861   3.965 -0.5694 -0.1340 -0.5066
 6865SOL    HW120973   6.654   1.931   4.010 -0.1104  0.7550 -1.3859
 6865SOL    HW220974   6.769   1.905   3.915  0.7960 -1.3368  0.1845
 6866SOL     OW20975   4.294   2.095   6.492  0.4637 -0.0380  0.5446
 6866SOL    HW120976   4.330   2.020   6.446  0.3769 -0.1025  0.5812
 6866SOL    HW220977   4.259   2.151   6.422  0.1488 -0.2327  0.5457
 6867SOL     OW20978   2.629   0.384   6.470  0.5869 -0.2721 -0.0161
 6867SOL    HW120979   2.539   0.388   6.438  0.2856  1.1187  0.9087
 6867SOL    HW220980   2.633   0.301   6.517  0.0227 -0.7022 -0.6989
 6868SOL     OW20981   0.253   0.193   5.609 -0.5579 -0.5760 -0.3146
 6868SOL    HW120982   0.341   0.199   5.574  0.0434  0.6927  1.2691
 6868SOL    HW220983   0.197   0.177   5.533  1.1360 -2.6602 -1.2031
 6869SOL     OW20984   0.910   3.000   3.191 -0.5533 -0.4195  0.2996
 6869SOL    HW120985   0.950   3.087   3.186 -0.2997 -0.3729  2.2780
 6869SOL    HW220986   0.974   2.942   3.151 -0.4205  0.2151 -0.4251
 6870SOL     OW20987   1.685   6.311   5.407  0.2977  0.8165 -0.5491
 6870SOL    HW120988   1.754   6.268   5.458  0.7196  0.3113 -1.5012
 6870SOL    HW220989   1.651   6.379   5.464  0.2768 -0.1693  0.6500
 6871SOL     OW20990   1.657   6.030   6.465  0.1888 -0.2470  0.9066
 6871SOL    HW120991   1.595   6.009   6.534 -0.9717 -0.3064 -0.1193
 6871SOL    HW220992   1.607   6.085   6.404  1.8429  1.7840  1.2581
 6872SOL     OW20993   5.516   5.917   4.042  0.1241  0.0746 -0.0620
 6872SOL    HW120994   5.487   6.004   4.017 -0.6179 -0.4371 -1.0422
 6872SOL    HW220995   5.609   5.915   4.019  0.3718  0.9046  0.8267
 6873SOL     OW20996   5.212   4.940   0.569 -0.3074 -0.1751  0.4279
 6873SOL    HW120997   5.305   4.953   0.586 -0.5103 -0.0515  1.5315
 6873SOL    HW220998   5.170   4.955   0.654 -1.3863  0.3243 -0.1674
 6874SOL     OW20999   0.663   1.100   1.512  0.1117 -0.4450  0.5375
 6874SOL    HW121000   0.643   1.184   1.472 -1.2476 -0.5196  1.0206
 6874SOL    HW221001   0.678   1.041   1.437 -0.0144 -0.0340  0.1829
 6875SOL     OW21002   2.257   5.602   0.237 -0.6279  0.4369  0.0575
 6875SOL    HW121003   2.204   5.523   0.249  1.6314 -1.2290 -0.3429
 6875SOL    HW221004   2.247   5.623   0.144 -1.2092  0.6529  0.1593
 6876SOL     OW21005   4.341   1.091   0.604 -0.2324 -0.2522  0.4036
 6876SOL    HW121006   4.336   1.002   0.568 -0.4268 -0.0417 -0.1009
 6876SOL    HW221007   4.258   1.102   0.651  0.4409 -0.8990  1.8362
 6877SOL     OW21008   3.838   6.356   1.477  0.3415 -0.1178 -0.1400
 6877SOL    HW121009   3.788   6.286   1.435  1.1136  0.0075 -1.3303
 6877SOL    HW221010   3.898   6.310   1.535  0.9327 -0.4800 -1.0132
 6878SOL     OW21011   2.607   5.950   4.626 -0.2313 -0.1197 -0.4256
 6878SOL    HW121012   2.701   5.965   4.618 -0.3198 -0.1126 -1.6693
 6878SOL    HW221013   2.569   5.991   4.549 -1.3567  0.5850  0.4703
 6879SOL     OW21014   4.415   6.642   6.381 -0.1148 -0.5984  0.2584
 6879SOL    HW121015   4.415   6.652   6.286 -1.0377 -0.1327  0.3012
 6879SOL    HW221016   4.496   6.686   6.409 -1.1721  1.7327 -0.0927
 6880SOL     OW21017   5.728   6.140   6.099 -0.0110 -0.0084  0.1464
 6880SOL    HW121018   5.721   6.054   6.057  0.8098  0.0560 -0.1301
 6880SOL    HW221019   5.771   6.195   6.034  1.8411 -0.0618  1.2472
 6881SOL     OW21020   1.439   4.285   6.089 -0.4984  0.0672  0.2192
 6881SOL    HW121021   1.377   4.227   6.044  1.2189 -0.2589 -1.9372
 6881SOL    HW221022   1.492   4.227   6.144 -0.0201 -0.1781 -0.4770
 6882SOL     OW21023   6.168   1.111   5.716 -0.5206 -0.4248  0.3352
 6882SOL    HW121024   6.198   1.053   5.786  1.6589 -0.1516 -0.2914
 6882SOL    HW221025   6.241   1.112   5.653 -1.3516  1.3512 -0.6727
 6883SOL     OW21026   4.834   0.641   5.624  0.6463  0.6161 -0.1261
 6883SOL    HW121027   4.768   0.572   5.632  1.7782 -0.6440 -1.2136
 6883SOL    HW221028   4.836   0.682   5.711 -0.5352 -0.2522  0.3458
 6884SOL     OW21029   1.187   1.005   2.025 -0.1035 -0.0142  0.0051
 6884SOL    HW121030   1.214   0.930   2.077  0.3113 -0.4072 -0.7611
 6884SOL    HW221031   1.091   1.007   2.032 -0.2399 -1.4434 -1.0623
 6885SOL     OW21032   1.866   2.622   3.941  0.4163  0.6314 -0.2429
 6885SOL    HW121033   1.799   2.680   3.905 -2.4056  1.0107  4.6786
 6885SOL    HW221034   1.894   2.665   4.022  0.3648 -3.3426  2.1465
 6886SOL     OW21035   5.624   3.787   2.342  0.6124 -0.9606 -0.0315
 6886SOL    HW121036   5.661   3.822   2.261  1.0864 -1.4538 -0.0356
 6886SOL    HW221037   5.544   3.742   2.316  0.6748 -0.9708 -0.2020
 6887SOL     OW21038   4.060   3.638   0.317 -0.4390 -0.2393  0.1995
 6887SOL    HW121039   4.097   3.711   0.367 -0.7329  1.2365 -1.6216
 6887SOL    HW221040   3.983   3.612   0.367 -1.5032  2.1046 -0.0739
 6888SOL     OW21041   2.044   2.388   2.459  0.4993  0.1885 -0.3729
 6888SOL    HW121042   1.958   2.360   2.490  0.6780  0.5528  0.4834
 6888SOL    HW221043   2.055   2.476   2.497  0.3017  1.1012 -2.2827
 6889SOL     OW21044   2.853   6.553   3.380 -0.0289 -0.1724 -0.3464
 6889SOL    HW121045   2.907   6.628   3.356 -2.2707  1.3280 -1.0812
 6889SOL    HW221046   2.882   6.483   3.322  1.7666  0.2594 -0.0154
 6890SOL     OW21047   0.693   6.030   6.572  0.1488  0.1388 -0.1108
 6890SOL    HW121048   0.741   6.067   6.499  0.0910  0.2769 -0.0792
 6890SOL    HW221049   0.710   6.090   6.645  1.8495 -1.0545  0.5363
 6891SOL     OW21050   3.734   2.616   3.707  0.1324 -0.5569  0.0289
 6891SOL    HW121051   3.747   2.711   3.708  0.7196 -0.5862  2.8843
 6891SOL    HW221052   3.815   2.581   3.670 -1.0561  0.0055 -3.5767
 6892SOL     OW21053   3.727   3.823   5.722 -0.0574  0.0258 -0.9345
 6892SOL    HW121054   3.756   3.762   5.790 -0.2817  1.0587  0.1253
 6892SOL    HW221055   3.652   3.780   5.681  0.0914 -0.6188 -0.5411
 6893SOL     OW21056   6.021   2.832   0.131  0.1509  0.1365 -0.1670
 6893SOL    HW121057   6.010   2.927   0.125 -0.5139  0.1033  0.4797
 6893SOL    HW221058   5.934   2.797   0.114 -0.2043 -0.2492  2.2001
 6894SOL     OW21059   4.796   3.658   2.284  0.5114  0.0067 -0.0933
 6894SOL    HW121060   4.825   3.576   2.244  1.1454  0.3586 -0.3694
 6894SOL    HW221061   4.770   3.713   2.211  2.0548  0.7980 -0.0936
 6895SOL     OW21062   6.255   2.827   1.419  0.7883  0.6443 -0.5764
 6895SOL    HW121063   6.235   2.759   1.355 -0.9483  1.3843 -0.8830
 6895SOL    HW221064   6.294   2.780   1.493 -0.0265 -0.6344 -0.9303
 6896SOL     OW21065   3.204   5.504   5.778  0.0833 -0.4467 -0.2434
 6896SOL    HW121066   3.174   5.425   5.732  1.1637 -0.7468 -0.4659
 6896SOL    HW221067   3.261   5.548   5.714 -1.5459  1.2397 -0.6308
 6897SOL     OW21068   1.262   5.584   3.803  0.0592  0.0167  0.3290
 6897SOL    HW121069   1.274   5.654   3.739  2.2392 -2.2322 -1.9831
 6897SOL    HW221070   1.268   5.627   3.888 -1.7157  2.9997 -0.8828
 6898SOL     OW21071   3.098   0.340   6.736  0.3386  0.1854 -0.5227
 6898SOL    HW121072   3.101   0.435   6.731  0.2202  0.1684 -0.9894
 6898SOL    HW221073   3.024   0.321   6.793  1.8099  0.4036  1.5958
 6899SOL     OW21074   1.372   0.534   0.274 -0.4394 -0.0443  0.1152
 6899SOL    HW121075   1.411   0.591   0.208 -0.5505 -0.8804 -0.7052
 6899SOL    HW221076   1.422   0.551   0.354  2.5132 -1.9560 -1.1598
 6900SOL     OW21077   4.497   2.558   0.666 -0.0421 -0.0904  0.2143
 6900SOL    HW121078   4.541   2.474   0.678  0.3368  0.2610  1.4801
 6900SOL    HW221079   4.415   2.548   0.714 -1.9816 -1.1246 -3.0007
 6901SOL     OW21080   1.134   4.061   5.392  0.6077  0.1955 -0.0960
 6901SOL    HW121081   1.203   4.016   5.343 -0.4973 -0.5093 -1.0652
 6901SOL    HW221082   1.079   4.102   5.325  0.1862  0.9030  0.6632
 6902SOL     OW21083   5.259   0.965   5.210 -0.1484  0.1698 -0.7312
 6902SOL    HW121084   5.352   0.986   5.215  0.2562 -1.5147 -0.3821
 6902SOL    HW221085   5.252   0.908   5.133 -0.5898 -0.9952  0.1454
 6903SOL     OW21086   3.342   4.089   3.581  0.2036  0.1432 -0.5649
 6903SOL    HW121087   3.400   4.046   3.644 -0.1579 -0.3066 -0.5353
 6903SOL    HW221088   3.342   4.181   3.608  1.8042  0.3814 -1.2573
 6904SOL     OW21089   2.382   6.404   3.878  0.4411 -0.7281  0.3243
 6904SOL    HW121090   2.430   6.367   3.803  1.5923  1.3986 -0.0745
 6904SOL    HW221091   2.431   6.375   3.954  2.6145  1.4752 -0.0814
 6905SOL     OW21092   4.056   1.007   2.350 -0.2803  0.1313 -0.5340
 6905SOL    HW121093   4.010   1.076   2.303 -0.6657 -0.5204 -1.1375
 6905SOL    HW221094   4.136   0.993   2.300  0.3556  0.9190  0.2355
 6906SOL     OW21095   2.304   4.712   1.023  0.1936  0.2173 -0.4737
 6906SOL    HW121096   2.233   4.720   0.960 -1.6263 -1.9147  1.1519
 6906SOL    HW221097   2.347   4.629   1.000  0.5029  0.2057  0.1222
 6907SOL     OW21098   6.222   2.815   6.032  0.1320 -0.5229 -0.2797
 6907SOL    HW121099   6.294   2.758   6.058  1.0881  0.9808  0.5255
 6907SOL    HW221100   6.261   2.880   5.973 -0.6562  0.0218 -0.2328
 6908SOL     OW21101   0.193   4.375   3.958  0.0380 -0.3389 -0.3307
 6908SOL    HW121102   0.176   4.289   3.997  2.0518 -1.2948 -1.4126
 6908SOL    HW221103   0.224   4.428   4.031 -0.8285 -0.6409  0.2730
 6909SOL     OW21104   5.843   5.992   0.343  0.1416  0.2595 -0.3900
 6909SOL    HW121105   5.825   6.038   0.262  0.5844  0.1249 -0.5685
 6909SOL    HW221106   5.765   6.007   0.397  0.3485  1.3752 -0.3714
 6910SOL     OW21107   0.716   6.291   5.359  0.4541 -0.3815 -0.2369
 6910SOL    HW121108   0.642   6.263   5.413  0.6387 -1.2480 -0.4136
 6910SOL    HW221109   0.786   6.311   5.421  0.2141  0.0297 -0.0922
 6911SOL     OW21110   1.098   5.072   5.216  0.4834 -0.1198 -0.2831
 6911SOL    HW121111   1.188   5.047   5.195  0.9365  0.4949  0.8231
 6911SOL    HW221112   1.095   5.167   5.200  0.2287 -0.0214  0.3106
 6912SOL     OW21113   5.580   3.193   6.631  0.1462 -0.4477 -0.1461
 6912SOL    HW121114   5.629   3.115   6.656 -0.4830 -0.8731 -0.1943
 6912SOL    HW221115   5.503   3.191   6.689  1.1202  1.2688  1.3148
 6913SOL     OW21116   0.605   4.027   0.758 -0.4938  0.2840 -0.3686
 6913SOL    HW121117   0.512   4.005   0.766 -0.4583 -0.0802 -0.8725
 6913SOL    HW221118   0.623   4.084   0.832 -0.7471 -0.9173  0.6460
 6914SOL     OW21119   5.980   3.912   1.455 -0.1532 -0.2178  0.4410
 6914SOL    HW121120   6.021   3.923   1.541  0.5407  0.9272 -0.0152
 6914SOL    HW221121   5.917   3.985   1.450  0.3324  0.1586 -0.2995
 6915SOL     OW21122   4.249   6.150   4.469 -0.1517 -0.4928 -0.3732
 6915SOL    HW121123   4.166   6.103   4.476  1.3036 -3.1732  0.1524
 6915SOL    HW221124   4.253   6.203   4.549 -0.9913 -0.9059 -0.0451
 6916SOL     OW21125   5.864   6.739   3.354  0.3454 -0.2268 -0.1176
 6916SOL    HW121126   5.788   6.681   3.356 -1.4784  2.0286  1.4027
 6916SOL    HW221127   5.919   6.709   3.427 -1.0855  0.4770  1.3251
 6917SOL     OW21128   0.671   4.672   1.843  0.0293  0.4274  0.0268
 6917SOL    HW121129   0.662   4.698   1.935  0.4092  0.5278  0.0369
 6917SOL    HW221130   0.712   4.586   1.845 -0.4618  0.1873 -0.0348
 6918SOL     OW21131   2.229   0.303   1.273 -0.2004  0.2049  0.0109
 6918SOL    HW121132   2.284   0.228   1.247  0.3139  0.3523  0.6475
 6918SOL    HW221133   2.216   0.352   1.192 -2.8252 -1.9701 -1.0676
 6919SOL     OW21134   3.757   4.295   4.563  0.2279  0.0332  0.1144
 6919SOL    HW121135   3.692   4.351   4.604  0.1851  0.3162 -0.3409
 6919SOL    HW221136   3.751   4.212   4.612 -0.2874  0.1426  0.2421
 6920SOL     OW21137   5.818   5.855   1.517 -0.2279  0.3188  0.5696
 6920SOL    HW121138   5.830   5.795   1.590 -0.2685  1.3258  1.4415
 6920SOL    HW221139   5.839   5.804   1.439  1.7504 -0.2742  1.4193
 6921SOL     OW21140   5.585   6.215   6.732 -0.5704  0.0853 -0.1954
 6921SOL    HW121141   5.491   6.218   6.749 -0.4232  3.7075  0.6605
 6921SOL    HW221142   5.624   6.268   6.802  2.0214 -0.3645 -1.1795
 6922SOL     OW21143   3.451   1.234   0.756 -0.1364  0.3177  0.0498
 6922SOL    HW121144   3.517   1.303   0.760  0.2063 -0.0088  0.1509
 6922SOL    HW221145   3.442   1.214   0.663  0.8546 -0.5234  0.1190
 6923SOL     OW21146   0.480   6.718   4.683  0.0936 -0.4958  0.2068
 6923SOL    HW121147   0.515   6.654   4.621 -0.1584 -0.5574  0.1297
 6923SOL    HW221148   0.480   6.801   4.635  2.6213  0.0749  1.0222
 6924SOL     OW21149   3.578   1.917   3.693  0.0728  0.1137  0.2841
 6924SOL    HW121150   3.533   1.980   3.636 -0.6933 -1.9207 -1.4997
 6924SOL    HW221151   3.575   1.834   3.644  1.2040 -1.2848  2.4376
 6925SOL     OW21152   5.475   4.005   0.424 -0.2544 -0.2167 -0.1577
 6925SOL    HW121153   5.493   4.062   0.499 -0.5274 -0.0228 -0.2383
 6925SOL    HW221154   5.448   3.922   0.462 -2.1569  0.4193 -0.0195
 6926SOL     OW21155   0.623   0.502   1.404 -0.4364  0.8367 -0.2805
 6926SOL    HW121156   0.663   0.540   1.482 -0.1939 -1.3932  0.7625
 6926SOL    HW221157   0.599   0.577   1.350  1.5370  2.3662  0.8573
 6927SOL     OW21158   0.193   6.727   3.417  0.3611 -0.1746  0.5053
 6927SOL    HW121159   0.197   6.791   3.487 -1.5569 -1.5775  2.0241
 6927SOL    HW221160   0.252   6.657   3.445  2.0860  0.6265 -0.9161
 6928SOL     OW21161   4.411   6.464   4.877 -0.2106  0.0830 -0.2578
 6928SOL    HW121162   4.479   6.522   4.844 -0.2345 -0.0689 -0.5783
 6928SOL    HW221163   4.443   6.434   4.962 -0.4928  1.0826  0.2157
 6929SOL     OW21164   6.451   4.156   2.128 -0.1220 -0.4340 -0.1912
 6929SOL    HW121165   6.395   4.210   2.185 -1.0675  0.9027 -2.2754
 6929SOL    HW221166   6.540   4.178   2.154 -0.4624 -1.7131  2.3891
 6930SOL     OW21167   6.432   0.371   3.255  0.1293  0.0401  0.2817
 6930SOL    HW121168   6.349   0.327   3.267  1.1482 -1.5273  2.1721
 6930SOL    HW221169   6.416   0.461   3.284 -0.7542 -0.4427  1.3703
 6931SOL     OW21170   1.594   1.967   1.511  0.0218  0.4090 -0.0017
 6931SOL    HW121171   1.658   1.898   1.493  0.0288  0.7650 -1.5550
 6931SOL    HW221172   1.607   1.990   1.603 -0.9169 -2.5809  0.9925
 6932SOL     OW21173   3.492   1.653   3.834  0.7117 -0.1247 -0.0111
 6932SOL    HW121174   3.405   1.656   3.794 -0.3245  3.8603  2.0195
 6932SOL    HW221175   3.549   1.692   3.769  0.4476 -0.1957 -0.2897
 6933SOL     OW21176   6.284   3.977   5.784  0.3012  0.2386  0.6017
 6933SOL    HW121177   6.302   4.062   5.743 -0.0012  0.0746  0.1284
 6933SOL    HW221178   6.318   3.987   5.873 -0.2856  1.0712  0.7483
 6934SOL     OW21179   1.188   6.525   2.630  0.7593  0.5121 -0.3767
 6934SOL    HW121180   1.149   6.510   2.716 -1.1910 -0.7139 -1.4180
 6934SOL    HW221181   1.241   6.446   2.614 -1.7338 -1.0161 -1.7260
 6935SOL     OW21182   1.295   0.757   2.897  0.4286 -0.2538  0.2373
 6935SOL    HW121183   1.307   0.852   2.898 -0.3580 -0.0196 -2.6877
 6935SOL    HW221184   1.383   0.722   2.892  0.7116  0.5766 -2.2155
 6936SOL     OW21185   3.301   6.249   5.576  0.0900 -0.1290 -0.3730
 6936SOL    HW121186   3.361   6.249   5.501  0.4800 -0.3791 -0.0627
 6936SOL    HW221187   3.273   6.340   5.584 -0.3968 -0.1985 -1.1729
 6937SOL     OW21188   6.356   6.206   6.260 -0.2591 -0.0212  0.5222
 6937SOL    HW121189   6.425   6.258   6.300 -1.2844  0.6844  1.4451
 6937SOL    HW221190   6.391   6.117   6.257  1.3186  0.6042 -0.5958
 6938SOL     OW21191   4.141   3.885   5.451  0.3525 -0.1852 -0.1072
 6938SOL    HW121192   4.190   3.812   5.414 -0.6037 -0.7408 -0.3041
 6938SOL    HW221193   4.049   3.863   5.436 -0.0064  0.3496  1.1425
 6939SOL     OW21194   3.634   1.694   6.780  0.0179 -0.6833  0.6984
 6939SOL    HW121195   3.681   1.671   6.700 -0.5866  0.2275  0.0552
 6939SOL    HW221196   3.603   1.784   6.764  0.2469 -0.3315  2.1250
 6940SOL     OW21197   6.185   5.463   3.970  0.5059  0.0452  0.2037
 6940SOL    HW121198   6.107   5.455   3.915  0.4955  1.2324  0.0187
 6940SOL    HW221199   6.228   5.378   3.963 -0.8349 -0.6851  0.4192
 6941SOL     OW21200   4.083   3.326   2.371  0.1284 -0.4717 -0.2015
 6941SOL    HW121201   3.991   3.299   2.363  0.0224 -0.2868  0.3923
 6941SOL    HW221202   4.121   3.264   2.433 -0.0417  0.5494  0.9498
 6942SOL     OW21203   2.554   6.656   6.491  0.2442 -0.1815 -0.2847
 6942SOL    HW121204   2.628   6.609   6.454  2.2039  1.9131  0.7405
 6942SOL    HW221205   2.510   6.695   6.415  0.3987 -1.1294 -0.8725
 6943SOL     OW21206   3.536   5.613   0.699  0.5720 -0.2008  0.5696
 6943SOL    HW121207   3.465   5.630   0.761 -0.7353 -0.2279 -0.8453
 6943SOL    HW221208   3.538   5.692   0.643  0.9379 -0.6427 -0.0546
 6944SOL     OW21209   3.093   5.381   5.390 -0.3533  0.0204 -0.0041
 6944SOL    HW121210   3.112   5.425   5.308  0.1653  1.4195  0.8324
 6944SOL    HW221211   3.178   5.357   5.425 -0.5397 -0.1125  0.3634
 6945SOL     OW21212   0.104   5.663   4.315  0.3321 -0.1067 -0.9794
 6945SOL    HW121213   0.148   5.733   4.364 -1.3785  0.7643 -0.5733
 6945SOL    HW221214   0.128   5.678   4.224  0.7039  0.4856 -0.7888
 6946SOL     OW21215   5.106   4.614   6.751 -0.4104  0.7387 -0.3477
 6946SOL    HW121216   5.126   4.614   6.657 -0.2180  0.1844 -0.3117
 6946SOL    HW221217   5.135   4.699   6.782 -1.2775  1.2686 -0.9619
 6947SOL     OW21218   4.161   1.726   6.423 -0.4389  0.0232 -0.0695
 6947SOL    HW121219   4.147   1.778   6.344 -0.9418 -1.0331 -0.6944
 6947SOL    HW221220   4.104   1.766   6.488 -1.7504 -0.4632 -0.8851
 6948SOL     OW21221   1.232   5.637   1.632  0.5091  0.0779  0.0313
 6948SOL    HW121222   1.200   5.591   1.555 -1.9746 -0.4163  1.2551
 6948SOL    HW221223   1.287   5.707   1.597  0.9225 -1.1955 -2.0653
 6949SOL     OW21224   2.082   2.652   2.610 -0.0292  0.0169  0.2285
 6949SOL    HW121225   1.999   2.693   2.588 -0.3780 -0.1431  1.1687
 6949SOL    HW221226   2.136   2.663   2.532 -0.1446  2.1509  0.3738
 6950SOL     OW21227   4.943   6.375   6.345 -0.7090 -0.2966  0.1224
 6950SOL    HW121228   4.969   6.302   6.401 -1.0820  0.3075  1.1005
 6950SOL    HW221229   4.854   6.395   6.371 -0.6208  0.4884 -0.1558
 6951SOL     OW21230   5.096   4.553   0.950  0.0782  0.2944 -0.2253
 6951SOL    HW121231   5.084   4.461   0.928 -1.4177  0.4561 -0.1764
 6951SOL    HW221232   5.182   4.575   0.914  0.2211 -0.9679 -0.7063
 6952SOL     OW21233   6.511   1.482   6.054 -0.7768 -0.6041 -0.4916
 6952SOL    HW121234   6.451   1.409   6.071 -0.9702 -0.8132 -1.8962
 6952SOL    HW221235   6.558   1.455   5.975 -1.1376  0.9705 -1.2690
 6953SOL     OW21236   2.883   5.598   0.378 -0.5727 -0.0355  0.4163
 6953SOL    HW121237   2.887   5.689   0.348 -0.3823  0.4361  1.7888
 6953SOL    HW221238   2.851   5.549   0.302 -1.0941  1.2365 -0.2164
 6954SOL     OW21239   0.366   5.248   0.796 -0.1166 -0.2937 -0.2384
 6954SOL    HW121240   0.353   5.159   0.829  0.3185 -0.0664  0.5778
 6954SOL    HW221241   0.368   5.303   0.875 -2.0343  0.6718 -0.7943
 6955SOL     OW21242   0.089   3.343   5.868  0.6586  0.5780 -0.1637
 6955SOL    HW121243   0.079   3.401   5.793  2.0089  0.6909 -0.2935
 6955SOL    HW221244   0.004   3.301   5.878  0.0178  1.6659 -0.8254
 6956SOL     OW21245   1.830   1.352   1.467 -0.0003  0.0084 -0.0595
 6956SOL    HW121246   1.736   1.334   1.466 -0.0860  0.4032 -1.7521
 6956SOL    HW221247   1.853   1.356   1.560 -1.2258 -2.1969  0.4038
 6957SOL     OW21248   4.051   6.081   2.528  0.5121  0.0013  0.0999
 6957SOL    HW121249   3.996   6.117   2.597 -0.9316 -0.5383 -0.7206
 6957SOL    HW221250   4.098   6.157   2.493 -1.2503  0.8691 -0.5136
 6958SOL     OW21251   5.055   2.591   6.758  0.1256 -0.0010 -0.7632
 6958SOL    HW121252   5.122   2.552   6.702 -0.5324 -3.0880  0.4203
 6958SOL    HW221253   4.974   2.583   6.708  0.1039  0.7069 -0.8569
 6959SOL     OW21254   6.420   0.551   5.705  0.2797  0.4379  0.3764
 6959SOL    HW121255   6.359   0.480   5.684  2.3094 -1.2593 -0.1159
 6959SOL    HW221256   6.486   0.512   5.762  1.2113  2.0515  0.4966
 6960SOL     OW21257   5.644   6.575   3.372 -0.3371  0.8364  0.2571
 6960SOL    HW121258   5.570   6.576   3.311 -0.1586  0.6817  0.0317
 6960SOL    HW221259   5.604   6.580   3.459 -0.5174  2.9770  0.0949
 6961SOL     OW21260   3.851   4.951   2.216  0.0649 -0.6738 -0.2455
 6961SOL    HW121261   3.904   5.020   2.176  0.6650  1.2198  3.4079
 6961SOL    HW221262   3.762   4.969   2.188  0.5599 -0.1596 -1.5616
 6962SOL     OW21263   0.300   6.636   4.390  0.4398 -0.4602  0.1715
 6962SOL    HW121264   0.307   6.543   4.412  0.0686 -0.2491  1.2658
 6962SOL    HW221265   0.377   6.676   4.431  1.2898 -0.4431 -1.3665
 6963SOL     OW21266   0.830   3.857   2.846 -0.3086 -0.3444  0.0993
 6963SOL    HW121267   0.914   3.845   2.890 -1.1570 -1.3646  1.4926
 6963SOL    HW221268   0.852   3.906   2.766  1.3952  0.7445  1.1768
 6964SOL     OW21269   2.563   1.596   2.274  0.4453 -0.1706  0.3360
 6964SOL    HW121270   2.653   1.623   2.295  0.2508  0.3426  0.5194
 6964SOL    HW221271   2.516   1.678   2.257  0.7011 -0.5325 -2.7031
 6965SOL     OW21272   1.273   0.122   4.734 -0.5739  0.4772 -0.1725
 6965SOL    HW121273   1.241   0.207   4.765 -1.8187 -0.0290  0.0168
 6965SOL    HW221274   1.367   0.123   4.751 -0.6163  1.7083  0.0685
 6966SOL     OW21275   0.180   1.956   4.874 -0.0834  0.6043  1.0364
 6966SOL    HW121276   0.267   1.918   4.885  0.0475  0.2518 -0.9720
 6966SOL    HW221277   0.120   1.883   4.888 -0.0200  0.6191  1.3986
 6967SOL     OW21278   6.595   0.088   1.804 -0.5218 -0.1541 -0.0618
 6967SOL    HW121279   6.660   0.147   1.842  0.0832 -1.3316  0.7783
 6967SOL    HW221280   6.535   0.069   1.876 -0.8518 -0.3746 -0.3900
 6968SOL     OW21281   3.577   3.642   3.732 -0.0194  0.4090 -0.0127
 6968SOL    HW121282   3.514   3.666   3.800 -2.4670  2.1899 -2.7357
 6968SOL    HW221283   3.559   3.549   3.715 -0.0392  0.2031  1.0334
 6969SOL     OW21284   2.651   0.782   0.073  0.1059  0.0923  0.1532
 6969SOL    HW121285   2.710   0.846   0.113 -1.0573  1.7261 -0.6258
 6969SOL    HW221286   2.653   0.803  -0.021  0.0859 -1.3646 -0.1881
 6970SOL     OW21287   0.448   1.574   6.525 -0.0310 -0.1886 -0.4944
 6970SOL    HW121288   0.513   1.517   6.484 -0.1716 -0.8497  0.1960
 6970SOL    HW221289   0.481   1.590   6.613 -0.5626 -0.1327 -0.3006
 6971SOL     OW21290   2.202   5.549   2.760 -0.3635  0.5352 -0.5513
 6971SOL    HW121291   2.172   5.564   2.850  0.0493  0.0468 -0.3223
 6971SOL    HW221292   2.295   5.529   2.770 -0.9540 -2.7705 -0.7242
 6972SOL     OW21293   2.258   4.687   0.141 -0.4548 -0.1811 -0.2782
 6972SOL    HW121294   2.321   4.703   0.070 -2.4214 -2.1795 -2.6709
 6972SOL    HW221295   2.212   4.769   0.151  1.8819  1.0899  0.9848
 6973SOL     OW21296   1.267   5.893   3.064 -0.4346 -0.1713 -0.2316
 6973SOL    HW121297   1.337   5.830   3.046  0.3139  0.8704 -1.1133
 6973SOL    HW221298   1.226   5.909   2.979  0.3960  1.6459 -0.3500
 6974SOL     OW21299   2.090   3.942   0.314 -0.6731 -0.2961 -0.0781
 6974SOL    HW121300   2.128   3.939   0.402 -0.3552 -0.0897 -0.2052
 6974SOL    HW221301   1.995   3.936   0.328 -0.5969 -0.7737  0.2469
 6975SOL     OW21302   6.395   5.564   1.881  0.0042  0.0899  0.0071
 6975SOL    HW121303   6.463   5.550   1.947  1.1032 -0.0949 -1.1178
 6975SOL    HW221304   6.366   5.654   1.894 -1.1522 -0.5060  1.9210
 6976SOL     OW21305   6.548   3.168   1.102  0.1239 -0.1719 -0.2867
 6976SOL    HW121306   6.475   3.114   1.133  0.6789 -0.9155 -0.2433
 6976SOL    HW221307   6.626   3.126   1.138  0.7059 -0.4225 -1.7564
 6977SOL     OW21308   2.429   2.234   5.394  0.3107  0.2245  0.3806
 6977SOL    HW121309   2.410   2.221   5.302  1.2320  1.4909 -0.0139
 6977SOL    HW221310   2.405   2.151   5.436 -0.6771 -0.1541 -0.8881
 6978SOL     OW21311   6.765   4.438   3.701 -0.3333 -0.2845  0.1477
 6978SOL    HW121312   6.812   4.509   3.744 -0.8347 -0.9804  1.9479
 6978SOL    HW221313   6.731   4.476   3.621  1.9068  0.6754 -0.4098
 6979SOL     OW21314   5.402   6.135   1.267 -0.4158 -0.2295  0.4034
 6979SOL    HW121315   5.333   6.142   1.201 -0.4828 -0.8374  0.4064
 6979SOL    HW221316   5.480   6.170   1.225 -0.7854  0.7604  0.5027
 6980SOL     OW21317   1.650   6.101   4.430 -0.6206 -0.3588  0.1060
 6980SOL    HW121318   1.727   6.049   4.450  0.4423  1.7925  1.9890
 6980SOL    HW221319   1.668   6.140   4.344 -0.8483 -1.9442 -0.6955
 6981SOL     OW21320   0.663   6.295   0.604  0.5422  0.0943  0.4669
 6981SOL    HW121321   0.573   6.265   0.586  0.1034  1.0589  0.9738
 6981SOL    HW221322   0.687   6.251   0.685  0.3641  0.1562  0.5547
 6982SOL     OW21323   5.214   3.543   6.790  0.3306  0.0012 -0.2230
 6982SOL    HW121324   5.172   3.519   6.707 -0.5117 -0.6331  0.3758
 6982SOL    HW221325   5.150   3.598   6.835  0.7638  0.3007  0.0405
 6983SOL     OW21326   5.737   2.343   3.455 -0.3306 -0.1078  0.2663
 6983SOL    HW121327   5.809   2.362   3.515  1.3456 -1.4205 -1.2312
 6983SOL    HW221328   5.780   2.312   3.375 -2.5712 -0.7412 -0.7609
 6984SOL     OW21329   3.189   0.278   2.056 -0.1988 -0.3499 -0.3538
 6984SOL    HW121330   3.220   0.346   2.116 -1.9537 -0.1140  0.3472
 6984SOL    HW221331   3.223   0.196   2.092 -1.9667 -0.3228  1.5636
 6985SOL     OW21332   6.496   2.682   3.953 -0.1873 -0.2162 -0.3179
 6985SOL    HW121333   6.587   2.712   3.953  0.2122 -0.9029  3.3276
 6985SOL    HW221334   6.499   2.596   3.910  1.3902 -1.1171  1.3997
 6986SOL     OW21335   1.120   4.039   1.872 -0.5594 -0.0413  0.8822
 6986SOL    HW121336   1.091   3.968   1.815  0.8630  0.6667 -0.8244
 6986SOL    HW221337   1.216   4.035   1.869 -0.4523  1.0412  1.9184
 6987SOL     OW21338   2.080   1.391   1.073 -0.6358  0.1534 -0.6475
 6987SOL    HW121339   2.044   1.419   1.158  1.2596 -0.3344  0.3644
 6987SOL    HW221340   2.055   1.461   1.013 -0.5242  1.4054  0.6933
 6988SOL     OW21341   3.399   6.363   2.761  0.7064 -0.0344 -0.5885
 6988SOL    HW121342   3.454   6.339   2.686  1.5257 -0.8256  0.2432
 6988SOL    HW221343   3.427   6.304   2.831 -2.3206 -1.6743 -0.5777
 6989SOL     OW21344   5.660   3.355   6.430 -0.0203 -0.3479 -0.3633
 6989SOL    HW121345   5.749   3.385   6.446 -0.9905  2.3125  0.5797
 6989SOL    HW221346   5.635   3.308   6.510 -0.1332  0.7422  0.2639
 6990SOL     OW21347   0.707   3.061   2.295  0.6171  0.8240 -0.3467
 6990SOL    HW121348   0.635   3.023   2.245  0.7352 -0.8668  0.7114
 6990SOL    HW221349   0.756   2.986   2.329  1.1918  1.8996  1.3522
 6991SOL     OW21350   6.213   3.274   2.213 -0.1450  0.5511  0.2540
 6991SOL    HW121351   6.287   3.225   2.177 -1.3302 -1.4619  0.3814
 6991SOL    HW221352   6.217   3.359   2.170 -0.1396 -0.9298 -2.9703
 6992SOL     OW21353   0.948   1.996   2.047 -0.0793 -0.2698  0.6325
 6992SOL    HW121354   1.010   1.964   1.982  1.7454  1.5922  1.3498
 6992SOL    HW221355   0.917   1.917   2.092  2.3551 -1.2555  0.7233
 6993SOL     OW21356   5.953   0.410   3.959  0.1962 -0.3896  0.0547
 6993SOL    HW121357   6.000   0.381   3.881 -0.7458 -4.1881  0.7110
 6993SOL    HW221358   6.012   0.474   4.000  1.9542 -0.3948 -2.2448
 6994SOL     OW21359   1.697   0.394   1.901 -0.3504  0.2903  0.0411
 6994SOL    HW121360   1.704   0.335   1.826 -1.9961 -0.6363  0.5515
 6994SOL    HW221361   1.677   0.337   1.975  3.3612  0.8942  1.7580
 6995SOL     OW21362   1.500   2.470   3.842 -0.0225 -0.4252 -0.7172
 6995SOL    HW121363   1.514   2.564   3.857 -1.0977 -0.1646 -1.2482
 6995SOL    HW221364   1.420   2.450   3.891  1.2242 -1.5229  0.9923
 6996SOL     OW21365   1.084   4.367   5.013  0.1269  0.7972 -0.0536
 6996SOL    HW121366   1.099   4.458   4.988  0.4605  0.4455 -1.2071
 6996SOL    HW221367   1.167   4.324   4.997 -0.5815 -0.1182 -1.5110
 6997SOL     OW21368   1.938   3.632   6.007  0.4686 -0.1074 -0.0107
 6997SOL    HW121369   2.002   3.581   5.958 -0.6748 -0.9034 -0.7340
 6997SOL    HW221370   1.942   3.719   5.968 -0.0248 -0.5865 -1.1911
 6998SOL     OW21371   5.528   1.175   1.522 -0.3498 -0.3289 -0.4268
 6998SOL    HW121372   5.534   1.190   1.617 -1.2071  3.9689 -0.8143
 6998SOL    HW221373   5.614   1.144   1.497  1.2269  2.2111  1.3748
 6999SOL     OW21374   6.357   1.080   2.146 -0.2543 -0.2153 -0.1119
 6999SOL    HW121375   6.415   1.098   2.220 -1.8853 -0.0265  1.1998
 6999SOL    HW221376   6.348   1.164   2.101 -0.3251  0.0097  0.3123
 7000SOL     OW21377   1.025   3.560   6.094 -0.3256 -0.1343 -0.5620
 7000SOL    HW121378   1.000   3.508   6.171  2.3359 -0.1276  0.3930
 7000SOL    HW221379   0.949   3.554   6.036 -1.3937 -2.3742  0.9120
 7001SOL     OW21380   6.608   3.265   5.641 -0.2149  0.0448 -0.6214
 7001SOL    HW121381   6.674   3.313   5.591 -0.7176  1.5657  0.0955
 7001SOL    HW221382   6.627   3.286   5.733  0.2956 -2.1674 -0.1639
 7002SOL     OW21383   3.089   1.300   2.332  0.0441  0.5416 -0.0728
 7002SOL    HW121384   3.014   1.334   2.381 -1.4925 -0.3070 -1.7252
 7002SOL    HW221385   3.072   1.326   2.242  0.4309 -1.7926 -0.8821
 7003SOL     OW21386   1.241   3.559   3.363  0.1141 -0.1260  0.3509
 7003SOL    HW121387   1.240   3.611   3.443  0.8471  1.8664 -0.8404
 7003SOL    HW221388   1.253   3.624   3.293  1.1885 -1.9340 -1.2377
 7004SOL     OW21389   2.426   6.813   0.123  0.2505  0.1725  0.4844
 7004SOL    HW121390   2.352   6.840   0.069  0.9764  1.1575 -0.0467
 7004SOL    HW221391   2.439   6.721   0.102 -1.0544 -0.1329  0.8803
 7005SOL     OW21392   6.124   2.163   4.214  0.1189  0.7460  0.5267
 7005SOL    HW121393   6.174   2.223   4.269 -2.1262 -0.1475  3.7957
 7005SOL    HW221394   6.103   2.089   4.271 -0.7400 -1.2460 -2.1452
 7006SOL     OW21395   4.925   4.870   1.672 -0.4847 -0.3773  0.3113
 7006SOL    HW121396   4.864   4.831   1.734  0.2666 -1.1057  0.6132
 7006SOL    HW221397   4.953   4.798   1.616  0.4088 -0.1506  0.4409
 7007SOL     OW21398   2.385   5.147   0.981 -0.0284 -0.5291  0.1997
 7007SOL    HW121399   2.368   5.098   0.901 -0.7012  0.8436 -0.5376
 7007SOL    HW221400   2.360   5.087   1.052 -1.6391 -0.9598 -0.6862
 7008SOL     OW21401   6.565   0.971   3.356 -0.1058  0.4316  0.0130
 7008SOL    HW121402   6.552   0.939   3.445 -1.5577  0.1947 -0.2684
 7008SOL    HW221403   6.660   0.962   3.341  0.0907  0.0625  1.3628
 7009SOL     OW21404   6.044   6.203   2.070 -0.7668  0.2918 -0.4019
 7009SOL    HW121405   6.109   6.133   2.075 -1.7695 -0.5472  2.0677
 7009SOL    HW221406   5.962   6.162   2.098 -1.0611  2.7307  2.8948
 7010SOL     OW21407   3.186   0.108   3.340  0.5657  0.0987  0.2339
 7010SOL    HW121408   3.131   0.178   3.304  1.9800  1.7890  1.1738
 7010SOL    HW221409   3.162   0.104   3.432  0.5299 -0.6381  0.1938
 7011SOL     OW21410   2.590   2.410   4.101 -0.4442  0.2009  0.0616
 7011SOL    HW121411   2.603   2.317   4.082 -0.1091 -0.0539  1.4683
 7011SOL    HW221412   2.584   2.415   4.196  1.9171  1.9224  0.2086
 7012SOL     OW21413   6.711   3.965   5.170 -0.3787 -0.0009 -0.1503
 7012SOL    HW121414   6.660   3.943   5.092 -0.6994  0.2283 -0.0097
 7012SOL    HW221415   6.759   3.885   5.192 -0.9733 -0.3330 -0.0590
 7013SOL     OW21416   4.998   0.168   0.172 -0.0445 -0.5997 -0.4195
 7013SOL    HW121417   5.023   0.101   0.236 -1.3656 -0.3819  0.3578
 7013SOL    HW221418   4.987   0.119   0.090 -0.6175 -1.2825  0.0522
 7014SOL     OW21419   4.076   3.240   4.102  0.1277 -0.2933 -0.2633
 7014SOL    HW121420   4.046   3.328   4.076  0.8838  0.7527  2.1045
 7014SOL    HW221421   4.099   3.250   4.194  0.4687 -2.9645 -0.0061
 7015SOL     OW21422   3.124   0.372   2.842  0.0735  0.0027  0.0544
 7015SOL    HW121423   3.142   0.386   2.749  0.9532 -0.9019  0.0662
 7015SOL    HW221424   3.113   0.460   2.878 -0.9343  0.3283 -1.0215
 7016SOL     OW21425   0.130   3.619   3.378 -0.2675 -0.3364 -0.5840
 7016SOL    HW121426   0.129   3.695   3.320 -1.7322  0.2634  0.1722
 7016SOL    HW221427   0.053   3.567   3.352 -0.5458 -0.4124  0.3312
 7017SOL     OW21428   2.558   5.130   1.965  0.0076 -0.2410  0.4430
 7017SOL    HW121429   2.567   5.210   2.018 -1.5216  0.8877 -0.9001
 7017SOL    HW221430   2.631   5.136   1.903 -0.2084  0.2393  0.2244
 7018SOL     OW21431   1.550   4.844   4.236  0.2059 -0.2057 -0.1890
 7018SOL    HW121432   1.560   4.912   4.169  0.2268 -0.5827 -0.5693
 7018SOL    HW221433   1.477   4.791   4.205 -1.6488  1.2234  1.4576
 7019SOL     OW21434   6.470   4.484   0.450  0.5127 -0.2883  0.0875
 7019SOL    HW121435   6.561   4.476   0.479  0.3392  1.3206  1.1838
 7019SOL    HW221436   6.448   4.396   0.417  1.9224 -1.1911  1.4011
 7020SOL     OW21437   6.180   6.294   6.451 -0.4168 -0.2339 -0.1245
 7020SOL    HW121438   6.240   6.276   6.379  0.7271 -0.0868  0.7678
 7020SOL    HW221439   6.096   6.310   6.409 -0.1656 -1.8552 -1.3074
 7021SOL     OW21440   1.222   4.342   5.380 -0.9229 -0.0904 -0.5220
 7021SOL    HW121441   1.126   4.348   5.384 -0.9784 -0.3289 -1.3424
 7021SOL    HW221442   1.249   4.416   5.327 -0.5613  0.5292  0.4914
 7022SOL     OW21443   6.744   2.338   0.352 -0.1338  0.1469  0.5250
 7022SOL    HW121444   6.668   2.370   0.400 -1.7039 -1.1354 -0.9987
 7022SOL    HW221445   6.754   2.399   0.279  0.1296  0.1514  0.5629
 7023SOL     OW21446   1.719   5.620   1.623  0.4035 -0.4660  0.5099
 7023SOL    HW121447   1.708   5.555   1.553 -0.8388 -0.2379  0.4703
 7023SOL    HW221448   1.640   5.611   1.676 -0.7726  2.3271 -0.6012
 7024SOL     OW21449   4.241   6.461   1.941  0.0259 -0.0106  0.2277
 7024SOL    HW121450   4.325   6.423   1.916  0.2283  0.1626  0.6298
 7024SOL    HW221451   4.259   6.554   1.952 -0.2578  0.0555  0.1535
 7025SOL     OW21452   5.841   0.836   6.091 -0.3517 -0.0784  0.1713
 7025SOL    HW121453   5.909   0.883   6.140 -0.9974 -0.6864  1.7283
 7025SOL    HW221454   5.821   0.760   6.145 -1.7192 -0.3227 -0.6240
 7026SOL     OW21455   1.171   0.137   2.257 -0.0671  0.0118  0.9079
 7026SOL    HW121456   1.080   0.164   2.268 -0.0513  0.5601 -0.1882
 7026SOL    HW221457   1.197   0.173   2.172  0.0249 -3.2412 -0.6307
 7027SOL     OW21458   6.207   6.088   6.660 -0.3451 -0.2510  0.1209
 7027SOL    HW121459   6.212   6.136   6.577 -0.2240  0.4023  0.4917
 7027SOL    HW221460   6.129   6.122   6.703 -0.3618 -0.5218  0.3079
 7028SOL     OW21461   5.263   3.493   5.415 -0.0530  0.0286 -0.2486
 7028SOL    HW121462   5.299   3.422   5.468 -1.7990 -0.0012  0.9689
 7028SOL    HW221463   5.340   3.539   5.381  1.2089  0.7170  3.1904
 7029SOL     OW21464   5.139   5.266   2.548 -0.0012 -0.0951 -0.2382
 7029SOL    HW121465   5.150   5.176   2.578 -0.1609 -0.1085 -0.2210
 7029SOL    HW221466   5.045   5.281   2.549 -0.1207 -0.5173 -1.9980
 7030SOL     OW21467   3.397   1.969   4.785  0.3571 -0.8114  0.0780
 7030SOL    HW121468   3.394   2.063   4.768  0.8456 -0.7943  0.0723
 7030SOL    HW221469   3.481   1.940   4.748  0.2940 -1.2153  0.2429
 7031SOL     OW21470   3.840   2.238   4.062 -0.3144 -0.1183 -0.0211
 7031SOL    HW121471   3.827   2.250   4.156  2.3168  0.5907  0.3373
 7031SOL    HW221472   3.809   2.319   4.022  1.1516  0.7606  0.5703
 7032SOL     OW21473   5.930   2.023   2.664  0.3450 -0.1004  0.0275
 7032SOL    HW121474   5.868   2.056   2.729  1.1858 -1.6626  1.7202
 7032SOL    HW221475   5.981   2.100   2.638 -0.0437  0.5743  1.1939
 7033SOL     OW21476   6.544   5.536   3.099 -0.0207  0.9273 -0.3004
 7033SOL    HW121477   6.567   5.445   3.079 -0.1389  0.9990 -0.7922
 7033SOL    HW221478   6.570   5.548   3.190  0.8762  0.6846 -0.5113
 7034SOL     OW21479   2.799   3.998   4.665  0.4392  0.4163 -0.2007
 7034SOL    HW121480   2.723   3.946   4.639 -0.2509  1.3425 -0.0619
 7034SOL    HW221481   2.797   3.997   4.761  0.8231  0.1343 -0.1926
 7035SOL     OW21482   4.638   2.307   5.314  0.0969  0.2192 -0.4584
 7035SOL    HW121483   4.614   2.260   5.394  1.2128 -0.6306 -0.6016
 7035SOL    HW221484   4.701   2.372   5.343  1.0670 -0.5734 -0.7249
 7036SOL     OW21485   1.906   5.516   0.758 -0.4481  1.2157  0.0971
 7036SOL    HW121486   1.820   5.515   0.714  0.2300  0.2589 -1.3088
 7036SOL    HW221487   1.909   5.432   0.805  0.7419 -0.0851 -2.1152
 7037SOL     OW21488   0.243   3.231   6.075  0.2289 -0.1889  1.0538
 7037SOL    HW121489   0.185   3.231   5.998 -1.7096 -0.9558  2.4260
 7037SOL    HW221490   0.324   3.190   6.044 -0.5727 -0.6460 -0.5407
 7038SOL     OW21491   1.834   6.739   0.279 -0.2302 -0.3215 -0.2821
 7038SOL    HW121492   1.887   6.815   0.304 -0.3159 -0.0767 -0.8185
 7038SOL    HW221493   1.896   6.680   0.237 -0.4774  0.2394 -1.4812
 7039SOL     OW21494   2.755   3.215   6.118  0.4265 -0.0854 -0.0436
 7039SOL    HW121495   2.791   3.131   6.090 -0.3196 -0.0078 -1.3011
 7039SOL    HW221496   2.756   3.270   6.040 -1.1289  0.3544  0.2040
 7040SOL     OW21497   0.610   3.694   6.296 -0.1043  0.4412  0.7969
 7040SOL    HW121498   0.535   3.736   6.339 -0.2181  1.1384 -0.0524
 7040SOL    HW221499   0.572   3.643   6.225  0.2178  0.8766  0.3005
 7041SOL     OW21500   4.309   2.547   1.100  0.0803 -0.2151 -0.1150
 7041SOL    HW121501   4.364   2.606   1.048  0.8788 -0.8738 -0.0260
 7041SOL    HW221502   4.220   2.579   1.085  0.4882  0.9596 -0.1383
 7042SOL     OW21503   3.598   1.855   3.362  0.0575  0.2487  0.3732
 7042SOL    HW121504   3.599   1.775   3.414 -1.4758  0.2089  0.3889
 7042SOL    HW221505   3.659   1.838   3.290  2.0753  0.2403  2.0010
 7043SOL     OW21506   3.562   4.609   0.523 -0.2800 -0.1845  0.2913
 7043SOL    HW121507   3.500   4.680   0.537  1.5343  1.2706  1.4252
 7043SOL    HW221508   3.608   4.632   0.443 -0.8189 -1.0043 -0.2752
 7044SOL     OW21509   1.361   6.402   2.946 -0.6360  0.5768  0.2895
 7044SOL    HW121510   1.445   6.358   2.959 -0.2455  1.1087 -0.3281
 7044SOL    HW221511   1.376   6.491   2.979  0.3056  1.8895 -3.2442
 7045SOL     OW21512   2.787   0.607   6.509  0.1180  0.0463 -0.1903
 7045SOL    HW121513   2.866   0.566   6.474 -0.2195 -1.2622  0.5122
 7045SOL    HW221514   2.722   0.537   6.509 -0.5129  0.6010  0.9854
 7046SOL     OW21515   3.357   3.385   3.807 -0.0249  0.0594  0.6585
 7046SOL    HW121516   3.306   3.343   3.737  0.3730 -0.2843  0.5745
 7046SOL    HW221517   3.294   3.442   3.851 -0.3890 -0.0635  0.3046
 7047SOL     OW21518   4.654   1.772   1.306  0.6316  0.6943  0.1463
 7047SOL    HW121519   4.679   1.683   1.330  0.1813  0.7779  0.9387
 7047SOL    HW221520   4.685   1.781   1.216  2.2115  0.3324  0.6281
 7048SOL     OW21521   2.725   0.799   2.661 -0.6218  0.1537  0.5840
 7048SOL    HW121522   2.781   0.863   2.705  0.5918  0.2739 -1.0063
 7048SOL    HW221523   2.646   0.848   2.637 -0.9438  0.2867  1.8374
 7049SOL     OW21524   0.042   5.028   3.460 -0.3726  0.2120  0.1620
 7049SOL    HW121525   0.012   5.043   3.370 -0.2383  0.4786  0.1600
 7049SOL    HW221526   0.123   5.079   3.467  0.1591 -0.6215  0.1186
 7050SOL     OW21527   3.715   5.368   1.389  0.7040 -0.2385 -0.0058
 7050SOL    HW121528   3.796   5.328   1.358 -0.1635 -1.5706 -0.6053
 7050SOL    HW221529   3.663   5.382   1.310  0.0920  0.0363  0.4373
 7051SOL     OW21530   3.987   4.789   5.700  0.7352  0.1960  0.1408
 7051SOL    HW121531   3.891   4.787   5.699  0.6216  2.7336 -0.6315
 7051SOL    HW221532   4.013   4.768   5.611  0.8200  0.7754  0.0239
 7052SOL     OW21533   1.403   4.216   2.203 -0.1888 -0.0425 -0.3157
 7052SOL    HW121534   1.433   4.296   2.245  0.1286  1.3057 -2.9247
 7052SOL    HW221535   1.334   4.244   2.142  0.5337 -1.5768 -1.9550
 7053SOL     OW21536   4.815   3.521   1.458  0.3514  0.0244 -0.0529
 7053SOL    HW121537   4.789   3.606   1.494 -0.2611 -0.1750 -0.0066
 7053SOL    HW221538   4.880   3.487   1.520 -1.3568 -0.7238  1.4291
 7054SOL     OW21539   2.959   5.074   1.455  0.2096 -0.3372 -0.0243
 7054SOL    HW121540   3.002   5.066   1.370  0.2256  0.8304 -0.1536
 7054SOL    HW221541   2.873   5.111   1.434  0.8330  1.5681  0.5676
 7055SOL     OW21542   0.513   6.599   0.904  0.1192 -0.0740  0.4631
 7055SOL    HW121543   0.585   6.620   0.844  0.0458 -1.2677 -0.0787
 7055SOL    HW221544   0.440   6.653   0.874  0.1676 -0.4503 -0.3566
 7056SOL     OW21545   3.944   4.731   3.483 -0.0869 -0.0815 -0.4063
 7056SOL    HW121546   3.934   4.641   3.513 -0.5939  0.2002  0.3027
 7056SOL    HW221547   3.874   4.742   3.419  0.5671 -0.4713 -1.2082
 7057SOL     OW21548   0.863   1.539   0.692  0.0552  0.2078  0.7696
 7057SOL    HW121549   0.839   1.598   0.763 -0.8833  0.9479 -0.1260
 7057SOL    HW221550   0.790   1.547   0.630  1.3071  0.3386 -0.7258
 7058SOL     OW21551   3.049   4.561   3.072 -0.2602  0.5112 -0.1183
 7058SOL    HW121552   3.057   4.485   3.129  1.1349  1.3474  0.8347
 7058SOL    HW221553   3.137   4.576   3.038 -0.2957  2.2409  0.4459
 7059SOL     OW21554   6.223   2.402   5.383  0.1328  0.0356  0.0468
 7059SOL    HW121555   6.135   2.401   5.418 -1.7694 -0.7597 -4.1204
 7059SOL    HW221556   6.234   2.490   5.348  0.0948 -0.4810 -1.3198
 7060SOL     OW21557   1.573   4.976   4.012  0.1054  0.6359 -0.1854
 7060SOL    HW121558   1.610   5.064   4.019  0.6707  0.3265  1.0328
 7060SOL    HW221559   1.644   4.923   3.978 -0.8926  1.0109 -3.1464
 7061SOL     OW21560   6.066   2.055   6.496  0.3157  0.1805  0.5680
 7061SOL    HW121561   6.074   2.126   6.560  0.4633 -1.0545  1.9739
 7061SOL    HW221562   5.974   2.056   6.471 -0.3270 -0.7692  2.6227
 7062SOL     OW21563   1.035   2.977   6.421  0.6329  0.4325 -0.4550
 7062SOL    HW121564   1.055   3.070   6.414  3.0061  0.0072 -0.3531
 7062SOL    HW221565   1.016   2.950   6.331  1.3408  0.7739 -0.7183
 7063SOL     OW21566   6.198   0.849   3.467  0.1216 -0.2346 -0.4014
 7063SOL    HW121567   6.253   0.834   3.390 -1.1630 -0.4037 -1.3151
 7063SOL    HW221568   6.186   0.944   3.470 -0.4279 -0.2764 -0.8766
 7064SOL     OW21569   1.379   5.114   6.253  0.5580 -0.1328 -0.1650
 7064SOL    HW121570   1.358   5.183   6.316 -1.0315  0.8096 -1.6262
 7064SOL    HW221571   1.404   5.039   6.307 -1.5023  0.3690  1.6642
 7065SOL     OW21572   2.063   1.260   3.536 -0.2080  0.4433  0.0611
 7065SOL    HW121573   2.151   1.267   3.574 -0.4432  1.5812  0.4257
 7065SOL    HW221574   2.078   1.250   3.442  0.3292 -0.3293  0.2207
 7066SOL     OW21575   5.642   4.666   3.132 -0.2553  0.0429 -0.0541
 7066SOL    HW121576   5.676   4.602   3.195  1.3334  2.5616  1.8800
 7066SOL    HW221577   5.564   4.701   3.174  0.0089  0.7328 -0.1241
 7067SOL     OW21578   5.452   5.313   2.128  0.2631 -0.2161  0.0521
 7067SOL    HW121579   5.431   5.284   2.039  0.0025 -0.2837  0.1343
 7067SOL    HW221580   5.385   5.272   2.183 -1.0744  1.7706  0.0014
 7068SOL     OW21581   5.086   3.959   4.671 -0.0659  0.3704  0.2233
 7068SOL    HW121582   5.091   3.904   4.594 -0.5529  0.1225  0.3630
 7068SOL    HW221583   5.134   3.911   4.739  0.1463  0.4720  0.1480
 7069SOL     OW21584   1.199   1.001   4.785  0.2581  0.3152 -0.4672
 7069SOL    HW121585   1.199   1.090   4.750  0.6758  0.5334  0.0757
 7069SOL    HW221586   1.114   0.965   4.759  1.0646 -0.0004 -2.8546
 7070SOL     OW21587   4.447   6.418   5.575 -0.4535 -0.0025  0.1994
 7070SOL    HW121588   4.452   6.491   5.637 -0.0075 -0.6189  0.9092
 7070SOL    HW221589   4.497   6.348   5.617 -2.1039 -1.2066  0.2183
 7071SOL     OW21590   3.973   6.093   4.482 -0.2088 -0.0669  0.2980
 7071SOL    HW121591   3.937   6.179   4.504 -1.0585  0.0815 -1.4756
 7071SOL    HW221592   3.903   6.051   4.431  0.7988 -1.1707 -0.2082
 7072SOL     OW21593   0.993   3.036   5.656 -0.5271  0.7296  0.2293
 7072SOL    HW121594   0.930   2.966   5.667  0.9339 -0.6538  0.2045
 7072SOL    HW221595   0.999   3.079   5.741 -0.9282  0.3731  0.4335
 7073SOL     OW21596   3.618   0.251   4.254 -0.0313 -0.6697 -0.3602
 7073SOL    HW121597   3.616   0.204   4.171  1.2498 -1.5502  0.0781
 7073SOL    HW221598   3.691   0.211   4.303 -0.0637  0.5551  0.7501
 7074SOL     OW21599   6.309   0.065   4.947  0.4193  0.0140  0.4778
 7074SOL    HW121600   6.400   0.083   4.923  0.0966  0.7668 -0.2207
 7074SOL    HW221601   6.281   0.143   4.996 -0.4927  0.7666 -1.1648
 7075SOL     OW21602   4.724   0.509   5.110  0.2325 -0.0855 -0.1858
 7075SOL    HW121603   4.711   0.597   5.145 -1.4058 -0.4723  0.2209
 7075SOL    HW221604   4.818   0.494   5.120  0.5933  1.6899 -0.4637
 7076SOL     OW21605   3.229   4.388   6.376  0.7395 -0.2247  0.4033
 7076SOL    HW121606   3.148   4.341   6.362 -0.0265  1.5900 -1.8801
 7076SOL    HW221607   3.206   4.460   6.435  0.8627 -0.0904  0.2887
 7077SOL     OW21608   1.625   1.906   1.790 -0.3460  0.0652  0.4396
 7077SOL    HW121609   1.593   1.821   1.760  0.8034  0.6304 -2.8205
 7077SOL    HW221610   1.701   1.884   1.844  0.6737 -1.0736 -1.3203
 7078SOL     OW21611   3.965   2.528   5.804 -0.1356  0.0031 -0.8398
 7078SOL    HW121612   3.908   2.604   5.818  0.0592  0.0084 -0.0480
 7078SOL    HW221613   3.934   2.490   5.722  0.0212  1.1609 -1.4462
 7079SOL     OW21614   0.596   4.622   6.664  0.1662 -0.2904 -0.5417
 7079SOL    HW121615   0.659   4.664   6.722  0.9782 -1.1592 -0.7684
 7079SOL    HW221616   0.552   4.557   6.719  0.0135 -0.2241 -0.5837
 7080SOL     OW21617   2.999   4.233   6.289  0.1072  0.4185 -0.1047
 7080SOL    HW121618   2.953   4.260   6.209  0.7656  2.7356  0.2176
 7080SOL    HW221619   3.015   4.139   6.277 -1.3976  0.3234 -1.8670
 7081SOL     OW21620   3.226   6.827   1.708 -0.3987  0.3599 -0.3767
 7081SOL    HW121621   3.311   6.817   1.667  0.0064 -1.1086  0.7283
 7081SOL    HW221622   3.180   6.746   1.689 -0.9619  0.4955  0.3320
 7082SOL     OW21623   3.481   0.983   1.952 -0.2101 -0.3960 -0.0788
 7082SOL    HW121624   3.511   0.892   1.959  2.2880  0.4380  1.2307
 7082SOL    HW221625   3.391   0.981   1.987 -0.6296 -2.4951 -1.0909
 7083SOL     OW21626   2.720   2.153   0.592 -0.0154 -0.1532  0.5491
 7083SOL    HW121627   2.672   2.218   0.541  2.3173  0.0473 -1.6101
 7083SOL    HW221628   2.741   2.198   0.674  1.0194  1.6722 -0.6385
 7084SOL     OW21629   2.942   4.292   1.628  0.3701  0.4283 -0.2606
 7084SOL    HW121630   2.999   4.342   1.570  1.7677  0.1358  0.7888
 7084SOL    HW221631   2.999   4.224   1.664 -0.5850  0.2763  1.0325
 7085SOL     OW21632   3.037   1.669   6.602  0.0390 -0.3725  0.4310
 7085SOL    HW121633   3.044   1.575   6.589 -1.4474 -0.8338  2.4569
 7085SOL    HW221634   3.059   1.707   6.517  0.1189 -2.5537 -0.5835
 7086SOL     OW21635   1.544   3.323   3.625 -0.4076  0.0388 -0.4327
 7086SOL    HW121636   1.572   3.414   3.616 -0.9834  0.1354 -1.3659
 7086SOL    HW221637   1.600   3.275   3.565 -0.1508 -0.2235  0.0104
 7087SOL     OW21638   6.283   3.646   6.435 -0.1642 -0.1637  0.0463
 7087SOL    HW121639   6.337   3.710   6.481 -1.1375 -0.0661  1.1057
 7087SOL    HW221640   6.258   3.690   6.354 -2.1315  1.4958  1.4453
 7088SOL     OW21641   1.919   0.147   2.962  0.3498 -0.2388 -0.1511
 7088SOL    HW121642   1.998   0.201   2.956 -0.6241  1.2425 -0.4626
 7088SOL    HW221643   1.913   0.104   2.876  1.1335 -0.8582  0.0929
 7089SOL     OW21644   0.973   1.292   6.591 -0.1058  0.5811  0.0350
 7089SOL    HW121645   1.032   1.221   6.567  0.4490  1.0427  0.0134
 7089SOL    HW221646   0.984   1.356   6.521 -2.1344 -0.1725 -1.0658
 7090SOL     OW21647   1.170   6.230   2.660 -0.2266  0.0092  0.2891
 7090SOL    HW121648   1.157   6.212   2.753 -2.1941  1.7026  0.3961
 7090SOL    HW221649   1.195   6.145   2.622 -0.6326 -0.9672  2.1255
 7091SOL     OW21650   5.333   3.882   0.150 -0.2294  0.2345 -0.1811
 7091SOL    HW121651   5.348   3.952   0.086 -3.4278  0.7426 -0.5620
 7091SOL    HW221652   5.253   3.908   0.195 -1.0212 -2.7287  0.3240
 7092SOL     OW21653   2.993   4.589   6.138  0.0058 -0.4772  0.5339
 7092SOL    HW121654   3.034   4.662   6.093 -4.5343  1.3183 -1.2716
 7092SOL    HW221655   3.019   4.512   6.087  0.3049  0.6755 -1.1472
 7093SOL     OW21656   3.390   1.441   1.145 -0.0155  0.2098  0.3503
 7093SOL    HW121657   3.400   1.470   1.235  0.9884  1.0263 -0.0011
 7093SOL    HW221658   3.399   1.521   1.093  1.2848 -0.4856 -0.5639
 7094SOL     OW21659   3.438   0.672   0.659 -0.0613 -0.0191 -0.2958
 7094SOL    HW121660   3.452   0.582   0.632  3.4695 -0.3285  1.7923
 7094SOL    HW221661   3.475   0.725   0.588  1.1604 -0.4442 -0.0076
 7095SOL     OW21662   0.697   3.133   4.640  0.6972 -0.0282  0.1138
 7095SOL    HW121663   0.605   3.108   4.645  0.6934  0.0441  0.4418
 7095SOL    HW221664   0.709   3.194   4.713  1.1609 -0.5359  0.4688
 7096SOL     OW21665   6.615   4.618   5.178 -0.6983  0.5510 -0.0342
 7096SOL    HW121666   6.630   4.528   5.208  1.8342  0.8297 -0.3011
 7096SOL    HW221667   6.567   4.659   5.250  2.1321  0.2227  2.1979
 7097SOL     OW21668   1.653   2.669   5.357  0.7476  0.1894  0.0390
 7097SOL    HW121669   1.631   2.729   5.429 -0.2336  1.3085 -1.1462
 7097SOL    HW221670   1.627   2.583   5.389 -0.6911  0.8151  0.6493
 7098SOL     OW21671   6.698   2.186   1.187  0.4380  0.6395  0.1875
 7098SOL    HW121672   6.736   2.143   1.110 -0.6175  0.3993 -0.2167
 7098SOL    HW221673   6.643   2.255   1.151 -3.4712 -2.0538  0.3694
 7099SOL     OW21674   1.893   0.933   1.887  0.0042  0.1563 -0.3570
 7099SOL    HW121675   1.924   0.964   1.802 -2.6817  1.2591 -1.0371
 7099SOL    HW221676   1.798   0.927   1.878 -0.1521 -2.6863  1.6548
 7100SOL     OW21677   4.580   4.077   0.690 -0.6573  0.3513 -0.2598
 7100SOL    HW121678   4.545   4.158   0.654 -2.7102 -0.3305  0.0518
 7100SOL    HW221679   4.661   4.102   0.735  0.3985  1.6871 -2.7650
 7101SOL     OW21680   5.999   4.611   3.418 -0.4098 -0.2294 -0.7099
 7101SOL    HW121681   6.041   4.640   3.337  0.6388 -0.4209 -0.2515
 7101SOL    HW221682   6.054   4.539   3.449  0.3874  1.1123  1.2103
 7102SOL     OW21683   5.485   6.606   6.587  0.1394  0.4258  0.1026
 7102SOL    HW121684   5.554   6.668   6.609 -0.0331  0.3008  1.0482
 7102SOL    HW221685   5.422   6.613   6.658 -0.4756  0.0264 -0.3852
 7103SOL     OW21686   6.387   4.015   6.046  0.6821  0.5581 -0.0403
 7103SOL    HW121687   6.318   4.023   6.113 -1.2253 -2.2715 -1.4851
 7103SOL    HW221688   6.400   3.921   6.036  1.5035  0.8955 -3.0482
 7104SOL     OW21689   2.475   1.720   5.569  0.0918  1.1956  0.0853
 7104SOL    HW121690   2.508   1.630   5.577  0.1633  1.2600  0.5684
 7104SOL    HW221691   2.380   1.710   5.564  0.1538  1.0392 -0.7931
 7105SOL     OW21692   3.346   5.761   3.777 -0.2712  0.0903 -0.3033
 7105SOL    HW121693   3.335   5.736   3.869  0.1584  0.4517 -0.1545
 7105SOL    HW221694   3.404   5.695   3.741 -1.7598 -1.0350 -0.7498
 7106SOL     OW21695   6.186   1.659   3.259  0.2249 -0.0802 -0.2905
 7106SOL    HW121696   6.207   1.569   3.283  1.4763  0.1904 -0.2766
 7106SOL    HW221697   6.248   1.679   3.188  2.7044  1.9948  2.2193
 7107SOL     OW21698   3.850   0.231   3.513 -0.0368  0.4248 -0.4274
 7107SOL    HW121699   3.938   0.242   3.477 -0.0186  0.6977 -0.3006
 7107SOL    HW221700   3.841   0.137   3.524  0.5372  0.4462  0.2914
 7108SOL     OW21701   2.444   1.003   1.114  0.3156 -0.1295 -0.1933
 7108SOL    HW121702   2.355   1.032   1.095 -0.0039 -0.3034  0.9697
 7108SOL    HW221703   2.463   0.938   1.046 -0.5019 -0.2181 -0.3439
 7109SOL     OW21704   3.710   0.284   0.169  0.2551  0.1252  0.4774
 7109SOL    HW121705   3.774   0.229   0.213 -0.1951 -0.9820 -0.2167
 7109SOL    HW221706   3.722   0.266   0.076 -2.2265 -1.5181  0.3779
 7110SOL     OW21707   2.789   5.306   1.517 -0.2909 -0.1969  0.0054
 7110SOL    HW121708   2.698   5.278   1.507  0.2732 -1.6551 -1.6984
 7110SOL    HW221709   2.817   5.330   1.428  1.0629 -0.0741  0.4347
 7111SOL     OW21710   1.524   5.284   4.473 -0.0927  0.2672 -0.2966
 7111SOL    HW121711   1.615   5.301   4.449  0.1844 -1.6437 -0.7403
 7111SOL    HW221712   1.477   5.283   4.390  0.0317 -1.6711 -0.3766
 7112SOL     OW21713   4.377   1.434   4.264  0.3336 -0.3271 -0.4009
 7112SOL    HW121714   4.326   1.367   4.219 -0.4446  0.5131 -0.7900
 7112SOL    HW221715   4.460   1.438   4.215  0.8159 -1.7181  0.2607
 7113SOL     OW21716   1.493   6.834   3.371  0.2728 -0.1199  0.0939
 7113SOL    HW121717   1.404   6.868   3.370  0.7354  1.1612  0.0464
 7113SOL    HW221718   1.536   6.881   3.443  1.2516  0.2342 -0.6997
 7114SOL     OW21719   6.312   1.901   6.778  0.3552  0.2157  0.4505
 7114SOL    HW121720   6.396   1.856   6.790  0.8296  0.7151 -0.8505
 7114SOL    HW221721   6.277   1.865   6.697 -0.5393  0.2541  0.8121
 7115SOL     OW21722   0.864   2.593   3.387 -0.1538 -0.2041 -0.6076
 7115SOL    HW121723   0.937   2.645   3.354 -0.1370 -0.1103 -0.4254
 7115SOL    HW221724   0.810   2.576   3.310  0.7635 -1.4418 -1.0071
 7116SOL     OW21725   4.995   2.584   1.780 -0.0649 -0.5684 -0.3285
 7116SOL    HW121726   5.037   2.638   1.847 -0.3481 -0.5257 -0.1797
 7116SOL    HW221727   4.904   2.576   1.810 -0.0865 -0.9203 -0.4778
 7117SOL     OW21728   5.936   1.054   5.517 -0.4132 -0.1329 -0.2087
 7117SOL    HW121729   5.986   1.073   5.595 -0.6743  0.9026 -0.2791
 7117SOL    HW221730   5.996   1.071   5.444 -0.5889  0.2276 -0.2696
 7118SOL     OW21731   1.734   2.733   5.108  0.5427  0.3851 -1.1789
 7118SOL    HW121732   1.712   2.702   5.196  0.4603 -0.2655 -1.4256
 7118SOL    HW221733   1.773   2.657   5.065 -0.7120  0.2697 -2.1635
 7119SOL     OW21734   1.772   5.820   6.353  0.2742  0.0998 -0.3697
 7119SOL    HW121735   1.852   5.801   6.401  0.5026  1.2175 -0.2729
 7119SOL    HW221736   1.733   5.894   6.399  0.4716  1.1727 -1.8310
 7120SOL     OW21737   4.473   5.590   0.872 -0.0220 -0.5642 -0.4275
 7120SOL    HW121738   4.444   5.532   0.802 -1.2714 -0.4697 -0.0095
 7120SOL    HW221739   4.432   5.674   0.852  0.0583 -0.3907  0.1220
 7121SOL     OW21740   1.728   3.220   1.167 -0.3613  0.0349 -0.2000
 7121SOL    HW121741   1.731   3.305   1.210 -0.4227  0.6700 -1.4229
 7121SOL    HW221742   1.755   3.158   1.235  2.1484  1.2730  0.0234
 7122SOL     OW21743   5.562   4.436   6.613  0.2187  0.3925 -0.0505
 7122SOL    HW121744   5.562   4.532   6.615 -0.0728  0.3893  0.1233
 7122SOL    HW221745   5.487   4.414   6.557 -1.2067  0.2336  1.8024
 7123SOL     OW21746   3.184   2.041   4.995  0.1843 -0.5577 -0.2078
 7123SOL    HW121747   3.127   2.044   4.918  1.2436  0.4009 -0.9995
 7123SOL    HW221748   3.261   1.991   4.966  1.0714  0.7130 -0.1522
 7124SOL     OW21749   2.775   5.094   1.793 -0.2196  0.4202 -0.4948
 7124SOL    HW121750   2.805   5.007   1.816  1.7485  0.7311 -1.6342
 7124SOL    HW221751   2.714   5.080   1.721 -0.1486 -0.0378 -0.4660
 7125SOL     OW21752   0.069   5.288   0.190 -0.2844 -0.4922 -0.3351
 7125SOL    HW121753   0.098   5.223   0.254 -1.9770 -2.2494 -1.2263
 7125SOL    HW221754   0.105   5.371   0.221 -1.0231 -1.2465  2.8869
 7126SOL     OW21755   2.240   5.902   4.555  0.0773  0.1441  0.4410
 7126SOL    HW121756   2.315   5.884   4.498  0.3731  1.2264  0.4732
 7126SOL    HW221757   2.265   5.863   4.639 -0.1800 -1.0804 -0.0252
 7127SOL     OW21758   2.372   1.715   4.240  0.1384 -0.0528  0.0998
 7127SOL    HW121759   2.401   1.787   4.295 -1.5677  1.8954 -1.3814
 7127SOL    HW221760   2.391   1.744   4.151  0.3814 -1.9336 -0.5093
 7128SOL     OW21761   0.277   5.601   5.393  0.2921  0.3323  0.0462
 7128SOL    HW121762   0.339   5.550   5.445  0.1667  0.3392  0.2013
 7128SOL    HW221763   0.327   5.627   5.315  0.6030  0.6629  0.3498
 7129SOL     OW21764   5.195   3.670   1.108  0.2371 -0.5771 -0.1089
 7129SOL    HW121765   5.239   3.649   1.190 -0.5664 -0.1961  0.4334
 7129SOL    HW221766   5.102   3.654   1.126 -0.1503  1.1840 -0.3774
 7130SOL     OW21767   0.235   0.055   0.308  0.2835  0.2524  0.0052
 7130SOL    HW121768   0.149   0.026   0.278  0.2992  0.8082 -0.6083
 7130SOL    HW221769   0.253   0.002   0.386 -1.8279  2.0438  1.8501
 7131SOL     OW21770   3.544   5.164   1.860 -0.4269  0.5833 -0.1944
 7131SOL    HW121771   3.484   5.106   1.813  1.5291 -1.7696  0.0169
 7131SOL    HW221772   3.582   5.219   1.791 -0.8408  0.2390 -0.7099
 7132SOL     OW21773   0.810   6.008   3.365  0.0263 -0.3102 -0.4126
 7132SOL    HW121774   0.889   6.006   3.419  0.4440  0.5371 -0.9592
 7132SOL    HW221775   0.751   6.068   3.410 -0.8452 -1.9245  0.6743
 7133SOL     OW21776   3.110   4.405   5.989  0.3600 -0.5980 -0.0368
 7133SOL    HW121777   3.160   4.328   6.019 -1.5039 -1.2498  1.5888
 7133SOL    HW221778   3.082   4.381   5.900  1.9270 -0.6791 -0.5476
 7134SOL     OW21779   3.916   5.337   2.776  0.0132 -0.3304 -0.0314
 7134SOL    HW121780   3.863   5.305   2.703  1.1104 -2.7409  0.1139
 7134SOL    HW221781   4.006   5.329   2.746  0.4206  0.6667  0.8584
 7135SOL     OW21782   6.322   0.342   3.742 -0.1421 -0.4024 -0.3242
 7135SOL    HW121783   6.416   0.349   3.723 -0.0133 -1.4856 -0.1934
 7135SOL    HW221784   6.303   0.418   3.797  1.3284 -1.6210  2.0766
 7136SOL     OW21785   6.536   5.334   2.317 -0.1912 -0.1808  0.0596
 7136SOL    HW121786   6.501   5.308   2.232 -2.2553 -0.6675  0.9713
 7136SOL    HW221787   6.474   5.297   2.380  0.2077  1.7630  1.7037
 7137SOL     OW21788   2.139   5.806   1.227  0.0806 -0.1215 -0.1843
 7137SOL    HW121789   2.147   5.765   1.314 -2.1631  0.5379  0.3957
 7137SOL    HW221790   2.113   5.734   1.169 -0.6932 -0.1405  0.1773
 7138SOL     OW21791   0.315   2.399   4.535  0.0073 -0.1201 -0.2580
 7138SOL    HW121792   0.305   2.348   4.615  0.0785 -1.6383 -1.1849
 7138SOL    HW221793   0.248   2.467   4.542  1.0375  0.7624  1.7854
 7139SOL     OW21794   0.353   5.877   3.371  0.2999  0.2186 -0.4041
 7139SOL    HW121795   0.360   5.969   3.397 -0.9397  0.0456  0.6582
 7139SOL    HW221796   0.443   5.844   3.379  0.6581  1.1807 -0.2235
 7140SOL     OW21797   3.518   0.774   4.027  0.0082  0.1970 -0.6938
 7140SOL    HW121798   3.600   0.754   3.982 -0.8909 -0.9964 -1.8727
 7140SOL    HW221799   3.493   0.692   4.070  0.2684  1.0080  1.0925
 7141SOL     OW21800   1.150   6.281   2.208 -0.0579 -0.1680  0.2267
 7141SOL    HW121801   1.213   6.218   2.244  2.3508  1.9480 -0.0321
 7141SOL    HW221802   1.202   6.335   2.149 -2.0110  2.1056  0.4579
 7142SOL     OW21803   5.305   1.385   1.773 -0.0225 -0.1490 -0.4140
 7142SOL    HW121804   5.357   1.380   1.692  0.5977 -0.8985  0.0145
 7142SOL    HW221805   5.369   1.403   1.841 -0.5356  0.4138 -0.0733
 7143SOL     OW21806   0.263   5.108   0.058 -0.7335 -0.3208 -0.4359
 7143SOL    HW121807   0.199   5.037   0.046  0.2856 -1.3274 -0.1474
 7143SOL    HW221808   0.236   5.176  -0.003 -2.0219 -0.7628 -0.3855
 7144SOL     OW21809   0.630   0.317   3.503  0.2024 -0.3156 -0.6903
 7144SOL    HW121810   0.603   0.366   3.425  0.4393  1.6424  0.3786
 7144SOL    HW221811   0.558   0.329   3.565  0.6673 -0.5665 -0.0903
 7145SOL     OW21812   0.492   5.758   6.375 -0.0770 -0.4669  0.7128
 7145SOL    HW121813   0.430   5.688   6.354  1.1379 -0.9435 -1.6018
 7145SOL    HW221814   0.571   5.712   6.402  0.0550  0.0719  1.2536
 7146SOL     OW21815   5.476   4.806   0.108 -0.3031 -0.4390 -0.0592
 7146SOL    HW121816   5.501   4.888   0.151  0.2892 -1.0504  0.7855
 7146SOL    HW221817   5.394   4.827   0.063  1.2516  1.4168 -2.2768
 7147SOL     OW21818   4.584   0.316   5.259 -0.1640 -0.0256  0.5601
 7147SOL    HW121819   4.609   0.385   5.197 -1.0491 -1.0517 -1.0007
 7147SOL    HW221820   4.489   0.309   5.250 -0.2973 -0.2349  2.0199
 7148SOL     OW21821   0.970   2.705   2.671  0.4095 -0.2550 -0.3962
 7148SOL    HW121822   0.940   2.661   2.751  1.3704  0.0680  0.1625
 7148SOL    HW221823   0.907   2.775   2.657 -0.9562 -1.5797 -1.1141
 7149SOL     OW21824   5.509   5.792   5.521 -0.4474  0.2026 -0.6636
 7149SOL    HW121825   5.479   5.775   5.610 -0.9342  0.3502 -0.7974
 7149SOL    HW221826   5.454   5.864   5.490  0.7462  1.1956 -0.5412
 7150SOL     OW21827   2.102   6.189   0.770 -0.1050  0.7667  0.3242
 7150SOL    HW121828   2.155   6.149   0.838  2.4906  1.9726 -0.8316
 7150SOL    HW221829   2.131   6.147   0.689 -1.9612  0.4976 -0.2561
 7151SOL     OW21830   0.022   0.034   5.777  0.4741 -0.1230 -0.8717
 7151SOL    HW121831   0.108   0.061   5.744 -0.3198  2.9242 -0.7364
 7151SOL    HW221832  -0.004  -0.038   5.719  2.7761 -0.6538 -1.3595
 7152SOL     OW21833   2.281   6.461   0.055  0.0184 -0.2382 -0.2003
 7152SOL    HW121834   2.202   6.467   0.109  0.5147 -0.3135  0.5394
 7152SOL    HW221835   2.249   6.468  -0.035 -0.8796 -0.6857  0.0729
 7153SOL     OW21836   3.963   3.320   1.506 -0.0586 -0.5051 -0.3597
 7153SOL    HW121837   3.887   3.373   1.528  1.0531  0.6359  0.9705
 7153SOL    HW221838   4.034   3.384   1.495  0.8568 -1.5748 -0.8566
 7154SOL     OW21839   4.720   2.210   6.749  0.1067  0.2109 -0.3390
 7154SOL    HW121840   4.632   2.184   6.719  0.1425 -1.7420  1.0472
 7154SOL    HW221841   4.704   2.278   6.814 -0.5082 -0.8150  0.6356
 7155SOL     OW21842   2.398   3.912   1.311  0.5415 -0.2669  0.2465
 7155SOL    HW121843   2.413   3.984   1.250  2.1604  0.3208  1.2719
 7155SOL    HW221844   2.379   3.955   1.395 -1.0848 -1.0570  0.3085
 7156SOL     OW21845   5.925   1.509   3.855 -0.0185  0.0063  0.3885
 7156SOL    HW121846   5.864   1.574   3.889 -2.1064 -0.6424 -1.8309
 7156SOL    HW221847   5.997   1.560   3.819  0.0741  0.8687  1.7179
 7157SOL     OW21848   4.456   0.336   0.884  0.2763  0.6387  0.0287
 7157SOL    HW121849   4.463   0.361   0.792 -0.2400  0.4696 -0.0561
 7157SOL    HW221850   4.389   0.394   0.920 -0.4565 -0.1602 -0.0147
 7158SOL     OW21851   0.404   4.390   3.231  0.1741 -0.3234  0.2419
 7158SOL    HW121852   0.477   4.355   3.181 -0.2810 -0.3305 -0.4319
 7158SOL    HW221853   0.328   4.378   3.174 -0.0302  1.6168  0.0420
 7159SOL     OW21854   4.373   4.721   0.938 -0.3745  0.5982  0.4834
 7159SOL    HW121855   4.367   4.745   0.846 -1.1929 -0.3762  0.2697
 7159SOL    HW221856   4.398   4.628   0.937  0.6126  0.8346  1.2587
 7160SOL     OW21857   1.450   1.156   0.704 -0.1536 -0.5709  0.1961
 7160SOL    HW121858   1.502   1.162   0.784  0.7764  1.6701 -0.5015
 7160SOL    HW221859   1.510   1.121   0.639 -0.7847 -1.9849  0.3485
 7161SOL     OW21860   1.022   5.935   4.239 -0.0176  0.2300 -0.1578
 7161SOL    HW121861   0.953   5.947   4.303 -0.5404  0.5825 -0.7779
 7161SOL    HW221862   1.033   6.021   4.198  1.4520  0.4290  0.5793
 7162SOL     OW21863   3.588   2.295   3.124 -0.0766 -0.1394  0.6310
 7162SOL    HW121864   3.514   2.291   3.184 -0.2330  1.0917  0.5589
 7162SOL    HW221865   3.633   2.211   3.134 -2.0250 -1.3178 -0.0345
 7163SOL     OW21866   5.977   4.000   5.457  0.0231 -0.1249 -0.4453
 7163SOL    HW121867   5.975   3.910   5.426  1.5416  0.3473 -2.0938
 7163SOL    HW221868   6.067   4.030   5.439  0.0791  1.1781  1.6767
 7164SOL     OW21869   4.158   5.253   1.798 -0.5090 -0.2063  0.7421
 7164SOL    HW121870   4.181   5.162   1.785 -0.9204 -0.2740  0.4498
 7164SOL    HW221871   4.228   5.289   1.852  0.4989 -0.2907 -0.4824
 7165SOL     OW21872   4.997   3.051   3.876 -0.3876 -0.3774 -0.3257
 7165SOL    HW121873   4.938   2.991   3.831 -0.1603 -0.1248 -0.9716
 7165SOL    HW221874   4.948   3.079   3.953  0.2045 -2.8311  1.0319
 7166SOL     OW21875   6.599   1.570   2.610 -0.3008  0.3632 -0.0329
 7166SOL    HW121876   6.599   1.661   2.582  0.1514  0.0609 -1.0790
 7166SOL    HW221877   6.683   1.536   2.580 -0.8403 -0.6299 -0.4774
 7167SOL     OW21878   0.691   4.073   3.036 -0.2075  0.4688 -0.1908
 7167SOL    HW121879   0.694   3.977   3.030  3.2681  0.5317 -1.2101
 7167SOL    HW221880   0.704   4.104   2.947 -1.3583  1.9313  0.1129
 7168SOL     OW21881   6.286   6.009   2.804 -0.1145 -0.7121  0.5038
 7168SOL    HW121882   6.261   6.066   2.731  1.5772  1.9341  1.8463
 7168SOL    HW221883   6.297   5.922   2.764  1.5333  0.7649 -2.5993
 7169SOL     OW21884   5.850   3.859   3.763 -0.4401 -0.2391 -0.3460
 7169SOL    HW121885   5.866   3.906   3.682  0.6354  1.0898  0.6016
 7169SOL    HW221886   5.936   3.849   3.803 -0.9345 -0.9931  0.5701
 7170SOL     OW21887   5.246   5.917   3.718  0.2116  0.3340  0.1922
 7170SOL    HW121888   5.250   5.823   3.734  0.5319  0.3464  0.2050
 7170SOL    HW221889   5.206   5.953   3.797  0.1254  0.2119  0.2042
 7171SOL     OW21890   2.637   0.637   3.202 -0.5368  0.3225 -0.6701
 7171SOL    HW121891   2.637   0.598   3.289 -0.7181 -0.0496 -0.8341
 7171SOL    HW221892   2.720   0.610   3.163 -0.5793  0.2570 -0.7153
 7172SOL     OW21893   0.812   2.871   1.637  0.0065 -0.5522  0.5433
 7172SOL    HW121894   0.743   2.928   1.605 -2.1122 -2.0493  2.1013
 7172SOL    HW221895   0.801   2.789   1.588  2.8008  0.1304 -1.4582
 7173SOL     OW21896   1.303   0.780   2.607 -0.2801  0.0622  0.4472
 7173SOL    HW121897   1.275   0.782   2.698  0.5288 -0.2943  0.7105
 7173SOL    HW221898   1.323   0.688   2.589  0.5302  0.2755  0.2182
 7174SOL     OW21899   4.307   1.250   0.292 -0.1979 -0.2664  0.5023
 7174SOL    HW121900   4.294   1.315   0.222  1.6533 -0.9951 -0.5831
 7174SOL    HW221901   4.240   1.184   0.276 -0.2610 -0.0534 -0.1446
 7175SOL     OW21902   5.349   4.232   5.693  0.4545 -0.6301  0.1111
 7175SOL    HW121903   5.292   4.249   5.618  0.7222  0.6985  0.1965
 7175SOL    HW221904   5.290   4.194   5.759 -0.0427 -0.5867 -0.3031
 7176SOL     OW21905   0.659   6.695   6.152 -0.5749  0.6873 -0.3874
 7176SOL    HW121906   0.657   6.617   6.096  0.5093  0.3762 -0.0160
 7176SOL    HW221907   0.584   6.684   6.211 -0.4413 -0.0748 -0.3477
 7177SOL     OW21908   3.347   6.464   0.826 -0.2595  0.3546  0.5683
 7177SOL    HW121909   3.255   6.470   0.852 -0.7704  0.1463 -1.0642
 7177SOL    HW221910   3.357   6.376   0.792  1.0966 -0.3205  2.5114
 7178SOL     OW21911   2.436   4.605   1.746  0.4311  0.0303 -0.0956
 7178SOL    HW121912   2.469   4.526   1.705 -0.4762  0.6411 -2.1405
 7178SOL    HW221913   2.462   4.676   1.687 -1.8572  0.8345 -0.2482
 7179SOL     OW21914   6.284   2.658   0.768 -0.4580 -0.2446 -0.2566
 7179SOL    HW121915   6.230   2.722   0.721  1.9558  1.9123 -0.3064
 7179SOL    HW221916   6.364   2.651   0.716  0.6569 -0.8313  1.4494
 7180SOL     OW21917   2.006   4.855   4.723 -0.1225 -0.1944 -0.6087
 7180SOL    HW121918   2.016   4.863   4.818  0.0270  0.4909 -0.6771
 7180SOL    HW221919   1.911   4.860   4.709 -0.2520 -1.5771 -0.3991
 7181SOL     OW21920   6.336   5.421   3.285 -1.0888  0.1887 -0.5128
 7181SOL    HW121921   6.275   5.448   3.354 -1.4022  1.2205 -1.1678
 7181SOL    HW221922   6.399   5.493   3.279 -1.7528  0.6743 -2.0914
 7182SOL     OW21923   4.305   0.543   6.604 -0.4330 -0.3017 -0.5972
 7182SOL    HW121924   4.224   0.523   6.557 -0.9812 -1.0526  0.6018
 7182SOL    HW221925   4.349   0.458   6.612  0.6992  0.1629 -1.5967
 7183SOL     OW21926   3.600   5.106   2.107  0.5292  0.2645 -0.0202
 7183SOL    HW121927   3.671   5.170   2.110 -0.4076  1.3285  0.1627
 7183SOL    HW221928   3.583   5.094   2.013  1.1271 -0.2221 -0.0765
 7184SOL     OW21929   6.525   0.268   3.004 -0.1205  0.2889  0.8093
 7184SOL    HW121930   6.585   0.336   2.973 -0.9265  1.0182  0.8193
 7184SOL    HW221931   6.474   0.311   3.073 -0.9734 -0.1801  0.4781
 7185SOL     OW21932   5.415   1.894   5.858 -0.0204 -0.0346  0.3952
 7185SOL    HW121933   5.440   1.867   5.769  1.3565  0.2356  0.6732
 7185SOL    HW221934   5.343   1.955   5.845 -0.7993 -1.1024 -0.4440
 7186SOL     OW21935   6.695   5.955   0.765  0.4778 -0.6247 -0.0976
 7186SOL    HW121936   6.672   6.028   0.822 -0.1834 -0.2546 -0.8258
 7186SOL    HW221937   6.709   5.881   0.825  1.0379  0.0634  0.6284
 7187SOL     OW21938   1.780   2.109   0.009  0.0611 -0.3680  0.0789
 7187SOL    HW121939   1.769   2.069   0.095  0.4451  0.1006  0.3526
 7187SOL    HW221940   1.871   2.093  -0.014  0.2359  0.3705  0.2146
 7188SOL     OW21941   5.107   1.439   0.672  0.1027  0.2120 -0.0867
 7188SOL    HW121942   5.055   1.445   0.752 -0.1232 -0.5836 -0.1681
 7188SOL    HW221943   5.116   1.530   0.642 -0.6444  0.4212  0.3093
 7189SOL     OW21944   1.664   0.673   6.718 -0.1483 -0.6094  0.2293
 7189SOL    HW121945   1.656   0.694   6.811  1.1660  1.2550  0.0013
 7189SOL    HW221946   1.708   0.588   6.716  0.2078 -0.4677  1.3246
 7190SOL     OW21947   2.309   3.008   5.454 -0.1802  0.0785  0.0878
 7190SOL    HW121948   2.222   3.019   5.494  0.3452  0.1921  1.2261
 7190SOL    HW221949   2.340   2.924   5.486  0.8815  0.8526  1.1652
 7191SOL     OW21950   3.256   2.261   5.932 -0.2830 -0.6444  0.0279
 7191SOL    HW121951   3.195   2.244   6.004 -2.3090  3.6635 -0.3756
 7191SOL    HW221952   3.330   2.306   5.974  0.4232 -1.6352 -0.1222
 7192SOL     OW21953   5.209   4.749   4.917  0.0957 -0.1760 -0.0654
 7192SOL    HW121954   5.169   4.791   4.841  0.2330  0.3020  0.1245
 7192SOL    HW221955   5.303   4.758   4.902  0.1220 -0.0856  0.1600
 7193SOL     OW21956   4.150   4.304   3.552  0.2117 -0.0467 -0.4518
 7193SOL    HW121957   4.227   4.278   3.602 -0.3287 -0.2105  0.3193
 7193SOL    HW221958   4.144   4.241   3.480  0.8984  0.0826 -0.6215
 7194SOL     OW21959   1.703   5.244   0.674  0.5234  0.8448 -0.2287
 7194SOL    HW121960   1.779   5.186   0.676 -1.5532 -2.1519 -0.0054
 7194SOL    HW221961   1.645   5.203   0.610 -1.9669  1.4224  1.5079
 7195SOL     OW21962   6.398   2.223   3.682 -0.2180  0.1464  0.2308
 7195SOL    HW121963   6.326   2.162   3.694  0.5925 -0.8386  0.2421
 7195SOL    HW221964   6.477   2.172   3.701  0.6386  0.5717 -1.8961
 7196SOL     OW21965   2.645   3.009   4.046 -0.5816  0.1558 -0.1635
 7196SOL    HW121966   2.607   2.936   3.996  0.5874  0.6706 -1.9285
 7196SOL    HW221967   2.574   3.040   4.102 -2.1911 -0.1137 -1.9551
 7197SOL     OW21968   2.354   4.167   2.660 -0.3019  0.3208 -0.5008
 7197SOL    HW121969   2.295   4.100   2.627 -0.2346 -0.0164  0.0607
 7197SOL    HW221970   2.440   4.125   2.664 -0.3072  0.3588  0.0913
 7198SOL     OW21971   4.624   4.581   4.874 -0.7877 -0.2902  0.0307
 7198SOL    HW121972   4.621   4.604   4.967 -1.0218  0.5951 -0.1864
 7198SOL    HW221973   4.533   4.564   4.851 -0.9280  0.9446 -0.3786
 7199SOL     OW21974   1.559   6.721   6.067 -0.4730 -0.2464  0.1551
 7199SOL    HW121975   1.569   6.767   5.983 -1.1500 -0.1962  0.0998
 7199SOL    HW221976   1.600   6.780   6.131 -0.9178  0.2241  0.0173
 7200SOL     OW21977   3.721   4.946   0.869 -0.2759  0.3432 -0.4164
 7200SOL    HW121978   3.784   4.920   0.936  1.4572 -0.8413 -2.3719
 7200SOL    HW221979   3.701   4.865   0.821 -1.2401  1.1825 -1.5033
 7201SOL     OW21980   0.661   6.275   6.252 -0.3434  0.5037  0.0094
 7201SOL    HW121981   0.692   6.184   6.247 -0.8656  0.2652  0.8687
 7201SOL    HW221982   0.666   6.306   6.162  0.1228 -0.2868 -0.2529
 7202SOL     OW21983   1.847   1.443   4.975  0.8001  0.2706  0.2083
 7202SOL    HW121984   1.895   1.368   4.938 -0.2102 -0.5839  0.5939
 7202SOL    HW221985   1.906   1.479   5.041  1.0746 -0.5294  0.4082
 7203SOL     OW21986   1.619   2.543   1.331 -0.4651 -0.1998  0.6522
 7203SOL    HW121987   1.581   2.483   1.395  0.3400  0.9591  2.2827
 7203SOL    HW221988   1.569   2.624   1.340  0.4564  0.3783  0.7004
 7204SOL     OW21989   4.006   4.124   5.374 -0.6036  0.1656 -0.4720
 7204SOL    HW121990   3.947   4.165   5.437 -0.3057  0.3059 -0.2822
 7204SOL    HW221991   4.072   4.080   5.427  0.1135  0.9591 -0.6714
 7205SOL     OW21992   1.331   1.566   4.763  0.7378 -0.0043 -0.0046
 7205SOL    HW121993   1.296   1.632   4.703  1.3970 -0.1461 -0.5605
 7205SOL    HW221994   1.366   1.616   4.837  0.9390  0.2569 -0.2719
 7206SOL     OW21995   2.962   2.051   1.445  0.0585 -0.2329 -0.8410
 7206SOL    HW121996   3.015   2.050   1.525 -1.0576 -0.6064 -0.0839
 7206SOL    HW221997   2.948   1.958   1.424 -0.3988 -0.1431 -0.9501
 7207SOL     OW21998   0.936   0.111   4.744  0.3813 -0.2550  0.7617
 7207SOL    HW121999   0.943   0.153   4.830 -0.6138 -2.2880  1.9043
 7207SOL    HW222000   0.897   0.026   4.762  1.2559 -1.2306 -1.5847
 7208SOL     OW22001   2.664   4.620   6.774 -0.4220  0.1408  0.3933
 7208SOL    HW122002   2.636   4.533   6.744 -1.1263  0.2017  0.8506
 7208SOL    HW222003   2.582   4.669   6.782 -0.1616  0.3936  1.5594
 7209SOL     OW22004   3.338   0.548   2.691 -0.1261  0.2798  0.5946
 7209SOL    HW122005   3.384   0.529   2.609 -1.5639  0.0403 -0.2095
 7209SOL    HW222006   3.263   0.601   2.664 -0.1952  0.8673  1.8766
 7210SOL     OW22007   2.590   5.132   5.430  0.5434  0.5266  0.8483
 7210SOL    HW122008   2.683   5.152   5.431  0.4052  1.3565 -0.3183
 7210SOL    HW222009   2.574   5.087   5.512  1.9554  0.4462  1.1010
 7211SOL     OW22010   0.509   6.649   0.595  0.7827 -0.5194  0.1086
 7211SOL    HW122011   0.521   6.571   0.540  0.3588 -0.3921 -0.1652
 7211SOL    HW222012   0.590   6.699   0.582 -0.6832  1.3032 -3.2570
 7212SOL     OW22013   1.717   3.613   6.557 -0.0651  0.0444  0.8034
 7212SOL    HW122014   1.685   3.698   6.587  0.2679  1.1318 -1.6505
 7212SOL    HW222015   1.811   3.625   6.546  0.3137 -1.2945  2.2971
 7213SOL     OW22016   4.354   5.050   1.910  0.2302 -0.2846 -0.0340
 7213SOL    HW122017   4.411   5.119   1.944  1.0405  0.0132 -1.8740
 7213SOL    HW222018   4.303   5.022   1.985  1.3491  0.8888  1.2158
 7214SOL     OW22019   3.133   1.245   5.670  0.4076  0.1770  0.0470
 7214SOL    HW122020   3.090   1.253   5.585  2.3495  1.1252 -0.9103
 7214SOL    HW222021   3.169   1.156   5.671 -1.9010 -0.8264  1.0862
 7215SOL     OW22022   0.678   1.028   5.326  0.1471 -0.1003 -0.0919
 7215SOL    HW122023   0.638   0.966   5.387  1.5559  0.6900  1.7269
 7215SOL    HW222024   0.758   0.984   5.297  0.1515  0.0720 -0.3414
 7216SOL     OW22025   5.448   4.800   4.851 -0.5918  0.4182  0.3616
 7216SOL    HW122026   5.486   4.830   4.768  1.8380 -0.9104  0.8939
 7216SOL    HW222027   5.492   4.853   4.918 -0.9222  0.0078  0.9088
 7217SOL     OW22028   4.134   2.825   5.124 -0.2571  0.3636 -0.0639
 7217SOL    HW122029   4.206   2.794   5.068 -0.1764  1.4356 -0.5762
 7217SOL    HW222030   4.167   2.814   5.214  1.0702  1.9383 -0.3028
 7218SOL     OW22031   0.956   3.351   4.357 -0.0113 -0.5232  0.4359
 7218SOL    HW122032   0.956   3.401   4.438  0.0535 -0.8431  0.6321
 7218SOL    HW222033   1.045   3.360   4.322 -0.4201  0.8003 -0.3350
 7219SOL     OW22034   2.373   3.544   5.952  0.3060 -0.8649  0.6501
 7219SOL    HW122035   2.407   3.509   5.870 -0.7007  2.3056 -1.3252
 7219SOL    HW222036   2.285   3.507   5.960  0.8852 -2.2082  1.0658
 7220SOL     OW22037   4.207   3.417   4.581  0.0298 -0.3235  0.1646
 7220SOL    HW122038   4.256   3.387   4.657 -1.8021 -2.5018  0.6061
 7220SOL    HW222039   4.164   3.497   4.610 -0.9012 -1.2972  1.5752
 7221SOL     OW22040   3.212   6.577   5.221 -0.2866  0.0686  0.1993
 7221SOL    HW122041   3.279   6.526   5.175 -0.3535 -1.3625  1.6249
 7221SOL    HW222042   3.168   6.627   5.151  1.3274 -0.0155 -0.9337
 7222SOL     OW22043   0.742   0.714   2.148  0.1756 -0.4330 -0.2731
 7222SOL    HW122044   0.743   0.792   2.204 -0.4542  1.5919 -2.9088
 7222SOL    HW222045   0.710   0.644   2.206  0.3087  1.3197  2.0839
 7223SOL     OW22046   2.320   3.060   2.709 -0.1717  0.0124  0.6473
 7223SOL    HW122047   2.370   2.979   2.711 -1.3920 -0.8474 -1.3970
 7223SOL    HW222048   2.229   3.033   2.721 -0.5426  1.1305  0.4786
 7224SOL     OW22049   4.442   2.876   6.438  0.0754  0.0053  0.0682
 7224SOL    HW122050   4.445   2.956   6.491 -1.1421 -0.1602  0.4259
 7224SOL    HW222051   4.350   2.849   6.442  0.0829 -0.3847 -1.5838
 7225SOL     OW22052   0.072   0.394   5.632 -0.1544 -0.3322 -0.5621
 7225SOL    HW122053   0.135   0.326   5.656  0.6880  0.5398 -0.2407
 7225SOL    HW222054   0.005   0.347   5.582  1.2916 -1.1039 -1.8604
 7226SOL     OW22055   5.044   4.800   2.389  0.1197 -0.3766 -0.5524
 7226SOL    HW122056   4.987   4.842   2.454  1.0233  0.5880 -0.3536
 7226SOL    HW222057   5.018   4.839   2.306  1.4792  1.2199 -0.2725
 7227SOL     OW22058   2.025   1.156   6.782 -0.3175 -0.2258  0.1877
 7227SOL    HW122059   1.994   1.247   6.788  0.4479  0.4627 -3.8343
 7227SOL    HW222060   2.096   1.151   6.847 -0.6117  1.9173  0.7572
 7228SOL     OW22061   1.387   1.002   6.416  0.2461  0.9038  0.7106
 7228SOL    HW122062   1.416   0.972   6.330 -0.2636 -2.3900  1.5352
 7228SOL    HW222063   1.454   0.969   6.476 -0.6589  0.9577  1.7687
 7229SOL     OW22064   2.766   2.386   2.502 -0.4407 -0.1724 -0.3001
 7229SOL    HW122065   2.687   2.332   2.495 -1.1289  0.3720  2.4203
 7229SOL    HW222066   2.836   2.324   2.522 -0.7929 -0.3271  0.4832
 7230SOL     OW22067   2.448   2.006   1.642 -0.2260  0.5644  0.2914
 7230SOL    HW122068   2.532   1.994   1.598 -0.9096  0.9968 -1.1668
 7230SOL    HW222069   2.459   1.962   1.726  0.4367 -2.1125 -1.1003
 7231SOL     OW22070   3.776   1.215   3.249  0.1621  0.0261 -0.1453
 7231SOL    HW122071   3.849   1.153   3.244  0.1251  0.0180 -0.7261
 7231SOL    HW222072   3.814   1.298   3.219 -0.0027  0.0824 -0.1973
 7232SOL     OW22073   1.646   1.105   0.353 -0.5591 -0.2312 -0.3991
 7232SOL    HW122074   1.607   1.025   0.390  2.1436 -1.9820 -1.0673
 7232SOL    HW222075   1.736   1.105   0.385  0.2961  1.0942 -2.5819
 7233SOL     OW22076   6.449   5.921   2.051 -0.1213  0.2996  0.1750
 7233SOL    HW122077   6.471   6.013   2.068  0.4751  0.0654  0.7142
 7233SOL    HW222078   6.483   5.874   2.128 -1.1855 -0.2642  0.3142
 7234SOL     OW22079   4.859   0.085   2.782  0.5560  0.0498 -0.2403
 7234SOL    HW122080   4.848   0.034   2.862 -0.1724 -1.2433 -1.1295
 7234SOL    HW222081   4.879   0.020   2.715 -2.4089  0.6017 -1.8285
 7235SOL     OW22082   1.502   2.229   4.993 -0.0708 -0.2803  0.7625
 7235SOL    HW122083   1.440   2.278   5.047 -1.3060 -1.6267  0.6032
 7235SOL    HW222084   1.564   2.296   4.962 -1.1286  1.0132  1.3280
 7236SOL     OW22085   2.730   0.767   5.864 -0.3149 -0.0181  0.1271
 7236SOL    HW122086   2.756   0.853   5.831 -2.4980  1.0994  1.1141
 7236SOL    HW222087   2.812   0.728   5.896  1.1966  0.4503 -2.8572
 7237SOL     OW22088   0.072   5.659   0.871  0.1596  0.1124 -0.0283
 7237SOL    HW122089   0.135   5.711   0.821 -0.4798 -0.5690 -1.6003
 7237SOL    HW222090   0.120   5.581   0.897  0.6606  0.7260  0.9730
 7238SOL     OW22091   0.973   4.425   0.260 -0.0311  0.1772  0.2438
 7238SOL    HW122092   0.987   4.403   0.352 -1.3125  1.3603  0.7587
 7238SOL    HW222093   1.041   4.489   0.240  1.3005 -1.3111 -0.1507
 7239SOL     OW22094   5.966   2.012   1.445 -0.6731 -0.3607 -0.0496
 7239SOL    HW122095   5.975   2.073   1.518  0.7266 -2.0871  1.3107
 7239SOL    HW222096   5.885   2.039   1.401 -1.1975  1.1455  1.7215
 7240SOL     OW22097   4.512   0.775   3.242 -0.5400  0.2754  0.2160
 7240SOL    HW122098   4.561   0.761   3.161 -1.8579 -0.7712 -0.4445
 7240SOL    HW222099   4.578   0.801   3.306  0.6150  0.5505 -1.0469
 7241SOL     OW22100   4.727   0.296   1.285 -0.0197  0.4598  0.2887
 7241SOL    HW122101   4.742   0.381   1.327  0.2053  0.3021  0.5300
 7241SOL    HW222102   4.717   0.317   1.192  1.4087  0.6121  0.1506
 7242SOL     OW22103   0.068   3.527   4.240  0.4777  0.4094 -0.0981
 7242SOL    HW122104   0.067   3.434   4.217  2.2148  0.2321  0.4529
 7242SOL    HW222105   0.133   3.566   4.182  0.8981  0.9894  0.7536
 7243SOL     OW22106   4.321   6.117   3.837  0.2825  0.1229 -0.1433
 7243SOL    HW122107   4.300   6.142   3.927  0.9306  0.0120  0.0427
 7243SOL    HW222108   4.274   6.180   3.783 -1.7446 -0.9982  0.2117
 7244SOL     OW22109   0.611   6.611   0.188 -0.6470  0.1491 -0.7529
 7244SOL    HW122110   0.554   6.686   0.174 -0.3398  0.5996  0.3135
 7244SOL    HW222111   0.689   6.647   0.229  0.0127 -0.5919 -1.3265
 7245SOL     OW22112   2.852   1.870   4.692 -0.6127  0.0581 -0.3412
 7245SOL    HW122113   2.929   1.824   4.658 -0.1670  0.3962  0.2031
 7245SOL    HW222114   2.863   1.870   4.787  0.2565  2.7201 -0.3708
 7246SOL     OW22115   5.371   4.351   0.611  0.1057 -0.1110  0.0360
 7246SOL    HW122116   5.405   4.269   0.646  1.2065  0.9683  1.6288
 7246SOL    HW222117   5.306   4.379   0.676 -0.2999  0.2408 -0.5217
 7247SOL     OW22118   0.193   6.428   3.133 -0.2494  0.1457  0.2254
 7247SOL    HW122119   0.155   6.515   3.119 -0.0306  0.4386  1.3148
 7247SOL    HW222120   0.160   6.403   3.220  2.6935  0.7793  1.6339
 7248SOL     OW22121   2.051   5.093   6.315 -0.1723 -0.3058  0.5597
 7248SOL    HW122122   2.068   4.999   6.310 -0.5975 -0.4923  2.0473
 7248SOL    HW222123   2.098   5.131   6.240  1.0116 -1.5615  0.6401
 7249SOL     OW22124   0.936   5.865   3.132 -0.0512 -0.2323  0.2603
 7249SOL    HW122125   0.874   5.898   3.197 -0.1966 -1.2167  0.6432
 7249SOL    HW222126   1.021   5.864   3.178  0.5729  2.4117 -0.6804
 7250SOL     OW22127   3.236   2.340   0.670 -0.2539  0.3981 -0.8869
 7250SOL    HW122128   3.233   2.374   0.581 -0.6179 -0.0564 -1.0444
 7250SOL    HW222129   3.322   2.299   0.677  0.4930  1.9312 -0.4768
 7251SOL     OW22130   6.772   3.469   3.297  0.1016  0.1582 -0.4922
 7251SOL    HW122131   6.758   3.416   3.218  0.2010  0.7223 -0.8986
 7251SOL    HW222132   6.747   3.412   3.369  0.5989 -0.5851 -0.8909
 7252SOL     OW22133   6.520   6.306   5.484  0.5013  0.0435  0.4888
 7252SOL    HW122134   6.516   6.210   5.488  2.3416 -0.0186  1.5783
 7252SOL    HW222135   6.498   6.327   5.393  2.1856 -1.5639 -0.3404
 7253SOL     OW22136   4.033   0.135   2.138  0.0725 -0.1950  0.1627
 7253SOL    HW122137   4.099   0.138   2.207  0.0047 -0.9051  0.2694
 7253SOL    HW222138   4.000   0.225   2.132 -1.4467 -0.4829  2.5803
 7254SOL     OW22139   4.747   5.368   0.462 -0.0592 -0.6627 -0.3588
 7254SOL    HW122140   4.810   5.298   0.474 -0.4321 -0.5921  2.9342
 7254SOL    HW222141   4.664   5.332   0.495 -1.0989  0.2283 -1.8268
 7255SOL     OW22142   0.285   1.305   1.772  0.1164  0.5335  0.2426
 7255SOL    HW122143   0.229   1.229   1.788 -0.7834  1.4503  1.6215
 7255SOL    HW222144   0.327   1.286   1.688  0.3370 -1.7328  0.7949
 7256SOL     OW22145   2.485   2.269   1.837  0.2687  0.0002 -0.2123
 7256SOL    HW122146   2.433   2.335   1.792  1.2063 -0.2757 -1.7870
 7256SOL    HW222147   2.519   2.214   1.767  1.9136 -0.3848  0.8322
 7257SOL     OW22148   4.925   4.231   5.567  0.3409  0.2482  1.1984
 7257SOL    HW122149   4.917   4.296   5.497 -1.0263 -0.2391  0.8764
 7257SOL    HW222150   4.994   4.172   5.537  1.7867  1.6657  1.6111
 7258SOL     OW22151   6.377   5.504   5.824  0.1227  0.4162  0.8107
 7258SOL    HW122152   6.448   5.560   5.793 -0.5847  1.0208  0.2651
 7258SOL    HW222153   6.298   5.540   5.783 -0.3551 -0.9435  0.4952
 7259SOL     OW22154   5.961   2.575   6.049  0.3322  0.1692 -0.0997
 7259SOL    HW122155   5.961   2.578   5.953  1.9400 -0.6149 -0.1713
 7259SOL    HW222156   6.052   2.556   6.071 -0.0939 -0.0361  1.5771
 7260SOL     OW22157   6.557   4.963   2.977 -0.3312 -0.2829  0.2029
 7260SOL    HW122158   6.464   4.987   2.974 -0.5563 -0.9062  1.5048
 7260SOL    HW222159   6.561   4.878   2.933 -0.1189  0.3948 -1.1454
 7261SOL     OW22160   0.705   1.353   2.798 -0.0191  0.1283  0.4343
 7261SOL    HW122161   0.760   1.365   2.720  0.9374 -1.9068  0.7237
 7261SOL    HW222162   0.660   1.270   2.783  0.8491 -0.7708  2.3860
 7262SOL     OW22163   3.048   1.462   1.427 -0.2002  0.0282 -0.2985
 7262SOL    HW122164   2.995   1.540   1.413  0.2679  0.0782 -2.0044
 7262SOL    HW222165   3.047   1.417   1.342 -0.0590 -1.5654  0.5093
 7263SOL     OW22166   5.143   2.526   4.778  0.0504  0.3232 -0.0057
 7263SOL    HW122167   5.228   2.568   4.762  0.0914  0.8384  1.4230
 7263SOL    HW222168   5.081   2.579   4.728  0.1530  1.9351  1.4899
 7264SOL     OW22169   2.964   0.616   0.111  0.2404 -0.8041  0.2649
 7264SOL    HW122170   2.881   0.664   0.115 -0.2568 -1.6096 -0.1842
 7264SOL    HW222171   3.031   0.682   0.131 -0.6035 -0.4670  2.1682
 7265SOL     OW22172   3.459   1.269   6.529 -0.0684 -0.0330  0.3267
 7265SOL    HW122173   3.418   1.214   6.596  1.0989 -0.8603  0.3961
 7265SOL    HW222174   3.550   1.276   6.558 -0.3000  2.4237  0.6219
 7266SOL     OW22175   0.588   0.734   1.254 -0.2853 -0.2670 -0.0056
 7266SOL    HW122176   0.665   0.788   1.268  0.6261 -1.5221  0.0306
 7266SOL    HW222177   0.600   0.698   1.166 -0.2777 -1.2804  0.3879
 7267SOL     OW22178   1.492   0.643   5.900  0.4138 -0.8921  0.3687
 7267SOL    HW122179   1.568   0.643   5.959  0.4210  1.5807  0.4474
 7267SOL    HW222180   1.529   0.665   5.814 -0.2790  1.5147  0.6246
 7268SOL     OW22181   4.141   4.774   6.208 -0.0273 -0.2146 -0.0669
 7268SOL    HW122182   4.121   4.716   6.134 -1.0668 -0.8201  0.6658
 7268SOL    HW222183   4.056   4.788   6.250  0.4292  0.7971  0.5308
 7269SOL     OW22184   3.541   4.315   1.814  0.3048 -0.3068 -0.3396
 7269SOL    HW122185   3.538   4.222   1.791 -1.2483 -0.4523  0.3144
 7269SOL    HW222186   3.623   4.326   1.860  0.3421 -1.4477 -0.1056
 7270SOL     OW22187   3.299   4.408   2.257 -0.5890  0.2708  0.3733
 7270SOL    HW122188   3.353   4.351   2.202 -1.1027 -0.6468  0.7908
 7270SOL    HW222189   3.209   4.389   2.231 -0.7551  1.1495  0.2856
 7271SOL     OW22190   4.805   6.415   4.582  0.1137  0.1637  0.0416
 7271SOL    HW122191   4.854   6.467   4.518  0.0014 -0.6947 -0.7644
 7271SOL    HW222192   4.855   6.425   4.664  1.2882 -0.1717 -0.6072
 7272SOL     OW22193   4.570   5.077   5.043  0.1223  0.6379 -0.2803
 7272SOL    HW122194   4.665   5.091   5.053  0.1129  0.9514 -0.6084
 7272SOL    HW222195   4.532   5.164   5.054 -0.0272  0.7169 -1.3239
 7273SOL     OW22196   4.402   5.096   4.840 -0.1158 -0.0837  0.8552
 7273SOL    HW122197   4.460   5.077   4.914 -0.1231 -1.0391  0.6241
 7273SOL    HW222198   4.344   5.020   4.834 -0.7771  0.4308  0.4846
 7274SOL     OW22199   3.459   6.275   6.606 -0.4302 -0.2218 -0.1778
 7274SOL    HW122200   3.473   6.291   6.700 -0.3670  0.2247 -0.2592
 7274SOL    HW222201   3.475   6.360   6.565 -0.9380 -0.3029 -0.5462
 7275SOL     OW22202   2.452   2.925   2.489 -0.1724  0.0918 -0.1799
 7275SOL    HW122203   2.423   2.849   2.539  0.3224 -1.0610 -1.5832
 7275SOL    HW222204   2.543   2.906   2.465 -0.1355  0.9813 -0.8117
 7276SOL     OW22205   5.742   6.495   2.056 -0.7510  0.0012  0.2006
 7276SOL    HW122206   5.716   6.448   1.977 -0.5932 -2.5987  1.5852
 7276SOL    HW222207   5.660   6.515   2.101 -0.8142  1.1049 -0.3546
 7277SOL     OW22208   3.703   3.352   4.402  0.2965 -0.0131 -0.0667
 7277SOL    HW122209   3.667   3.393   4.324  2.7335  2.4589 -0.0759
 7277SOL    HW222210   3.741   3.270   4.372  0.3659  0.4634 -1.3095
 7278SOL     OW22211   0.346   1.011   4.097  0.0740  0.1138  0.0138
 7278SOL    HW122212   0.316   0.947   4.161 -0.2940 -0.5840 -0.8380
 7278SOL    HW222213   0.402   0.961   4.037  1.7250  1.0792  0.6797
 7279SOL     OW22214   2.549   4.260   5.236 -0.2090  0.5424  0.0828
 7279SOL    HW122215   2.473   4.215   5.199 -0.1979 -1.4862  2.2266
 7279SOL    HW222216   2.566   4.333   5.177 -0.8563 -1.7344 -3.1620
 7280SOL     OW22217   0.741   2.504   6.570 -0.1498 -0.8532  0.0969
 7280SOL    HW122218   0.716   2.468   6.484 -0.7335 -0.3060  0.0226
 7280SOL    HW222219   0.794   2.436   6.611 -0.5526 -1.4557 -0.3683
 7281SOL     OW22220   1.398   5.971   4.477 -0.0224 -0.6844 -0.3478
 7281SOL    HW122221   1.471   6.029   4.456 -0.4193  0.0544  0.2689
 7281SOL    HW222222   1.367   6.001   4.562 -0.1198 -1.9366  0.0758
 7282SOL     OW22223   5.813   0.651   1.696  0.2688 -0.4826  0.6259
 7282SOL    HW122224   5.897   0.642   1.742  0.2921 -1.0231  0.4879
 7282SOL    HW222225   5.837   0.669   1.605  0.2575 -1.4302  0.4215
 7283SOL     OW22226   6.774   6.445   1.697 -0.0786  0.5994  0.5609
 7283SOL    HW122227   6.819   6.402   1.624 -0.5140 -1.0656  1.2259
 7283SOL    HW222228   6.818   6.530   1.706  2.9450 -0.9069  1.1617
 7284SOL     OW22229   2.166   1.622   4.518  0.4933 -0.4177 -0.2938
 7284SOL    HW122230   2.122   1.563   4.580 -0.5125  1.4940  0.9167
 7284SOL    HW222231   2.148   1.584   4.432 -3.3026 -0.0658  0.1288
 7285SOL     OW22232   4.082   0.331   2.622  0.9279 -0.3352 -0.0887
 7285SOL    HW122233   4.014   0.398   2.622  0.6688 -0.5688 -1.6042
 7285SOL    HW222234   4.042   0.256   2.666 -0.3248 -0.9467 -2.1701
 7286SOL     OW22235   4.757   1.653   0.252 -0.6694 -0.3973 -0.6565
 7286SOL    HW122236   4.813   1.730   0.256 -0.6178 -0.4796  1.2653
 7286SOL    HW222237   4.731   1.646   0.160 -0.3936  1.6883 -0.9305
 7287SOL     OW22238   0.270   6.778   0.532 -0.1056  0.1856 -0.4542
 7287SOL    HW122239   0.222   6.816   0.606 -0.0439 -0.1257 -0.2563
 7287SOL    HW222240   0.353   6.749   0.569 -0.1755 -0.2008 -0.5948
 7288SOL     OW22241   5.353   6.601   3.323 -0.0003 -0.5919  0.4139
 7288SOL    HW122242   5.398   6.627   3.243 -2.7972  1.5948 -0.5880
 7288SOL    HW222243   5.337   6.507   3.312  2.0486 -0.9275 -0.2493
 7289SOL     OW22244   4.944   1.636   4.441 -0.0925  0.1289 -0.4266
 7289SOL    HW122245   4.966   1.690   4.517  0.5988 -0.0526 -0.4931
 7289SOL    HW222246   5.027   1.624   4.395 -0.6755  1.0827 -1.7878
 7290SOL     OW22247   4.618   1.605   4.970 -0.0177 -0.0197 -0.1013
 7290SOL    HW122248   4.700   1.590   4.923  0.2723  1.3348 -0.0553
 7290SOL    HW222249   4.594   1.518   5.003  1.1826 -0.5098 -0.4477
 7291SOL     OW22250   0.868   2.205   1.883  0.7819  0.3670  0.1371
 7291SOL    HW122251   0.939   2.209   1.819  0.8718 -1.3073  0.0848
 7291SOL    HW222252   0.896   2.139   1.946 -1.9955 -2.8296 -1.6071
 7292SOL     OW22253   4.388   0.656   2.519 -0.0783 -0.5309 -0.3212
 7292SOL    HW122254   4.385   0.749   2.539 -0.1045 -0.6711  0.3561
 7292SOL    HW222255   4.428   0.616   2.597  0.8963 -0.9708 -1.0273
 7293SOL     OW22256   6.811   1.752   4.881 -0.3538 -0.3891  0.1634
 7293SOL    HW122257   6.786   1.766   4.790 -0.5317  3.2438  0.6239
 7293SOL    HW222258   6.728   1.762   4.930 -0.2150 -2.0016  0.7847
 7294SOL     OW22259   5.049   1.757   0.341  0.3112 -0.1834 -0.3819
 7294SOL    HW122260   4.994   1.831   0.367 -1.1585 -1.2594 -0.2866
 7294SOL    HW222261   5.104   1.792   0.270 -0.4496  0.9445 -0.4473
 7295SOL     OW22262   1.367   3.878   4.922 -0.2307 -0.3115 -0.3449
 7295SOL    HW122263   1.396   3.956   4.874 -0.5308 -0.4789 -0.8098
 7295SOL    HW222264   1.281   3.857   4.883 -1.3588  0.6328  1.5075
 7296SOL     OW22265   5.595   3.356   3.798 -0.4001  0.1335  0.0960
 7296SOL    HW122266   5.674   3.316   3.834  0.0611  0.3968 -0.6018
 7296SOL    HW222267   5.584   3.437   3.848 -1.2714 -0.7702  1.4349
 7297SOL     OW22268   0.631   2.483   1.749 -0.2095  0.3121  0.1961
 7297SOL    HW122269   0.545   2.480   1.707  0.3061  0.9482 -0.9702
 7297SOL    HW222270   0.616   2.531   1.831 -0.9564  0.4649 -0.0170
 7298SOL     OW22271   2.713   0.163   5.939  0.0624 -0.5471  0.2130
 7298SOL    HW122272   2.737   0.181   6.029  2.3122  1.0148 -0.5963
 7298SOL    HW222273   2.794   0.133   5.898 -0.2918  0.9998 -1.7868
 7299SOL     OW22274   2.349   0.377   5.661 -0.0081  0.3569  0.0374
 7299SOL    HW122275   2.268   0.420   5.686 -0.0957 -0.4009  1.1446
 7299SOL    HW222276   2.364   0.312   5.730  0.1313 -1.3649 -1.5403
 7300SOL     OW22277   1.180   4.865   3.245 -0.2147  0.3345 -0.1310
 7300SOL    HW122278   1.254   4.856   3.184  0.9295  0.5373  1.1818
 7300SOL    HW222279   1.148   4.954   3.229  3.4262  2.5181  3.0321
 7301SOL     OW22280   6.558   2.494   4.243  0.5617  0.1375 -0.4542
 7301SOL    HW122281   6.523   2.562   4.300  0.5027  2.6572 -3.2257
 7301SOL    HW222282   6.484   2.469   4.188  0.4196 -2.7542  0.8979
 7302SOL     OW22283   6.342   2.999   5.201 -0.0164  0.0943 -0.0205
 7302SOL    HW122284   6.383   3.050   5.132  2.3258  0.8862  1.8046
 7302SOL    HW222285   6.403   2.927   5.217  1.0645  1.5051  3.0333
 7303SOL     OW22286   3.172   1.535   3.400  0.5357 -0.0311  0.5305
 7303SOL    HW122287   3.265   1.514   3.413  0.2920 -0.9951  0.8201
 7303SOL    HW222288   3.126   1.471   3.454 -0.3045  0.2985  0.2119
 7304SOL     OW22289   2.738   0.845   3.985 -0.3758 -0.7182  0.8491
 7304SOL    HW122290   2.654   0.843   3.939  0.9948 -1.0124 -1.8942
 7304SOL    HW222291   2.738   0.926   4.035 -1.2668  0.6583 -1.2786
 7305SOL     OW22292   4.424   5.889   1.843  0.3803  0.2673  0.7874
 7305SOL    HW122293   4.510   5.876   1.804  0.2894  0.2316  0.5985
 7305SOL    HW222294   4.366   5.907   1.769  0.4680  1.6261  1.0193
 7306SOL     OW22295   5.154   5.515   4.758 -0.1840  0.1502  0.1973
 7306SOL    HW122296   5.225   5.468   4.714 -2.1291  0.0493 -3.1276
 7306SOL    HW222297   5.176   5.509   4.851  3.1729 -1.4180 -0.5340
 7307SOL     OW22298   0.566   0.963   0.631  0.3671 -0.2025 -0.1957
 7307SOL    HW122299   0.486   0.914   0.613 -0.3258  1.5979 -2.5304
 7307SOL    HW222300   0.634   0.919   0.580  0.0193  0.3998 -1.2264
 7308SOL     OW22301   4.576   1.568   5.453 -0.1119 -0.5234  0.0730
 7308SOL    HW122302   4.600   1.641   5.395  0.1890  0.0897  0.9472
 7308SOL    HW222303   4.532   1.506   5.396  1.3274 -0.5335 -1.1051
 7309SOL     OW22304   5.358   5.790   5.770 -0.0577 -0.5189  0.1348
 7309SOL    HW122305   5.268   5.819   5.752 -0.4433 -2.0205 -0.4680
 7309SOL    HW222306   5.375   5.819   5.859 -1.2282 -0.4015  0.3325
 7310SOL     OW22307   4.600   4.542   4.277 -0.0058  0.8075  0.4111
 7310SOL    HW122308   4.559   4.484   4.212 -0.7598  0.8726  0.8182
 7310SOL    HW222309   4.626   4.483   4.348  0.4074  0.7979  0.2544
 7311SOL     OW22310   5.129   2.926   1.623  0.0798 -0.5214  0.1538
 7311SOL    HW122311   5.042   2.895   1.649  0.6683 -3.1874 -0.7131
 7311SOL    HW222312   5.124   2.935   1.528  0.8432 -1.0846  0.0509
 7312SOL     OW22313   0.164   6.287   5.599 -0.3688 -0.3565  0.0431
 7312SOL    HW122314   0.096   6.278   5.532  0.6249 -0.3163 -1.0063
 7312SOL    HW222315   0.118   6.323   5.675 -1.2208  1.2900 -1.1770
 7313SOL     OW22316   4.490   2.169   0.521  0.2049  0.5865 -0.5641
 7313SOL    HW122317   4.395   2.161   0.524  0.3234 -1.6122 -1.0357
 7313SOL    HW222318   4.512   2.160   0.428  0.9880 -1.1708 -0.2481
 7314SOL     OW22319   0.796   0.826   6.099 -0.0828 -0.6623  0.1967
 7314SOL    HW122320   0.800   0.805   6.192 -1.0240 -0.3895  0.3120
 7314SOL    HW222321   0.710   0.795   6.071 -1.3586  2.4070  0.2592
 7315SOL     OW22322   5.855   1.147   3.354  0.5956 -0.0952 -0.2617
 7315SOL    HW122323   5.895   1.183   3.433 -2.5245  1.4511  0.7921
 7315SOL    HW222324   5.848   1.221   3.294 -1.0842 -0.1179 -0.1616
 7316SOL     OW22325   0.011   2.848   2.525 -0.1068  0.1875 -0.1242
 7316SOL    HW122326  -0.051   2.886   2.588  0.4004 -0.2470  0.6551
 7316SOL    HW222327   0.068   2.921   2.501  0.0341  0.2364  0.3444
 7317SOL     OW22328   4.199   6.298   0.010  0.0327  0.1272 -0.2871
 7317SOL    HW122329   4.189   6.286  -0.084 -0.5881  1.2170 -0.3666
 7317SOL    HW222330   4.235   6.214   0.041 -2.9046 -1.5458 -0.9966
 7318SOL     OW22331   4.951   5.713   1.436 -0.0602 -0.1362  0.5498
 7318SOL    HW122332   5.039   5.727   1.472  0.3314 -1.1452  0.0245
 7318SOL    HW222333   4.962   5.640   1.374 -0.8736  1.0412 -1.0344
 7319SOL     OW22334   4.374   2.592   5.265  0.0730  0.9537  0.1652
 7319SOL    HW122335   4.313   2.647   5.314 -0.6576  0.3412 -0.0275
 7319SOL    HW222336   4.329   2.576   5.182 -1.1728 -2.4296  1.3179
 7320SOL     OW22337   4.884   1.068   1.745 -0.5726 -0.1142 -0.2969
 7320SOL    HW122338   4.972   1.106   1.746 -0.3729 -0.5879  0.1112
 7320SOL    HW222339   4.869   1.047   1.653  0.4368 -1.6280 -0.1441
 7321SOL     OW22340   0.891   4.072   3.372 -0.2560 -0.5184 -0.1693
 7321SOL    HW122341   0.946   3.995   3.359 -0.1916 -0.4585 -0.2584
 7321SOL    HW222342   0.819   4.042   3.426  1.3727  0.0671  2.4884
 7322SOL     OW22343   3.726   6.138   1.406 -0.2827  0.1501  0.0230
 7322SOL    HW122344   3.644   6.105   1.444  0.7769 -2.3604  0.3353
 7322SOL    HW222345   3.718   6.121   1.313 -0.1693  0.0125  0.0381
 7323SOL     OW22346   4.322   6.337   2.766 -0.1768 -0.1535  0.6681
 7323SOL    HW122347   4.258   6.407   2.779  0.1220  0.3967 -0.6584
 7323SOL    HW222348   4.407   6.380   2.773  0.0130 -0.1195 -1.1927
 7324SOL     OW22349   2.811   4.862   6.737  0.1918  0.4352  0.1509
 7324SOL    HW122350   2.891   4.839   6.784 -0.1457 -0.3063  0.3726
 7324SOL    HW222351   2.752   4.788   6.751  0.3660 -0.2050 -2.1334
 7325SOL     OW22352   1.733   2.264   1.653 -0.0348 -0.4390  0.3163
 7325SOL    HW122353   1.698   2.238   1.739  1.5854 -1.9857  0.5728
 7325SOL    HW222354   1.777   2.185   1.621  0.2092  0.4069 -1.5237
 7326SOL     OW22355   4.821   4.194   2.868 -0.4147 -0.2899 -0.1988
 7326SOL    HW122356   4.896   4.247   2.841 -1.3368  1.1516 -0.0474
 7326SOL    HW222357   4.850   4.104   2.857  1.2443  0.2367 -0.3847
 7327SOL     OW22358   1.455   3.759   5.134  0.2448  0.3720  0.0421
 7327SOL    HW122359   1.434   3.803   5.052  0.6278  0.2252 -0.1355
 7327SOL    HW222360   1.385   3.786   5.194  0.2527  0.8932 -0.1814
 7328SOL     OW22361   0.076   4.591   2.972  0.0654  0.6082  0.3160
 7328SOL    HW122362   0.062   4.656   2.904 -1.4255  2.4291  2.2565
 7328SOL    HW222363  -0.008   4.583   3.017  0.6252 -1.5521  1.1346
 7329SOL     OW22364   4.105   2.981   2.806  0.0127 -0.1122  0.0142
 7329SOL    HW122365   4.061   3.004   2.725 -0.2534 -0.1239  0.1568
 7329SOL    HW222366   4.055   3.024   2.875  0.1265 -0.2564  0.1908
 7330SOL     OW22367   2.825   4.952   2.949 -0.0803  0.8082 -0.4003
 7330SOL    HW122368   2.834   4.908   3.033 -0.1271  0.4058 -0.6028
 7330SOL    HW222369   2.731   4.962   2.936 -0.2126 -1.2513 -1.4690
 7331SOL     OW22370   1.503   5.941   3.500 -0.6553  0.3457  0.0218
 7331SOL    HW122371   1.532   5.934   3.409 -1.8980 -3.4003 -0.2446
 7331SOL    HW222372   1.490   6.035   3.513  1.1874  1.1936 -3.0850
 7332SOL     OW22373   3.386   0.470   3.333 -0.3726  0.4892  0.3620
 7332SOL    HW122374   3.313   0.408   3.329 -2.0818  2.4842 -1.1255
 7332SOL    HW222375   3.351   0.546   3.380  1.8758  0.1934  2.7643
 7333SOL     OW22376   0.610   3.857   4.611 -0.3959  0.2965 -0.6017
 7333SOL    HW122377   0.699   3.821   4.611 -0.9338 -1.1160  0.2393
 7333SOL    HW222378   0.623   3.952   4.612  1.0902  0.1690 -2.2403
 7334SOL     OW22379   1.828   5.738   5.669 -0.0778 -0.2134  0.4511
 7334SOL    HW122380   1.856   5.816   5.621  0.8868  0.0453  1.3961
 7334SOL    HW222381   1.756   5.769   5.724 -0.4351 -0.2549  0.0145
 7335SOL     OW22382   0.639   1.609   6.228 -0.1493  0.3011 -0.1837
 7335SOL    HW122383   0.682   1.578   6.149  0.3049  0.7560 -0.1204
 7335SOL    HW222384   0.624   1.531   6.281 -0.7084 -0.0449 -0.8357
 7336SOL     OW22385   0.725   4.852   4.186 -0.0782 -0.0531  0.2110
 7336SOL    HW122386   0.814   4.819   4.202 -0.4124 -0.3660  1.4812
 7336SOL    HW222387   0.710   4.916   4.255 -1.4493 -1.2234  1.0519
 7337SOL     OW22388   5.161   5.018   1.679  0.0712 -0.0250  0.8168
 7337SOL    HW122389   5.128   5.107   1.662  0.3135 -0.3598 -1.9280
 7337SOL    HW222390   5.083   4.965   1.692 -0.1180  0.3716  1.3661
 7338SOL     OW22391   0.283   5.642   1.170 -0.1723 -0.0567  0.7517
 7338SOL    HW122392   0.359   5.646   1.228  1.4468 -2.1481 -1.0631
 7338SOL    HW222393   0.319   5.619   1.085 -2.5159  2.2747 -1.0534
 7339SOL     OW22394   4.779   2.303   2.324 -0.5148  0.1332 -0.1703
 7339SOL    HW122395   4.769   2.374   2.387  0.2685  1.3849 -1.3804
 7339SOL    HW222396   4.730   2.333   2.247 -1.3238 -1.2871 -0.2504
 7340SOL     OW22397   3.818   2.994   5.963  0.1480 -0.1140 -0.5570
 7340SOL    HW122398   3.815   2.912   5.915  2.1450 -0.7954  0.3680
 7340SOL    HW222399   3.738   2.995   6.016  0.9156 -2.3458  0.7492
 7341SOL     OW22400   1.425   2.366   2.054  0.8136  0.3333 -0.2247
 7341SOL    HW122401   1.515   2.397   2.046  1.0522  0.4039  1.9983
 7341SOL    HW222402   1.387   2.422   2.122 -0.9109  0.2668 -1.0802
 7342SOL     OW22403   2.192   5.663   3.654 -0.0955  0.0823  0.0997
 7342SOL    HW122404   2.259   5.596   3.644 -2.0790 -2.2870  1.6247
 7342SOL    HW222405   2.207   5.723   3.581  2.1273 -1.6904 -1.0190
 7343SOL     OW22406   3.201   5.589   2.588 -0.0341 -0.1690 -0.3168
 7343SOL    HW122407   3.222   5.667   2.640 -0.0148 -0.4523  0.1092
 7343SOL    HW222408   3.128   5.615   2.532 -1.3252 -0.3935  1.1978
 7344SOL     OW22409   2.514   0.065   1.594  0.0958  0.3003  0.2735
 7344SOL    HW122410   2.439   0.007   1.583 -1.7095  2.4794  0.4351
 7344SOL    HW222411   2.573   0.042   1.522 -1.1516 -0.8150 -0.4368
 7345SOL     OW22412   4.814   3.038   5.488 -0.4145 -0.5766  0.1507
 7345SOL    HW122413   4.866   3.118   5.485 -2.2935  0.6873 -2.0128
 7345SOL    HW222414   4.724   3.067   5.504 -1.2505 -2.1450 -1.3193
 7346SOL     OW22415   0.700   2.868   4.521 -0.2357  0.6307 -0.3115
 7346SOL    HW122416   0.732   2.901   4.605  3.0909 -1.6612 -0.4827
 7346SOL    HW222417   0.725   2.936   4.458  1.4672  0.3758  0.0279
 7347SOL     OW22418   0.217   0.777   3.349 -0.2039  0.0186  0.0800
 7347SOL    HW122419   0.276   0.732   3.408  0.7142 -0.8305 -1.4163
 7347SOL    HW222420   0.242   0.869   3.355 -1.1359  0.1955  2.0818
 7348SOL     OW22421   1.973   3.660   5.242 -0.3696 -0.0466 -0.0312
 7348SOL    HW122422   2.017   3.741   5.268 -0.6266 -0.2648  1.1271
 7348SOL    HW222423   1.895   3.690   5.195 -0.2149  0.3778 -0.0210
 7349SOL     OW22424   5.631   3.674   4.865 -0.0151 -0.6946 -0.2124
 7349SOL    HW122425   5.722   3.678   4.836  0.0386 -1.3587 -0.1564
 7349SOL    HW222426   5.633   3.619   4.943 -0.4011 -0.3185  0.0677
 7350SOL     OW22427   4.180   1.711   0.582 -0.0763  0.7396  0.1070
 7350SOL    HW122428   4.168   1.616   0.585 -1.5447  0.8945 -0.3262
 7350SOL    HW222429   4.272   1.724   0.606  0.4851 -0.8679 -0.9990
 7351SOL     OW22430   3.158   0.959   5.136  0.5974  0.4428 -0.1776
 7351SOL    HW122431   3.158   0.865   5.154  2.7522  0.2640 -0.7803
 7351SOL    HW222432   3.192   0.999   5.216 -0.7089  0.7831  0.2316
 7352SOL     OW22433   0.505   5.142   6.031 -0.1849  0.0405 -0.0921
 7352SOL    HW122434   0.416   5.160   6.059 -0.8901 -1.1879 -1.4197
 7352SOL    HW222435   0.527   5.215   5.972 -0.5547  0.0164 -0.2611
 7353SOL     OW22436   2.461   0.157   1.886 -0.0584  0.4699 -0.0190
 7353SOL    HW122437   2.500   0.228   1.836 -1.7720  1.1182 -0.4912
 7353SOL    HW222438   2.467   0.081   1.828 -1.1187  0.9883 -0.8527
 7354SOL     OW22439   2.424   2.402   3.298  0.1865 -0.3492 -0.5387
 7354SOL    HW122440   2.334   2.422   3.323 -0.1549 -1.9618 -0.3394
 7354SOL    HW222441   2.457   2.482   3.258 -1.1213  0.4729 -0.0220
 7355SOL     OW22442   2.640   4.689   1.965 -0.6150 -0.1224  0.1261
 7355SOL    HW122443   2.573   4.705   2.031 -1.1520 -1.2713 -0.1110
 7355SOL    HW222444   2.633   4.595   1.947  1.5426 -0.4364  0.6410
 7356SOL     OW22445   1.775   4.656   2.053 -0.2881 -0.1919 -0.2003
 7356SOL    HW122446   1.808   4.704   2.129 -1.3518  1.4233 -0.7037
 7356SOL    HW222447   1.760   4.567   2.086  0.8100  0.0494  1.0352
 7357SOL     OW22448   4.198   3.167   1.486  0.1557  0.1483 -1.2084
 7357SOL    HW122449   4.103   3.178   1.486  0.0583 -0.4750 -0.1538
 7357SOL    HW222450   4.222   3.176   1.579  1.0044 -0.5819 -1.3470
 7358SOL     OW22451   1.343   0.796   2.224 -0.0389 -0.1641  0.0602
 7358SOL    HW122452   1.407   0.734   2.190 -0.8917 -1.3226  0.4611
 7358SOL    HW222453   1.394   0.857   2.278  0.6279 -1.6874  1.2405
 7359SOL     OW22454   1.887   3.610   0.008  0.1180 -0.3136 -0.0758
 7359SOL    HW122455   1.836   3.667   0.065 -0.7614 -0.2124 -0.9226
 7359SOL    HW222456   1.937   3.670  -0.048  1.3211 -0.4121  0.8483
 7360SOL     OW22457   2.738   1.865   2.136 -0.4471 -0.1786  0.4610
 7360SOL    HW122458   2.660   1.885   2.188 -1.2185  0.9832 -1.0320
 7360SOL    HW222459   2.807   1.918   2.174 -1.0428  0.8006  0.2010
 7361SOL     OW22460   2.339   6.003   3.901  0.5098 -0.0006 -0.0571
 7361SOL    HW122461   2.430   5.981   3.882  0.5515  0.0476  0.0864
 7361SOL    HW222462   2.297   6.009   3.815  0.7866  0.6077 -0.1545
 7362SOL     OW22463   4.835   4.229   4.970 -0.3712 -0.1553 -0.4026
 7362SOL    HW122464   4.859   4.293   5.037 -2.1289 -0.7252  0.8469
 7362SOL    HW222465   4.847   4.275   4.887 -0.2435  1.3018  0.3906
 7363SOL     OW22466   5.659   6.568   2.753 -0.3335 -0.5997 -0.6197
 7363SOL    HW122467   5.715   6.560   2.676  0.7341  3.1265 -0.4572
 7363SOL    HW222468   5.625   6.657   2.749 -0.7553 -0.4319  2.8678
 7364SOL     OW22469   0.888   3.615   4.806  0.2400  0.2245 -0.2448
 7364SOL    HW122470   0.872   3.591   4.897 -0.5961 -1.5737 -0.8100
 7364SOL    HW222471   0.824   3.563   4.756  1.3256  0.4127 -1.9086
 7365SOL     OW22472   5.666   5.340   4.384 -0.8393  0.3453  0.1342
 7365SOL    HW122473   5.643   5.420   4.433 -0.3669  1.1904 -0.9843
 7365SOL    HW222474   5.597   5.278   4.407 -0.0090  0.2775  2.8243
 7366SOL     OW22475   6.376   6.663   2.766 -0.1072 -0.3420 -0.0933
 7366SOL    HW122476   6.454   6.708   2.736 -0.0077 -0.8126 -0.5584
 7366SOL    HW222477   6.380   6.668   2.861  0.2335  0.0626 -0.1297
 7367SOL     OW22478   1.693   4.687   2.865  0.8859 -0.0231  0.3980
 7367SOL    HW122479   1.721   4.746   2.795  2.6738  0.6914  1.6426
 7367SOL    HW222480   1.756   4.614   2.861 -0.2012 -0.9783  0.0385
 7368SOL     OW22481   6.627   6.601   6.414  0.5861 -0.4875 -0.0290
 7368SOL    HW122482   6.629   6.666   6.485 -1.1858 -1.1511  0.6870
 7368SOL    HW222483   6.573   6.641   6.346 -1.6302 -1.6599  0.9565
 7369SOL     OW22484   2.727   1.310   5.789  0.5276 -0.4476  0.0937
 7369SOL    HW122485   2.637   1.343   5.799  0.3612 -0.8879  0.0835
 7369SOL    HW222486   2.770   1.374   5.732  0.2135 -0.2486  0.0760
 7370SOL     OW22487   5.303   4.807   4.096 -0.1059  0.3939 -0.1562
 7370SOL    HW122488   5.240   4.879   4.083 -0.8906 -0.0793  0.8743
 7370SOL    HW222489   5.320   4.807   4.190 -0.9676 -1.4319  0.0491
 7371SOL     OW22490   0.320   4.069   4.523 -0.0744 -0.9032  0.3431
 7371SOL    HW122491   0.300   4.162   4.510 -1.1032 -0.8039  2.2203
 7371SOL    HW222492   0.410   4.059   4.492 -0.1135  0.5908 -0.3678
 7372SOL     OW22493   0.132   3.308   1.164  0.4283  0.1774  0.3256
 7372SOL    HW122494   0.221   3.341   1.174  0.0410  1.9346 -1.2931
 7372SOL    HW222495   0.110   3.325   1.072 -2.3536  2.0777  1.1805
 7373SOL     OW22496   1.569   0.146   3.617 -0.3144  0.3855 -0.3011
 7373SOL    HW122497   1.600   0.150   3.708  0.5835  1.4999 -0.6301
 7373SOL    HW222498   1.504   0.216   3.610  0.4424  1.0650 -0.7872
 7374SOL     OW22499   0.568   2.232   2.450 -0.0726  0.1392 -0.4574
 7374SOL    HW122500   0.602   2.177   2.520  0.0094  2.4198  1.4224
 7374SOL    HW222501   0.498   2.180   2.410  0.7773 -1.7544  0.3946
 7375SOL     OW22502   4.158   5.794   4.513 -0.2373  0.4399  0.5358
 7375SOL    HW122503   4.074   5.757   4.488 -0.4755  0.7645  0.8453
 7375SOL    HW222504   4.220   5.758   4.450 -0.3329 -1.0425  1.2488
 7376SOL     OW22505   2.361   1.987   2.498  0.0331  0.0915  0.1417
 7376SOL    HW122506   2.290   1.924   2.483  0.0065  0.4275 -1.2769
 7376SOL    HW222507   2.317   2.067   2.526 -0.0077 -0.2048  0.9507
 7377SOL     OW22508   0.659   5.208   1.954 -0.7500  0.3757 -0.1521
 7377SOL    HW122509   0.717   5.256   1.895 -0.1246 -0.4504 -0.2151
 7377SOL    HW222510   0.717   5.157   2.010 -1.3718  0.4888  0.6225
 7378SOL     OW22511   2.222   1.167   2.433 -0.1733 -0.5735  0.3542
 7378SOL    HW122512   2.260   1.197   2.350  0.9006  0.8348  1.3128
 7378SOL    HW222513   2.139   1.127   2.409  0.4036 -0.7658 -1.4650
 7379SOL     OW22514   6.115   0.683   6.160  0.2875 -0.0524  0.1938
 7379SOL    HW122515   6.191   0.679   6.219  0.0700  1.2502  0.6043
 7379SOL    HW222516   6.056   0.616   6.193  0.3243  0.4214  1.2802
 7380SOL     OW22517   0.266   2.762   2.048 -0.4213 -0.4000  0.2456
 7380SOL    HW122518   0.173   2.778   2.065 -0.5111 -0.9418  0.2881
 7380SOL    HW222519   0.268   2.678   2.003 -0.1257  0.6795 -1.8548
 7381SOL     OW22520   0.429   3.351   4.348 -0.1442  0.0965  0.6674
 7381SOL    HW122521   0.407   3.336   4.256 -0.2006  0.7720  0.5655
 7381SOL    HW222522   0.520   3.381   4.347  0.5417 -1.8419  1.0157
 7382SOL     OW22523   0.628   0.348   5.608 -0.8762  0.1991  0.2229
 7382SOL    HW122524   0.605   0.329   5.517 -0.3181  2.6660 -0.5139
 7382SOL    HW222525   0.554   0.399   5.641 -0.0805  1.2976  0.3793
 7383SOL     OW22526   1.305   4.441   5.845 -0.4503 -0.4520 -0.4674
 7383SOL    HW122527   1.246   4.420   5.772 -1.0569 -2.2108  0.4666
 7383SOL    HW222528   1.392   4.438   5.806 -0.7471 -1.5571 -1.1055
 7384SOL     OW22529   1.179   6.543   4.628 -0.6275 -0.3989 -0.1174
 7384SOL    HW122530   1.216   6.580   4.709 -0.4372 -2.1882  0.6537
 7384SOL    HW222531   1.090   6.519   4.653  0.1265 -3.0206  0.2681
 7385SOL     OW22532   0.547   1.832   0.620 -0.1022 -0.5594 -0.0111
 7385SOL    HW122533   0.549   1.744   0.658  0.0642 -0.9524 -0.9005
 7385SOL    HW222534   0.560   1.891   0.694  0.3821 -1.3116  0.5137
 7386SOL     OW22535   2.124   6.159   4.534 -0.2260  1.1544 -0.5432
 7386SOL    HW122536   2.039   6.156   4.490  0.6196  0.0591 -2.2083
 7386SOL    HW222537   2.143   6.068   4.555 -0.0467  1.5331  1.0654
 7387SOL     OW22538   2.257   6.459   0.555  0.5543 -0.3359  0.5042
 7387SOL    HW122539   2.251   6.546   0.515  0.1667 -0.1093  1.0607
 7387SOL    HW222540   2.275   6.476   0.647  0.8425 -0.8552  0.5466
 7388SOL     OW22541   0.453   6.832   0.144 -0.0158  0.3932  0.0775
 7388SOL    HW122542   0.409   6.810   0.062 -0.0907 -2.8464  0.8496
 7388SOL    HW222543   0.384   6.865   0.201 -0.5132 -0.0629 -0.2580
 7389SOL     OW22544   5.967   5.130   3.324 -0.6843  0.3539  0.8641
 7389SOL    HW122545   6.025   5.077   3.378 -0.2541  0.8136  0.8619
 7389SOL    HW222546   5.976   5.092   3.236  0.1733  0.8695  0.7185
 7390SOL     OW22547   3.963   3.533   1.301  0.8133 -0.4313 -0.8635
 7390SOL    HW122548   4.031   3.539   1.369  0.4717 -0.3567 -0.5219
 7390SOL    HW222549   3.983   3.605   1.241  0.8063 -0.1613 -0.5466
 7391SOL     OW22550   2.162   4.181   1.123 -0.8513 -0.5972  0.1621
 7391SOL    HW122551   2.099   4.210   1.057  0.6909  0.4395 -0.9370
 7391SOL    HW222552   2.191   4.095   1.093 -1.8501 -1.1483  0.7606
 7392SOL     OW22553   6.122   5.513   4.218  0.5321  0.3071  0.0792
 7392SOL    HW122554   6.043   5.460   4.214  0.2632  0.7285 -0.2613
 7392SOL    HW222555   6.156   5.513   4.128 -0.0998  1.6517 -0.1774
 7393SOL     OW22556   3.620   4.385   5.574  0.0326  0.1913  0.2786
 7393SOL    HW122557   3.529   4.357   5.562 -0.5427  0.7825  2.6374
 7393SOL    HW222558   3.620   4.477   5.550  0.3084 -0.0736 -0.8035
 7394SOL     OW22559   2.214   0.858   2.287 -0.3368  0.0810  0.1446
 7394SOL    HW122560   2.163   0.934   2.315 -0.3572 -0.0364  0.4190
 7394SOL    HW222561   2.180   0.837   2.200 -1.2009 -0.3976  0.5865
 7395SOL     OW22562   1.093   3.177   3.952  0.1128  0.5014  0.6868
 7395SOL    HW122563   1.103   3.190   4.046  1.8502  0.6840  0.5057
 7395SOL    HW222564   1.063   3.087   3.943  1.8561 -0.1775  1.3559
 7396SOL     OW22565   2.785   0.804   1.345  0.3370 -0.2353 -0.7988
 7396SOL    HW122566   2.701   0.769   1.374  0.1041  0.2340 -0.8816
 7396SOL    HW222567   2.851   0.756   1.394  0.0087 -0.4759 -0.5947
 7397SOL     OW22568   0.086   5.374   4.788  0.0207  0.5216 -0.4437
 7397SOL    HW122569   0.037   5.443   4.833 -2.4292 -0.2837 -1.7037
 7397SOL    HW222570   0.034   5.295   4.801  2.1958 -0.9224  0.0307
 7398SOL     OW22571   4.326   2.040   5.381  0.0297 -0.6245 -0.0786
 7398SOL    HW122572   4.317   1.972   5.448 -0.8363 -0.5737 -0.1263
 7398SOL    HW222573   4.319   2.122   5.429 -2.5409 -0.5729 -0.4064
 7399SOL     OW22574   5.187   2.050   2.545  0.0138  0.1249 -0.2676
 7399SOL    HW122575   5.256   2.008   2.495 -1.5872 -1.1752 -1.4864
 7399SOL    HW222576   5.209   2.144   2.543  1.0236 -0.1100 -1.7285
 7400SOL     OW22577   5.922   2.510   2.350  0.4413  0.0086  0.7016
 7400SOL    HW122578   5.920   2.430   2.298  0.8912  0.5171 -0.1157
 7400SOL    HW222579   5.855   2.566   2.311  1.0946  0.5679  0.3700
 7401SOL     OW22580   6.373   4.893   2.399 -0.0721 -0.2280  0.1844
 7401SOL    HW122581   6.457   4.901   2.356 -1.0993  0.4360 -1.8251
 7401SOL    HW222582   6.335   4.981   2.395 -0.1928 -0.0941  2.6052
 7402SOL     OW22583   3.301   0.579   0.312  0.2316  0.2448  0.0223
 7402SOL    HW122584   3.345   0.528   0.381  2.0881  0.5058 -0.8862
 7402SOL    HW222585   3.232   0.521   0.281  0.6335 -0.6813  0.7598
 7403SOL     OW22586   4.923   3.524   0.761 -0.2524 -0.1915 -0.3326
 7403SOL    HW122587   4.857   3.466   0.726 -0.0252 -0.7750  0.1879
 7403SOL    HW222588   4.900   3.533   0.854  0.1258 -0.0235 -0.2536
 7404SOL     OW22589   6.180   0.451   0.233  0.0026 -0.4432  0.0740
 7404SOL    HW122590   6.252   0.391   0.213  1.6695  0.9808  1.4832
 7404SOL    HW222591   6.192   0.524   0.172 -1.7434 -1.2471 -1.3251
 7405SOL     OW22592   2.661   2.005   1.287  0.5489 -0.1795  0.0078
 7405SOL    HW122593   2.591   2.052   1.242  0.6472  0.3209  0.3641
 7405SOL    HW222594   2.683   1.933   1.229 -1.1234 -1.1115  0.4554
 7406SOL     OW22595   0.871   2.055   5.359  0.3621  0.0730  0.4832
 7406SOL    HW122596   0.837   2.090   5.441 -1.9626  1.7553 -1.0701
 7406SOL    HW222597   0.910   2.130   5.315  2.1332 -0.9306  0.2625
 7407SOL     OW22598   5.187   1.248   4.015  0.0497 -0.6880  0.0773
 7407SOL    HW122599   5.180   1.323   3.956  0.8488 -1.3154 -0.8391
 7407SOL    HW222600   5.098   1.237   4.049  0.0404  1.0435  0.7288
 7408SOL     OW22601   5.405   4.496   5.652  0.4326  0.5653 -1.2759
 7408SOL    HW122602   5.416   4.405   5.680  1.0257  1.5739  2.3501
 7408SOL    HW222603   5.311   4.511   5.656  0.4919  0.7474  0.8936
 7409SOL     OW22604   6.160   0.193   4.506  0.6725 -0.0115  0.1238
 7409SOL    HW122605   6.131   0.184   4.597  0.5822  0.2680  0.1228
 7409SOL    HW222606   6.255   0.183   4.510  0.5798 -1.0292  0.1145
 7410SOL     OW22607   0.381   0.861   0.944 -0.4327 -0.1956 -0.3730
 7410SOL    HW122608   0.421   0.929   0.999 -2.2690  0.4162  0.2768
 7410SOL    HW222609   0.295   0.896   0.922 -1.4068 -2.2562 -0.1049
 7411SOL     OW22610   2.537   3.264   2.450 -0.2568  0.6330  0.0701
 7411SOL    HW122611   2.612   3.254   2.509 -0.2627  0.2885  0.0241
 7411SOL    HW222612   2.523   3.358   2.444  1.4642  0.8566 -1.5333
 7412SOL     OW22613   4.376   1.486   6.350 -0.2835 -0.1522 -0.6013
 7412SOL    HW122614   4.313   1.434   6.299  0.3224 -0.3748 -1.1305
 7412SOL    HW222615   4.321   1.540   6.407 -0.9502 -0.5743 -0.8247
 7413SOL     OW22616   2.549   0.291   1.153 -0.2473 -0.3444 -0.5160
 7413SOL    HW122617   2.587   0.358   1.209 -0.4589 -1.2898  0.7941
 7413SOL    HW222618   2.511   0.228   1.213 -1.9688 -0.5592 -1.7448
 7414SOL     OW22619   0.350   2.060   6.434  0.7942  0.5910  0.0803
 7414SOL    HW122620   0.324   1.969   6.421 -0.7524  0.9801  0.2772
 7414SOL    HW222621   0.271   2.111   6.415  1.8583  1.9701 -0.8756
 7415SOL     OW22622   6.546   3.930   4.478 -0.0203  0.5453  0.2696
 7415SOL    HW122623   6.467   3.903   4.433 -0.3234  0.5064  0.8166
 7415SOL    HW222624   6.532   4.022   4.498  0.0346  0.5190  0.4358
 7416SOL     OW22625   2.959   3.795   3.672 -0.7480  0.0803  0.4049
 7416SOL    HW122626   2.866   3.804   3.653 -0.9506 -0.5755  1.0496
 7416SOL    HW222627   2.975   3.701   3.673 -0.7317  0.0352  3.2316
 7417SOL     OW22628   6.184   2.278   5.129 -0.7859  0.5674 -0.1764
 7417SOL    HW122629   6.172   2.314   5.217  0.1329 -1.0183  0.6541
 7417SOL    HW222630   6.115   2.211   5.122 -0.7795  0.6093 -0.6056
 7418SOL     OW22631   4.785   3.978   0.154 -0.0214  0.5253  0.6767
 7418SOL    HW122632   4.710   4.005   0.208 -1.1140  0.3636 -0.6877
 7418SOL    HW222633   4.840   4.056   0.148  0.6414  0.2607  2.8086
 7419SOL     OW22634   6.756   3.879   0.189 -0.1372 -0.4245  0.1205
 7419SOL    HW122635   6.781   3.965   0.222  0.6671 -0.6004 -0.0070
 7419SOL    HW222636   6.730   3.830   0.267 -1.2088  0.1255  0.1192
 7420SOL     OW22637   4.579   1.541   6.832 -0.4091  0.0047  0.1719
 7420SOL    HW122638   4.606   1.457   6.870 -0.7541 -0.1270  0.1306
 7420SOL    HW222639   4.627   1.547   6.750 -0.3978 -0.1601  0.1673
 7421SOL     OW22640   3.128   1.386   0.292 -0.3514  0.0699 -0.3018
 7421SOL    HW122641   3.191   1.440   0.340  0.8722 -0.5891 -1.1052
 7421SOL    HW222642   3.074   1.346   0.361  0.2530  0.4759  0.4303
 7422SOL     OW22643   4.529   2.801   2.183 -0.1560  0.2737  0.2429
 7422SOL    HW122644   4.478   2.777   2.106  1.6268  2.0656 -1.6189
 7422SOL    HW222645   4.493   2.885   2.211 -0.4117 -0.0916  1.0430
 7423SOL     OW22646   4.979   4.803   0.484  0.3410  0.1609 -0.0660
 7423SOL    HW122647   5.037   4.877   0.503  1.0730  0.8710 -4.1211
 7423SOL    HW222648   4.896   4.843   0.461 -0.7255 -0.6666  2.0415
 7424SOL     OW22649   3.082   5.712   3.957 -0.3323 -0.6279 -0.0664
 7424SOL    HW122650   3.103   5.789   4.010 -0.1109 -0.2193 -0.7428
 7424SOL    HW222651   3.158   5.654   3.966 -0.2301 -0.4922 -0.0558
 7425SOL     OW22652   6.429   4.947   3.660 -0.1297 -0.3166  0.6365
 7425SOL    HW122653   6.408   4.904   3.743 -0.7483 -2.7290 -0.6662
 7425SOL    HW222654   6.521   4.925   3.645 -0.1563 -0.3068  0.4653
 7426SOL     OW22655   6.460   4.237   6.206 -0.3072 -0.7051 -0.8272
 7426SOL    HW122656   6.481   4.151   6.243 -0.3641 -0.2854  0.2162
 7426SOL    HW222657   6.436   4.218   6.115 -1.1914 -1.9012 -0.3759
 7427SOL     OW22658   5.857   1.721   1.175 -0.5057 -0.1942  0.3972
 7427SOL    HW122659   5.926   1.787   1.167 -0.4408  0.1197  2.8748
 7427SOL    HW222660   5.784   1.766   1.217 -1.3712 -1.1167 -0.0616
 7428SOL     OW22661   2.129   0.331   4.194  0.6443 -0.3856  0.4818
 7428SOL    HW122662   2.052   0.386   4.180  0.0397 -0.7382  2.1900
 7428SOL    HW222663   2.107   0.248   4.152 -0.3387 -0.8130  1.8041
 7429SOL     OW22664   5.572   0.523   6.806  0.0067  0.3219 -0.1342
 7429SOL    HW122665   5.577   0.532   6.711  1.3253  0.5928 -0.0578
 7429SOL    HW222666   5.496   0.576   6.831  0.3097  1.1622 -0.9322
 7430SOL     OW22667   0.004   0.033   3.012  0.0677  0.3023  0.5778
 7430SOL    HW122668   0.060   0.005   2.940 -0.9311 -1.2976  0.3829
 7430SOL    HW222669  -0.085   0.009   2.984 -0.2974 -0.7641  2.5101
 7431SOL     OW22670   2.500   1.510   2.819 -0.4034  0.0417 -0.0936
 7431SOL    HW122671   2.433   1.463   2.868 -0.7688  0.6538 -0.0022
 7431SOL    HW222672   2.491   1.478   2.729 -0.0016 -0.7789  0.1497
 7432SOL     OW22673   4.205   6.531   1.307 -0.0370  0.0008  0.0491
 7432SOL    HW122674   4.232   6.440   1.310  1.4984  0.4029 -0.8912
 7432SOL    HW222675   4.173   6.544   1.218  1.9580  0.9419 -0.5876
 7433SOL     OW22676   4.290   4.391   1.506 -0.4921 -0.3434 -0.2358
 7433SOL    HW122677   4.205   4.434   1.493  0.1435  1.3568  0.9748
 7433SOL    HW222678   4.332   4.394   1.421 -1.0127  0.2066 -0.4783
 7434SOL     OW22679   5.741   4.729   1.472  0.0914  0.7368 -0.1025
 7434SOL    HW122680   5.657   4.770   1.453 -0.0806  0.6773  0.5067
 7434SOL    HW222681   5.759   4.752   1.563  0.4939  0.3385 -0.0769
 7435SOL     OW22682   4.876   1.452   1.923 -0.1680  0.2576  0.5803
 7435SOL    HW122683   4.828   1.382   1.879  2.3371 -3.5323  3.2892
 7435SOL    HW222684   4.917   1.502   1.852  1.4204 -3.7552 -1.6414
 7436SOL     OW22685   2.184   1.190   4.555  0.3610  0.4955 -0.3531
 7436SOL    HW122686   2.244   1.250   4.511  1.5083 -0.1423  0.3216
 7436SOL    HW222687   2.240   1.131   4.605 -0.8757  1.3851  2.2723
 7437SOL     OW22688   3.783   4.629   3.716  0.2259 -0.1772 -0.4967
 7437SOL    HW122689   3.712   4.617   3.653 -0.5108  1.1218  0.0548
 7437SOL    HW222690   3.803   4.540   3.745 -1.1141 -0.5886 -0.7454
 7438SOL     OW22691   0.637   6.704   5.771  0.4472  0.0232  0.2159
 7438SOL    HW122692   0.547   6.727   5.797  0.2025  0.8116 -1.2048
 7438SOL    HW222693   0.689   6.717   5.850 -0.6746 -0.4497  1.0697
 7439SOL     OW22694   3.371   4.626   6.754 -0.0541 -0.1918  0.3932
 7439SOL    HW122695   3.336   4.677   6.681  1.7336  0.6095  0.0422
 7439SOL    HW222696   3.324   4.542   6.750 -1.3138  0.5309 -0.5102
 7440SOL     OW22697   1.811   5.723   0.408  0.2323  0.4587  0.3775
 7440SOL    HW122698   1.765   5.639   0.414 -0.6917  0.8332 -0.9007
 7440SOL    HW222699   1.806   5.746   0.315  1.8886  1.1668  0.4215
 7441SOL     OW22700   3.525   1.530   2.061 -0.4155  0.0934 -0.1533
 7441SOL    HW122701   3.587   1.531   1.988 -0.0562 -1.7815  0.0750
 7441SOL    HW222702   3.439   1.522   2.018 -0.2575 -0.2789 -0.4107
 7442SOL     OW22703   1.351   5.687   6.450  0.4272 -0.2243  0.0884
 7442SOL    HW122704   1.356   5.739   6.370  0.6584  1.2335  1.0118
 7442SOL    HW222705   1.261   5.653   6.451 -0.7653  2.7205  0.9586
 7443SOL     OW22706   6.787   6.456   2.059  0.7373  0.1697 -0.3385
 7443SOL    HW122707   6.839   6.531   2.087  0.5989  0.3150 -0.4723
 7443SOL    HW222708   6.732   6.489   1.989 -1.4384  0.7038  1.5139
 7444SOL     OW22709   0.448   1.646   3.647  0.1223  0.1316  0.7852
 7444SOL    HW122710   0.443   1.694   3.564  1.3158 -1.7764 -0.4597
 7444SOL    HW222711   0.375   1.680   3.699  0.6567  2.9805 -0.1286
 7445SOL     OW22712   6.292   1.632   1.469  0.0945 -0.0879  0.5396
 7445SOL    HW122713   6.371   1.613   1.419 -0.1763  1.5575 -0.5877
 7445SOL    HW222714   6.313   1.712   1.517 -1.2269  1.0620 -0.6921
 7446SOL     OW22715   2.087   0.683   3.936 -0.0879  0.2787 -0.2060
 7446SOL    HW122716   2.057   0.768   3.967 -1.4582 -0.0026 -0.7183
 7446SOL    HW222717   2.130   0.644   4.013  2.2167  2.1216 -0.4332
 7447SOL     OW22718   2.771   3.214   4.677 -0.5706  0.2539  0.0367
 7447SOL    HW122719   2.755   3.307   4.697 -1.0332  0.5922 -1.7257
 7447SOL    HW222720   2.863   3.211   4.651 -1.0872  0.6675 -2.0098
 7448SOL     OW22721   2.252   3.189   2.119  0.2505  0.4127 -0.1560
 7448SOL    HW122722   2.269   3.153   2.206  0.8425 -0.8501 -0.7694
 7448SOL    HW222723   2.157   3.198   2.115  0.2160  0.5143  0.6204
 7449SOL     OW22724   3.725   2.616   6.106 -0.2246  0.0376  0.2389
 7449SOL    HW122725   3.783   2.682   6.145 -0.6459  0.2884  0.4445
 7449SOL    HW222726   3.642   2.628   6.151 -0.1860 -0.9306  0.5845
 7450SOL     OW22727   5.633   2.736   2.581  0.6333  0.1583 -0.6146
 7450SOL    HW122728   5.570   2.665   2.586  0.7355  0.1518  1.2946
 7450SOL    HW222729   5.718   2.692   2.578  0.6456  0.1978 -0.9065
 7451SOL     OW22730   1.892   2.076   1.552 -0.2012 -0.2827 -0.4582
 7451SOL    HW122731   1.924   2.057   1.464 -1.1156 -1.5627 -0.5505
 7451SOL    HW222732   1.935   2.011   1.607 -1.0182 -0.6729 -0.2667
 7452SOL     OW22733   4.491   4.739   6.693  0.0935  0.3742 -0.3726
 7452SOL    HW122734   4.532   4.653   6.685  0.8117  0.6547  0.1550
 7452SOL    HW222735   4.398   4.721   6.706 -0.1110 -0.2507 -2.4661
 7453SOL     OW22736   3.381   0.852   6.563 -0.6315  0.2149 -0.2549
 7453SOL    HW122737   3.311   0.893   6.511 -1.2950  1.2953  1.4338
 7453SOL    HW222738   3.414   0.922   6.619  1.0814 -0.5596 -0.2330
 7454SOL     OW22739   4.529   5.114   0.432 -0.5799  0.3182 -0.0865
 7454SOL    HW122740   4.459   5.056   0.463 -0.3580  1.1424  2.1875
 7454SOL    HW222741   4.524   5.190   0.490  3.1772 -0.2832  1.3113
 7455SOL     OW22742   4.906   1.078   1.465 -0.2909  0.5852  0.2308
 7455SOL    HW122743   4.982   1.136   1.470  1.3774 -1.3749 -0.7033
 7455SOL    HW222744   4.943   0.992   1.445 -2.8915 -0.0171 -2.8392
 7456SOL     OW22745   5.777   2.329   3.156  0.3675 -0.1139 -0.7174
 7456SOL    HW122746   5.721   2.285   3.091 -0.1808 -0.5470  0.0351
 7456SOL    HW222747   5.855   2.272   3.162  0.1694 -0.3753 -0.5899
 7457SOL     OW22748   6.818   0.779   3.740 -0.2599  0.1384 -0.4915
 7457SOL    HW122749   6.794   0.761   3.649 -0.5481  0.7864 -0.5490
 7457SOL    HW222750   6.893   0.722   3.757 -0.7931 -0.6900 -0.8367
 7458SOL     OW22751   4.838   6.391   0.908  0.6919  0.0209 -0.2860
 7458SOL    HW122752   4.787   6.399   0.988  0.9439  0.0240 -0.1223
 7458SOL    HW222753   4.774   6.391   0.838  0.4245 -0.6601 -0.0475
 7459SOL     OW22754   3.876   5.758   6.756  0.1328  0.0643 -0.1815
 7459SOL    HW122755   3.803   5.704   6.786 -0.2057 -0.5995 -2.0889
 7459SOL    HW222756   3.944   5.695   6.731 -0.7212  0.3211 -3.6248
 7460SOL     OW22757   3.927   5.967   0.781  0.5949  0.0726 -0.2018
 7460SOL    HW122758   3.914   5.994   0.872  2.4254 -1.4769  0.5928
 7460SOL    HW222759   3.939   6.049   0.733  0.8900  0.8856  1.2059
 7461SOL     OW22760   0.353   0.099   3.299 -0.1707  0.0381 -0.6375
 7461SOL    HW122761   0.350   0.184   3.343 -0.9083 -0.9594  1.3775
 7461SOL    HW222762   0.296   0.043   3.352  0.1049 -1.6678 -2.0497
 7462SOL     OW22763   0.993   5.310   2.127  0.0634 -0.0401 -0.6369
 7462SOL    HW122764   1.074   5.298   2.076 -0.2141 -1.6911 -0.7506
 7462SOL    HW222765   1.023   5.343   2.212  0.7071  0.8297 -1.1766
 7463SOL     OW22766   6.443   1.582   5.665  0.4069 -0.3132 -0.2766
 7463SOL    HW122767   6.351   1.562   5.686  0.0639 -0.9133 -2.1606
 7463SOL    HW222768   6.443   1.676   5.647  0.3819 -0.1147  0.7022
 7464SOL     OW22769   5.001   2.166   4.147  0.3340 -0.0209  0.3105
 7464SOL    HW122770   5.089   2.197   4.168 -0.0389  2.3193 -1.2305
 7464SOL    HW222771   4.971   2.123   4.227  2.3092  0.4399  1.3660
 7465SOL     OW22772   0.372   0.378   0.719  0.8990 -0.2785  0.4756
 7465SOL    HW122773   0.439   0.369   0.652  0.5724  0.3189  0.0624
 7465SOL    HW222774   0.304   0.432   0.678  0.3782 -0.4902  1.0436
 7466SOL     OW22775   4.804   6.431   5.868 -0.2402  0.0288 -0.3753
 7466SOL    HW122776   4.890   6.396   5.892 -0.4425 -1.7013 -1.9244
 7466SOL    HW222777   4.748   6.411   5.943 -0.1118 -2.2528 -0.8036
 7467SOL     OW22778   2.890   1.616   0.775  0.0192  0.6804 -0.3172
 7467SOL    HW122779   2.954   1.686   0.785 -0.8624  1.4216  0.3947
 7467SOL    HW222780   2.910   1.554   0.846 -0.1911  1.0415  0.0672
 7468SOL     OW22781   5.349   5.244   0.911  0.0661  0.0456  0.1702
 7468SOL    HW122782   5.377   5.185   0.840 -0.8579  0.5998 -0.6860
 7468SOL    HW222783   5.267   5.282   0.879 -0.7427 -0.2111  1.8539
 7469SOL     OW22784   0.217   4.895   1.774  0.7794 -0.1652 -0.3624
 7469SOL    HW122785   0.278   4.968   1.759  0.6990  0.3950  1.7599
 7469SOL    HW222786   0.264   4.836   1.833 -0.1811 -0.4713  0.1087
 7470SOL     OW22787   3.505   6.772   1.133  0.5249 -0.0427 -0.0639
 7470SOL    HW122788   3.415   6.800   1.118 -0.3032 -2.4837  0.0075
 7470SOL    HW222789   3.497   6.685   1.173  2.9182 -1.1215 -1.7301
 7471SOL     OW22790   3.659   2.334   0.447 -0.5356 -0.5572 -0.4498
 7471SOL    HW122791   3.672   2.242   0.471  0.3256 -0.4091 -0.2975
 7471SOL    HW222792   3.603   2.331   0.370 -0.4547 -1.2178 -0.4893
 7472SOL     OW22793   0.307   0.203   1.201  0.2444  0.3843 -0.0555
 7472SOL    HW122794   0.227   0.158   1.227  0.1337  1.3327  1.3539
 7472SOL    HW222795   0.326   0.170   1.113 -0.5360 -1.4039  0.4081
 7473SOL     OW22796   4.484   2.908   4.143 -0.1801  1.0786 -0.7131
 7473SOL    HW122797   4.556   2.858   4.182 -1.2755  0.7492  0.9999
 7473SOL    HW222798   4.496   2.997   4.176  0.1037  1.2911 -1.3830
 7474SOL     OW22799   0.997   3.274   6.333  0.1744  0.2534 -0.1207
 7474SOL    HW122800   0.956   3.328   6.400  0.1891 -0.6028  0.5939
 7474SOL    HW222801   1.091   3.279   6.352  0.4337  1.8959 -1.5187
 7475SOL     OW22802   6.169   0.522   2.326 -0.0050 -0.2411  0.0038
 7475SOL    HW122803   6.210   0.516   2.412 -1.0425 -1.4201  0.4560
 7475SOL    HW222804   6.122   0.605   2.327 -0.9733 -0.7789  1.0466
 7476SOL     OW22805   3.328   6.535   4.461 -0.2186 -0.1904 -0.0784
 7476SOL    HW122806   3.354   6.620   4.427  0.3765 -0.2070  0.3138
 7476SOL    HW222807   3.255   6.553   4.520  1.1280  0.3125  1.5102
 7477SOL     OW22808   2.320   5.536   3.988 -0.0869 -0.4165  0.2168
 7477SOL    HW122809   2.277   5.612   3.950  0.6836  1.1153  2.2252
 7477SOL    HW222810   2.391   5.516   3.927  0.5040  1.3342  0.2734
 7478SOL     OW22811   1.034   6.328   4.989 -0.4763  0.2762  0.2505
 7478SOL    HW122812   0.961   6.370   5.036 -0.8320  0.0782 -0.1179
 7478SOL    HW222813   1.112   6.362   5.032 -0.7828  0.5678  0.5919
 7479SOL     OW22814   5.171   5.565   5.493  0.2625 -0.3702 -0.1712
 7479SOL    HW122815   5.107   5.522   5.437 -0.6512  0.4803  0.1991
 7479SOL    HW222816   5.138   5.654   5.503  1.6307  0.1623 -0.1639
 7480SOL     OW22817   1.817   0.986   1.291  0.4183 -0.0590 -0.2249
 7480SOL    HW122818   1.826   0.971   1.385  0.0352  0.9253 -0.0171
 7480SOL    HW222819   1.740   1.042   1.283 -0.2581 -1.0818 -1.2323
 7481SOL     OW22820   6.512   1.216   2.852  0.0708 -0.5262  0.0792
 7481SOL    HW122821   6.594   1.240   2.811  0.2136  0.6275  0.9919
 7481SOL    HW222822   6.537   1.180   2.937 -0.4038  1.3442  1.0591
 7482SOL     OW22823   3.514   2.248   4.791  0.3189 -0.4797  0.6770
 7482SOL    HW122824   3.521   2.321   4.730  0.8905 -0.8672  0.2692
 7482SOL    HW222825   3.457   2.281   4.861  0.8936  0.5010  0.7056
 7483SOL     OW22826   3.939   0.745   3.182 -0.3939 -0.5935 -0.2843
 7483SOL    HW122827   3.922   0.653   3.204 -0.5316 -0.3699  0.6113
 7483SOL    HW222828   3.907   0.755   3.093 -2.5262 -0.8646  0.3751
 7484SOL     OW22829   4.633   4.115   6.778  0.1651 -0.1094  0.1015
 7484SOL    HW122830   4.664   4.067   6.855  1.5497  0.0039 -0.3480
 7484SOL    HW222831   4.713   4.138   6.731 -0.6345  0.1630 -1.1717
 7485SOL     OW22832   0.798   2.485   0.430  0.8074 -0.2452  0.2789
 7485SOL    HW122833   0.753   2.403   0.452  1.0272 -0.2178  0.8721
 7485SOL    HW222834   0.728   2.551   0.427  1.0101  0.4362  4.3261
 7486SOL     OW22835   2.813   2.481   2.229  0.1326  0.7546 -0.2733
 7486SOL    HW122836   2.799   2.449   2.318  2.5368 -0.0279 -0.1132
 7486SOL    HW222837   2.786   2.573   2.233 -0.6719  0.4937  0.9938
 7487SOL     OW22838   1.341   6.533   1.380  0.0965  0.0191 -0.1616
 7487SOL    HW122839   1.280   6.465   1.352  0.0828 -0.3527  0.7309
 7487SOL    HW222840   1.290   6.614   1.373  0.2633  0.0203 -1.6793
 7488SOL     OW22841   6.592   4.940   6.657 -0.3201  0.2180 -0.1678
 7488SOL    HW122842   6.506   4.965   6.691 -0.4580 -1.0754  0.4926
 7488SOL    HW222843   6.587   4.956   6.563 -1.7120 -0.9807 -0.3172
 7489SOL     OW22844   1.020   2.663   5.008 -0.5685  0.0997  0.2510
 7489SOL    HW122845   1.111   2.686   5.027  0.6007 -2.5523 -1.5555
 7489SOL    HW222846   0.989   2.733   4.951  1.2243 -0.2169 -1.1996
 7490SOL     OW22847   1.241   5.037   4.106 -0.4560  0.0470  0.5540
 7490SOL    HW122848   1.288   5.086   4.038  1.0918 -1.6976  0.2886
 7490SOL    HW222849   1.295   5.049   4.185 -0.5281 -0.5060  0.6895
 7491SOL     OW22850   3.959   1.668   4.034  0.5064  0.2026  0.5206
 7491SOL    HW122851   3.943   1.752   4.077 -0.0405 -1.3267  3.5994
 7491SOL    HW222852   3.872   1.630   4.024  0.7938 -0.2641 -0.2822
 7492SOL     OW22853   1.235   3.966   2.252  0.0816 -0.5242  0.2989
 7492SOL    HW122854   1.276   3.943   2.336  0.8598 -1.7613 -0.3926
 7492SOL    HW222855   1.308   3.983   2.193 -0.4265 -1.2286 -0.5459
 7493SOL     OW22856   2.932   0.045   5.871  0.1766 -0.3003  0.1535
 7493SOL    HW122857   2.952  -0.012   5.945 -0.6590  0.7077  1.1839
 7493SOL    HW222858   2.964  -0.004   5.795  1.1920 -1.2944  1.1673
 7494SOL     OW22859   5.578   2.693   1.708 -0.0934 -0.5592 -0.5624
 7494SOL    HW122860   5.493   2.658   1.681 -0.4543  1.2689 -2.0022
 7494SOL    HW222861   5.570   2.787   1.696  1.9639 -0.2900 -0.1776
 7495SOL     OW22862   1.328   0.615   0.620 -0.3519  0.2186  0.2886
 7495SOL    HW122863   1.403   0.601   0.562 -0.9491 -0.3353 -0.3780
 7495SOL    HW222864   1.272   0.677   0.573 -0.2571  0.7247  0.8366
 7496SOL     OW22865   2.380   6.284   6.440  0.4478  0.1418 -0.3784
 7496SOL    HW122866   2.384   6.324   6.527  0.5844 -1.0922  0.2115
 7496SOL    HW222867   2.297   6.235   6.440  1.0746 -0.9723 -0.4020
 7497SOL     OW22868   1.290   5.358   3.242 -0.1931  0.4004  0.1474
 7497SOL    HW122869   1.338   5.423   3.294  0.6332  0.8651 -1.1344
 7497SOL    HW222870   1.299   5.276   3.292  1.1708  0.6787  0.4021
 7498SOL     OW22871   0.617   1.532   0.553 -0.4067  0.0639 -0.0371
 7498SOL    HW122872   0.631   1.534   0.459 -0.8251 -0.7670 -0.1173
 7498SOL    HW222873   0.522   1.530   0.564 -0.3567 -1.8580  0.3472
 7499SOL     OW22874   3.802   0.533   1.125 -0.4607  1.2095  0.1045
 7499SOL    HW122875   3.784   0.627   1.120  0.2294  1.4536  1.6044
 7499SOL    HW222876   3.887   0.522   1.084  0.4963  1.6268  1.8515
 7500SOL     OW22877   5.377   3.711   4.679  0.4838  0.5520 -0.4985
 7500SOL    HW122878   5.390   3.803   4.659  1.6161  0.6239  0.4689
 7500SOL    HW222879   5.447   3.689   4.741 -1.2971 -0.3069  1.3103
 7501SOL     OW22880   4.756   3.804   2.019 -0.6172  0.2555 -0.2986
 7501SOL    HW122881   4.811   3.729   1.994  0.3992  1.1696 -0.8547
 7501SOL    HW222882   4.807   3.881   1.994 -1.6696  1.1461  0.2254
 7502SOL     OW22883   5.200   5.579   6.795  0.2040  0.2457  0.0155
 7502SOL    HW122884   5.136   5.535   6.739  1.6610 -0.9713 -0.7780
 7502SOL    HW222885   5.283   5.533   6.777  1.3178  1.7956  0.9426
 7503SOL     OW22886   0.269   2.940   6.070 -0.5875 -0.3664  0.0169
 7503SOL    HW122887   0.311   3.007   6.125 -0.2374 -1.4642  1.1335
 7503SOL    HW222888   0.214   2.891   6.131 -1.7795 -0.3494 -1.0169
 7504SOL     OW22889   1.112   4.294   2.770 -0.3073  0.0282  0.2581
 7504SOL    HW122890   1.114   4.332   2.857 -0.8448 -0.8688  0.6728
 7504SOL    HW222891   1.021   4.305   2.741 -0.3130 -0.3605  0.1269
 7505SOL     OW22892   1.838   5.673   3.438  0.3922  0.1000 -0.4603
 7505SOL    HW122893   1.863   5.593   3.391  0.8579  1.3483 -2.4720
 7505SOL    HW222894   1.889   5.669   3.519 -0.6189 -2.2588  0.1432
 7506SOL     OW22895   5.435   6.218   0.942 -0.2536  0.1711  0.5956
 7506SOL    HW122896   5.428   6.206   0.847 -1.3168 -1.5884  0.8464
 7506SOL    HW222897   5.385   6.298   0.959 -0.6150  0.1422 -0.2697
 7507SOL     OW22898   6.659   1.787   0.829 -0.1357 -0.1490  0.2625
 7507SOL    HW122899   6.720   1.859   0.818 -0.7549  0.4402  0.6081
 7507SOL    HW222900   6.709   1.709   0.804  0.8047  0.2959  0.6867
 7508SOL     OW22901   3.006   3.830   4.632  0.0316  0.1159 -0.1546
 7508SOL    HW122902   2.998   3.923   4.654  0.2562  0.4257 -1.3123
 7508SOL    HW222903   3.036   3.789   4.713  2.8762  1.5316 -0.3649
 7509SOL     OW22904   2.397   5.759   3.139  0.2207 -0.1489 -0.0196
 7509SOL    HW122905   2.373   5.761   3.232  1.5042 -0.8294  0.3502
 7509SOL    HW222906   2.339   5.693   3.101 -1.5759  1.3955 -0.1190
 7510SOL     OW22907   1.078   6.448   5.695  0.0455 -0.3365 -0.3643
 7510SOL    HW122908   1.024   6.417   5.622  1.6025 -0.9485 -1.2893
 7510SOL    HW222909   1.047   6.398   5.770 -2.1494  0.8888 -0.3556
 7511SOL     OW22910   6.217   0.267   3.305 -0.1782  0.3380  0.2470
 7511SOL    HW122911   6.181   0.198   3.249  0.0444  1.0500 -0.7949
 7511SOL    HW222912   6.164   0.263   3.385 -0.5256 -0.6741 -0.0156
 7512SOL     OW22913   6.710   3.589   0.375 -0.2406 -0.1873  0.2219
 7512SOL    HW122914   6.626   3.544   0.365  0.7071 -1.9849 -0.0051
 7512SOL    HW222915   6.694   3.655   0.442 -1.6691 -0.9289  0.6463
 7513SOL     OW22916   2.411   5.937   5.534 -0.3965 -0.4579 -0.0877
 7513SOL    HW122917   2.483   5.960   5.593 -0.8111 -1.2199  0.7361
 7513SOL    HW222918   2.382   5.851   5.564 -0.4272 -1.0088 -1.6057
 7514SOL     OW22919   6.593   6.423   0.774  0.0509  0.3033 -0.8477
 7514SOL    HW122920   6.526   6.378   0.722 -0.7366  0.8473 -0.3322
 7514SOL    HW222921   6.591   6.379   0.859  0.8572 -0.1430 -1.0561
 7515SOL     OW22922   4.288   0.662   4.943 -0.0249  0.1922 -0.9619
 7515SOL    HW122923   4.263   0.748   4.975  1.7243  0.1032  0.8837
 7515SOL    HW222924   4.374   0.676   4.902  1.0044 -0.8677  0.7259
 7516SOL     OW22925   4.231   6.164   2.923  0.1053  0.2578  0.3659
 7516SOL    HW122926   4.261   6.220   2.851  1.6086 -1.7734 -0.6910
 7516SOL    HW222927   4.231   6.076   2.886 -3.5341 -0.3922  1.5421
 7517SOL     OW22928   2.945   1.944   2.396 -0.6105  0.4730  0.2731
 7517SOL    HW122929   2.896   2.008   2.344 -0.9291  0.9543  1.1444
 7517SOL    HW222930   3.011   1.910   2.336 -0.3381  1.7310 -0.1662
 7518SOL     OW22931   3.433   3.248   5.559 -0.6525 -0.4431 -0.0156
 7518SOL    HW122932   3.445   3.184   5.629 -0.1884 -0.0354  0.2849
 7518SOL    HW222933   3.411   3.329   5.603 -1.5895 -0.4629 -0.4182
 7519SOL     OW22934   0.115   4.247   4.332  0.1965 -0.6665 -0.0545
 7519SOL    HW122935   0.038   4.285   4.375 -0.1428 -0.0446 -1.1728
 7519SOL    HW222936   0.189   4.289   4.376 -0.1609  0.5901 -0.6127
 7520SOL     OW22937   0.415   2.271   6.628  0.6565 -0.0450 -0.5603
 7520SOL    HW122938   0.339   2.216   6.645  0.6359  0.7465  2.4399
 7520SOL    HW222939   0.488   2.209   6.618  0.2237 -0.6974  0.2408
 7521SOL     OW22940   6.224   2.390   3.135 -0.0114  0.3723 -0.8780
 7521SOL    HW122941   6.222   2.363   3.227  0.1224 -0.0964 -1.0110
 7521SOL    HW222942   6.300   2.448   3.128 -0.6751  1.3181 -0.4491
 7522SOL     OW22943   2.282   2.221   6.123 -0.0802  0.7413  0.3729
 7522SOL    HW122944   2.189   2.232   6.144 -0.8613 -0.6438 -1.9919
 7522SOL    HW222945   2.296   2.273   6.044  0.5908 -0.7090 -0.5104
 7523SOL     OW22946   4.213   5.907   6.102  0.6082 -0.0060 -0.0497
 7523SOL    HW122947   4.170   5.829   6.067  2.5376 -0.9208 -0.5557
 7523SOL    HW222948   4.192   5.976   6.039  0.2815 -0.5287 -0.5277
 7524SOL     OW22949   0.242   3.600   4.049  0.1308  0.1654 -0.2532
 7524SOL    HW122950   0.265   3.689   4.021  0.5557 -0.2947 -1.4074
 7524SOL    HW222951   0.189   3.566   3.978  2.0477 -1.3917 -1.0176
 7525SOL     OW22952   6.592   4.426   6.356  0.4378  0.3521  0.4332
 7525SOL    HW122953   6.665   4.455   6.301  0.2979  0.9148  0.5382
 7525SOL    HW222954   6.564   4.343   6.317 -1.7053  2.1764 -2.3615
 7526SOL     OW22955   1.938   3.558   5.479 -0.0350  0.0803  0.4773
 7526SOL    HW122956   1.844   3.574   5.491 -0.6668 -1.3748 -1.8881
 7526SOL    HW222957   1.957   3.592   5.392  0.9068 -2.3993 -0.3488
 7527SOL     OW22958   1.598   2.596   0.176 -0.0715  0.2018 -0.2311
 7527SOL    HW122959   1.612   2.669   0.116  1.0148  0.5700  0.4381
 7527SOL    HW222960   1.504   2.580   0.174  0.0190 -0.4212 -2.7278
 7528SOL     OW22961   0.033   3.089   5.436  0.9760 -0.6890  0.2437
 7528SOL    HW122962   0.062   3.168   5.482  0.8555 -0.2476 -0.4145
 7528SOL    HW222963  -0.027   3.122   5.369 -0.4123 -1.5040  1.0506
 7529SOL     OW22964   1.106   3.053   0.740 -0.1540 -0.0527 -0.1350
 7529SOL    HW122965   1.120   3.046   0.834 -1.6659  0.5521  0.1722
 7529SOL    HW222966   1.033   2.993   0.722  1.6307 -2.0097 -1.3680
 7530SOL     OW22967   3.979   2.004   0.267 -0.4411 -0.1679 -0.1269
 7530SOL    HW122968   4.037   1.928   0.275  0.5641  0.5479 -0.3146
 7530SOL    HW222969   3.922   1.983   0.193 -0.7473 -1.0907  0.3612
 7531SOL     OW22970   6.648   0.989   6.158  0.1918  0.6251  0.6467
 7531SOL    HW122971   6.656   0.932   6.235 -2.1995 -0.3780  0.2524
 7531SOL    HW222972   6.729   0.974   6.108  0.2395 -1.4347  1.2338
 7532SOL     OW22973   0.173   3.138   1.471 -0.1382  0.2820 -0.4043
 7532SOL    HW122974   0.162   3.065   1.410  0.0834 -0.3182  0.2612
 7532SOL    HW222975   0.248   3.186   1.438  0.0979 -0.1518 -0.4977
 7533SOL     OW22976   3.839   0.474   1.543 -0.4852 -0.9166 -0.1184
 7533SOL    HW122977   3.793   0.425   1.475 -0.6573 -0.4760 -0.3270
 7533SOL    HW222978   3.782   0.549   1.561  0.2267 -0.2738 -0.4946
 7534SOL     OW22979   5.319   2.894   0.269  0.0580  0.8479  0.2379
 7534SOL    HW122980   5.286   2.887   0.359  1.4113 -2.9034  0.6381
 7534SOL    HW222981   5.254   2.847   0.217  0.7514  0.3643 -0.2119
 7535SOL     OW22982   3.821   3.621   4.923 -1.1063 -0.1443 -0.5246
 7535SOL    HW122983   3.824   3.568   4.843 -1.5103 -0.6645 -0.1984
 7535SOL    HW222984   3.728   3.621   4.948 -0.9611 -0.0993  0.0239
 7536SOL     OW22985   0.252   2.538   1.872 -0.1041  0.0742 -0.0630
 7536SOL    HW122986   0.239   2.454   1.827  0.2943 -0.1870  0.3073
 7536SOL    HW222987   0.175   2.589   1.847 -0.2064 -0.2934 -0.5306
 7537SOL     OW22988   2.836   4.244   6.071  0.0228 -0.2664  0.0166
 7537SOL    HW122989   2.863   4.244   5.979 -0.4990 -1.1544 -0.1450
 7537SOL    HW222990   2.750   4.285   6.070  0.1281 -0.0420  0.1464
 7538SOL     OW22991   2.717   5.549   2.590 -0.9686  0.6896 -0.1076
 7538SOL    HW122992   2.671   5.604   2.652  0.2577 -0.4278  1.8982
 7538SOL    HW222993   2.747   5.474   2.642 -0.2056 -0.4944 -2.1322
 7539SOL     OW22994   0.798   0.421   2.691  0.0450  0.1898  0.1195
 7539SOL    HW122995   0.784   0.445   2.783  1.0351  2.5613 -0.2721
 7539SOL    HW222996   0.876   0.470   2.665 -0.4891 -0.0521 -2.1195
 7540SOL     OW22997   1.181   2.197   0.774 -0.1374  0.0561 -0.7663
 7540SOL    HW122998   1.177   2.216   0.680 -0.1989 -0.3940 -0.8551
 7540SOL    HW222999   1.090   2.198   0.802 -0.3597 -2.2192 -1.2028
 7541SOL     OW23000   2.113   0.755   6.156  0.2959  0.0114 -0.0880
 7541SOL    HW123001   2.063   0.705   6.221  0.1193 -0.9401 -0.9165
 7541SOL    HW223002   2.204   0.727   6.169  0.4669  0.8656  0.6478
 7542SOL     OW23003   2.788   2.626   4.565 -0.1624 -0.3748 -0.0969
 7542SOL    HW123004   2.826   2.570   4.632  1.8668  1.4072  0.3833
 7542SOL    HW223005   2.856   2.693   4.549 -0.7513 -0.4022 -3.5296
 7543SOL     OW23006   0.907   4.187   0.684  0.0733  0.0562  0.0591
 7543SOL    HW123007   0.919   4.263   0.626  1.2664 -0.8342 -0.9141
 7543SOL    HW223008   0.832   4.140   0.647  0.4631 -0.1934 -0.4289
 7544SOL     OW23009   2.638   0.106   2.157  0.2444 -0.3298  0.0420
 7544SOL    HW123010   2.568   0.115   2.093  0.4030 -0.4697 -0.1505
 7544SOL    HW223011   2.620   0.175   2.222 -1.1685 -1.5851  1.0435
 7545SOL     OW23012   6.155   3.597   1.609  0.1512  0.4125  0.4243
 7545SOL    HW123013   6.208   3.627   1.682 -0.8991  0.8676  1.0307
 7545SOL    HW223014   6.183   3.651   1.535  0.8619  0.3076  0.6097
 7546SOL     OW23015   1.151   4.081   3.917 -0.2135 -0.0989  0.0004
 7546SOL    HW123016   1.080   4.133   3.879 -1.0879 -0.4439  1.0930
 7546SOL    HW223017   1.214   4.146   3.948 -0.2992  0.2390 -0.5271
 7547SOL     OW23018   0.708   3.341   3.360  0.2782 -0.3002 -0.4087
 7547SOL    HW123019   0.803   3.335   3.367  0.2524  0.5722  1.3073
 7547SOL    HW223020   0.677   3.342   3.451 -1.3920 -0.7497 -0.9273
 7548SOL     OW23021   1.324   2.167   5.683  0.0577 -0.2753  0.0785
 7548SOL    HW123022   1.379   2.129   5.614  1.2589 -0.1011  0.9093
 7548SOL    HW223023   1.244   2.115   5.682  0.2726 -0.6049 -1.0903
 7549SOL     OW23024   4.917   6.672   6.379 -0.1036 -0.1428 -0.0438
 7549SOL    HW123025   4.959   6.731   6.316 -1.9524  0.3065 -0.9291
 7549SOL    HW223026   4.975   6.596   6.382  0.9131  0.5527 -0.9810
 7550SOL     OW23027   1.980   2.902   2.301 -0.0479 -0.0223 -0.0106
 7550SOL    HW123028   1.915   2.930   2.237 -0.0141  1.7479  0.6818
 7550SOL    HW223029   1.930   2.881   2.379  0.2040  2.2542  0.8360
 7551SOL     OW23030   0.066   1.193   1.534 -0.1165 -0.1609 -0.2922
 7551SOL    HW123031   0.090   1.253   1.463 -0.5424  2.4478  1.6295
 7551SOL    HW223032   0.126   1.119   1.524  1.2744  1.1129 -2.0749
 7552SOL     OW23033   4.038   2.168   1.598  0.3243  0.0029  0.1278
 7552SOL    HW123034   4.116   2.122   1.566  0.5452  1.0409 -0.8902
 7552SOL    HW223035   4.045   2.256   1.561 -1.4212  0.0655 -0.1309
 7553SOL     OW23036   0.379   4.460   1.361 -0.2662  0.3103  0.3638
 7553SOL    HW123037   0.469   4.448   1.389  0.2217 -1.3666 -1.6537
 7553SOL    HW223038   0.381   4.539   1.306 -0.0027  0.1803  0.1895
 7554SOL     OW23039   1.193   5.470   6.152  0.0503 -0.1994 -0.0074
 7554SOL    HW123040   1.113   5.419   6.146  0.4846 -0.9306  0.2527
 7554SOL    HW223041   1.243   5.428   6.222  0.3705  0.6528  0.2907
 7555SOL     OW23042   1.752   3.757   5.126 -0.0594 -0.2549 -0.2505
 7555SOL    HW123043   1.755   3.808   5.045  0.2526 -0.3702 -0.3135
 7555SOL    HW223044   1.659   3.749   5.147 -0.1120  0.2651 -0.2874
 7556SOL     OW23045   3.175   1.140   0.968 -0.7147 -0.1331 -0.4592
 7556SOL    HW123046   3.205   1.222   0.930  0.3013  0.4271  1.4373
 7556SOL    HW223047   3.254   1.097   1.001 -1.2293 -1.8553 -1.3190
 7557SOL     OW23048   0.115   3.866   4.093 -0.9899 -0.1498  0.0409
 7557SOL    HW123049   0.141   3.888   4.003 -0.0904 -2.1640 -0.2377
 7557SOL    HW223050   0.045   3.802   4.082 -0.5002 -0.8173  0.7625
 7558SOL     OW23051   5.731   6.686   3.001  0.4253  0.0992 -0.1478
 7558SOL    HW123052   5.814   6.727   3.024  1.6047 -1.9080 -0.5181
 7558SOL    HW223053   5.746   6.651   2.913 -0.7877 -0.3710 -0.1811
 7559SOL     OW23054   2.429   6.196   4.975 -0.3582 -0.4773 -0.1028
 7559SOL    HW123055   2.338   6.198   4.945 -0.3692  0.6578 -0.0510
 7559SOL    HW223056   2.462   6.284   4.956  0.0185 -0.0991  1.9707
 7560SOL     OW23057   0.411   2.964   2.517  0.4048 -0.3826 -0.1518
 7560SOL    HW123058   0.461   2.887   2.489  0.9028 -0.1359  0.0366
 7560SOL    HW223059   0.475   3.036   2.515 -0.3016  0.2495 -1.3802
 7561SOL     OW23060   5.602   6.608   1.085  0.1804  0.1573 -1.1113
 7561SOL    HW123061   5.620   6.522   1.124  2.0634  0.9195 -0.1398
 7561SOL    HW223062   5.511   6.604   1.058 -0.3491 -1.4644  0.7123
 7562SOL     OW23063   2.952   5.656   5.996 -1.2189 -0.2874  0.0778
 7562SOL    HW123064   3.044   5.678   6.011 -1.4253  0.0782  0.8531
 7562SOL    HW223065   2.950   5.560   5.997 -0.8760 -0.2931  0.2206
 7563SOL     OW23066   6.577   6.118   0.283  1.2918 -0.0879 -0.8323
 7563SOL    HW123067   6.611   6.113   0.373 -0.3191 -1.3066 -0.2463
 7563SOL    HW223068   6.492   6.160   0.293 -1.3126 -4.7266 -0.9404
 7564SOL     OW23069   0.767   6.048   0.372  0.1948  0.0676  0.2891
 7564SOL    HW123070   0.841   5.990   0.385  0.7769  0.5804 -0.5609
 7564SOL    HW223071   0.806   6.129   0.338 -0.6643  0.6721  0.7046
 7565SOL     OW23072   2.947   6.634   2.080  0.4923 -0.4690  0.1266
 7565SOL    HW123073   2.867   6.584   2.095  0.6323 -0.7359 -0.0137
 7565SOL    HW223074   2.950   6.696   2.152  0.5420 -0.9449  0.5376
 7566SOL     OW23075   5.865   4.086   5.710 -0.3761 -0.1624  0.4952
 7566SOL    HW123076   5.880   4.053   5.622  1.1654  0.5592  0.4570
 7566SOL    HW223077   5.769   4.089   5.718 -0.5636  0.6895 -1.4947
 7567SOL     OW23078   0.712   4.712   0.558 -0.2637  0.4473 -0.3190
 7567SOL    HW123079   0.726   4.766   0.636 -1.0401  1.5322 -0.9081
 7567SOL    HW223080   0.635   4.751   0.516 -1.0346 -1.3147 -0.6111
 7568SOL     OW23081   4.726   0.825   3.394  0.1874  0.2631 -0.4775
 7568SOL    HW123082   4.746   0.738   3.430 -1.1275  0.0183 -0.2833
 7568SOL    HW223083   4.768   0.886   3.453  1.7575 -0.2383 -1.0169
 7569SOL     OW23084   6.778   4.976   5.549 -0.3018 -0.2264 -0.2405
 7569SOL    HW123085   6.869   4.975   5.521 -0.2140 -1.5086  0.0210
 7569SOL    HW223086   6.759   5.068   5.566  0.8369  0.0966 -0.6141
 7570SOL     OW23087   6.732   3.246   4.906 -0.4796 -0.4670 -0.6363
 7570SOL    HW123088   6.690   3.312   4.962 -1.8601 -0.7659 -1.2765
 7570SOL    HW223089   6.771   3.298   4.835 -0.9680 -0.2735 -0.7708
 7571SOL     OW23090   3.520   3.570   1.176 -0.4019  0.1509  0.2119
 7571SOL    HW123091   3.573   3.617   1.240  0.1126  1.2710 -1.0021
 7571SOL    HW223092   3.432   3.571   1.213 -0.0523  0.4891  1.0550
 7572SOL     OW23093   5.258   2.089   5.775  0.3778 -0.0816 -0.0087
 7572SOL    HW123094   5.199   2.164   5.768 -0.2942 -0.4132  1.6759
 7572SOL    HW223095   5.230   2.030   5.705 -1.4803 -0.3361  0.8841
 7573SOL     OW23096   6.272   4.979   3.305  0.0231 -0.1687  0.3556
 7573SOL    HW123097   6.358   5.020   3.311  0.0554  0.3045 -2.3663
 7573SOL    HW223098   6.247   4.964   3.397  2.8251 -0.0640  1.2311
 7574SOL     OW23099   1.503   2.789   5.576 -0.0518  0.0547  0.3383
 7574SOL    HW123100   1.483   2.883   5.581  1.0790  0.3581 -0.3172
 7574SOL    HW223101   1.421   2.746   5.597 -0.0599  1.1644  2.9609
 7575SOL     OW23102   5.541   6.201   2.613  0.7383 -0.4450  0.5177
 7575SOL    HW123103   5.563   6.134   2.677 -0.6679 -0.5896  0.8791
 7575SOL    HW223104   5.505   6.273   2.665  0.0465 -0.3629 -0.0697
 7576SOL     OW23105   5.952   5.956   5.348  0.5849 -0.5491 -0.7588
 7576SOL    HW123106   5.860   5.972   5.368  0.4397 -0.0260 -1.7448
 7576SOL    HW223107   5.982   5.895   5.415 -0.4758 -0.7154 -0.4270
 7577SOL     OW23108   3.309   0.138   5.201  0.1165  0.3773 -0.1140
 7577SOL    HW123109   3.348   0.079   5.136 -0.6248  0.8336 -1.0122
 7577SOL    HW223110   3.291   0.218   5.152 -1.6029  0.3118  0.3266
 7578SOL     OW23111   4.760   2.736   3.384  0.5975 -1.0244  0.0565
 7578SOL    HW123112   4.690   2.794   3.353 -0.7425 -2.2890  0.5858
 7578SOL    HW223113   4.822   2.794   3.429 -0.5916  0.0254  0.3997
 7579SOL     OW23114   1.545   3.427   6.363 -0.0327 -0.4221 -0.4790
 7579SOL    HW123115   1.630   3.384   6.358  0.3522  0.0755  1.1798
 7579SOL    HW223116   1.556   3.494   6.431 -0.8691  1.6732 -2.2623
 7580SOL     OW23117   2.419   0.383   2.052  0.0697 -0.7545 -0.6135
 7580SOL    HW123118   2.404   0.306   1.998  0.7110 -0.9634 -0.5053
 7580SOL    HW223119   2.499   0.422   2.017 -0.8261  0.4970 -1.3752
 7581SOL     OW23120   2.158   4.312   5.179 -0.3484 -0.3829  0.3557
 7581SOL    HW123121   2.072   4.351   5.162 -1.1331 -2.3326 -0.4319
 7581SOL    HW223122   2.142   4.252   5.252 -0.1876 -2.3186 -1.1439
 7582SOL     OW23123   6.372   5.905   3.258 -0.2026  0.1769 -0.5658
 7582SOL    HW123124   6.307   5.947   3.315  1.2216 -0.3704  1.5926
 7582SOL    HW223125   6.370   5.956   3.177 -1.4150  1.8210  0.4341
 7583SOL     OW23126   6.081   1.212   6.521 -0.7945 -0.1066  0.7837
 7583SOL    HW123127   6.108   1.277   6.456 -0.6916 -1.6143 -0.7124
 7583SOL    HW223128   5.991   1.192   6.499 -0.2051 -1.9695 -0.0716
 7584SOL     OW23129   5.246   2.200   4.253  0.3732  0.1255 -0.5488
 7584SOL    HW123130   5.334   2.162   4.242 -0.0362 -0.2751 -2.8593
 7584SOL    HW223131   5.259   2.294   4.245  0.4750  0.0051 -1.9097
 7585SOL     OW23132   6.028   2.208   1.637 -0.5179  0.2162  0.3866
 7585SOL    HW123133   6.047   2.295   1.603 -0.9443 -0.2006 -0.9994
 7585SOL    HW223134   6.114   2.172   1.661 -0.0658  0.1830 -1.1843
 7586SOL     OW23135   3.441   3.980   6.083  0.0144  0.0116 -0.2662
 7586SOL    HW123136   3.398   4.061   6.111  0.8148  0.4222 -0.1978
 7586SOL    HW223137   3.386   3.947   6.011 -0.4612  0.4674 -0.1182
 7587SOL     OW23138   4.085   3.887   4.310 -0.4212 -0.5911  0.1530
 7587SOL    HW123139   4.070   3.913   4.219  0.3993  0.8676  0.4075
 7587SOL    HW223140   4.006   3.838   4.334 -0.8523 -0.5933 -1.1843
 7588SOL     OW23141   4.812   2.746   0.038 -0.6870  0.7361 -0.2406
 7588SOL    HW123142   4.777   2.832   0.016  1.1403  1.3210 -0.9936
 7588SOL    HW223143   4.824   2.703  -0.047 -1.1376 -0.0922  0.1042
 7589SOL     OW23144   0.667   2.704   1.072 -0.3917 -0.8331 -0.0983
 7589SOL    HW123145   0.751   2.671   1.103  0.2298 -0.1219 -0.9569
 7589SOL    HW223146   0.675   2.799   1.077 -1.3401 -0.7545  0.2717
 7590SOL     OW23147   5.800   2.257   1.166 -0.6738  0.1362  0.3270
 7590SOL    HW123148   5.818   2.272   1.074  2.7092 -2.9288  0.2332
 7590SOL    HW223149   5.869   2.305   1.212 -1.2284  0.1700  1.1515
 7591SOL     OW23150   3.505   5.070   1.454  0.4557 -0.2867  0.1640
 7591SOL    HW123151   3.465   5.022   1.526  1.2050  0.4509  1.0920
 7591SOL    HW223152   3.503   5.162   1.482  1.0545 -0.0295 -0.6129
 7592SOL     OW23153   2.466   4.987   4.417 -0.5607 -0.2112 -0.1642
 7592SOL    HW123154   2.488   4.928   4.490 -0.6839 -0.6060 -0.4427
 7592SOL    HW223155   2.371   4.981   4.409 -0.6602  0.6131  0.2942
 7593SOL     OW23156   1.329   0.246   5.701  0.1678 -0.3350 -0.3689
 7593SOL    HW123157   1.329   0.229   5.796 -1.2911 -1.8690 -0.5895
 7593SOL    HW223158   1.245   0.289   5.685  0.7684  0.6754 -0.8749
 7594SOL     OW23159   0.329   0.200   2.310 -0.6780 -0.5979  0.6407
 7594SOL    HW123160   0.403   0.151   2.272  0.3726  1.7949 -0.6698
 7594SOL    HW223161   0.370   0.255   2.377 -0.7009  2.5088 -1.6982
 7595SOL     OW23162   2.241   2.008   1.387  0.0871 -0.8966 -0.1485
 7595SOL    HW123163   2.316   2.026   1.445 -0.6102 -2.8457  1.4988
 7595SOL    HW223164   2.199   2.093   1.375  2.1907  0.1382 -0.6216
 7596SOL     OW23165   4.296   6.657   3.043 -0.2920  0.4199 -0.3883
 7596SOL    HW123166   4.237   6.590   3.007 -1.1978  1.8406 -1.6711
 7596SOL    HW223167   4.341   6.612   3.115 -2.6001 -0.8844  0.3825
 7597SOL     OW23168   3.385   4.344   0.021  0.1148 -0.3341  0.3244
 7597SOL    HW123169   3.366   4.260   0.062 -2.5237  0.7933  1.6789
 7597SOL    HW223170   3.360   4.333  -0.071 -1.0928 -0.7726  0.6954
 7598SOL     OW23171   1.934   1.205   2.781 -0.0061 -0.1828 -0.4316
 7598SOL    HW123172   1.885   1.236   2.857  0.2676  0.3412 -0.4677
 7598SOL    HW223173   2.013   1.259   2.778  0.7700 -1.2541 -0.1585
 7599SOL     OW23174   3.138   5.207   0.438 -0.0772 -0.5621  0.3588
 7599SOL    HW123175   3.065   5.226   0.496 -0.7505  0.3178 -0.7532
 7599SOL    HW223176   3.102   5.148   0.371 -0.3935  1.5279 -1.4153
 7600SOL     OW23177   4.682   6.808   6.461  0.2747 -0.2622 -0.4221
 7600SOL    HW123178   4.738   6.747   6.413 -0.7944 -0.2041 -1.8210
 7600SOL    HW223179   4.707   6.894   6.427  0.1671 -0.1319 -0.1746
 7601SOL     OW23180   1.772   1.079   2.589  0.4765  0.6320 -0.3135
 7601SOL    HW123181   1.850   1.063   2.536  0.8004 -0.0182  0.3329
 7601SOL    HW223182   1.803   1.133   2.662  0.1904  0.8940 -0.3836
 7602SOL     OW23183   6.274   3.683   0.398  0.0199 -0.4881 -0.7515
 7602SOL    HW123184   6.209   3.685   0.328  0.7848 -0.2487 -1.4786
 7602SOL    HW223185   6.316   3.769   0.393 -1.1663  0.2702  1.2440
 7603SOL     OW23186   6.296   2.693   3.185  0.3788 -0.1311  0.1437
 7603SOL    HW123187   6.366   2.667   3.244  2.0908  0.5559 -1.5028
 7603SOL    HW223188   6.255   2.769   3.228  1.8400  0.5978  0.2975
 7604SOL     OW23189   1.902   4.238   1.014 -0.9435  0.1827 -0.4299
 7604SOL    HW123190   1.907   4.157   1.065  1.4268  1.7687  2.1388
 7604SOL    HW223191   1.832   4.288   1.057 -0.3910  0.6611 -0.0731
 7605SOL     OW23192   5.621   4.250   1.967  0.2574 -0.4798 -0.5328
 7605SOL    HW123193   5.711   4.283   1.968  0.7642 -1.7437  0.8564
 7605SOL    HW223194   5.631   4.156   1.949 -0.7361 -0.7447  0.2384
 7606SOL     OW23195   1.433   5.017   1.802 -0.2625  0.4366 -0.6152
 7606SOL    HW123196   1.378   5.011   1.880 -0.8875 -0.2404 -1.0967
 7606SOL    HW223197   1.374   4.998   1.729  0.5060  0.1602 -1.1816
 7607SOL     OW23198   6.180   5.522   3.674  0.1694 -0.4245 -0.6306
 7607SOL    HW123199   6.176   5.551   3.582  2.2941  0.0635 -0.6226
 7607SOL    HW223200   6.273   5.525   3.696 -0.3052 -0.4674  1.5900
 7608SOL     OW23201   3.534   5.087   5.944  0.8091  0.1784  0.8185
 7608SOL    HW123202   3.568   5.175   5.923  0.4046 -0.2703 -2.0936
 7608SOL    HW223203   3.612   5.032   5.950  0.9068  0.1714 -0.4239
 7609SOL     OW23204   5.344   3.734   3.427  0.0859  0.3335 -0.1954
 7609SOL    HW123205   5.432   3.709   3.456  0.0508 -2.0680 -1.8591
 7609SOL    HW223206   5.356   3.820   3.385  1.6250  0.1111 -0.2714
 7610SOL     OW23207   6.245   5.582   2.978 -0.0831  0.0335  0.4786
 7610SOL    HW123208   6.327   5.539   3.001 -0.3298 -1.2872 -0.9246
 7610SOL    HW223209   6.177   5.526   3.017 -0.3404  0.8368  1.1994
 7611SOL     OW23210   5.601   3.310   2.184  0.2784  0.2092  0.6947
 7611SOL    HW123211   5.610   3.294   2.278 -0.8181  0.8103  0.9264
 7611SOL    HW223212   5.507   3.324   2.172  0.5847  1.6144 -0.2367
 7612SOL     OW23213   3.253   0.989   0.705 -0.2181  0.8275  0.5475
 7612SOL    HW123214   3.315   1.006   0.634 -0.4059 -0.3288  0.0991
 7612SOL    HW223215   3.264   1.065   0.763  0.4294  1.4563 -0.3501
 7613SOL     OW23216   0.125   4.141   1.295  0.2078  0.0406  0.4420
 7613SOL    HW123217   0.127   4.046   1.286  1.7646  0.1752 -1.6292
 7613SOL    HW223218   0.048   4.169   1.245  0.0465 -0.1003  0.6127
 7614SOL     OW23219   6.192   5.157   2.085 -0.1850  0.0443  0.0058
 7614SOL    HW123220   6.117   5.102   2.061  0.7398 -0.9787 -0.6243
 7614SOL    HW223221   6.215   5.127   2.173 -0.1520 -0.0461 -0.0335
 7615SOL     OW23222   5.209   6.581   2.703 -0.3076  0.6243  0.4686
 7615SOL    HW123223   5.124   6.543   2.679 -0.2441  0.8358 -0.1137
 7615SOL    HW223224   5.246   6.610   2.620  0.3900  0.4290  0.7087
 7616SOL     OW23225   3.777   0.645   0.725 -0.1290  0.0805 -0.1300
 7616SOL    HW123226   3.813   0.726   0.762  0.5521 -1.1064  1.9370
 7616SOL    HW223227   3.696   0.629   0.775 -0.8683  0.0388 -1.2901
 7617SOL     OW23228   5.449   2.653   1.196 -0.2083  0.7595  0.2556
 7617SOL    HW123229   5.365   2.638   1.153  0.6071 -1.7424 -0.7155
 7617SOL    HW223230   5.471   2.568   1.235  2.0600  1.1794  0.0351
 7618SOL     OW23231   6.614   1.158   5.453  0.7040 -0.2068  0.1950
 7618SOL    HW123232   6.685   1.210   5.493  0.3279 -0.4112  1.1603
 7618SOL    HW223233   6.573   1.218   5.390  0.3005  0.6804  1.2623
 7619SOL     OW23234   5.876   4.349   1.529 -0.1715 -0.0240 -0.1937
 7619SOL    HW123235   5.942   4.329   1.594 -0.9341  1.5441  1.1402
 7619SOL    HW223236   5.884   4.443   1.514 -2.0049  0.1993 -0.0675
 7620SOL     OW23237   0.886   0.990   4.333 -0.3862 -0.2043 -0.0130
 7620SOL    HW123238   0.951   1.020   4.397  0.6132  1.5872 -1.7343
 7620SOL    HW223239   0.909   0.899   4.316  2.2092  0.5679 -1.0873
 7621SOL     OW23240   1.685   1.698   6.392 -0.8197  0.1476 -0.9421
 7621SOL    HW123241   1.607   1.669   6.440 -0.8341 -0.3722 -1.2683
 7621SOL    HW223242   1.666   1.676   6.301 -0.8588  1.2690 -1.2160
 7622SOL     OW23243   1.420   0.994   2.971 -1.1999 -0.0559  0.0904
 7622SOL    HW123244   1.373   1.054   3.029 -3.2149 -0.8420 -0.6557
 7622SOL    HW223245   1.445   1.048   2.896  0.7925  0.7945  1.2864
 7623SOL     OW23246   3.788   1.329   1.950  0.3046 -0.0208 -0.0418
 7623SOL    HW123247   3.774   1.423   1.956  1.4555  0.3219 -1.9403
 7623SOL    HW223248   3.705   1.295   1.916 -0.2325  0.2334  0.9757
 7624SOL     OW23249   2.741   0.676   5.110 -0.0285 -0.3701  0.2155
 7624SOL    HW123250   2.780   0.590   5.127 -0.6797 -0.5626  0.7863
 7624SOL    HW223251   2.755   0.725   5.191  2.0375  0.7543 -0.7535
 7625SOL     OW23252   6.016   4.837   4.552  0.3618 -0.3059 -0.0198
 7625SOL    HW123253   5.944   4.901   4.554  2.2206  1.9691 -0.8956
 7625SOL    HW223254   5.975   4.756   4.522 -2.4968 -0.1864  3.0055
 7626SOL     OW23255   0.169   2.533   6.361 -0.0901  0.3210  0.2919
 7626SOL    HW123256   0.167   2.621   6.325  0.5006  0.1788 -0.0986
 7626SOL    HW223257   0.262   2.512   6.369 -0.2238 -0.4511 -0.0747
 7627SOL     OW23258   6.766   2.530   1.490  0.4074  0.6631  0.0782
 7627SOL    HW123259   6.792   2.618   1.516 -0.2993  0.8852  0.0418
 7627SOL    HW223260   6.707   2.501   1.560  0.6624  0.2097  0.1068
 7628SOL     OW23261   6.832   1.619   5.772 -0.0843 -0.2129 -0.1794
 7628SOL    HW123262   6.888   1.697   5.767  0.2013 -0.4048  0.0047
 7628SOL    HW223263   6.743   1.654   5.769  0.0322  0.1788  0.6335
 7629SOL     OW23264   4.707   1.262   1.403  0.6370 -0.5696 -0.8260
 7629SOL    HW123265   4.779   1.214   1.363  0.3538 -2.6010  0.9363
 7629SOL    HW223266   4.628   1.220   1.370  0.3197 -0.0461 -0.7528
 7630SOL     OW23267   0.497   1.624   2.709 -0.4641 -0.3193 -0.2944
 7630SOL    HW123268   0.584   1.659   2.727  0.8663 -3.7253  0.8588
 7630SOL    HW223269   0.437   1.694   2.734  1.8028  0.4535  4.0310
 7631SOL     OW23270   0.751   5.612   5.191 -0.4468  0.1006  0.2187
 7631SOL    HW123271   0.783   5.702   5.178 -1.1928  0.4420  0.7068
 7631SOL    HW223272   0.750   5.575   5.103  0.3754  0.3891  0.0725
 7632SOL     OW23273   5.048   6.246   6.744  0.0742  0.1464 -0.3222
 7632SOL    HW123274   5.052   6.321   6.804 -0.0606 -0.3183  0.2729
 7632SOL    HW223275   4.970   6.198   6.772  1.1119 -1.1483  0.3996
 7633SOL     OW23276   4.999   6.480   1.910  0.2005  0.0621 -0.2289
 7633SOL    HW123277   4.979   6.438   1.994  0.9695  1.4635  0.6951
 7633SOL    HW223278   5.007   6.573   1.931  0.9895  0.3735 -1.7638
 7634SOL     OW23279   6.822   5.590   2.876 -0.1980 -0.2950  0.4932
 7634SOL    HW123280   6.821   5.561   2.784 -0.2094  2.3074 -0.4112
 7634SOL    HW223281   6.734   5.626   2.890 -0.7926 -2.1774  2.1506
 7635SOL     OW23282   3.968   6.132   5.257 -0.2457 -0.2093  0.3943
 7635SOL    HW123283   3.992   6.221   5.285 -1.9609  0.3118  0.2989
 7635SOL    HW223284   4.050   6.096   5.222  0.7915  0.8634  1.5877
 7636SOL     OW23285   3.805   5.092   3.536 -0.4333  0.1534  0.0177
 7636SOL    HW123286   3.805   4.999   3.555 -1.8099  0.2053  0.3605
 7636SOL    HW223287   3.847   5.132   3.612  0.7402 -0.2082 -0.4112
 7637SOL     OW23288   3.576   3.802   2.919  0.1127  0.0498 -0.2056
 7637SOL    HW123289   3.571   3.721   2.868  1.1167 -0.6569  0.7682
 7637SOL    HW223290   3.633   3.780   2.993 -1.3283  1.0158  1.2591
 7638SOL     OW23291   4.736   3.539   4.535 -0.4175  0.0695 -0.2330
 7638SOL    HW123292   4.737   3.492   4.618 -1.3133  0.6629  0.1304
 7638SOL    HW223293   4.704   3.475   4.471  4.0918 -1.7239 -1.0320
 7639SOL     OW23294   2.883   0.932   6.778 -0.0385 -1.0024 -0.3663
 7639SOL    HW123295   2.940   0.981   6.718  0.0752 -0.7778 -0.0794
 7639SOL    HW223296   2.823   0.884   6.720  0.2603 -1.0238 -0.6656
 7640SOL     OW23297   5.906   5.787   2.890 -0.3761 -0.2616 -0.1097
 7640SOL    HW123298   5.992   5.744   2.890 -0.9651 -1.6000  1.7550
 7640SOL    HW223299   5.855   5.739   2.824 -0.4312 -1.2202  0.5998
 7641SOL     OW23300   2.375   1.019   4.699 -0.3559 -0.1041  0.7855
 7641SOL    HW123301   2.335   0.954   4.757 -2.4054 -0.0001 -0.4192
 7641SOL    HW223302   2.411   0.968   4.626 -1.8894  0.0565 -0.1173
 7642SOL     OW23303   2.695   1.931   1.563  0.5560 -0.0512  0.0982
 7642SOL    HW123304   2.634   1.858   1.550  0.1378  0.2019  0.6059
 7642SOL    HW223305   2.716   1.962   1.475 -0.9257  0.5875 -0.0534
 7643SOL     OW23306   6.575   0.279   6.542 -1.0945  0.1953 -0.2305
 7643SOL    HW123307   6.528   0.319   6.616 -0.7783 -0.1318  0.1486
 7643SOL    HW223308   6.636   0.347   6.513 -2.8257  1.2043 -1.7101
 7644SOL     OW23309   3.867   4.895   2.525  0.7847 -0.3681  0.3012
 7644SOL    HW123310   3.879   4.843   2.446  2.0799  0.9053 -0.3836
 7644SOL    HW223311   3.955   4.901   2.563  0.4490  0.3392  0.9917
 7645SOL     OW23312   0.749   0.284   5.827 -0.3931 -0.0015 -0.0899
 7645SOL    HW123313   0.721   0.315   5.742 -0.1689 -0.6245 -0.3996
 7645SOL    HW223314   0.668   0.261   5.873 -0.6313  1.7627  0.4589
 7646SOL     OW23315   1.710   5.523   0.036  0.2354 -0.2233  0.1034
 7646SOL    HW123316   1.717   5.449   0.097 -0.9624  0.1507  0.7253
 7646SOL    HW223317   1.619   5.521   0.007 -0.1205  1.6439  0.9622
 7647SOL     OW23318   6.822   6.342   0.428 -0.5917  0.0661  0.5188
 7647SOL    HW123319   6.762   6.301   0.491 -0.8275 -0.5370 -0.0834
 7647SOL    HW223320   6.906   6.299   0.443 -0.3540  0.7473  1.2051
 7648SOL     OW23321   3.466   6.536   5.411  0.3821 -0.1030  0.1401
 7648SOL    HW123322   3.467   6.585   5.494  0.2500  0.9288 -0.4456
 7648SOL    HW223323   3.377   6.501   5.405  0.0605  0.7270 -0.0647
 7649SOL     OW23324   6.469   2.133   4.110 -0.4400  0.8714  0.0252
 7649SOL    HW123325   6.397   2.072   4.090 -0.0343  0.0923  0.8640
 7649SOL    HW223326   6.432   2.219   4.093 -1.2497  0.4252 -0.5522
 7650SOL     OW23327   0.144   2.394   1.145  0.2411 -0.2675 -0.0479
 7650SOL    HW123328   0.061   2.355   1.118  1.7611 -4.0949  0.2044
 7650SOL    HW223329   0.176   2.439   1.068 -1.3041 -0.0997 -0.6304
 7651SOL     OW23330   3.212   1.520   2.974 -0.0896  0.5370  0.3305
 7651SOL    HW123331   3.301   1.532   2.943  0.5027 -1.1052  1.2630
 7651SOL    HW223332   3.157   1.547   2.901  1.0960  2.9131  0.2090
 7652SOL     OW23333   4.266   2.977   3.233  0.3317  0.5544  0.0918
 7652SOL    HW123334   4.180   2.935   3.242  0.5447  0.1476  0.2597
 7652SOL    HW223335   4.249   3.070   3.247  0.2198  0.2724  2.0916
 7653SOL     OW23336   2.929   4.643   6.534 -0.1063 -0.0668  0.0747
 7653SOL    HW123337   2.875   4.586   6.479 -1.2710  1.7308 -0.7430
 7653SOL    HW223338   2.866   4.694   6.585  0.7878  1.8221 -0.6132
 7654SOL     OW23339   6.489   6.121   5.202 -0.1043 -0.5833 -0.0056
 7654SOL    HW123340   6.527   6.070   5.130 -0.6607  0.4185 -1.0446
 7654SOL    HW223341   6.395   6.102   5.197  0.0444 -2.0461  1.7414
 7655SOL     OW23342   2.144   1.867   1.094 -0.1389  0.4124 -0.6473
 7655SOL    HW123343   2.218   1.818   1.131 -0.0732  0.4222 -0.7662
 7655SOL    HW223344   2.182   1.951   1.069 -0.2255  0.4789 -0.5586
 7656SOL     OW23345   3.895   4.690   1.391  0.2868 -0.0367 -0.3350
 7656SOL    HW123346   3.838   4.656   1.323 -0.8381 -0.6272  0.8595
 7656SOL    HW223347   3.856   4.775   1.414  0.3398 -0.0879 -0.0552
 7657SOL     OW23348   6.512   4.227   4.199 -0.2972 -0.5356 -0.3870
 7657SOL    HW123349   6.455   4.221   4.275 -1.0869 -0.2899 -0.9485
 7657SOL    HW223350   6.600   4.213   4.234 -0.5289  0.6255  0.7379
 7658SOL     OW23351   6.127   0.363   4.293  0.1224  1.0564 -0.3099
 7658SOL    HW123352   6.163   0.314   4.219  2.0474 -0.0642  1.2716
 7658SOL    HW223353   6.162   0.319   4.370 -0.1107  3.4211  1.2398
 7659SOL     OW23354   2.805   0.692   4.440  0.0144 -0.4400 -0.0038
 7659SOL    HW123355   2.754   0.683   4.360  0.9905  0.2337 -0.7304
 7659SOL    HW223356   2.770   0.625   4.499 -0.8097 -0.8579 -0.9444
 7660SOL     OW23357   3.987   6.809   5.261 -0.2926  0.4832 -0.0810
 7660SOL    HW123358   3.939   6.785   5.340 -0.6860 -0.3340 -0.5469
 7660SOL    HW223359   4.069   6.759   5.266  0.0844  1.1221  0.2373
 7661SOL     OW23360   5.213   0.244   3.365  0.5123 -0.5877 -0.2425
 7661SOL    HW123361   5.263   0.296   3.428  0.2946 -1.6231  0.8213
 7661SOL    HW223362   5.265   0.164   3.354  0.2264 -0.6850 -0.8903
 7662SOL     OW23363   3.646   0.754   1.876 -0.1284  0.4737  0.5010
 7662SOL    HW123364   3.634   0.667   1.837  1.9639  0.7411 -0.9507
 7662SOL    HW223365   3.644   0.814   1.801  3.0081  1.1331  0.7945
 7663SOL     OW23366   0.304   3.603   4.420 -0.5868 -0.1324  0.2038
 7663SOL    HW123367   0.336   3.517   4.394  0.1706  0.7971 -2.2040
 7663SOL    HW223368   0.232   3.621   4.359 -0.2418  1.2417  0.1789
 7664SOL     OW23369   0.917   0.158   3.947 -0.2262  0.2568 -0.7228
 7664SOL    HW123370   0.846   0.095   3.932  0.1878  0.1917 -2.5419
 7664SOL    HW223371   0.916   0.172   4.042 -0.9211 -1.7905 -0.3740
 7665SOL     OW23372   0.067   0.578   1.550 -0.2660 -0.8295 -0.1763
 7665SOL    HW123373   0.066   0.673   1.534 -1.6755 -1.0213 -1.3268
 7665SOL    HW223374   0.148   0.548   1.509  0.2537 -0.1106  0.3027
 7666SOL     OW23375   2.617   0.173   2.533  0.7325 -0.6157 -0.0061
 7666SOL    HW123376   2.536   0.142   2.491  0.2833 -1.5053  1.4270
 7666SOL    HW223377   2.625   0.264   2.507 -0.6937 -0.5412 -0.2503
 7667SOL     OW23378   0.879   6.641   0.247  0.2667 -0.3334 -0.2206
 7667SOL    HW123379   0.945   6.709   0.237 -0.3655  0.2446 -0.5922
 7667SOL    HW223380   0.906   6.591   0.323  1.3234 -0.3299 -0.5836
 7668SOL     OW23381   0.676   0.313   4.883 -0.5807 -0.1973 -0.4465
 7668SOL    HW123382   0.690   0.227   4.922  0.3822  0.0606 -0.2009
 7668SOL    HW223383   0.637   0.294   4.798 -1.5653 -0.8180  0.1237
 7669SOL     OW23384   5.503   0.287   2.691 -0.1823 -0.7412 -0.4323
 7669SOL    HW123385   5.408   0.282   2.681 -0.2416 -0.7010  0.1026
 7669SOL    HW223386   5.517   0.326   2.778  0.3210 -0.5547 -0.5914
 7670SOL     OW23387   2.610   5.562   6.780 -0.1723  0.5614  0.1941
 7670SOL    HW123388   2.533   5.610   6.750 -0.5353 -0.9084 -1.4376
 7670SOL    HW223389   2.684   5.618   6.755 -0.6425  2.3071  2.3923
 7671SOL     OW23390   2.538   3.774   3.422  0.1044 -0.3556 -0.2407
 7671SOL    HW123391   2.549   3.784   3.517 -0.8609 -0.3213 -0.1182
 7671SOL    HW223392   2.486   3.851   3.397 -1.1412 -1.2461 -0.4973
 7672SOL     OW23393   3.415   2.374   3.335  0.0954  0.6224 -0.1574
 7672SOL    HW123394   3.325   2.352   3.309  0.5445 -0.1349 -1.1631
 7672SOL    HW223395   3.408   2.396   3.427 -0.8768 -1.0501  0.2185
 7673SOL     OW23396   1.091   4.834   6.019  0.1593 -0.5627 -0.1383
 7673SOL    HW123397   1.109   4.864   5.930 -0.0562 -1.2948 -0.4396
 7673SOL    HW223398   1.144   4.754   6.028  2.1687  0.8293  1.2734
 7674SOL     OW23399   0.836   0.678   5.648 -0.5047  0.1395  0.2328
 7674SOL    HW123400   0.748   0.642   5.645 -1.3738  1.5232  3.9580
 7674SOL    HW223401   0.830   0.760   5.599 -1.2493  0.1677  0.3650
 7675SOL     OW23402   1.831   4.547   5.225 -0.3163 -0.1790  0.2075
 7675SOL    HW123403   1.767   4.549   5.296  0.1321  1.4069  0.6154
 7675SOL    HW223404   1.788   4.497   5.155 -1.6618  0.1356  0.7773
 7676SOL     OW23405   1.413   3.760   5.513  0.0300  0.1809  0.2502
 7676SOL    HW123406   1.374   3.821   5.576  2.4002  0.4157  1.6183
 7676SOL    HW223407   1.339   3.707   5.483 -1.8139  2.4721  0.4057
 7677SOL     OW23408   2.953   4.237   5.133 -0.0356 -0.1838 -0.3360
 7677SOL    HW123409   2.998   4.322   5.134  0.7133 -0.5771  0.9496
 7677SOL    HW223410   2.964   4.205   5.043  0.8604  0.4563 -0.4619
 7678SOL     OW23411   0.140   5.972   6.199  0.1541 -0.0356 -0.2160
 7678SOL    HW123412   0.232   5.949   6.190  0.4264  0.0769  1.8990
 7678SOL    HW223413   0.095   5.915   6.136  1.6443 -0.0512 -1.3132
 7679SOL     OW23414   4.086   0.294   5.079  0.4092  0.1757  0.0578
 7679SOL    HW123415   4.113   0.224   5.138 -2.4607  0.1659  1.5552
 7679SOL    HW223416   4.110   0.263   4.992  1.7226 -1.3691  0.9141
 7680SOL     OW23417   1.556   2.077   3.366  0.5596  0.5680  0.6588
 7680SOL    HW123418   1.491   2.035   3.311  2.7124  0.3697 -1.9535
 7680SOL    HW223419   1.552   2.031   3.450 -2.9746  0.9998  0.8642
 7681SOL     OW23420   4.529   0.639   2.133  0.0174 -0.6522  0.5343
 7681SOL    HW123421   4.593   0.593   2.078 -1.6481 -0.1520 -2.0048
 7681SOL    HW223422   4.507   0.576   2.202  0.6351 -2.2148 -0.6222
 7682SOL     OW23423   1.224   6.722   4.424 -0.0059  0.1644 -0.4575
 7682SOL    HW123424   1.202   6.795   4.481  0.9039  0.0978 -0.0053
 7682SOL    HW223425   1.214   6.644   4.479 -0.8157 -0.0438 -0.8898
 7683SOL     OW23426   4.970   5.644   2.399 -0.2729 -0.4145  0.3205
 7683SOL    HW123427   4.981   5.582   2.327 -0.1305  1.0469 -0.9665
 7683SOL    HW223428   4.930   5.721   2.359 -0.2871  0.4115  1.8301
 7684SOL     OW23429   3.666   4.111   4.013  0.9766 -0.1195 -0.1973
 7684SOL    HW123430   3.597   4.110   4.080 -0.5645  3.2054 -1.5001
 7684SOL    HW223431   3.737   4.061   4.052 -0.4637  0.1800  3.2211
 7685SOL     OW23432   5.384   0.100   1.699  0.1052 -0.1681  0.2376
 7685SOL    HW123433   5.456   0.155   1.732  0.4191 -0.3781 -0.0951
 7685SOL    HW223434   5.357   0.142   1.617  0.3621 -0.5203 -0.0301
 7686SOL     OW23435   6.571   5.177   3.767  0.3587 -0.1773 -0.0908
 7686SOL    HW123436   6.510   5.107   3.791  0.3586 -0.0339  0.3426
 7686SOL    HW223437   6.566   5.183   3.672 -0.6102  0.1217 -0.0253
 7687SOL     OW23438   4.642   0.940   4.548  0.0043  0.3550  0.2384
 7687SOL    HW123439   4.600   0.998   4.484 -1.5440 -2.0418 -1.0491
 7687SOL    HW223440   4.730   0.976   4.558 -0.2483  1.7886 -1.9577
 7688SOL     OW23441   0.558   0.334   0.535  0.0689 -0.1204  0.3423
 7688SOL    HW123442   0.541   0.275   0.462 -0.4044  0.4117  0.0074
 7688SOL    HW223443   0.647   0.315   0.563  0.0823 -0.6572 -0.0689
 7689SOL     OW23444   1.506   1.155   2.752  0.1776 -0.1453  0.0590
 7689SOL    HW123445   1.559   1.233   2.769 -0.9925  0.2741  2.1503
 7689SOL    HW223446   1.506   1.147   2.657  2.3114  0.9847 -0.1066
 7690SOL     OW23447   1.495   0.526   1.547  0.0029 -1.1005 -0.3002
 7690SOL    HW123448   1.527   0.608   1.586 -0.7574 -0.0525 -1.7851
 7690SOL    HW223449   1.574   0.479   1.522  0.4899 -1.3923  1.5802
 7691SOL     OW23450   1.308   1.868   1.963 -0.2728  0.3681 -0.1541
 7691SOL    HW123451   1.284   1.794   2.019  1.7858 -0.8191 -0.7390
 7691SOL    HW223452   1.329   1.938   2.024 -2.7459  0.7093  0.4017
 7692SOL     OW23453   5.402   5.888   1.374  0.1444  0.1006 -0.8610
 7692SOL    HW123454   5.410   5.813   1.315 -0.2815  0.2336 -1.0925
 7692SOL    HW223455   5.410   5.964   1.317  1.6984  0.2504 -0.4763
 7693SOL     OW23456   1.891   2.005   2.583  0.4855  0.1103 -0.1000
 7693SOL    HW123457   1.804   2.042   2.568 -0.2232 -0.7101  1.7239
 7693SOL    HW223458   1.874   1.921   2.625  2.1574 -0.5874 -0.7556
 7694SOL     OW23459   4.839   0.221   1.835  0.1242 -0.5593  0.4065
 7694SOL    HW123460   4.751   0.234   1.798  1.0943 -1.7221 -2.5997
 7694SOL    HW223461   4.827   0.151   1.900 -1.3599  0.2829  1.1023
 7695SOL     OW23462   0.943   5.294   4.705  0.1287  0.1235  0.6849
 7695SOL    HW123463   1.012   5.344   4.660  0.1983  0.2627  0.9447
 7695SOL    HW223464   0.864   5.311   4.654  0.5363 -1.1193 -0.4287
 7696SOL     OW23465   2.820   1.374   5.384 -0.3661 -0.4033  0.2225
 7696SOL    HW123466   2.869   1.307   5.336  2.1721  0.7453  1.0554
 7696SOL    HW223467   2.838   1.455   5.336  1.2689  0.5668  2.3281
 7697SOL     OW23468   5.241   3.866   4.890 -0.4171 -0.4801 -0.5765
 7697SOL    HW123469   5.260   3.953   4.853 -0.7987 -0.9280 -1.8758
 7697SOL    HW223470   5.320   3.843   4.939 -0.1138  0.3749 -0.6485
 7698SOL     OW23471   0.509   2.776   4.053 -0.4266  0.1725  0.0389
 7698SOL    HW123472   0.520   2.868   4.079  2.1077  1.0848 -3.4621
 7698SOL    HW223473   0.421   2.752   4.084 -1.0897  3.6676  1.2986
 7699SOL     OW23474   4.811   5.618   6.408 -0.5106  0.0957 -0.1135
 7699SOL    HW123475   4.729   5.654   6.442 -2.0978 -1.8110 -1.6837
 7699SOL    HW223476   4.815   5.651   6.318 -0.3781 -1.0239 -0.5365
 7700SOL     OW23477   4.592   0.062   1.353  0.4609 -0.7311 -0.1921
 7700SOL    HW123478   4.626   0.149   1.336 -0.4115 -0.4371 -0.5158
 7700SOL    HW223479   4.626   0.008   1.282 -1.1044 -0.0681 -1.5117
 7701SOL     OW23480   1.204   3.641   0.191 -0.0188 -0.6351 -0.1216
 7701SOL    HW123481   1.204   3.638   0.095 -3.6465  0.9767 -0.3301
 7701SOL    HW223482   1.243   3.558   0.217  3.0478 -0.2735 -2.8888
 7702SOL     OW23483   3.174   4.780   5.244 -0.2930  0.2319  0.3116
 7702SOL    HW123484   3.249   4.838   5.256 -0.1665  0.1733 -0.1544
 7702SOL    HW223485   3.178   4.756   5.151 -1.5055  1.0798  0.0218
 7703SOL     OW23486   1.499   4.366   3.736  0.5134  0.4143 -0.2727
 7703SOL    HW123487   1.564   4.377   3.805 -0.0381 -2.9395  0.9561
 7703SOL    HW223488   1.415   4.371   3.780  0.1514 -1.8263 -0.5940
 7704SOL     OW23489   1.406   3.192   4.877  0.5752 -0.4671  0.2758
 7704SOL    HW123490   1.451   3.150   4.951  1.4011  1.3715  0.8601
 7704SOL    HW223491   1.472   3.247   4.836 -0.7649  1.2020  0.2645
 7705SOL     OW23492   2.911   0.009   2.270  0.1409  0.6546 -0.1739
 7705SOL    HW123493   2.819   0.036   2.261  0.5735  1.7881 -1.4852
 7705SOL    HW223494   2.940   0.052   2.350 -0.5328  0.0225  0.4378
 7706SOL     OW23495   3.183   2.775   3.434 -0.0329  0.3802 -0.4952
 7706SOL    HW123496   3.276   2.777   3.455  0.0179 -0.1355 -0.6641
 7706SOL    HW223497   3.148   2.856   3.472  0.1090 -0.3515  1.3220
 7707SOL     OW23498   3.022   0.411   6.210  0.0168  0.6132 -0.1068
 7707SOL    HW123499   3.063   0.375   6.288  1.2181 -0.8270 -1.3449
 7707SOL    HW223500   2.965   0.340   6.178  0.1090  0.9075 -0.9421
 7708SOL     OW23501   0.643   6.805   3.290 -0.3758 -0.0524 -0.6246
 7708SOL    HW123502   0.608   6.718   3.308  0.9882 -0.6653 -0.7652
 7708SOL    HW223503   0.597   6.863   3.351 -0.5197 -1.0554  0.2452
 7709SOL     OW23504   6.549   0.877   5.377  0.0084  0.0587 -0.1107
 7709SOL    HW123505   6.459   0.888   5.349  0.5395  0.6288 -1.7031
 7709SOL    HW223506   6.578   0.966   5.400 -0.1829 -0.2896  1.6104
 7710SOL     OW23507   1.667   5.103   3.197 -0.2859 -0.2616 -0.2316
 7710SOL    HW123508   1.659   5.175   3.260  0.0184 -1.0829  0.7759
 7710SOL    HW223509   1.750   5.062   3.219 -0.6989 -1.2373 -0.4624
 7711SOL     OW23510   5.390   5.338   6.724  0.3228  0.4594  0.2245
 7711SOL    HW123511   5.404   5.347   6.818 -0.1367  1.9066  0.1814
 7711SOL    HW223512   5.361   5.248   6.713  0.5336  0.2184  1.4491
 7712SOL     OW23513   6.386   6.238   3.285  0.2698  0.2325  0.3183
 7712SOL    HW123514   6.356   6.197   3.203  0.1043  0.2107  0.3885
 7712SOL    HW223515   6.481   6.240   3.278  0.2159  1.0941 -0.2908
 7713SOL     OW23516   2.695   5.975   3.399  0.3201  0.0070  0.5204
 7713SOL    HW123517   2.786   5.968   3.427  1.2732  0.8041 -2.0549
 7713SOL    HW223518   2.666   5.884   3.389  0.7492 -0.2557  1.5866
 7714SOL     OW23519   5.110   1.053   5.745 -0.3566  0.2844 -0.0469
 7714SOL    HW123520   5.108   1.134   5.694 -0.0387 -0.1551 -0.7777
 7714SOL    HW223521   5.140   0.987   5.683  0.9425 -0.0983  0.9551
 7715SOL     OW23522   2.871   3.332   2.055  0.1517  0.0501  0.1613
 7715SOL    HW123523   2.895   3.363   2.142  1.5659  0.3762 -0.3079
 7715SOL    HW223524   2.792   3.279   2.068  0.6143 -0.3004  1.7025
 7716SOL     OW23525   3.479   3.814   6.282  0.2675 -0.6461  0.0270
 7716SOL    HW123526   3.387   3.807   6.305  0.4469  2.1492  2.0895
 7716SOL    HW223527   3.481   3.878   6.211  0.6221 -0.2251  0.4056
 7717SOL     OW23528   1.553   5.154   0.455 -0.1835  0.0536  0.2344
 7717SOL    HW123529   1.475   5.145   0.510 -1.6578  0.0109 -1.7364
 7717SOL    HW223530   1.539   5.091   0.384  0.5739  1.5810 -1.3453
 7718SOL     OW23531   0.152   1.088   3.404  0.1947 -0.3775 -0.5007
 7718SOL    HW123532   0.090   1.152   3.439 -1.1738 -3.4221  3.3741
 7718SOL    HW223533   0.237   1.114   3.440 -0.6911 -1.6541  2.8883
 7719SOL     OW23534   0.817   2.578   5.652  0.0295 -0.4728 -0.1857
 7719SOL    HW123535   0.725   2.568   5.627  0.1837  1.1899 -1.6177
 7719SOL    HW223536   0.867   2.550   5.576  0.5976  1.5816 -0.6461
 7720SOL     OW23537   1.569   5.427   3.104 -0.2810  0.7276  0.3571
 7720SOL    HW123538   1.547   5.406   3.195 -0.4958 -1.7455 -0.2171
 7720SOL    HW223539   1.532   5.355   3.053  1.4901  1.0775 -1.5137
 7721SOL     OW23540   5.221   3.335   1.078  0.1102 -0.7617 -0.3458
 7721SOL    HW123541   5.298   3.279   1.079  0.3642 -0.4677 -1.5126
 7721SOL    HW223542   5.254   3.420   1.050 -0.6255 -0.6343 -0.8511
 7722SOL     OW23543   5.320   5.399   2.730 -0.1474  0.2259  0.3677
 7722SOL    HW123544   5.293   5.380   2.640  0.3246 -1.0575  0.4710
 7722SOL    HW223545   5.241   5.385   2.782 -0.7844  2.2790  0.0434
 7723SOL     OW23546   2.303   5.091   1.576  0.2376  0.0818 -0.5715
 7723SOL    HW123547   2.275   5.181   1.588 -1.6036 -0.6174  1.0504
 7723SOL    HW223548   2.308   5.056   1.665 -0.0551 -1.6792 -1.2102
 7724SOL     OW23549   3.973   0.809   2.161  0.0334  0.0261 -0.0943
 7724SOL    HW123550   3.976   0.882   2.223 -0.0735 -0.0544  0.0049
 7724SOL    HW223551   4.024   0.740   2.204 -2.6190 -1.1748  1.3601
 7725SOL     OW23552   5.705   6.094   0.111  0.2527 -0.5885  0.0569
 7725SOL    HW123553   5.689   6.096   0.016 -0.4829 -1.0535  0.1645
 7725SOL    HW223554   5.619   6.080   0.149 -0.1809  3.4990  1.0302
 7726SOL     OW23555   5.109   4.079   2.241 -0.3192 -0.3945 -0.0984
 7726SOL    HW123556   5.166   4.125   2.304 -0.4296  0.5345 -0.6544
 7726SOL    HW223557   5.132   4.117   2.156 -2.0892  0.3512 -0.2857
 7727SOL     OW23558   2.952   1.872   6.102 -1.0252  0.2531 -0.6965
 7727SOL    HW123559   2.951   1.785   6.061 -1.0901 -0.5553  0.9225
 7727SOL    HW223560   2.866   1.881   6.142 -1.3636  1.4977 -1.6765
 7728SOL     OW23561   1.569   6.037   6.060  0.2612  0.2762 -0.5858
 7728SOL    HW123562   1.620   6.077   5.990  0.4002 -1.8963 -1.8120
 7728SOL    HW223563   1.596   5.945   6.059 -2.6169 -0.6504 -0.3288
 7729SOL     OW23564   2.084   6.793   4.817  0.2694  0.3491 -0.1759
 7729SOL    HW123565   2.071   6.842   4.736  0.9008  2.1986  0.7934
 7729SOL    HW223566   2.030   6.714   4.806 -1.0865  1.4123 -1.6504
 7730SOL     OW23567   3.174   5.065   1.949  0.4431  0.0077  0.2363
 7730SOL    HW123568   3.140   5.020   1.872 -2.0693  1.1283  0.5815
 7730SOL    HW223569   3.196   4.995   2.010  0.2558 -0.8280 -0.6355
 7731SOL     OW23570   2.593   5.879   3.033  0.1713 -0.2964 -0.0424
 7731SOL    HW123571   2.671   5.842   3.075 -0.6479 -1.6238  0.3506
 7731SOL    HW223572   2.522   5.863   3.095 -0.6522 -0.2440 -0.9475
 7732SOL     OW23573   1.056   1.081   2.902 -0.6319 -0.2054 -0.1947
 7732SOL    HW123574   1.064   1.130   2.820 -1.0451 -0.8924 -0.6673
 7732SOL    HW223575   1.119   1.121   2.961 -0.3180  0.2990 -0.8594
 7733SOL     OW23576   5.014   2.149   4.628 -0.2421  0.0092 -0.0595
 7733SOL    HW123577   5.054   2.097   4.558 -0.2081  0.9767 -0.7775
 7733SOL    HW223578   4.939   2.097   4.657  0.1023 -0.6786 -0.3984
 7734SOL     OW23579   0.039   5.181   2.617  0.3047 -0.0443 -0.4666
 7734SOL    HW123580  -0.041   5.216   2.656 -0.4228 -0.3484 -1.6320
 7734SOL    HW223581   0.042   5.090   2.646 -0.0809 -0.1904 -0.8758
 7735SOL     OW23582   4.153   0.970   3.774  0.1365 -0.3252  0.4798
 7735SOL    HW123583   4.118   0.901   3.831  1.2780  0.3500  2.0930
 7735SOL    HW223584   4.214   1.018   3.830  0.9365  0.7140 -1.2025
 7736SOL     OW23585   0.324   1.106   5.031 -0.7857 -0.0775 -0.1647
 7736SOL    HW123586   0.409   1.077   5.064 -0.6488  0.0467 -0.4071
 7736SOL    HW223587   0.303   1.184   5.082 -1.3071 -0.7737  0.7201
 7737SOL     OW23588   3.647   0.125   4.570 -0.2266 -0.1551  0.2314
 7737SOL    HW123589   3.671   0.050   4.624  3.3499 -0.9007 -2.0603
 7737SOL    HW223590   3.645   0.090   4.481 -2.5025  1.7140 -0.5347
 7738SOL     OW23591   4.232   0.667   1.725 -0.6326 -0.1959  0.2804
 7738SOL    HW123592   4.283   0.656   1.645 -0.4675 -0.1449  0.3763
 7738SOL    HW223593   4.175   0.591   1.728 -0.0693 -0.6198  0.5252
 7739SOL     OW23594   1.555   0.864   0.461  0.0803 -0.2174 -0.0875
 7739SOL    HW123595   1.561   0.769   0.468 -0.5584 -0.1782  1.2270
 7739SOL    HW223596   1.468   0.879   0.426 -0.7092 -0.0764  1.8120
 7740SOL     OW23597   5.509   3.118   0.256 -0.4083 -0.2795 -0.3501
 7740SOL    HW123598   5.452   3.193   0.240  0.7875  0.9419  0.8092
 7740SOL    HW223599   5.451   3.042   0.249 -1.9347  0.8259 -0.3114
 7741SOL     OW23600   2.841   5.778   4.167  0.2021  0.5688 -0.6626
 7741SOL    HW123601   2.894   5.715   4.118  0.2670  0.4262 -0.4090
 7741SOL    HW223602   2.778   5.724   4.215  0.2496  0.6996 -0.4531
 7742SOL     OW23603   5.645   5.190   5.700 -0.3838  0.5384  0.6736
 7742SOL    HW123604   5.550   5.192   5.692 -0.5128 -1.5805  1.0509
 7742SOL    HW223605   5.664   5.108   5.746  1.7613 -0.4630 -1.7120
 7743SOL     OW23606   4.780   2.922   2.257 -1.2001 -0.2709 -0.1539
 7743SOL    HW123607   4.820   2.956   2.177 -0.2055 -0.1014  0.4057
 7743SOL    HW223608   4.693   2.894   2.229 -0.4518 -1.3444 -1.5669
 7744SOL     OW23609   6.240   1.618   1.098 -0.0400 -0.0139 -0.8842
 7744SOL    HW123610   6.190   1.557   1.152  1.7709 -0.2503  0.6346
 7744SOL    HW223611   6.196   1.702   1.110  0.4775  0.0134  1.2799
 7745SOL     OW23612   4.994   2.826   6.084  0.2632 -0.2652  0.1304
 7745SOL    HW123613   4.981   2.860   6.173 -0.9936 -0.7180  0.1327
 7745SOL    HW223614   4.958   2.738   6.086 -0.9096  0.1379 -1.1313
 7746SOL     OW23615   5.526   3.978   3.541 -0.1324  0.3217  0.3219
 7746SOL    HW123616   5.549   3.926   3.617  1.1370  0.1904 -0.1143
 7746SOL    HW223617   5.610   3.993   3.497 -1.0759 -2.2897 -2.7797
 7747SOL     OW23618   2.175   1.537   4.231  0.7484  0.3019  0.0753
 7747SOL    HW123619   2.137   1.541   4.143 -0.2847 -0.5084  0.4630
 7747SOL    HW223620   2.222   1.620   4.241  2.6038 -0.4290 -1.9826
 7748SOL     OW23621   0.157   0.453   2.205 -0.1282  0.2633 -0.5865
 7748SOL    HW123622   0.174   0.478   2.114 -0.7043 -0.3466 -0.8666
 7748SOL    HW223623   0.204   0.370   2.216 -0.1533  0.2787 -0.3595
 7749SOL     OW23624   1.347   5.308   1.797  0.2282  0.2312 -0.1407
 7749SOL    HW123625   1.432   5.275   1.769  0.2414 -0.5401  0.7391
 7749SOL    HW223626   1.288   5.286   1.724  0.6471  0.1503 -0.4605
 7750SOL     OW23627   6.056   1.744   3.737 -0.3552  0.4248 -0.1411
 7750SOL    HW123628   6.143   1.763   3.771  1.4867 -3.3626 -2.0134
 7750SOL    HW223629   6.059   1.774   3.646 -0.7567 -0.2352 -0.3785
 7751SOL     OW23630   1.620   3.963   5.941  0.0529 -0.0652  0.7353
 7751SOL    HW123631   1.701   4.006   5.912 -1.5320  2.2121 -0.7263
 7751SOL    HW223632   1.607   3.891   5.879  0.8476 -0.3294  0.8679
 7752SOL     OW23633   6.612   1.478   2.277 -0.5127  0.4724 -0.3270
 7752SOL    HW123634   6.527   1.509   2.247  0.0648  1.1844 -1.3348
 7752SOL    HW223635   6.638   1.541   2.345 -0.5521  0.5976 -0.4265
 7753SOL     OW23636   2.261   1.229   1.315  0.3552  0.0990  0.7364
 7753SOL    HW123637   2.167   1.216   1.323  0.3149  0.9806  1.9298
 7753SOL    HW223638   2.275   1.322   1.333  1.4093  0.0793  0.1398
 7754SOL     OW23639   3.562   0.505   4.265 -0.0390  0.5643 -0.0450
 7754SOL    HW123640   3.546   0.522   4.358  1.7244  2.9284 -0.0726
 7754SOL    HW223641   3.605   0.419   4.263  0.1486  0.5978  1.3770
 7755SOL     OW23642   5.505   0.113   4.070  0.3517 -0.3304 -0.1557
 7755SOL    HW123643   5.480   0.094   3.979  1.3882 -2.6310 -0.0339
 7755SOL    HW223644   5.599   0.130   4.066 -0.0178  2.0605  0.2020
 7756SOL     OW23645   5.587   1.696   0.895 -0.6050 -0.9478 -0.6313
 7756SOL    HW123646   5.509   1.653   0.859 -1.0224 -0.8540  0.1438
 7756SOL    HW223647   5.556   1.743   0.972  0.3044 -1.3037 -0.0222
 7757SOL     OW23648   1.017   5.852   0.403 -0.3537 -0.6928  0.1553
 7757SOL    HW123649   0.988   5.826   0.491  1.7717 -1.6123  0.6421
 7757SOL    HW223650   1.077   5.783   0.376  0.5756  0.5863 -1.1963
 7758SOL     OW23651   1.076   0.557   0.111  0.0418 -0.0771 -0.2267
 7758SOL    HW123652   0.987   0.592   0.103  0.1827  0.5779  0.9393
 7758SOL    HW223653   1.064   0.462   0.106 -0.9112 -0.0808  1.3278
 7759SOL     OW23654   5.824   0.948   0.754  0.5453  0.5476 -0.0091
 7759SOL    HW123655   5.762   1.016   0.779  0.9582  1.1730 -0.6168
 7759SOL    HW223656   5.810   0.938   0.659 -0.7171 -1.4688  0.3270
 7760SOL     OW23657   2.385   5.932   5.133 -0.7864  0.1428 -0.6497
 7760SOL    HW123658   2.416   5.914   5.044  2.2082 -1.0546  0.4807
 7760SOL    HW223659   2.404   6.024   5.147  1.7652 -0.3543 -0.3063
 7761SOL     OW23660   4.028   5.867   5.736 -0.3706 -0.7007 -0.1964
 7761SOL    HW123661   4.003   5.916   5.658 -1.3679  1.7432  1.5317
 7761SOL    HW223662   4.086   5.926   5.784 -1.0660 -1.4531  1.6567
 7762SOL     OW23663   5.433   2.972   3.415  0.1933  0.1626  0.2955
 7762SOL    HW123664   5.389   3.038   3.469 -1.7409  0.1944 -1.1974
 7762SOL    HW223665   5.505   2.941   3.469 -0.8991  1.0622  2.3984
 7763SOL     OW23666   5.156   1.488   3.105 -0.1364 -0.1502 -0.3739
 7763SOL    HW123667   5.183   1.402   3.073  0.3423  0.4191 -1.5719
 7763SOL    HW223668   5.074   1.472   3.151  0.9431 -1.5462  1.1642
 7764SOL     OW23669   1.307   0.200   2.510  1.3933 -0.3277 -0.1216
 7764SOL    HW123670   1.267   0.182   2.425 -1.0241 -0.7907  1.0272
 7764SOL    HW223671   1.400   0.180   2.498  0.7127 -2.8977 -1.9655
 7765SOL     OW23672   4.750   3.811   5.979  0.1726 -0.3073  0.2371
 7765SOL    HW123673   4.738   3.898   5.943 -0.9463 -0.7130 -0.4150
 7765SOL    HW223674   4.744   3.752   5.903  1.6371 -0.9167  0.5549
 7766SOL     OW23675   0.640   0.783   6.810  0.3378 -0.0214  0.4002
 7766SOL    HW123676   0.674   0.864   6.772 -0.1379 -0.1095 -0.2428
 7766SOL    HW223677   0.593   0.741   6.738 -1.4565  0.2821  1.3226
 7767SOL     OW23678   1.293   0.013   5.855 -0.0257 -0.1872 -0.4825
 7767SOL    HW123679   1.300  -0.026   5.943 -0.7516  2.6633  0.9668
 7767SOL    HW223680   1.209  -0.018   5.823  0.1403 -1.0851 -0.1147
 7768SOL     OW23681   2.918   1.851   5.644 -0.0443  0.0913  0.6147
 7768SOL    HW123682   2.924   1.944   5.663  0.4186 -0.2440  2.2277
 7768SOL    HW223683   3.007   1.818   5.657  0.3215 -0.2486 -2.0787
 7769SOL     OW23684   4.434   4.601   4.000  0.5082  0.4741  0.0767
 7769SOL    HW123685   4.434   4.543   3.923 -2.4925  0.2424  0.1148
 7769SOL    HW223686   4.403   4.545   4.072  1.9790  1.0311  1.1924
 7770SOL     OW23687   3.152   5.792   6.260 -0.1271 -0.0605 -0.5156
 7770SOL    HW123688   3.208   5.763   6.331  0.7842  1.5277 -0.5320
 7770SOL    HW223689   3.207   5.786   6.182  0.3336  2.2075 -0.4282
 7771SOL     OW23690   3.726   5.579   3.104 -0.3751  0.2796 -0.4796
 7771SOL    HW123691   3.704   5.488   3.124 -0.9516 -0.0733 -2.5041
 7771SOL    HW223692   3.754   5.577   3.012  2.2765  1.7296  0.1967
 7772SOL     OW23693   6.505   4.461   1.910 -0.2235 -0.4066 -0.3884
 7772SOL    HW123694   6.473   4.514   1.983 -0.7526 -2.8145  1.2648
 7772SOL    HW223695   6.597   4.445   1.930  0.9572  2.6318 -2.7121
 7773SOL     OW23696   0.740   4.188   4.220  0.5001 -0.2032 -0.0935
 7773SOL    HW123697   0.805   4.124   4.191  1.7306  0.6170  0.7807
 7773SOL    HW223698   0.762   4.268   4.173 -0.2765 -0.0808 -0.2603
 7774SOL     OW23699   3.045   2.326   3.493  0.2223 -0.3426 -0.0926
 7774SOL    HW123700   3.069   2.275   3.416 -1.6995 -1.0566 -0.2738
 7774SOL    HW223701   3.097   2.288   3.564 -1.4693 -2.9634 -0.1351
 7775SOL     OW23702   5.211   5.735   6.053  0.3562 -0.3091  0.1366
 7775SOL    HW123703   5.231   5.648   6.018 -0.8472 -0.8753  0.7770
 7775SOL    HW223704   5.222   5.727   6.147 -0.5104 -0.0049  0.2808
 7776SOL     OW23705   1.439   5.193   4.719  0.1354  0.0084 -0.8459
 7776SOL    HW123706   1.459   5.210   4.627  1.1804  1.6660 -0.3512
 7776SOL    HW223707   1.522   5.207   4.765 -0.7424  0.9034  0.5489
 7777SOL     OW23708   1.550   6.090   5.735  0.0602 -0.3047 -0.1795
 7777SOL    HW123709   1.526   6.001   5.711  1.3013 -0.5894 -0.4151
 7777SOL    HW223710   1.476   6.143   5.707 -1.1634 -1.3650  0.9141
 7778SOL     OW23711   0.401   5.067   1.009 -0.3692 -0.4708 -0.1138
 7778SOL    HW123712   0.496   5.060   1.006 -0.4457 -1.7224 -0.3260
 7778SOL    HW223713   0.383   5.126   1.082  0.6011  1.2319 -1.1895
 7779SOL     OW23714   1.311   5.342   0.876  0.2515  0.1560  0.5407
 7779SOL    HW123715   1.264   5.414   0.919 -0.3104  0.0128  0.1679
 7779SOL    HW223716   1.247   5.272   0.869  0.5985 -0.1385  0.2668
 7780SOL     OW23717   5.859   6.611   3.963  0.3017 -0.4880  0.0056
 7780SOL    HW123718   5.901   6.670   4.025 -0.3486  0.6103 -0.5723
 7780SOL    HW223719   5.844   6.531   4.013  0.9344 -0.0779  0.8855
 7781SOL     OW23720   3.873   6.581   4.221 -0.4145  0.5492  0.0036
 7781SOL    HW123721   3.948   6.575   4.280  0.2518  0.2121 -0.8695
 7781SOL    HW223722   3.891   6.656   4.165 -0.2305 -0.1380 -0.8815
 7782SOL     OW23723   4.852   6.751   1.630  0.5661 -0.1164  0.7547
 7782SOL    HW123724   4.886   6.782   1.546 -0.0948  0.6907  0.7736
 7782SOL    HW223725   4.761   6.728   1.612  1.0271 -2.1084  0.7394
 7783SOL     OW23726   0.607   3.276   6.220 -0.3079 -0.5205  1.0033
 7783SOL    HW123727   0.534   3.215   6.217 -1.6521  1.0578 -0.7802
 7783SOL    HW223728   0.592   3.328   6.299 -1.2805 -0.0455  0.5197
 7784SOL     OW23729   2.208   0.481   4.402 -0.2331  0.0568 -0.2753
 7784SOL    HW123730   2.189   0.410   4.341 -0.7787  0.3403 -0.4506
 7784SOL    HW223731   2.279   0.530   4.361 -0.7181  0.3492 -0.7783
 7785SOL     OW23732   5.881   0.438   5.621  0.3074 -0.1190 -0.1151
 7785SOL    HW123733   5.880   0.444   5.526  1.1360 -1.1087 -0.2145
 7785SOL    HW223734   5.893   0.344   5.639 -1.3641 -0.1611  0.9896
 7786SOL     OW23735   3.121   1.695   4.877 -0.0866  0.3596  0.3062
 7786SOL    HW123736   3.216   1.686   4.881 -0.2254 -1.2737  0.7739
 7786SOL    HW223737   3.094   1.637   4.805 -0.9245 -1.5641  2.0669
 7787SOL     OW23738   1.780   1.267   3.425 -0.0661  0.4468 -0.4944
 7787SOL    HW123739   1.870   1.266   3.457  0.4273  1.7696 -1.7497
 7787SOL    HW223740   1.740   1.343   3.468 -1.0556 -0.9137  1.1387
 7788SOL     OW23741   4.446   5.482   2.460 -0.0803  0.3680 -0.2630
 7788SOL    HW123742   4.434   5.526   2.376  2.0987  1.0243 -0.2876
 7788SOL    HW223743   4.481   5.550   2.518  0.2482 -0.5504  0.6486
 7789SOL     OW23744   5.050   5.266   1.599  0.3371 -0.3303  0.2027
 7789SOL    HW123745   5.120   5.308   1.550 -0.8769 -0.7818 -2.0610
 7789SOL    HW223746   4.985   5.242   1.533 -1.5101 -0.8226  2.0671
 7790SOL     OW23747   2.333   2.927   3.591 -0.4873 -0.1393  0.2632
 7790SOL    HW123748   2.369   3.004   3.547 -1.0534  0.8792  1.5244
 7790SOL    HW223749   2.408   2.885   3.632 -0.4052  0.7178  1.0138
 7791SOL     OW23750   5.951   3.166   6.067  0.0702 -0.1914  0.2908
 7791SOL    HW123751   5.986   3.100   6.127  1.3591  1.2425  1.1894
 7791SOL    HW223752   5.870   3.197   6.109 -0.3701 -0.9506  0.0195
 7792SOL     OW23753   6.055   5.307   5.718 -0.6164  0.0569 -0.3329
 7792SOL    HW123754   6.028   5.239   5.779  2.1654 -1.4737 -0.6115
 7792SOL    HW223755   6.076   5.382   5.773 -1.6780 -0.0212  0.1969
 7793SOL     OW23756   0.222   4.902   6.632 -0.3605  0.2736 -0.1114
 7793SOL    HW123757   0.142   4.859   6.662 -1.3322 -0.4032 -3.2721
 7793SOL    HW223758   0.201   4.995   6.633 -0.7318  0.1883  0.2737
 7794SOL     OW23759   6.049   0.549   5.135  0.1770  0.1090  0.3893
 7794SOL    HW123760   6.111   0.609   5.094 -1.0448  1.4371  0.3889
 7794SOL    HW223761   5.972   0.603   5.153 -0.7703 -1.3453  0.9059
 7795SOL     OW23762   4.387   4.135   6.677  0.3415 -0.3757 -0.0381
 7795SOL    HW123763   4.476   4.125   6.709  0.1936  0.6687  0.7549
 7795SOL    HW223764   4.333   4.137   6.757 -0.3748 -0.8607 -0.4997
 7796SOL     OW23765   5.283   2.593   5.047 -0.0413  0.5315 -0.5098
 7796SOL    HW123766   5.194   2.613   5.019 -0.4622  0.0186  0.4155
 7796SOL    HW223767   5.299   2.504   5.016 -0.4590  0.0131  0.6805
 7797SOL     OW23768   4.302   1.457   2.183  0.2923  0.0662 -0.4899
 7797SOL    HW123769   4.382   1.422   2.144  0.2349  0.7718 -1.2536
 7797SOL    HW223770   4.323   1.548   2.203 -0.2181  0.1631 -0.3895
 7798SOL     OW23771   6.399   3.503   4.315  0.2279 -0.1118 -0.0098
 7798SOL    HW123772   6.361   3.512   4.227 -1.8734  1.1198  0.9368
 7798SOL    HW223773   6.473   3.444   4.303  0.4005  0.4979 -2.7082
 7799SOL     OW23774   5.057   5.703   4.582 -0.1909 -0.2527  0.4558
 7799SOL    HW123775   5.079   5.625   4.633 -1.9364 -0.5875  0.7662
 7799SOL    HW223776   4.985   5.743   4.630  0.7163  1.6114  0.3313
 7800SOL     OW23777   1.522   4.109   6.265  0.0635 -0.2285 -0.1955
 7800SOL    HW123778   1.475   4.101   6.348 -1.3815  1.4060 -0.8167
 7800SOL    HW223779   1.500   4.029   6.217  0.7592 -1.0983  0.8622
 7801SOL     OW23780   5.869   0.537   6.831 -0.1713 -0.1772  0.5710
 7801SOL    HW123781   5.875   0.444   6.809 -1.0157 -0.5150  1.7245
 7801SOL    HW223782   5.776   0.557   6.825  0.0315  0.6811  0.0679
 7802SOL     OW23783   3.129   3.324   2.348 -0.6558  0.5403 -0.4407
 7802SOL    HW123784   3.215   3.355   2.322 -0.0875 -0.7341 -0.1418
 7802SOL    HW223785   3.068   3.383   2.304  0.3434  0.9506 -1.3181
 7803SOL     OW23786   0.972   3.789   0.256  0.4799  0.1421  0.3093
 7803SOL    HW123787   1.039   3.729   0.223 -0.4546 -1.8063  1.7754
 7803SOL    HW223788   0.981   3.867   0.201  4.0434  0.0648  0.5452
 7804SOL     OW23789   1.160   6.361   6.704  0.2908  0.1308 -0.8665
 7804SOL    HW123790   1.126   6.436   6.656  0.1516 -0.5887 -1.9274
 7804SOL    HW223791   1.185   6.397   6.790  0.8839  1.5205 -1.5878
 7805SOL     OW23792   4.661   6.337   0.706  0.0374  0.7131 -0.5235
 7805SOL    HW123793   4.594   6.298   0.761  1.3725  0.3572  0.9227
 7805SOL    HW223794   4.623   6.338   0.618 -1.9979  0.9476  0.3245
 7806SOL     OW23795   1.792   1.347   0.678  0.1603 -0.0124 -0.0148
 7806SOL    HW123796   1.791   1.334   0.772  2.1205 -0.1981  0.0221
 7806SOL    HW223797   1.718   1.405   0.660 -0.3370 -0.1217  1.6032
 7807SOL     OW23798   0.957   2.133   2.313  0.2232 -0.0023  0.2194
 7807SOL    HW123799   0.938   2.097   2.226 -0.7722  0.4622  0.2321
 7807SOL    HW223800   0.902   2.211   2.319  1.3309  0.7574  0.7299
 7808SOL     OW23801   2.292   4.710   6.248 -0.1360  0.3235 -0.5817
 7808SOL    HW123802   2.280   4.805   6.247 -0.5795  0.2926  0.6222
 7808SOL    HW223803   2.228   4.678   6.311 -0.9451 -0.9354 -1.9794
 7809SOL     OW23804   6.492   3.723   2.801 -0.2291  0.1114 -0.4258
 7809SOL    HW123805   6.441   3.666   2.858  1.4915 -1.1029 -0.0387
 7809SOL    HW223806   6.550   3.664   2.754  1.8333  1.5447  0.2076
 7810SOL     OW23807   1.033   1.114   5.662 -0.8272 -0.0091  0.0466
 7810SOL    HW123808   1.008   1.022   5.671  0.7366 -0.5164 -0.4479
 7810SOL    HW223809   1.010   1.137   5.572 -0.1718 -0.2841 -0.2020
 7811SOL     OW23810   3.704   2.667   5.523  0.8639  1.1084 -0.1529
 7811SOL    HW123811   3.649   2.597   5.488  2.5332 -1.2486  1.6539
 7811SOL    HW223812   3.650   2.709   5.590  0.2369  0.8331 -0.4775
 7812SOL     OW23813   5.833   3.350   2.971  0.6123  0.1316  0.4641
 7812SOL    HW123814   5.772   3.276   2.969  1.1226 -0.3558  1.8257
 7812SOL    HW223815   5.805   3.402   3.046  2.2029 -0.4279  1.4981
 7813SOL     OW23816   2.705   4.955   4.700 -0.2436  0.8678  0.0688
 7813SOL    HW123817   2.660   5.039   4.693 -0.2135  1.3370  3.5357
 7813SOL    HW223818   2.635   4.892   4.720 -0.1018  0.3090 -1.1402
 7814SOL     OW23819   1.120   3.800   4.823 -0.4931  0.0566 -0.2224
 7814SOL    HW123820   1.052   3.734   4.804 -0.5489  0.4068 -1.3164
 7814SOL    HW223821   1.133   3.845   4.740  1.3865 -0.2700 -0.1415
 7815SOL     OW23822   3.880   3.161   1.272 -0.8163 -0.7307  0.1400
 7815SOL    HW123823   3.913   3.240   1.315  0.3147 -1.0007 -0.1975
 7815SOL    HW223824   3.792   3.150   1.307 -0.8103  0.3996  0.5673
 7816SOL     OW23825   0.580   4.673   1.583 -0.2496 -0.2246  0.3900
 7816SOL    HW123826   0.607   4.654   1.673  1.8275 -0.2367 -0.1873
 7816SOL    HW223827   0.660   4.663   1.531 -1.4128 -0.2707 -1.4802
 7817SOL     OW23828   5.673   0.564   5.767  0.2652  0.3877 -0.3628
 7817SOL    HW123829   5.767   0.548   5.765  0.2179 -0.8367  2.4253
 7817SOL    HW223830   5.664   0.647   5.814 -0.0638 -0.0358  0.3339
 7818SOL     OW23831   4.574   2.038   3.303  0.2053 -0.2603 -0.2165
 7818SOL    HW123832   4.584   1.950   3.338 -1.0882 -0.5022 -0.4034
 7818SOL    HW223833   4.554   2.092   3.380  0.2510 -0.2716 -0.1970
 7819SOL     OW23834   4.397   1.523   5.188 -0.0524  0.8563 -0.4508
 7819SOL    HW123835   4.481   1.477   5.182  0.3583  1.4926  0.2819
 7819SOL    HW223836   4.355   1.507   5.103 -1.1978 -3.2515  0.6505
 7820SOL     OW23837   6.344   4.465   3.416  0.2054  0.3478 -0.6432
 7820SOL    HW123838   6.333   4.514   3.497  1.1813 -0.3876 -0.0382
 7820SOL    HW223839   6.382   4.529   3.355 -1.3259  1.1356 -0.8071
 7821SOL     OW23840   4.559   0.144   5.011  0.2455 -0.2873  0.2495
 7821SOL    HW123841   4.650   0.119   5.028  0.1058 -0.9756  0.0114
 7821SOL    HW223842   4.517   0.142   5.097  0.3567 -0.3903  0.3024
 7822SOL     OW23843   5.210   5.084   6.224  0.0305 -0.3850 -0.7658
 7822SOL    HW123844   5.292   5.133   6.229 -1.4698  2.2676 -0.6498
 7822SOL    HW223845   5.192   5.058   6.314 -0.7233  1.6561 -0.2928
 7823SOL     OW23846   5.252   0.160   6.316  0.0692 -0.3419  0.1127
 7823SOL    HW123847   5.187   0.162   6.386 -0.7445 -0.5104 -0.6144
 7823SOL    HW223848   5.291   0.073   6.322  0.1336 -0.2932  0.4553
 7824SOL     OW23849   0.981   4.978   6.276  0.5003 -0.7803 -0.4167
 7824SOL    HW123850   0.921   5.023   6.217 -0.1280  0.0740  0.8214
 7824SOL    HW223851   1.037   4.926   6.219  0.0059  0.1159 -1.7620
 7825SOL     OW23852   2.529   4.815   0.711 -0.1742 -0.3782 -0.3850
 7825SOL    HW123853   2.516   4.737   0.765  1.0156 -2.1056 -2.4408
 7825SOL    HW223854   2.623   4.832   0.715  0.1577 -1.2961 -2.7831
 7826SOL     OW23855   2.206   4.298   5.868  0.6829  0.1628 -1.0389
 7826SOL    HW123856   2.298   4.287   5.844  0.7751  0.6997 -0.9612
 7826SOL    HW223857   2.159   4.234   5.815  1.0779  0.0509 -1.2593
 7827SOL     OW23858   4.920   3.557   1.152  0.0114 -0.3035 -0.3981
 7827SOL    HW123859   4.884   3.550   1.241  0.4623  0.1769 -0.1715
 7827SOL    HW223860   4.867   3.497   1.100 -1.7888  1.0823 -0.2885
 7828SOL     OW23861   6.341   1.908   2.774  0.1012 -0.1200  0.5169
 7828SOL    HW123862   6.290   1.829   2.753 -0.2503 -0.0110  0.9665
 7828SOL    HW223863   6.403   1.915   2.701 -1.6011  0.6824 -0.9572
 7829SOL     OW23864   4.982   4.076   2.500 -0.5163  0.1123  0.3865
 7829SOL    HW123865   5.028   4.109   2.422 -0.2210  1.4837  1.1080
 7829SOL    HW223866   4.937   4.153   2.535  0.3966 -0.1566  2.2805
 7830SOL     OW23867   1.821   6.448   4.599  0.0721  0.2189  0.2328
 7830SOL    HW123868   1.793   6.470   4.510  0.5717  1.9565  0.4838
 7830SOL    HW223869   1.779   6.363   4.617  1.6078 -1.2353 -2.3982
 7831SOL     OW23870   5.124   0.113   2.898  0.1017 -0.3260 -0.1142
 7831SOL    HW123871   5.171   0.115   2.981  0.5402 -1.2585 -0.3277
 7831SOL    HW223872   5.047   0.059   2.916 -2.4090  3.2491  0.9638
 7832SOL     OW23873   3.150   4.255   4.154 -0.1773  0.1828  0.6287
 7832SOL    HW123874   3.079   4.195   4.176 -0.1203 -0.0404  0.2006
 7832SOL    HW223875   3.209   4.204   4.099  1.1075 -0.1151  2.1971
 7833SOL     OW23876   4.883   0.600   1.618  0.2877  0.6116 -0.0517
 7833SOL    HW123877   4.886   0.523   1.675  1.1056  0.3006 -0.4822
 7833SOL    HW223878   4.807   0.649   1.647  0.8503  0.6232  1.5131
 7834SOL     OW23879   2.708   0.979   5.305 -0.2490 -0.6416  0.4677
 7834SOL    HW123880   2.652   1.023   5.369 -0.6229 -1.1575  0.5049
 7834SOL    HW223881   2.773   0.933   5.358 -0.8950 -1.5282  0.5228
 7835SOL     OW23882   2.594   3.471   6.113 -0.6768 -0.0371  0.3402
 7835SOL    HW123883   2.543   3.517   6.047  1.6940  0.2008 -1.4441
 7835SOL    HW223884   2.630   3.540   6.168 -2.1909 -0.2061  1.6095
 7836SOL     OW23885   0.423   5.471   6.568  0.2655  0.1797 -0.0211
 7836SOL    HW123886   0.398   5.558   6.600  0.1987  0.2166 -0.1753
 7836SOL    HW223887   0.517   5.478   6.552  0.2042  0.3128 -0.3233
 7837SOL     OW23888   1.801   2.244   2.717  0.8680 -0.0210  0.0201
 7837SOL    HW123889   1.750   2.179   2.668  2.1779  0.8391 -2.7183
 7837SOL    HW223890   1.861   2.192   2.771  1.3845 -1.1215 -1.5447
 7838SOL     OW23891   6.782   6.729   0.548 -0.0691 -0.8335 -0.4335
 7838SOL    HW123892   6.790   6.747   0.454  0.1710  1.7234 -0.0005
 7838SOL    HW223893   6.731   6.802   0.582  1.6774 -0.5243  1.7516
 7839SOL     OW23894   0.936   2.081   4.642 -0.0487  0.4933 -0.0382
 7839SOL    HW123895   1.005   2.132   4.685 -0.2149  0.3051  0.4693
 7839SOL    HW223896   0.859   2.094   4.698  0.3284 -1.6807  1.1000
 7840SOL     OW23897   4.104   1.387   0.478 -0.0628 -0.3728  0.2872
 7840SOL    HW123898   4.080   1.439   0.401 -0.9844  1.1537  1.5378
 7840SOL    HW223899   4.185   1.343   0.453 -0.5703 -0.2962 -1.7063
 7841SOL     OW23900   2.088   4.908   0.233 -0.3035 -0.1961  0.1189
 7841SOL    HW123901   2.012   4.942   0.281 -1.4026 -1.9969 -0.2432
 7841SOL    HW223902   2.144   4.870   0.301 -1.1908 -1.5114  0.1472
 7842SOL     OW23903   0.062   0.560   1.898 -0.3662 -0.0524 -0.0047
 7842SOL    HW123904  -0.008   0.606   1.944 -1.4256  0.0651 -1.6793
 7842SOL    HW223905   0.027   0.473   1.882  0.4772 -0.4946  0.4881
 7843SOL     OW23906   2.393   4.628   2.247  0.5772  0.5417  0.1834
 7843SOL    HW123907   2.406   4.714   2.289  0.5811  1.7619 -2.1585
 7843SOL    HW223908   2.299   4.624   2.230  0.7450  0.6129 -0.7747
 7844SOL     OW23909   2.989   6.499   4.266 -1.0436  0.1520  0.1078
 7844SOL    HW123910   2.935   6.440   4.213  0.7097 -1.4883  0.0283
 7844SOL    HW223911   2.941   6.506   4.349 -1.6985 -0.7473 -0.1687
 7845SOL     OW23912   5.068   0.676   3.366  0.1368 -0.1829 -0.1773
 7845SOL    HW123913   5.068   0.619   3.289 -2.7036 -2.2949  1.2077
 7845SOL    HW223914   5.111   0.756   3.336 -0.2224 -1.1369 -3.7559
 7846SOL     OW23915   2.320   3.857   0.711 -0.5062 -0.6851 -0.4468
 7846SOL    HW123916   2.330   3.914   0.787 -1.9796 -1.5094  0.3888
 7846SOL    HW223917   2.251   3.898   0.658 -0.0657 -0.5626 -0.9418
 7847SOL     OW23918   2.179   5.777   3.954  0.5730  0.3653 -0.0777
 7847SOL    HW123919   2.267   5.803   3.981  1.4348 -2.8487  0.6885
 7847SOL    HW223920   2.189   5.746   3.864  0.6566 -1.4483  0.5028
 7848SOL     OW23921   0.450   5.044   1.831  0.3171 -0.1009  0.5193
 7848SOL    HW123922   0.493   5.118   1.875  0.6283 -0.9626  1.7447
 7848SOL    HW223923   0.484   4.967   1.877  1.2706 -1.1523 -1.7755
 7849SOL     OW23924   2.007   3.466   3.119  0.0772 -0.1375 -0.2150
 7849SOL    HW123925   1.926   3.494   3.076 -0.9423 -2.9681 -0.3870
 7849SOL    HW223926   2.062   3.435   3.048  0.2072 -0.6681  0.1059
 7850SOL     OW23927   6.540   6.610   1.618  0.0067  0.1464  1.0051
 7850SOL    HW123928   6.601   6.547   1.655 -0.7855 -1.5648 -0.4674
 7850SOL    HW223929   6.486   6.639   1.692  1.5743  0.5534  2.0334
 7851SOL     OW23930   6.279   1.314   5.312  0.2580  0.7711 -0.4271
 7851SOL    HW123931   6.231   1.383   5.358 -2.4929 -0.1958 -1.5797
 7851SOL    HW223932   6.236   1.308   5.227 -0.5053 -3.0953  0.0476
 7852SOL     OW23933   5.487   4.339   3.560 -0.0553 -0.1042  0.2061
 7852SOL    HW123934   5.514   4.311   3.473 -2.4271 -1.0459 -0.2948
 7852SOL    HW223935   5.486   4.435   3.556 -0.6884 -0.1545 -0.9918
 7853SOL     OW23936   2.510   0.768   0.874  0.4036  0.3619 -0.3830
 7853SOL    HW123937   2.556   0.851   0.863  0.0293  0.5564 -0.5296
 7853SOL    HW223938   2.560   0.706   0.821  0.4816  0.5772 -0.5658
 7854SOL     OW23939   2.426   4.727   3.767  0.0408 -0.2656 -0.2681
 7854SOL    HW123940   2.460   4.769   3.846  2.1881 -0.5875 -0.9624
 7854SOL    HW223941   2.501   4.680   3.731 -0.7583  0.1869 -2.7089
 7855SOL     OW23942   4.866   0.493   4.555 -0.6269  0.2840  0.3594
 7855SOL    HW123943   4.869   0.489   4.651  0.1708  1.1531  0.3892
 7855SOL    HW223944   4.957   0.484   4.528 -0.9181 -0.6849 -0.3728
 7856SOL     OW23945   5.198   3.665   3.799  0.2754 -0.6774 -0.3030
 7856SOL    HW123946   5.241   3.693   3.879  0.5746 -0.4114 -0.5518
 7856SOL    HW223947   5.206   3.740   3.740 -0.8621 -0.4826 -0.2272
 7857SOL     OW23948   1.704   0.710   0.851  0.0138 -0.1159  0.1311
 7857SOL    HW123949   1.717   0.749   0.937 -0.6706  0.4955 -0.0264
 7857SOL    HW223950   1.665   0.624   0.868  1.5823 -0.7891  0.4851
 7858SOL     OW23951   1.808   1.160   5.328  0.3709 -0.2283  0.5152
 7858SOL    HW123952   1.790   1.146   5.235  1.4800 -2.1857  0.5376
 7858SOL    HW223953   1.879   1.225   5.329  0.7469 -0.6166 -0.0408
 7859SOL     OW23954   3.342   5.782   3.109  0.0393 -0.2733  0.2645
 7859SOL    HW123955   3.291   5.851   3.068 -0.3067  0.4493  1.8391
 7859SOL    HW223956   3.423   5.778   3.057 -1.1681 -0.8015 -1.6880
 7860SOL     OW23957   3.854   4.907   0.392 -0.7429  0.8203 -0.2808
 7860SOL    HW123958   3.838   4.995   0.357  0.8020  0.3987 -2.2037
 7860SOL    HW223959   3.786   4.896   0.459 -2.3752  2.6198 -1.5185
 7861SOL     OW23960   0.268   6.172   1.302  0.0675  0.8321  0.2461
 7861SOL    HW123961   0.360   6.168   1.276  0.5353 -0.1339  1.8544
 7861SOL    HW223962   0.268   6.137   1.391 -1.7342  1.7541  0.6342
 7862SOL     OW23963   3.446   5.881   0.127 -0.3913 -0.4616  0.5416
 7862SOL    HW123964   3.383   5.809   0.130 -0.9467  0.0317  2.1831
 7862SOL    HW223965   3.401   5.950   0.079 -0.3346 -0.7841  0.0216
 7863SOL     OW23966   1.467   3.290   2.301  0.1160 -0.3487  0.0854
 7863SOL    HW123967   1.469   3.241   2.219  1.2641 -1.1353  0.5593
 7863SOL    HW223968   1.536   3.356   2.291  0.3065 -0.4915  0.4365
 7864SOL     OW23969   1.323   1.390   2.627  0.2493 -0.5786  0.4147
 7864SOL    HW123970   1.418   1.395   2.640  0.2699  0.6906 -0.0854
 7864SOL    HW223971   1.309   1.430   2.541 -0.6488 -1.6778  0.0305
 7865SOL     OW23972   0.570   3.319   1.650  0.2088 -0.6351 -0.0077
 7865SOL    HW123973   0.475   3.321   1.662  0.2690 -2.7735  1.3994
 7865SOL    HW223974   0.603   3.380   1.717 -0.1238 -1.0886  0.5817
 7866SOL     OW23975   3.404   3.115   6.831 -0.0247  0.7318  0.3342
 7866SOL    HW123976   3.383   3.202   6.796  1.1276  0.9005  0.0251
 7866SOL    HW223977   3.397   3.124   6.926  0.0987  1.1627  0.3028
 7867SOL     OW23978   4.049   1.360   2.735 -0.2259 -0.3954 -0.0092
 7867SOL    HW123979   3.954   1.353   2.741 -0.5859  0.7414 -2.6560
 7867SOL    HW223980   4.073   1.428   2.798 -0.7682 -2.3930  2.4711
 7868SOL     OW23981   0.046   2.506   3.390 -0.8525  0.1828  0.0143
 7868SOL    HW123982   0.063   2.545   3.305  0.2663 -1.0485 -0.3624
 7868SOL    HW223983   0.121   2.531   3.444 -0.8836 -0.1497  0.2220
 7869SOL     OW23984   4.426   1.269   5.579 -0.1925 -0.5114  0.0693
 7869SOL    HW123985   4.500   1.215   5.607  0.3147 -0.3466 -0.9072
 7869SOL    HW223986   4.427   1.264   5.484  0.1580  1.5938 -0.0739
 7870SOL     OW23987   4.271   5.500   4.836 -0.3875 -0.2795  0.0786
 7870SOL    HW123988   4.193   5.484   4.889 -0.3397  0.5759  0.4209
 7870SOL    HW223989   4.255   5.585   4.795 -0.3665 -0.8662 -1.1870
 7871SOL     OW23990   5.378   0.543   1.293  0.3926 -0.3926  0.0527
 7871SOL    HW123991   5.473   0.542   1.305  0.4546 -0.2731 -0.4266
 7871SOL    HW223992   5.363   0.485   1.219 -0.0175 -1.3661  0.8770
 7872SOL     OW23993   6.027   0.847   3.700  0.0581  0.5898 -0.1732
 7872SOL    HW123994   6.084   0.858   3.624  0.3413 -0.1733 -0.0786
 7872SOL    HW223995   6.027   0.933   3.743  0.3588  0.8609 -0.7078
 7873SOL     OW23996   6.580   3.754   0.787  0.6804  0.1361 -0.0512
 7873SOL    HW123997   6.547   3.671   0.823 -1.3394  0.4590 -0.9903
 7873SOL    HW223998   6.603   3.807   0.863  1.8308 -1.1936  0.5699
 7874SOL     OW23999   1.373   6.252   3.281 -0.3317  0.1799  0.3730
 7874SOL    HW124000   1.446   6.193   3.261 -0.3186  0.0842  0.6996
 7874SOL    HW224001   1.398   6.335   3.240  0.0478  0.1998  0.6375
 7875SOL     OW24002   2.429   0.164   6.136 -0.3614  0.0800  0.0550
 7875SOL    HW124003   2.390   0.188   6.052 -2.1522 -2.2485  0.1046
 7875SOL    HW224004   2.419   0.068   6.140  0.9498 -0.0282  2.3046
 7876SOL     OW24005   4.006   0.934   5.728 -0.0452  0.0766 -0.1595
 7876SOL    HW124006   4.072   0.912   5.662 -1.9407  0.8418 -2.4349
 7876SOL    HW224007   3.940   0.984   5.681 -0.7128  2.2065  2.6946
 7877SOL     OW24008   1.295   4.703   4.493 -0.0791 -0.2518 -0.2956
 7877SOL    HW124009   1.284   4.633   4.429  0.6548 -1.9082  1.3121
 7877SOL    HW224010   1.239   4.774   4.461  1.0228 -0.5904 -3.2968
 7878SOL     OW24011   3.342   5.154   6.136  0.0373  0.1285 -0.2638
 7878SOL    HW124012   3.398   5.119   6.067  0.4743  0.1173  0.0927
 7878SOL    HW224013   3.275   5.204   6.090 -0.9469 -1.6396 -0.8300
 7879SOL     OW24014   4.012   4.196   0.501 -0.4722  0.1869 -0.2143
 7879SOL    HW124015   3.940   4.258   0.514  0.3158  1.0950 -0.1098
 7879SOL    HW224016   4.091   4.249   0.503  0.1903 -0.7366 -0.7818
 7880SOL     OW24017   5.916   2.477   4.637  0.5125  0.8148 -0.6704
 7880SOL    HW124018   5.898   2.509   4.725 -1.0454  0.7601 -0.9398
 7880SOL    HW224019   5.941   2.385   4.650 -0.3133  0.6329 -0.3270
 7881SOL     OW24020   2.541   2.605   2.574  0.1175  0.4269 -0.5831
 7881SOL    HW124021   2.549   2.569   2.486 -0.9260  0.0126 -0.5139
 7881SOL    HW224022   2.609   2.673   2.578  1.1768 -0.5538 -1.1892
 7882SOL     OW24023   5.724   4.438   4.906 -0.6879  0.3130 -0.3935
 7882SOL    HW124024   5.771   4.517   4.931 -0.0397 -0.0259 -0.5120
 7882SOL    HW224025   5.646   4.437   4.961 -0.0022  0.3113  0.5943
 7883SOL     OW24026   2.057   5.808   4.354  0.2800  0.0996  0.2686
 7883SOL    HW124027   2.111   5.735   4.324  0.1423  0.4825 -0.9541
 7883SOL    HW224028   2.106   5.847   4.425  1.5608  0.3571 -0.7222
 7884SOL     OW24029   5.932   2.382   5.445  0.7633 -0.3148  0.0981
 7884SOL    HW124030   5.910   2.365   5.537 -0.4387 -1.1894 -0.3285
 7884SOL    HW224031   5.912   2.475   5.433 -1.8558 -0.7920  0.0372
 7885SOL     OW24032   6.686   5.901   2.340 -0.2584 -0.5264  0.3880
 7885SOL    HW124033   6.722   5.823   2.297 -0.5897 -0.2337 -0.4439
 7885SOL    HW224034   6.758   5.964   2.341 -0.5052 -0.2109 -0.5861
 7886SOL     OW24035   5.164   1.803   6.262  0.3591  0.0907 -0.2937
 7886SOL    HW124036   5.220   1.846   6.198 -1.3808  0.3563 -1.7051
 7886SOL    HW224037   5.126   1.874   6.313 -0.2004  0.0504 -0.6450
 7887SOL     OW24038   5.660   1.408   1.216 -0.2142 -0.3270 -0.1986
 7887SOL    HW124039   5.626   1.495   1.238 -0.4857 -0.0987 -1.4072
 7887SOL    HW224040   5.747   1.424   1.181  0.7533 -0.8107  1.8763
 7888SOL     OW24041   4.784   3.356   1.008 -0.1182  0.0934  0.6251
 7888SOL    HW124042   4.744   3.341   1.094  0.2582 -0.6813  0.6719
 7888SOL    HW224043   4.862   3.301   1.008  2.3526  3.3415  1.4477
 7889SOL     OW24044   3.417   3.487   3.205  0.2233  0.1856 -0.2370
 7889SOL    HW124045   3.396   3.524   3.290  0.7736  2.1233 -0.8990
 7889SOL    HW224046   3.505   3.521   3.185 -0.1054  0.2073 -1.7915
 7890SOL     OW24047   2.444   0.570   6.743 -0.3145 -0.5358 -0.2547
 7890SOL    HW124048   2.487   0.530   6.818  0.6281  0.0713 -0.4457
 7890SOL    HW224049   2.353   0.542   6.749 -0.3397 -0.2040  1.3224
 7891SOL     OW24050   1.975   1.232   4.853 -0.1217  0.4441 -0.9099
 7891SOL    HW124051   1.900   1.183   4.821 -0.0937 -0.1125 -0.1540
 7891SOL    HW224052   2.034   1.166   4.890 -1.2477  1.1411  2.5365
 7892SOL     OW24053   1.862   6.448   5.873  0.0233 -0.1551  0.1578
 7892SOL    HW124054   1.833   6.538   5.863  0.8704  0.0999 -0.0143
 7892SOL    HW224055   1.947   6.454   5.916  0.0857 -0.8709  0.1524
 7893SOL     OW24056   5.366   4.737   0.428 -0.1225 -0.3268  0.1266
 7893SOL    HW124057   5.407   4.730   0.514 -1.8802  1.2144  1.1500
 7893SOL    HW224058   5.407   4.813   0.388 -1.8912  1.2388  1.1659
 7894SOL     OW24059   3.736   5.137   6.595  0.5558  0.3723 -0.3382
 7894SOL    HW124060   3.762   5.162   6.506  2.4721  1.2301  0.4126
 7894SOL    HW224061   3.783   5.197   6.652  1.6371 -1.9563  1.3658
 7895SOL     OW24062   3.662   5.604   6.844 -0.3335 -0.0363 -0.1633
 7895SOL    HW124063   3.658   5.535   6.912 -0.3219  1.1526  1.0898
 7895SOL    HW224064   3.649   5.557   6.762  1.0965 -1.7639  0.5116
 7896SOL     OW24065   4.853   5.844   4.841 -0.8766  0.4646 -0.0429
 7896SOL    HW124066   4.928   5.830   4.898 -1.1721 -0.0540  0.2271
 7896SOL    HW224067   4.833   5.757   4.805 -0.8954  0.7257 -0.6830
 7897SOL     OW24068   4.374   4.612   1.284 -0.3452  0.1985  0.1162
 7897SOL    HW124069   4.396   4.519   1.296  0.2728  0.2708 -0.3797
 7897SOL    HW224070   4.455   4.658   1.306 -0.8363  0.6775  1.0108
 7898SOL     OW24071   2.035   1.154   3.248 -0.6007  0.3959 -0.3669
 7898SOL    HW124072   2.011   1.241   3.217 -0.2884  0.6081 -0.0146
 7898SOL    HW224073   2.127   1.144   3.223 -0.7429  0.0128 -0.7518
 7899SOL     OW24074   5.871   1.809   4.992 -0.2187  0.1749  0.2120
 7899SOL    HW124075   5.796   1.803   5.052 -0.4817  0.0236 -0.1272
 7899SOL    HW224076   5.947   1.798   5.048 -0.4721 -0.2566  0.4791
 7900SOL     OW24077   6.350   5.958   5.685 -0.1305 -0.3261  0.2577
 7900SOL    HW124078   6.289   6.021   5.723 -0.9972 -0.1517 -1.3043
 7900SOL    HW224079   6.434   6.004   5.681 -0.6306  0.5687 -0.3859
 7901SOL     OW24080   0.197   2.430   0.341 -0.3128  0.6553  0.2526
 7901SOL    HW124081   0.203   2.365   0.411  1.9774  0.2554 -0.2477
 7901SOL    HW224082   0.105   2.432   0.318 -0.5804 -1.8196  0.8400
 7902SOL     OW24083   6.582   1.262   3.301  0.2534  0.8091  0.0072
 7902SOL    HW124084   6.571   1.174   3.339  0.1937  1.4790  1.6289
 7902SOL    HW224085   6.670   1.261   3.264 -0.6683 -0.7582 -2.3787
 7903SOL     OW24086   4.578   0.457   3.031  0.0938 -0.1773 -0.3567
 7903SOL    HW124087   4.535   0.385   3.077 -0.4367  0.5788  0.3347
 7903SOL    HW224088   4.618   0.415   2.955 -0.1972 -1.2093  0.0429
 7904SOL     OW24089   3.739   1.286   5.785 -0.1629 -0.1232  0.0448
 7904SOL    HW124090   3.722   1.380   5.777  1.0301  0.0607 -0.3718
 7904SOL    HW224091   3.756   1.256   5.696  1.4433 -0.3298  0.3870
 7905SOL     OW24092   5.589   0.484   6.534 -0.0817  0.5087 -0.7288
 7905SOL    HW124093   5.557   0.415   6.476 -0.6982  0.4559 -0.3248
 7905SOL    HW224094   5.564   0.566   6.490  0.3605  0.4829 -1.0422
 7906SOL     OW24095   6.529   3.409   1.678  0.5412 -0.1080 -0.2826
 7906SOL    HW124096   6.485   3.482   1.634 -0.1538  1.3572  2.6007
 7906SOL    HW224097   6.620   3.416   1.651  0.1269  0.5814 -1.5988
 7907SOL     OW24098   2.905   5.000   2.405  0.0035 -0.4926  0.5762
 7907SOL    HW124099   2.896   5.088   2.440  0.8298 -0.3943  0.5609
 7907SOL    HW224100   2.985   4.966   2.445 -0.4056 -1.3108  0.7276
 7908SOL     OW24101   1.928   1.504   1.271 -0.0751  0.4451 -0.8465
 7908SOL    HW124102   1.996   1.547   1.323  0.5583 -0.4166 -0.9485
 7908SOL    HW224103   1.874   1.458   1.336  0.5449 -0.3929 -0.9116
 7909SOL     OW24104   5.272   0.656   3.581 -0.4755  0.3025 -0.1680
 7909SOL    HW124105   5.188   0.643   3.537 -0.2425 -1.6795 -0.1438
 7909SOL    HW224106   5.332   0.597   3.536  0.4284  0.2455  1.0430
 7910SOL     OW24107   2.710   3.679   3.222 -0.2214  0.1395 -0.1449
 7910SOL    HW124108   2.675   3.594   3.195 -1.5740  0.4804  0.4491
 7910SOL    HW224109   2.648   3.711   3.288  0.6189  1.2944  0.1247
 7911SOL     OW24110   4.320   1.708   1.014 -0.2154  0.0910 -0.2221
 7911SOL    HW124111   4.251   1.657   0.971 -1.0808  2.2096 -1.5257
 7911SOL    HW224112   4.306   1.693   1.107 -2.2822  0.2040 -0.4570
 7912SOL     OW24113   4.120   3.409   5.281 -0.7554 -0.4028 -0.1072
 7912SOL    HW124114   4.199   3.394   5.228 -0.3834 -0.9465  0.5709
 7912SOL    HW224115   4.048   3.398   5.220 -0.2860  1.8744 -1.1444
 7913SOL     OW24116   0.400   5.016   2.684  0.4663 -0.2497  0.2119
 7913SOL    HW124117   0.348   4.969   2.748  0.8295 -0.9029  0.0320
 7913SOL    HW224118   0.346   5.019   2.606  1.2342 -2.1955 -0.4424
 7914SOL     OW24119   1.778   5.086   5.918 -0.2263  0.3657  0.0553
 7914SOL    HW124120   1.786   5.177   5.888  2.4869 -0.7297 -3.2807
 7914SOL    HW224121   1.768   5.035   5.837 -3.4060 -2.3111  1.8675
 7915SOL     OW24122   4.280   1.791   4.430 -0.8628  0.3786  0.2976
 7915SOL    HW124123   4.276   1.797   4.335 -0.6486  2.1245  0.3713
 7915SOL    HW224124   4.213   1.852   4.461 -0.6360  0.1484  1.2580
 7916SOL     OW24125   3.161   4.163   2.903  0.1112  0.5730  0.2427
 7916SOL    HW124126   3.239   4.169   2.847  0.7780  0.4782  1.1425
 7916SOL    HW224127   3.168   4.078   2.945  1.0636  1.7027  2.5233
 7917SOL     OW24128   3.053   5.161   0.923  0.2639 -0.1533  0.0408
 7917SOL    HW124129   2.990   5.173   0.994 -0.7244 -2.3070 -0.3847
 7917SOL    HW224130   3.139   5.170   0.964 -0.2921 -0.7781  1.3938
 7918SOL     OW24131   4.037   0.100   6.632 -0.3579 -0.0777 -0.3712
 7918SOL    HW124132   4.078   0.032   6.685 -1.1401 -0.4270 -0.2034
 7918SOL    HW224133   4.062   0.080   6.542  0.7179  0.3351 -0.1828
 7919SOL     OW24134   5.915   2.535   6.477 -0.0469 -1.0944 -0.3832
 7919SOL    HW124135   5.995   2.493   6.445  0.1557 -1.4441  0.5478
 7919SOL    HW224136   5.846   2.504   6.418  0.7631  0.7147 -2.4074
 7920SOL     OW24137   5.963   2.127   0.450  0.0728 -0.5072  0.1907
 7920SOL    HW124138   6.043   2.140   0.399  0.4749 -1.8280  0.4379
 7920SOL    HW224139   5.893   2.160   0.395  0.5461 -1.5061 -1.0526
 7921SOL     OW24140   2.056   3.788   4.428 -0.8049  0.1891  0.5649
 7921SOL    HW124141   2.036   3.881   4.420 -0.4567  0.1737 -0.8967
 7921SOL    HW224142   2.023   3.750   4.346 -3.7391 -1.5312  2.3687
 7922SOL     OW24143   4.840   2.639   3.988  0.2157 -0.2013 -0.4901
 7922SOL    HW124144   4.761   2.651   3.935  0.1083  0.2342 -0.2368
 7922SOL    HW224145   4.826   2.556   4.034 -0.5560  0.3684  0.3350
 7923SOL     OW24146   2.819   5.673   6.648 -0.6423  0.6337 -0.3184
 7923SOL    HW124147   2.816   5.721   6.565 -1.6614 -0.3541 -0.8824
 7923SOL    HW224148   2.869   5.730   6.707 -1.3663  2.1475 -1.0954
 7924SOL     OW24149   0.495   3.152   2.790  0.2825 -0.4267 -0.5227
 7924SOL    HW124150   0.545   3.126   2.712 -0.1095 -2.3312 -0.1871
 7924SOL    HW224151   0.535   3.103   2.861  0.7572  1.4317  0.5640
 7925SOL     OW24152   3.911   0.666   4.198  0.7150  0.1443 -0.2244
 7925SOL    HW124153   4.007   0.669   4.193  0.7222  0.3620  0.0029
 7925SOL    HW224154   3.892   0.591   4.254  0.8046  1.0264  1.0178
 7926SOL     OW24155   4.486   0.356   4.806  0.2551 -0.2438 -0.5136
 7926SOL    HW124156   4.511   0.267   4.830  1.5446  0.2904  0.2182
 7926SOL    HW224157   4.510   0.363   4.714  0.7847 -0.4522 -0.3978
 7927SOL     OW24158   2.218   2.169   4.894  0.6697  0.4546  0.1667
 7927SOL    HW124159   2.267   2.088   4.876  1.4865  0.2582  2.7511
 7927SOL    HW224160   2.147   2.169   4.830  0.1806 -2.7317  0.5004
 7928SOL     OW24161   6.317   6.387   4.891 -0.0286  0.3299  0.0176
 7928SOL    HW124162   6.366   6.329   4.832  0.4948 -0.1693  0.9218
 7928SOL    HW224163   6.360   6.472   4.882  1.0989 -0.1214  0.8651
 7929SOL     OW24164   4.548   2.064   3.892 -0.5120  0.0466 -0.5297
 7929SOL    HW124165   4.630   2.024   3.863 -1.5013 -0.4817 -2.8512
 7929SOL    HW224166   4.558   2.157   3.871 -0.2459  0.1040 -0.1517
 7930SOL     OW24167   3.641   5.602   1.766 -0.3434  0.2789  0.0341
 7930SOL    HW124168   3.695   5.633   1.693 -1.5858 -0.3397 -1.2148
 7930SOL    HW224169   3.627   5.509   1.747 -1.7978  0.4199  0.3129
 7931SOL     OW24170   4.387   5.246   2.634  0.6498  0.2760 -0.0496
 7931SOL    HW124171   4.409   5.337   2.616 -1.8211  0.6306 -1.9129
 7931SOL    HW224172   4.334   5.219   2.559 -1.1471 -1.7788  1.8015
 7932SOL     OW24173   0.865   2.140   4.177  0.8339 -0.0546 -0.5548
 7932SOL    HW124174   0.877   2.226   4.136  1.6457 -0.1793 -0.5874
 7932SOL    HW224175   0.847   2.159   4.269  0.5762  0.1610 -0.6462
 7933SOL     OW24176   2.205   2.747   4.150  0.5459 -0.1428 -0.0262
 7933SOL    HW124177   2.196   2.807   4.077  0.5419 -1.5131 -1.1965
 7933SOL    HW224178   2.294   2.759   4.181  1.1514 -0.7874 -1.4281
 7934SOL     OW24179   1.868   5.030   5.260  0.5647  0.5245 -1.1939
 7934SOL    HW124180   1.962   5.038   5.276  0.5581  0.1690 -0.9511
 7934SOL    HW224181   1.838   4.967   5.326  0.1179  0.8039 -1.1274
 7935SOL     OW24182   0.453   4.718   0.090 -0.1797 -0.3513  0.3465
 7935SOL    HW124183   0.360   4.738   0.100 -0.3318 -0.8554 -0.0346
 7935SOL    HW224184   0.497   4.801   0.111 -0.6946 -0.1837  0.8026
 7936SOL     OW24185   6.120   2.295   3.969 -0.0419  0.0095  0.3131
 7936SOL    HW124186   6.040   2.300   3.917  0.9134  0.3111 -1.1675
 7936SOL    HW224187   6.113   2.213   4.017 -0.9882 -0.2239 -0.2090
 7937SOL     OW24188   2.386   6.739   6.293 -0.3246 -0.1431  0.3211
 7937SOL    HW124189   2.310   6.786   6.258 -0.0704 -0.1570 -0.2499
 7937SOL    HW224190   2.360   6.647   6.293 -1.5558  0.0868  3.2103
 7938SOL     OW24191   0.948   3.585   1.645  0.3919  0.6605 -0.4191
 7938SOL    HW124192   0.926   3.525   1.573  0.4890  0.6966 -0.4782
 7938SOL    HW224193   0.883   3.565   1.713  0.9134 -0.0761 -0.1187
 7939SOL     OW24194   2.249   1.542   2.136  0.2336  0.6320 -0.6237
 7939SOL    HW124195   2.234   1.461   2.185  0.1666 -0.0334 -1.7187
 7939SOL    HW224196   2.329   1.577   2.173  0.6772 -0.3281 -0.6363
 7940SOL     OW24197   3.279   1.051   6.390  0.5408  0.4402  0.0808
 7940SOL    HW124198   3.287   1.145   6.408  1.7187  0.2923  0.3817
 7940SOL    HW224199   3.331   1.037   6.311  0.1181  0.0877 -0.1397
 7941SOL     OW24200   4.374   0.128   3.375 -0.3043 -0.2936 -0.0720
 7941SOL    HW124201   4.462   0.127   3.414  0.3942 -0.1447 -1.5792
 7941SOL    HW224202   4.339   0.040   3.393 -0.2970 -0.0096  1.4664
 7942SOL     OW24203   6.269   6.541   2.025 -0.2964  0.2915 -0.3794
 7942SOL    HW124204   6.258   6.467   1.966 -0.5688  0.5436 -0.6488
 7942SOL    HW224205   6.184   6.551   2.068 -0.4153  0.7488 -0.7068
 7943SOL     OW24206   3.456   0.884   4.555  0.0838  0.8153 -0.0971
 7943SOL    HW124207   3.421   0.907   4.641 -0.3635  0.7496 -0.2582
 7943SOL    HW224208   3.491   0.967   4.521 -1.0826  1.1838 -0.4680
 7944SOL     OW24209   6.771   1.508   4.338 -0.0118  0.2911 -0.5800
 7944SOL    HW124210   6.763   1.571   4.266 -0.2398 -1.1179 -1.8265
 7944SOL    HW224211   6.682   1.474   4.350  0.3399 -0.7354 -0.8126
 7945SOL     OW24212   5.783   0.216   2.421  0.0260 -0.0027  0.7166
 7945SOL    HW124213   5.746   0.249   2.503 -0.7866  1.2728 -0.1427
 7945SOL    HW224214   5.762   0.282   2.356  1.9522 -0.2796 -0.2611
 7946SOL     OW24215   5.647   0.463   3.755  0.3826 -0.7779 -0.5743
 7946SOL    HW124216   5.696   0.538   3.723 -0.8435  0.1111 -0.4146
 7946SOL    HW224217   5.668   0.459   3.849  1.0380 -1.1180 -0.7249
 7947SOL     OW24218   0.633   0.515   6.514  0.5387 -0.0517 -0.1311
 7947SOL    HW124219   0.598   0.603   6.501 -0.6247 -0.7206 -1.8409
 7947SOL    HW224220   0.560   0.465   6.549  0.3281 -0.9764 -1.7901
 7948SOL     OW24221   4.146   2.109   0.933  0.0763  0.0591 -0.0116
 7948SOL    HW124222   4.139   2.190   0.882  1.9912  1.1402  1.3184
 7948SOL    HW224223   4.225   2.066   0.900  0.4509 -0.0091  0.9510
 7949SOL     OW24224   6.839   4.780   5.315 -0.0023 -0.1616 -0.6695
 7949SOL    HW124225   6.803   4.825   5.392 -0.9958 -0.8499 -0.7126
 7949SOL    HW224226   6.762   4.750   5.267  0.6023  0.5277 -2.1115
 7950SOL     OW24227   6.125   0.011   2.127  0.4209 -0.0599  0.1799
 7950SOL    HW124228   6.057   0.021   2.194  0.4512 -0.5463  0.2877
 7950SOL    HW224229   6.080  -0.031   2.054  1.1498 -3.0003  1.2487
 7951SOL     OW24230   3.212   0.149   6.245 -0.0269  0.2188 -0.5545
 7951SOL    HW124231   3.180   0.207   6.314 -0.5039  0.4560 -0.9587
 7951SOL    HW224232   3.287   0.104   6.283 -0.0328  0.6470 -0.0237
 7952SOL     OW24233   2.140   4.318   1.894  0.2603  0.4131  0.5718
 7952SOL    HW124234   2.106   4.369   1.820  1.2445 -0.1983 -0.3318
 7952SOL    HW224235   2.200   4.377   1.938 -0.5788  0.8938  1.1105
 7953SOL     OW24236   5.762   2.755   1.080 -0.1822 -0.3771  0.1052
 7953SOL    HW124237   5.709   2.727   1.006 -1.4082  1.4873  0.2265
 7953SOL    HW224238   5.850   2.723   1.061 -0.4418  0.1698 -2.2068
 7954SOL     OW24239   2.531   0.678   1.417 -0.2888  0.0004  0.1509
 7954SOL    HW124240   2.471   0.627   1.471  0.3884 -0.0035  0.9206
 7954SOL    HW224241   2.493   0.765   1.414  0.3162  0.3415  1.7301
 7955SOL     OW24242   2.834   5.994   2.631 -0.6844 -0.1458 -0.2746
 7955SOL    HW124243   2.879   6.023   2.551 -0.9036 -1.9151 -1.0999
 7955SOL    HW224244   2.884   5.918   2.660 -0.7859  0.2994  1.1253
 7956SOL     OW24245   4.735   2.582   2.899  0.1522 -0.0322 -0.0411
 7956SOL    HW124246   4.734   2.584   2.995 -0.3320 -1.8388  0.0320
 7956SOL    HW224247   4.763   2.493   2.878 -1.7910 -0.3284 -1.5654
 7957SOL     OW24248   6.618   6.527   2.592 -0.2544  0.0409 -0.1579
 7957SOL    HW124249   6.582   6.533   2.503  2.1205 -0.1240 -1.2067
 7957SOL    HW224250   6.624   6.618   2.621  0.8288  0.2673 -1.0112
 7958SOL     OW24251   6.555   2.446   3.786  0.2669 -0.6778 -0.3963
 7958SOL    HW124252   6.489   2.403   3.731  1.5451 -1.2984 -1.5050
 7958SOL    HW224253   6.630   2.386   3.784  1.2180  0.4680  0.0203
 7959SOL     OW24254   5.634   1.051   6.532  0.1692 -0.1311  0.2372
 7959SOL    HW124255   5.645   0.999   6.452  1.5945 -1.4070  1.2084
 7959SOL    HW224256   5.539   1.066   6.537  0.1844  1.8728 -2.7762
 7960SOL     OW24257   3.328   6.634   6.513 -0.1799 -0.0029 -0.2879
 7960SOL    HW124258   3.407   6.583   6.494 -0.8578 -1.0508 -0.3777
 7960SOL    HW224259   3.299   6.665   6.427  0.1781  0.4606 -0.2449
 7961SOL     OW24260   4.030   1.467   3.852  0.8822  0.3734  0.5984
 7961SOL    HW124261   4.014   1.528   3.923  0.6648  0.9006  0.1001
 7961SOL    HW224262   4.079   1.517   3.787 -0.3345  0.3761 -0.3451
 7962SOL     OW24263   1.001   6.181   0.030  0.8321 -0.2763  0.1164
 7962SOL    HW124264   0.995   6.098  -0.016 -0.0579 -1.1067  1.6427
 7962SOL    HW224265   1.045   6.240  -0.031  0.9220 -1.6901 -1.2277
 7963SOL     OW24266   3.272   5.839   4.397  0.0842 -0.1432  0.5718
 7963SOL    HW124267   3.363   5.853   4.369 -0.3772  2.0847 -0.0664
 7963SOL    HW224268   3.261   5.899   4.471 -1.1414  0.4260 -0.0401
 7964SOL     OW24269   5.992   3.526   5.649  0.1759  0.8641  0.1617
 7964SOL    HW124270   6.029   3.541   5.562 -1.7600  1.1867 -0.6424
 7964SOL    HW224271   6.055   3.467   5.691  1.6932  1.5515 -1.0412
 7965SOL     OW24272   3.778   6.242   0.774 -0.1281 -0.1195  0.4279
 7965SOL    HW124273   3.754   6.177   0.708  1.5157 -0.2244 -0.1138
 7965SOL    HW224274   3.820   6.312   0.724 -1.4843  1.2053  1.0519
 7966SOL     OW24275   0.416   0.266   2.586 -0.2726 -0.0040  0.0062
 7966SOL    HW124276   0.333   0.297   2.622 -0.6731 -0.7073 -0.2978
 7966SOL    HW224277   0.412   0.171   2.594 -0.5006 -0.2122 -2.1699
 7967SOL     OW24278   1.761   1.714   3.669  0.3617  0.2088 -0.1466
 7967SOL    HW124279   1.702   1.774   3.623  1.0905  0.1191 -1.2249
 7967SOL    HW224280   1.849   1.739   3.639  0.6922 -1.2209 -0.4228
 7968SOL     OW24281   4.605   6.150   3.515  0.4249  0.1096 -0.2662
 7968SOL    HW124282   4.556   6.082   3.470 -1.2323  0.8885  0.2949
 7968SOL    HW224283   4.624   6.215   3.447  0.8839 -0.2784 -0.5214
 7969SOL     OW24284   4.302   0.918   0.077  0.1702 -0.8436  0.5819
 7969SOL    HW124285   4.373   0.907   0.014  0.6655  0.0718  0.9704
 7969SOL    HW224286   4.328   0.865   0.152  0.5695 -0.2947  0.8301
 7970SOL     OW24287   3.075   6.584   6.311  0.1533 -0.4827  0.4604
 7970SOL    HW124288   3.009   6.609   6.376  1.5269  1.0119  1.3589
 7970SOL    HW224289   3.119   6.509   6.350  0.0424 -0.4753  0.6015
 7971SOL     OW24290   0.447   5.251   6.381 -0.4773  0.6032 -0.5724
 7971SOL    HW124291   0.372   5.194   6.369  0.2398 -0.3345 -0.6806
 7971SOL    HW224292   0.417   5.319   6.441 -0.8486 -0.8304  0.9180
 7972SOL     OW24293   0.368   1.160   2.607  0.1677  0.1873 -0.3301
 7972SOL    HW124294   0.432   1.115   2.661 -2.8968 -0.7676  2.9008
 7972SOL    HW224295   0.364   1.249   2.644  0.5186  0.6498 -1.3726
 7973SOL     OW24296   0.180   3.846   0.661 -0.1708  0.5634  0.3251
 7973SOL    HW124297   0.250   3.801   0.614 -0.2747 -0.1790  0.8577
 7973SOL    HW224298   0.208   3.937   0.665  0.3117  0.4466 -0.2922
 7974SOL     OW24299   5.775   2.009   1.256 -0.5354 -0.1257  0.0868
 7974SOL    HW124300   5.685   1.983   1.235 -0.9107  0.8799  0.3770
 7974SOL    HW224301   5.779   2.102   1.231  0.1267  0.0929  0.9649
 7975SOL     OW24302   5.763   1.426   6.100 -0.4097 -0.2136 -0.3165
 7975SOL    HW124303   5.852   1.457   6.117 -0.6708  2.3374 -2.7399
 7975SOL    HW224304   5.773   1.358   6.034 -0.1795 -1.1701  0.6888
 7976SOL     OW24305   1.943   3.435   4.856  0.5088  0.1693 -0.4859
 7976SOL    HW124306   1.906   3.347   4.861 -0.8387  0.6944 -0.7826
 7976SOL    HW224307   2.036   3.423   4.873  0.4301 -1.3688 -1.0030
 7977SOL     OW24308   2.923   5.645   4.592  0.2247  0.3550  0.0035
 7977SOL    HW124309   2.943   5.585   4.521  0.5547  0.0656  0.3390
 7977SOL    HW224310   2.851   5.603   4.639  1.5030 -0.5871  1.1957
 7978SOL     OW24311   5.721   2.796   5.063  0.3633  0.1000  0.9816
 7978SOL    HW124312   5.695   2.821   4.975  0.7313 -1.2025  0.4749
 7978SOL    HW224313   5.671   2.854   5.121 -0.7372  0.2086 -0.0529
 7979SOL     OW24314   5.162   3.758   2.363 -0.0138  0.1851  0.4845
 7979SOL    HW124315   5.151   3.704   2.285  2.0043  0.2805  0.0669
 7979SOL    HW224316   5.122   3.707   2.433 -0.7785 -0.4646 -0.3857
 7980SOL     OW24317   4.989   0.292   5.753 -0.2783  0.1959  0.0752
 7980SOL    HW124318   5.009   0.335   5.670 -1.9981 -0.9488 -0.9811
 7980SOL    HW224319   4.944   0.359   5.805  0.1171  0.6818 -0.2022
 7981SOL     OW24320   0.268   2.238   4.754  0.3161  0.4588  0.2127
 7981SOL    HW124321   0.218   2.163   4.785  0.4640  0.8846  1.5644
 7981SOL    HW224322   0.305   2.277   4.834  0.1440  2.0255 -0.4265
 7982SOL     OW24323   4.190   3.676   4.145  0.3665  0.4082 -0.1749
 7982SOL    HW124324   4.240   3.677   4.227  2.0004 -0.2212 -1.1043
 7982SOL    HW224325   4.243   3.622   4.086 -0.4077  1.4115 -1.8585
 7983SOL     OW24326   2.773   4.616   1.544 -0.2321 -0.6579  0.0325
 7983SOL    HW124327   2.686   4.646   1.520 -0.3295 -1.9807 -1.3736
 7983SOL    HW224328   2.758   4.553   1.615 -0.3869 -0.6325  0.0223
 7984SOL     OW24329   5.920   3.478   6.322 -0.8455  0.2544 -0.0493
 7984SOL    HW124330   5.951   3.569   6.329  0.8245 -0.3228  0.6855
 7984SOL    HW224331   5.985   3.428   6.372 -0.9964 -1.5096 -1.5444
 7985SOL     OW24332   1.449   5.885   5.149 -0.1550  0.5260  0.2112
 7985SOL    HW124333   1.383   5.947   5.117 -0.5021  0.4285  0.7193
 7985SOL    HW224334   1.419   5.800   5.118 -0.3182  0.4703  0.5203
 7986SOL     OW24335   0.539   0.833   3.223 -0.2098 -0.5017 -0.8420
 7986SOL    HW124336   0.634   0.829   3.234 -0.1818 -0.8703 -1.1671
 7986SOL    HW224337   0.506   0.866   3.306  0.3415  1.5727 -1.3897
 7987SOL     OW24338   0.831   5.407   2.868 -0.3392  0.0738  0.3718
 7987SOL    HW124339   0.782   5.450   2.798  0.9650  0.8737 -0.1087
 7987SOL    HW224340   0.881   5.479   2.909  1.6034 -0.8768 -0.1923
 7988SOL     OW24341   5.890   4.340   0.403  0.1121  0.4137 -0.6394
 7988SOL    HW124342   5.838   4.415   0.376 -0.9245 -0.2844 -0.6339
 7988SOL    HW224343   5.878   4.275   0.334  3.9971  1.4999 -2.6096
 7989SOL     OW24344   4.725   4.818   1.873 -0.1120 -0.2045 -0.1253
 7989SOL    HW124345   4.726   4.773   1.957 -1.1111 -0.0972 -0.0485
 7989SOL    HW224346   4.635   4.811   1.842  0.2151 -0.1459 -1.1404
 7990SOL     OW24347   0.638   1.474   3.679 -0.2870  0.3250 -0.1962
 7990SOL    HW124348   0.566   1.536   3.672 -1.6226 -1.3070 -1.9569
 7990SOL    HW224349   0.714   1.528   3.699 -1.7758  2.2289  0.6796
 7991SOL     OW24350   6.800   1.346   2.139 -0.4476 -0.0536 -0.2966
 7991SOL    HW124351   6.776   1.403   2.066 -2.2015 -0.1040  0.1890
 7991SOL    HW224352   6.739   1.371   2.209  1.4182  0.2604  1.2968
 7992SOL     OW24353   5.278   1.031   1.565  0.4929 -0.7181 -0.0115
 7992SOL    HW124354   5.239   1.029   1.478  0.2179  2.4946 -0.0961
 7992SOL    HW224355   5.368   1.059   1.551  0.4529 -0.1896  0.7261
 7993SOL     OW24356   4.854   6.490   1.501 -0.2628 -0.8357  0.5803
 7993SOL    HW124357   4.860   6.574   1.456  1.6188 -1.3269 -0.1756
 7993SOL    HW224358   4.927   6.490   1.563  1.4737 -2.9004 -1.2915
 7994SOL     OW24359   3.458   1.471   3.375  0.2294  0.4652 -0.4587
 7994SOL    HW124360   3.497   1.386   3.395 -0.2266 -0.1389 -1.9660
 7994SOL    HW224361   3.498   1.496   3.291 -0.4394  1.2168 -0.5583
 7995SOL     OW24362   1.815   1.899   0.885  0.1037 -0.1834 -0.1616
 7995SOL    HW124363   1.851   1.853   0.962  0.7602 -1.9566 -1.4661
 7995SOL    HW224364   1.729   1.928   0.913 -0.5601 -2.6550  0.6284
 7996SOL     OW24365   2.371   0.550   3.252 -0.2683 -0.2435  0.6916
 7996SOL    HW124366   2.378   0.566   3.346 -1.7219  1.9625  0.5010
 7996SOL    HW224367   2.339   0.460   3.245  1.0217 -0.8671  2.2234
 7997SOL     OW24368   4.812   2.386   4.114 -0.1049  0.0062  0.5452
 7997SOL    HW124369   4.849   2.298   4.122 -1.5644 -0.7271 -0.2926
 7997SOL    HW224370   4.728   2.381   4.160  0.1198  1.1842  1.1093
 7998SOL     OW24371   4.919   2.101   1.647 -0.2917  0.3831 -0.0366
 7998SOL    HW124372   4.848   2.155   1.612  0.4870  1.4082 -0.0779
 7998SOL    HW224373   4.940   2.142   1.731  0.2336  0.0663 -0.0118
 7999SOL     OW24374   2.454   3.548   3.129 -0.8161 -0.4050 -0.4464
 7999SOL    HW124375   2.367   3.537   3.090 -1.2938  0.9143  0.1653
 7999SOL    HW224376   2.502   3.601   3.066 -1.2067  0.7293  0.1638
 8000SOL     OW24377   6.031   1.646   5.949  0.5578 -0.6221  0.4848
 8000SOL    HW124378   6.037   1.722   5.891  1.1002 -1.0237  0.0093
 8000SOL    HW224379   6.008   1.683   6.035 -0.1873 -0.0189  0.0379
 8001SOL     OW24380   6.415   5.816   3.892 -0.1879  0.0563  0.0193
 8001SOL    HW124381   6.395   5.740   3.838 -0.3461  0.1023  0.0106
 8001SOL    HW224382   6.455   5.780   3.971  1.7367  0.1074 -0.8907
 8002SOL     OW24383   5.866   3.215   0.624 -0.2331  0.5672 -0.3600
 8002SOL    HW124384   5.815   3.246   0.549 -1.3257  0.4365  0.3013
 8002SOL    HW224385   5.885   3.294   0.674  1.2613  0.7735 -1.1995
 8003SOL     OW24386   0.119   0.593   1.244  0.1246  0.1767 -0.4206
 8003SOL    HW124387   0.163   0.677   1.260 -0.0235  0.1636  0.0711
 8003SOL    HW224388   0.039   0.598   1.297 -0.5459  0.2613 -1.4245
 8004SOL     OW24389   3.720   0.565   0.247  0.3014  0.0971 -0.3582
 8004SOL    HW124390   3.718   0.470   0.235  1.5448  0.0042 -0.0515
 8004SOL    HW224391   3.795   0.594   0.195 -0.5220  1.0238 -1.0556
 8005SOL     OW24392   4.850   4.747   4.169  0.0681 -0.3741  0.5076
 8005SOL    HW124393   4.925   4.696   4.202  0.0694 -0.6604  0.0721
 8005SOL    HW224394   4.775   4.689   4.180 -0.0124 -0.2742  0.4866
 8006SOL     OW24395   6.174   4.107   4.353  0.6152  0.0196  0.2485
 8006SOL    HW124396   6.248   4.130   4.409 -0.5253 -0.3608  1.9907
 8006SOL    HW224397   6.196   4.019   4.320  0.8525 -0.1827  0.9223
 8007SOL     OW24398   3.724   2.799   0.693  0.3731 -0.2217 -0.4915
 8007SOL    HW124399   3.690   2.710   0.704 -1.1245  0.4023  0.2439
 8007SOL    HW224400   3.817   2.787   0.675 -0.1185 -2.0111 -2.2026
 8008SOL     OW24401   0.127   5.873   3.626 -0.7319  0.1065 -0.3071
 8008SOL    HW124402   0.151   5.860   3.718 -0.7516 -0.8270 -0.4293
 8008SOL    HW224403   0.169   5.801   3.579 -2.5081 -0.7009 -0.7379
 8009SOL     OW24404   5.823   3.820   4.120 -0.4549 -0.3838 -1.1972
 8009SOL    HW124405   5.886   3.875   4.073 -0.1705 -1.4731 -2.1448
 8009SOL    HW224406   5.821   3.738   4.070 -2.5676 -0.4182 -1.1661
 8010SOL     OW24407   2.426   1.345   3.724  0.5231  0.0288 -0.2732
 8010SOL    HW124408   2.388   1.375   3.807  0.5411  0.4307 -0.4036
 8010SOL    HW224409   2.510   1.307   3.747  0.0498 -0.8521  0.0197
 8011SOL     OW24410   1.385   0.818   3.682 -0.0211  0.1584  0.1472
 8011SOL    HW124411   1.415   0.776   3.763  0.2930  1.5093  0.7605
 8011SOL    HW224412   1.461   0.868   3.651 -0.4937  0.5687 -0.3625
 8012SOL     OW24413   2.854   6.108   3.109  0.6559  0.0772  0.4638
 8012SOL    HW124414   2.822   6.084   3.022 -0.3728 -0.4748  0.9718
 8012SOL    HW224415   2.774   6.120   3.161  1.1516 -3.4795  2.3612
 8013SOL     OW24416   5.895   4.269   0.100 -0.0851  0.2335  0.6803
 8013SOL    HW124417   5.883   4.351   0.052 -0.8006 -0.4111 -0.2798
 8013SOL    HW224418   5.972   4.229   0.061  0.0413  0.2730  0.8889
 8014SOL     OW24419   1.869   4.616   2.616 -0.6376 -0.0080  0.2062
 8014SOL    HW124420   1.891   4.642   2.706 -1.4048  0.1342  0.3567
 8014SOL    HW224421   1.873   4.521   2.616  0.4663  0.0229  0.0977
 8015SOL     OW24422   6.115   4.547   5.172 -0.0660 -0.2039 -0.1296
 8015SOL    HW124423   6.028   4.519   5.202 -0.3214  0.9004  0.2117
 8015SOL    HW224424   6.167   4.555   5.252  0.0907 -0.0281 -0.2459
 8016SOL     OW24425   3.967   6.192   5.684 -0.3672  0.4268 -0.1015
 8016SOL    HW124426   3.892   6.252   5.683 -2.5088 -2.0282 -2.4019
 8016SOL    HW224427   3.993   6.186   5.592 -0.9403 -2.8118 -0.1771
 8017SOL     OW24428   6.104   0.453   3.049 -0.0415 -0.3981 -0.1727
 8017SOL    HW124429   6.132   0.488   3.133  0.3529 -1.5959  0.2062
 8017SOL    HW224430   6.169   0.387   3.027 -1.5426 -1.9526 -0.1593
 8018SOL     OW24431   2.079   0.549   0.511 -0.1212  0.3059 -0.0578
 8018SOL    HW124432   2.156   0.584   0.466  0.1787  0.4179  0.5280
 8018SOL    HW224433   2.088   0.454   0.505 -0.1387  0.3213 -0.3248
 8019SOL     OW24434   0.092   3.532   2.407 -0.0056  0.0798  0.0181
 8019SOL    HW124435   0.080   3.438   2.393  1.4533 -0.1116 -0.1170
 8019SOL    HW224436   0.012   3.561   2.450 -0.9063 -1.0247 -0.8552
 8020SOL     OW24437   4.500   4.282   5.888 -0.0316 -0.1816 -0.3318
 8020SOL    HW124438   4.416   4.326   5.873  0.7983  1.3679 -0.6954
 8020SOL    HW224439   4.555   4.311   5.814  0.9030 -0.9405  0.0494
 8021SOL     OW24440   3.840   6.436   4.508  0.6266 -0.5001  0.2855
 8021SOL    HW124441   3.914   6.415   4.451 -0.8334 -0.3800 -1.7712
 8021SOL    HW224442   3.879   6.479   4.584  2.5749  0.9423 -1.4314
 8022SOL     OW24443   5.003   1.607   1.386  0.5817 -0.9531  0.2449
 8022SOL    HW124444   4.943   1.628   1.314 -1.6921  2.1593  2.8059
 8022SOL    HW224445   5.088   1.592   1.342 -0.8659 -0.2938 -3.1099
 8023SOL     OW24446   3.964   1.133   6.198  0.0448  0.2767 -0.1715
 8023SOL    HW124447   3.956   1.160   6.107  2.1378  0.1018 -0.4546
 8023SOL    HW224448   3.876   1.144   6.234 -1.2570 -1.2403 -2.6233
 8024SOL     OW24449   2.082   1.552   5.683  0.1494 -0.6146 -0.5855
 8024SOL    HW124450   2.141   1.499   5.737 -0.7495 -0.9319  0.1248
 8024SOL    HW224451   2.011   1.491   5.659  0.0433 -0.2098 -1.3083
 8025SOL     OW24452   5.036   4.285   5.953  0.4691 -0.7102 -0.3310
 8025SOL    HW124453   5.118   4.237   5.965  1.5744  1.1236 -0.3497
 8025SOL    HW224454   5.039   4.354   6.019 -0.2768  0.4029 -1.4314
 8026SOL     OW24455   2.348   5.967   2.015 -0.3540 -0.2202 -0.3172
 8026SOL    HW124456   2.373   6.031   1.949  0.7118 -1.6353 -1.3313
 8026SOL    HW224457   2.378   6.006   2.098 -1.0183  1.2138 -0.7123
 8027SOL     OW24458   0.319   4.516   2.452 -0.1366  0.1620  0.5172
 8027SOL    HW124459   0.409   4.486   2.448 -0.1158  0.1623  0.9375
 8027SOL    HW224460   0.311   4.578   2.380 -0.8010 -2.4822 -1.8269
 8028SOL     OW24461   4.904   1.118   6.316 -0.2491  0.4356 -0.6407
 8028SOL    HW124462   4.900   1.122   6.220 -0.8886  0.3081 -0.6225
 8028SOL    HW224463   4.994   1.091   6.334 -0.7939 -2.0756 -1.3093
 8029SOL     OW24464   1.179   2.956   2.771 -0.1287  0.0508  0.2423
 8029SOL    HW124465   1.272   2.974   2.759  0.3022 -2.0437  0.1980
 8029SOL    HW224466   1.173   2.861   2.779 -2.0946  0.2564  1.8977
 8030SOL     OW24467   3.020   5.576   1.733  0.5753  0.2109  0.5902
 8030SOL    HW124468   2.959   5.615   1.671  1.4078  0.6596  0.0479
 8030SOL    HW224469   3.018   5.482   1.713  0.9571  0.3745 -0.2239
 8031SOL     OW24470   3.929   3.198   4.643 -0.0845  0.4570 -0.3514
 8031SOL    HW124471   4.016   3.216   4.608  0.0729  0.0000 -0.2097
 8031SOL    HW224472   3.870   3.206   4.568  0.2786 -0.7652 -0.8046
 8032SOL     OW24473   1.517   4.726   5.079  0.1165 -0.1339 -1.0110
 8032SOL    HW124474   1.514   4.670   5.002  1.5778  0.4091 -1.5016
 8032SOL    HW224475   1.572   4.800   5.053 -0.2568  0.6113  0.2084
 8033SOL     OW24476   6.258   3.789   5.520  0.2867 -0.0162  0.6106
 8033SOL    HW124477   6.296   3.851   5.457  1.6496 -0.0746  1.3408
 8033SOL    HW224478   6.289   3.821   5.605  1.7271 -2.1357  0.9607
 8034SOL     OW24479   6.804   1.946   3.069  0.3479 -0.1265 -0.1903
 8034SOL    HW124480   6.878   1.888   3.052  0.2053 -0.1983 -0.5803
 8034SOL    HW224481   6.805   2.009   2.997 -1.9044 -2.0833 -2.1112
 8035SOL     OW24482   3.160   2.046   6.555  0.1937  0.6409  0.0557
 8035SOL    HW124483   3.250   2.014   6.561  0.1046  0.5924  1.5037
 8035SOL    HW224484   3.116   1.985   6.495  1.1875  0.8487 -0.9080
 8036SOL     OW24485   3.881   4.247   5.612  0.1678  0.4668  0.1111
 8036SOL    HW124486   3.846   4.212   5.694 -0.5628 -0.8699 -0.7296
 8036SOL    HW224487   3.815   4.311   5.583 -0.2832 -0.1016 -0.1341
 8037SOL     OW24488   6.587   2.413   5.725 -0.2363  0.0956 -0.3002
 8037SOL    HW124489   6.570   2.454   5.809 -2.1289 -0.1371 -0.5261
 8037SOL    HW224490   6.670   2.451   5.695  0.1742  0.5866  1.3923
 8038SOL     OW24491   3.920   6.485   1.980 -0.3153  0.1181 -0.3386
 8038SOL    HW124492   3.996   6.447   2.025 -1.1009 -0.1860  0.7741
 8038SOL    HW224493   3.920   6.577   2.008 -0.4171  0.0941 -0.2617
 8039SOL     OW24494   0.953   4.996   3.573 -0.1543 -0.4666 -0.6248
 8039SOL    HW124495   0.876   5.032   3.618  0.1458 -0.6715  0.0551
 8039SOL    HW224496   0.949   5.035   3.485  0.3635  1.5460  0.1835
 8040SOL     OW24497   3.315   2.950   5.449 -0.3484 -0.0429  0.1220
 8040SOL    HW124498   3.390   2.963   5.390 -0.3623  0.9279  0.3052
 8040SOL    HW224499   3.306   2.855   5.454 -0.9072 -0.1728 -2.1531
 8041SOL     OW24500   5.449   1.018   0.508  0.6970  0.2909  0.3409
 8041SOL    HW124501   5.416   1.071   0.580 -1.2597 -1.8119  1.1367
 8041SOL    HW224502   5.542   1.038   0.503  0.3950  2.2909  1.8409
 8042SOL     OW24503   3.610   2.469   6.552 -0.1706 -0.0924  0.5077
 8042SOL    HW124504   3.569   2.533   6.609 -1.0358 -1.9007  2.0085
 8042SOL    HW224505   3.702   2.497   6.547 -0.8523  2.2047 -0.3235
 8043SOL     OW24506   4.049   2.307   4.734 -0.2948 -0.4677  0.5118
 8043SOL    HW124507   4.062   2.228   4.787  0.8297  0.7191  2.1333
 8043SOL    HW224508   4.105   2.295   4.658  2.8428  0.1942  2.4945
 8044SOL     OW24509   1.466   0.448   4.587 -0.2044 -0.3898 -0.3579
 8044SOL    HW124510   1.418   0.415   4.663 -0.6217 -0.7389 -0.7651
 8044SOL    HW224511   1.492   0.537   4.612 -2.7475  0.5614 -0.8322
 8045SOL     OW24512   1.587   2.475   6.656 -0.1727 -0.2215 -0.2405
 8045SOL    HW124513   1.537   2.395   6.637 -1.0765 -0.2083  1.8366
 8045SOL    HW224514   1.526   2.546   6.635  0.8637  0.0438 -2.7602
 8046SOL     OW24515   5.233   4.745   2.561 -0.5343  0.2081  0.0366
 8046SOL    HW124516   5.256   4.653   2.549 -0.2486  0.2984 -0.1329
 8046SOL    HW224517   5.163   4.761   2.498 -0.9633 -0.0335  0.4508
 8047SOL     OW24518   3.866   5.169   0.065  0.0549  0.1137 -0.6396
 8047SOL    HW124519   3.779   5.181   0.103  0.6732  1.4741  0.4033
 8047SOL    HW224520   3.864   5.221  -0.015 -0.1124  0.0641 -0.6701
 8048SOL     OW24521   3.944   1.745   6.763  0.6483  0.7094 -0.1885
 8048SOL    HW124522   3.955   1.780   6.675 -1.3104  0.1414 -0.7080
 8048SOL    HW224523   3.900   1.816   6.811  1.4525  0.9097  0.2736
 8049SOL     OW24524   1.091   0.542   5.588 -0.6810  0.0168  0.4628
 8049SOL    HW124525   1.006   0.577   5.612 -1.7529  0.7527 -3.6696
 8049SOL    HW224526   1.071   0.465   5.534  1.1536  0.4591 -0.9654
 8050SOL     OW24527   1.907   0.501   4.194  0.4781  0.9343 -0.1206
 8050SOL    HW124528   1.910   0.545   4.279 -2.0838  1.2712 -0.1525
 8050SOL    HW224529   1.869   0.565   4.135 -0.9427 -0.4263 -0.7370
 8051SOL     OW24530   4.881   2.277   5.556 -0.1190  0.1389 -0.0033
 8051SOL    HW124531   4.798   2.234   5.574 -0.0378  0.0359  0.1323
 8051SOL    HW224532   4.913   2.236   5.476 -0.2368  0.2351 -0.0994
 8052SOL     OW24533   2.088   2.122   2.845  0.4129 -0.2883  0.0322
 8052SOL    HW124534   2.109   2.040   2.801  0.0412 -1.5522  2.0690
 8052SOL    HW224535   2.162   2.179   2.826  0.9169 -1.2599 -1.0228
 8053SOL     OW24536   3.814   6.577   2.316 -0.5522 -0.0829 -0.1176
 8053SOL    HW124537   3.890   6.519   2.314  0.5103  1.2535 -0.1490
 8053SOL    HW224538   3.829   6.639   2.245 -1.1457  0.8165  0.5159
 8054SOL     OW24539   0.582   4.025   6.320  0.2754 -0.2221  0.2614
 8054SOL    HW124540   0.534   3.952   6.282  0.3930 -0.5884  0.8049
 8054SOL    HW224541   0.609   3.994   6.406  2.1623 -0.3369 -0.3138
 8055SOL     OW24542   4.402   5.031   3.186  0.1273 -0.0859 -0.1622
 8055SOL    HW124543   4.349   4.952   3.195  0.4012 -0.4977 -1.8574
 8055SOL    HW224544   4.451   5.037   3.268 -0.2978 -1.3731  0.2032
 8056SOL     OW24545   5.836   4.371   1.119  0.2734 -0.2555 -0.0783
 8056SOL    HW124546   5.796   4.345   1.036  1.0165  1.4900 -1.0204
 8056SOL    HW224547   5.764   4.408   1.170 -0.0136 -0.5491 -0.2628
 8057SOL     OW24548   5.349   2.133   0.544 -0.5357  0.1201 -0.1416
 8057SOL    HW124549   5.399   2.058   0.512 -0.7886 -0.1405  0.0606
 8057SOL    HW224550   5.268   2.094   0.579 -0.8316  0.5222 -0.3692
 8058SOL     OW24551   4.337   4.590   1.965  0.0568 -0.2033 -0.0434
 8058SOL    HW124552   4.343   4.566   1.873 -1.1361 -1.0480  0.0749
 8058SOL    HW224553   4.383   4.520   2.011 -0.3158 -0.3764  0.0694
 8059SOL     OW24554   6.376   4.546   6.564  0.0802 -0.0855  0.0831
 8059SOL    HW124555   6.385   4.623   6.619 -0.0749 -0.5237  0.7299
 8059SOL    HW224556   6.455   4.494   6.581  0.8825  0.5582 -1.3915
 8060SOL     OW24557   3.382   2.410   4.972 -0.3439  0.3632 -0.3406
 8060SOL    HW124558   3.305   2.434   4.920 -0.2732 -0.9558 -1.1016
 8060SOL    HW224559   3.348   2.400   5.061 -0.5468  2.2531 -0.1654
 8061SOL     OW24560   4.541   4.992   1.042 -0.6477  0.8043 -0.2671
 8061SOL    HW124561   4.543   5.014   1.135  0.1784  0.7204 -0.2600
 8061SOL    HW224562   4.468   4.930   1.034 -0.2002  0.1692  0.4736
 8062SOL     OW24563   6.201   3.572   3.209 -0.1084  0.4702 -0.4066
 8062SOL    HW124564   6.199   3.650   3.265  0.8189  0.8014 -0.8039
 8062SOL    HW224565   6.209   3.499   3.269 -0.0476  0.7535 -0.0675
 8063SOL     OW24566   5.458   5.458   2.394  0.0144 -0.3775 -0.4333
 8063SOL    HW124567   5.401   5.534   2.410 -0.6481 -0.4375 -2.2990
 8063SOL    HW224568   5.412   5.408   2.326  0.7688 -2.1150  0.2810
 8064SOL     OW24569   3.072   2.602   3.630  0.0229  0.3202 -0.0584
 8064SOL    HW124570   3.073   2.519   3.582  0.3156  0.0139  0.4749
 8064SOL    HW224571   3.092   2.668   3.564 -1.4837  0.1234 -0.7709
 8065SOL     OW24572   0.927   1.661   4.629 -0.4287 -0.0772  0.1829
 8065SOL    HW124573   0.949   1.597   4.560 -0.0510 -0.5124  0.6963
 8065SOL    HW224574   0.926   1.745   4.584  0.0191 -0.3344 -0.3244
 8066SOL     OW24575   3.561   6.475   6.461 -0.7998 -0.5062  0.1325
 8066SOL    HW124576   3.656   6.463   6.461 -0.4744  1.0208  3.1068
 8066SOL    HW224577   3.539   6.499   6.371  1.8657  0.5570 -0.3067
 8067SOL     OW24578   6.053   6.769   0.510 -0.0884 -0.5537  0.4759
 8067SOL    HW124579   6.055   6.787   0.604  1.7250  0.3121  0.3023
 8067SOL    HW224580   6.067   6.854   0.469 -3.5502 -0.4059 -0.7221
 8068SOL     OW24581   2.239   2.478   4.938 -0.8851 -0.2073  0.0625
 8068SOL    HW124582   2.262   2.388   4.915 -0.3406 -0.6500  2.0942
 8068SOL    HW224583   2.223   2.474   5.032  1.2101  2.2280  0.6047
 8069SOL     OW24584   0.352   6.306   5.932  0.4803 -0.1145  0.3490
 8069SOL    HW124585   0.279   6.339   5.985 -0.3280  0.3749 -1.0147
 8069SOL    HW224586   0.318   6.226   5.892  0.5259  0.3605 -0.6546
 8070SOL     OW24587   3.698   5.996   2.353  0.7550 -0.4726  0.6746
 8070SOL    HW124588   3.740   5.913   2.331 -1.4764 -1.3907 -0.5083
 8070SOL    HW224589   3.765   6.062   2.338  2.5209 -2.0210  1.4169
 8071SOL     OW24590   6.047   1.069   1.509 -0.0814  0.2883  0.0331
 8071SOL    HW124591   6.134   1.083   1.473 -0.4794  1.5033 -0.4844
 8071SOL    HW224592   6.016   1.156   1.532 -1.2954 -0.0953 -0.0873
 8072SOL     OW24593   1.630   3.552   5.471 -0.0760  0.9545  0.2377
 8072SOL    HW124594   1.556   3.596   5.513 -0.7982 -0.5654  0.6391
 8072SOL    HW224595   1.592   3.508   5.395  0.2980 -0.2569  0.7287
 8073SOL     OW24596   6.533   3.403   4.981 -0.1671 -0.0173  0.1255
 8073SOL    HW124597   6.506   3.479   5.033 -0.8101  1.1459 -1.8019
 8073SOL    HW224598   6.507   3.425   4.891  1.7427 -1.5069 -0.8646
 8074SOL     OW24599   5.287   0.636   1.957  0.4269 -0.3389  0.2968
 8074SOL    HW124600   5.285   0.563   2.019  0.7964 -1.5882 -1.1025
 8074SOL    HW224601   5.346   0.606   1.887  0.1525  1.0813 -0.5823
 8075SOL     OW24602   4.464   6.046   5.869 -0.8143 -0.1675 -0.4586
 8075SOL    HW124603   4.515   6.097   5.806 -0.3583 -2.1418 -1.7740
 8075SOL    HW224604   4.465   5.957   5.834 -1.1127 -1.2225  2.0190
 8076SOL     OW24605   1.463   5.149   1.191 -0.5982 -0.4190 -0.0227
 8076SOL    HW124606   1.557   5.165   1.197 -0.2430 -1.9589 -0.8042
 8076SOL    HW224607   1.424   5.235   1.181  0.9701  0.1133 -2.2978
 8077SOL     OW24608   6.688   4.851   1.982 -0.3519  0.0080  0.2287
 8077SOL    HW124609   6.721   4.929   1.938  0.0691 -0.4294 -0.2554
 8077SOL    HW224610   6.611   4.826   1.930  0.3836 -0.7448 -0.5380
 8078SOL     OW24611   4.745   2.311   1.698 -0.5161  0.4155  0.1458
 8078SOL    HW124612   4.740   2.377   1.767  0.0197 -0.5278  1.1160
 8078SOL    HW224613   4.816   2.340   1.641  1.5757 -0.6559  2.0708
 8079SOL     OW24614   6.635   2.953   1.492 -0.2427  0.7091 -0.0869
 8079SOL    HW124615   6.581   3.032   1.493 -1.1684  0.1926 -2.6583
 8079SOL    HW224616   6.673   2.951   1.404  0.7758 -1.0714  0.3425
 8080SOL     OW24617   5.524   2.913   5.255  0.4662 -0.2034  0.4344
 8080SOL    HW124618   5.566   2.944   5.335  1.2225  0.2003 -0.1153
 8080SOL    HW224619   5.483   2.991   5.217 -1.1028 -0.6489  1.1379
 8081SOL     OW24620   3.886   4.545   5.833 -0.2556 -0.1560  0.7357
 8081SOL    HW124621   3.791   4.528   5.834 -0.1876 -0.5470  0.5836
 8081SOL    HW224622   3.902   4.588   5.750 -0.1794 -0.8096  0.4041
 8082SOL     OW24623   0.637   4.934   3.927  0.0952 -0.3285  0.5651
 8082SOL    HW124624   0.581   5.011   3.933 -0.4079 -0.5227 -1.1963
 8082SOL    HW224625   0.675   4.925   4.015 -1.1605  0.9054  1.2654
 8083SOL     OW24626   5.023   0.105   3.204  0.3202 -0.8299  0.0374
 8083SOL    HW124627   5.114   0.099   3.175 -0.0686  1.3401 -1.8758
 8083SOL    HW224628   5.026   0.165   3.279  0.3927 -0.0511 -0.5739
 8084SOL     OW24629   0.202   5.483   3.013  0.1866 -0.3744  0.6487
 8084SOL    HW124630   0.125   5.517   2.968  0.5411 -0.0280  0.2924
 8084SOL    HW224631   0.179   5.485   3.106  0.1025  0.6213  0.6185
 8085SOL     OW24632   5.995   3.083   3.252 -0.0934  0.0869  0.7162
 8085SOL    HW124633   5.941   3.046   3.182  0.1558 -2.5403  1.7707
 8085SOL    HW224634   5.932   3.123   3.312 -0.6065 -0.4322  0.5339
 8086SOL     OW24635   5.156   6.039   5.748 -0.0822 -0.2549  0.3199
 8086SOL    HW124636   5.132   6.038   5.841 -1.6636  0.6287 -0.0418
 8086SOL    HW224637   5.159   6.131   5.725 -0.4644 -0.4791 -0.6852
 8087SOL     OW24638   5.544   4.963   5.083  0.1216  0.4780  0.8092
 8087SOL    HW124639   5.622   5.015   5.061 -0.3072  0.6433 -0.3858
 8087SOL    HW224640   5.577   4.894   5.140  1.6156 -0.8966 -1.5530
 8088SOL     OW24641   6.026   6.768   4.466  0.5104 -0.0590  0.2000
 8088SOL    HW124642   5.960   6.748   4.532  1.1241 -2.0613  0.2635
 8088SOL    HW224643   5.990   6.844   4.419 -1.0412 -0.0740  1.2782
 8089SOL     OW24644   2.290   1.386   0.070 -0.4212 -0.1877 -0.4286
 8089SOL    HW124645   2.306   1.341  -0.013 -1.4213 -2.1799  0.4032
 8089SOL    HW224646   2.199   1.368   0.090 -0.1971  0.2775  1.1160
 8090SOL     OW24647   4.295   4.267   6.450 -0.4612  0.1317 -0.5992
 8090SOL    HW124648   4.364   4.262   6.384  0.3954 -0.6356  0.3325
 8090SOL    HW224649   4.324   4.210   6.521 -0.4566  2.3252  1.2757
 8091SOL     OW24650   2.580   2.231   4.987  0.2596 -0.5318 -0.1689
 8091SOL    HW124651   2.587   2.305   5.047  3.1878  0.3932 -1.4257
 8091SOL    HW224652   2.639   2.165   5.023  1.7211 -0.1276 -1.6851
 8092SOL     OW24653   3.473   0.746   5.338 -0.4136  0.2946  0.2852
 8092SOL    HW124654   3.417   0.757   5.415 -0.1661  1.1213  0.3621
 8092SOL    HW224655   3.557   0.786   5.363 -0.4225  0.8380 -0.5029
 8093SOL     OW24656   1.173   0.983   3.604  0.5019  0.6037  0.0791
 8093SOL    HW124657   1.213   0.900   3.627 -1.0734 -0.5155 -0.9956
 8093SOL    HW224658   1.232   1.021   3.538  0.1929 -0.6816 -0.9774
 8094SOL     OW24659   6.399   5.266   0.412  0.5951  0.2619 -0.0167
 8094SOL    HW124660   6.373   5.217   0.334  0.3705 -1.0597  0.8444
 8094SOL    HW224661   6.493   5.281   0.400  0.4420  0.6135 -0.8217
 8095SOL     OW24662   5.453   0.318   0.122 -0.3488  0.6064  0.1552
 8095SOL    HW124663   5.377   0.373   0.141 -0.5101  0.3239  0.3134
 8095SOL    HW224664   5.507   0.373   0.065 -1.5349  0.1367 -1.4913
 8096SOL     OW24665   0.006   1.977   1.980  0.2344  0.5161 -0.2735
 8096SOL    HW124666  -0.087   1.961   1.968  0.4605  0.4192 -2.2725
 8096SOL    HW224667   0.017   1.989   2.074 -1.8819  1.1673 -0.0733
 8097SOL     OW24668   6.156   6.529   0.400  0.1307  0.1449  0.9087
 8097SOL    HW124669   6.135   6.616   0.433 -0.2153  0.0670  0.8880
 8097SOL    HW224670   6.132   6.470   0.471 -0.7901 -0.0418  0.4484
 8098SOL     OW24671   5.428   1.512   2.033 -1.1386 -0.3006 -0.2133
 8098SOL    HW124672   5.378   1.434   2.058 -1.7581 -0.0493 -0.6549
 8098SOL    HW224673   5.375   1.585   2.065 -0.2775 -0.0654  0.7176
 8099SOL     OW24674   1.381   0.885   1.200  0.3389 -0.8350  0.2176
 8099SOL    HW124675   1.450   0.818   1.208 -0.1183 -1.2320  0.9819
 8099SOL    HW224676   1.318   0.848   1.138  2.0126  0.6151 -2.5557
 8100SOL     OW24677   1.448   2.321   0.774  0.3913  0.3028  0.5855
 8100SOL    HW124678   1.539   2.307   0.747 -0.1697 -0.6736 -0.9493
 8100SOL    HW224679   1.413   2.232   0.785 -0.0978  0.6742  2.2737
 8101SOL     OW24680   6.171   5.304   0.956 -0.4331  0.1621  0.6250
 8101SOL    HW124681   6.225   5.331   0.881  1.2357  0.1295  1.7540
 8101SOL    HW224682   6.179   5.209   0.959 -1.2462  0.0744  0.3283
 8102SOL     OW24683   2.216   0.765   0.782  0.8615 -0.0115  0.1999
 8102SOL    HW124684   2.162   0.698   0.824 -0.5816  1.1066  0.2373
 8102SOL    HW224685   2.304   0.751   0.817  0.4034 -1.2890  0.9110
 8103SOL     OW24686   2.189   1.005   5.989 -0.4287 -0.0893  0.0190
 8103SOL    HW124687   2.148   0.938   6.042 -1.8208  1.3700  0.8660
 8103SOL    HW224688   2.282   0.983   5.990 -0.6425 -1.0515  1.6570
 8104SOL     OW24689   4.964   1.221   0.288 -0.4697 -0.2515 -0.2313
 8104SOL    HW124690   4.960   1.316   0.294  2.1532 -0.0260 -1.0123
 8104SOL    HW224691   5.054   1.198   0.310 -0.3064 -2.3070 -2.4828
 8105SOL     OW24692   1.663   0.206   2.100 -0.6496  0.2218 -0.4297
 8105SOL    HW124693   1.671   0.112   2.119 -1.2461 -0.1742 -2.0208
 8105SOL    HW224694   1.640   0.245   2.185  0.9274 -0.8531  0.5563
 8106SOL     OW24695   4.537   0.944   6.662 -0.0143 -0.0309 -0.1066
 8106SOL    HW124696   4.557   1.038   6.659  1.0185 -0.2715 -1.0824
 8106SOL    HW224697   4.575   0.915   6.745  0.2102  0.2895 -0.0946
 8107SOL     OW24698   0.838   6.596   6.824  0.1168  0.4161  0.1397
 8107SOL    HW124699   0.850   6.599   6.919 -0.8728 -1.2072  0.3459
 8107SOL    HW224700   0.906   6.655   6.790  0.1013  1.4927  1.8643
 8108SOL     OW24701   6.339   0.805   1.295 -0.6545 -0.2479 -0.6875
 8108SOL    HW124702   6.359   0.788   1.203  1.2999 -2.3764  0.0536
 8108SOL    HW224703   6.254   0.764   1.309 -0.0551 -1.6685 -1.0922
 8109SOL     OW24704   1.453   1.539   6.468 -0.0285  0.0116  0.2761
 8109SOL    HW124705   1.472   1.449   6.492 -0.5183  0.1727  1.3130
 8109SOL    HW224706   1.357   1.545   6.470 -0.0680  0.2321 -1.0400
 8110SOL     OW24707   0.989   3.546   0.779 -0.4749  0.3032 -0.2606
 8110SOL    HW124708   0.971   3.477   0.843 -1.8160  0.6324 -0.2467
 8110SOL    HW224709   1.084   3.556   0.781 -0.5017  0.9659  2.3972
 8111SOL     OW24710   0.251   1.350   4.147  0.0746 -0.6623  0.7557
 8111SOL    HW124711   0.233   1.358   4.240  0.6858  0.1625  0.8170
 8111SOL    HW224712   0.303   1.428   4.126 -1.9406  0.3627 -0.7540
 8112SOL     OW24713   6.624   4.680   1.425 -0.5813  1.2162 -0.1443
 8112SOL    HW124714   6.577   4.605   1.461 -0.7735  0.8370 -1.1440
 8112SOL    HW224715   6.713   4.672   1.458 -0.4754  0.2666 -0.6417
 8113SOL     OW24716   4.485   4.343   1.868 -0.4138  0.1445 -0.0849
 8113SOL    HW124717   4.480   4.261   1.916  0.7038  0.2578  0.2597
 8113SOL    HW224718   4.575   4.374   1.883 -0.5907  1.0527 -0.8146
 8114SOL     OW24719   3.662   1.083   2.870  0.4479 -0.6250 -0.3856
 8114SOL    HW124720   3.674   1.170   2.908 -0.6343 -0.4745 -0.3579
 8114SOL    HW224721   3.750   1.046   2.868  0.7897  0.0820  0.5387
 8115SOL     OW24722   1.695   4.146   6.831 -0.7223 -0.4578 -0.0691
 8115SOL    HW124723   1.757   4.112   6.766  1.4548 -1.8044  2.4984
 8115SOL    HW224724   1.746   4.213   6.878 -2.5532  1.1759 -0.3043
 8116SOL     OW24725   4.499   3.954   3.251 -0.7531  0.2615  0.0870
 8116SOL    HW124726   4.555   4.013   3.301 -0.0314 -0.3567  0.0188
 8116SOL    HW224727   4.560   3.896   3.206 -1.3283  1.1950 -2.0356
 8117SOL     OW24728   6.736   1.760   6.358  0.6937  0.5226 -0.1138
 8117SOL    HW124729   6.787   1.686   6.325 -0.0408  1.1754 -3.0057
 8117SOL    HW224730   6.789   1.837   6.337 -0.0408  1.0165 -0.1889
 8118SOL     OW24731   1.441   0.050   6.404 -0.4694  0.4771 -0.1833
 8118SOL    HW124732   1.410   0.130   6.445 -2.6410 -0.3938  0.0289
 8118SOL    HW224733   1.515   0.022   6.458 -1.4682  0.8692  1.4602
 8119SOL     OW24734   1.566   0.866   6.559 -0.0175 -0.2426  0.2480
 8119SOL    HW124735   1.601   0.803   6.622 -0.2301  0.0948  0.7089
 8119SOL    HW224736   1.641   0.922   6.538 -0.0168 -0.1762  0.4246
 8120SOL     OW24737   1.638   5.787   5.398  0.4224  0.0905  0.3378
 8120SOL    HW124738   1.671   5.873   5.374 -0.9697  0.5983  0.1528
 8120SOL    HW224739   1.590   5.757   5.321 -0.5565 -0.0780  0.9834
 8121SOL     OW24740   0.036   2.090   4.360 -0.1847 -0.1191 -0.4774
 8121SOL    HW124741   0.084   2.095   4.442  0.7004  0.1023 -0.9926
 8121SOL    HW224742  -0.056   2.092   4.386  0.0490  2.2330  0.4138
 8122SOL     OW24743   1.133   1.887   0.739  0.6084  1.0660 -0.5318
 8122SOL    HW124744   1.124   1.832   0.817 -0.2184  1.1630 -0.5535
 8122SOL    HW224745   1.130   1.977   0.771  0.6576  1.1078 -0.6415
 8123SOL     OW24746   4.357   2.290   2.263 -0.8466 -0.2316 -0.3930
 8123SOL    HW124747   4.435   2.316   2.214  0.5961 -0.8001  1.5004
 8123SOL    HW224748   4.333   2.367   2.314 -0.0400 -0.7825  0.8514
 8124SOL     OW24749   6.217   0.377   5.689  0.4087  0.3833 -0.9517
 8124SOL    HW124750   6.180   0.440   5.751 -1.1193 -0.5752 -0.8226
 8124SOL    HW224751   6.185   0.407   5.603  0.1113  0.0706 -0.9486
 8125SOL     OW24752   0.451   1.337   5.467 -0.3361  0.6437 -0.2811
 8125SOL    HW124753   0.379   1.386   5.505 -0.4730 -0.3294  0.7734
 8125SOL    HW224754   0.503   1.307   5.542  0.0504 -0.3265 -0.9042
 8126SOL     OW24755   0.605   0.630   3.974 -0.0376 -0.2229 -0.5473
 8126SOL    HW124756   0.614   0.573   4.050 -3.9645 -2.1088 -1.2449
 8126SOL    HW224757   0.659   0.589   3.906 -0.7580 -1.6389 -0.2855
 8127SOL     OW24758   4.259   2.831   3.772 -0.3268  0.0890 -0.0198
 8127SOL    HW124759   4.266   2.770   3.846  2.8922  1.6999  1.2258
 8127SOL    HW224760   4.189   2.892   3.797 -0.7092 -0.6268  0.6892
 8128SOL     OW24761   1.081   4.135   5.644  0.1069 -0.2240  0.1075
 8128SOL    HW124762   1.090   4.111   5.552  0.1247 -0.5280  0.1843
 8128SOL    HW224763   1.160   4.100   5.686 -0.2126 -0.6795  0.3488
 8129SOL     OW24764   3.805   2.113   3.177 -0.2447 -0.0703  0.1945
 8129SOL    HW124765   3.788   2.163   3.257 -0.4279 -0.1087  0.1793
 8129SOL    HW224766   3.900   2.120   3.164 -0.2956  0.4409  0.0822
 8130SOL     OW24767   4.151   0.133   4.862 -0.3880 -0.2333 -0.0300
 8130SOL    HW124768   4.126   0.194   4.792 -0.8538 -0.9599 -0.5123
 8130SOL    HW224769   4.176   0.053   4.815 -1.3914 -0.9707  0.6659
 8131SOL     OW24770   5.398   0.801   4.875 -0.0532  0.2929 -0.0532
 8131SOL    HW124771   5.471   0.764   4.826  0.5184  0.3458  0.7390
 8131SOL    HW224772   5.391   0.891   4.844  0.4385  0.3867  0.0981
 8132SOL     OW24773   0.059   5.541   3.531  0.0883 -0.1330  0.1725
 8132SOL    HW124774   0.145   5.582   3.520 -0.1355 -0.1109 -1.9578
 8132SOL    HW224775   0.062   5.503   3.619  1.2168  2.2338  1.2492
 8133SOL     OW24776   3.984   0.578   0.523 -0.3926 -0.3363 -0.0531
 8133SOL    HW124777   3.943   0.602   0.605 -0.6630 -0.4783 -0.1444
 8133SOL    HW224778   3.986   0.482   0.524 -1.5657 -0.3897 -0.7666
 8134SOL     OW24779   4.737   5.524   0.223 -0.1623  0.7751  0.7492
 8134SOL    HW124780   4.675   5.592   0.245 -1.0570  0.1532  0.2165
 8134SOL    HW224781   4.742   5.469   0.301  0.9034  1.6676  1.3447
 8135SOL     OW24782   5.981   2.562   3.864 -0.1595  0.0442 -0.1765
 8135SOL    HW124783   6.066   2.598   3.891 -0.2706  0.2089 -0.0416
 8135SOL    HW224784   5.920   2.635   3.874 -0.5153 -0.3575  0.7521
 8136SOL     OW24785   5.600   6.640   4.717 -0.8367  0.5531  0.1695
 8136SOL    HW124786   5.536   6.570   4.704  0.8017 -0.6619 -2.2273
 8136SOL    HW224787   5.608   6.681   4.631 -0.8615  2.9792  1.2436
 8137SOL     OW24788   6.690   1.948   1.637  0.4421  0.4328  0.8055
 8137SOL    HW124789   6.701   1.856   1.659 -1.4089 -0.2526 -0.8693
 8137SOL    HW224790   6.672   1.949   1.543 -2.1819  2.2099  1.1947
 8138SOL     OW24791   0.990   2.492   0.904  0.6670 -0.3990 -0.3601
 8138SOL    HW124792   0.932   2.528   0.838  0.0501 -1.1191 -0.2232
 8138SOL    HW224793   0.982   2.397   0.895  0.1163 -0.5249  1.1318
 8139SOL     OW24794   5.353   4.492   3.154 -0.5531  0.4549  0.2077
 8139SOL    HW124795   5.416   4.436   3.200 -0.9133  0.3688  0.6063
 8139SOL    HW224796   5.379   4.581   3.179 -0.7633  0.4073  0.6079
 8140SOL     OW24797   1.117   5.153   0.850 -0.1998 -0.3071 -0.3086
 8140SOL    HW124798   1.105   5.065   0.814  0.7981 -1.0847  1.1753
 8140SOL    HW224799   1.028   5.183   0.870 -0.4740 -1.6687  0.6687
 8141SOL     OW24800   2.460   2.692   5.237 -0.1148  0.4410 -0.2816
 8141SOL    HW124801   2.431   2.637   5.310  0.0695  1.3822  0.5307
 8141SOL    HW224802   2.380   2.727   5.199 -0.2014  0.1788 -0.3388
 8142SOL     OW24803   3.683   6.479   4.971  0.3256 -0.1628  0.0354
 8142SOL    HW124804   3.755   6.538   4.992 -1.2381  1.7695  0.2657
 8142SOL    HW224805   3.725   6.396   4.949  2.4706 -0.0876  3.2554
 8143SOL     OW24806   5.191   2.308   1.678  0.1769  0.2659  0.9791
 8143SOL    HW124807   5.195   2.213   1.688 -1.2539  0.1486  0.7261
 8143SOL    HW224808   5.234   2.325   1.594 -1.4486 -0.4296 -0.0539
 8144SOL     OW24809   1.723   4.419   0.313  0.6262 -0.2314 -0.2881
 8144SOL    HW124810   1.730   4.374   0.397  1.8354  1.1104  0.3732
 8144SOL    HW224811   1.699   4.509   0.336 -2.0247 -0.5072 -1.5879
 8145SOL     OW24812   0.042   3.439   3.597 -0.1468  0.1767  0.1800
 8145SOL    HW124813   0.115   3.395   3.641 -1.2583 -1.5997  0.3123
 8145SOL    HW224814   0.085   3.500   3.537  1.4378 -0.1716  0.8978
 8146SOL     OW24815   1.849   0.140   3.490 -0.1339  0.3517  0.0726
 8146SOL    HW124816   1.843   0.128   3.395  1.2006  2.5276 -0.3578
 8146SOL    HW224817   1.779   0.085   3.526 -1.5547  0.5229 -2.2453
 8147SOL     OW24818   1.727   1.617   4.788  0.2094 -0.3470  0.4273
 8147SOL    HW124819   1.760   1.554   4.852 -1.3190 -1.2092  0.4154
 8147SOL    HW224820   1.805   1.658   4.752  1.1679 -1.0776  1.6088
 8148SOL     OW24821   0.975   4.003   2.264 -0.0797 -0.2490 -0.1642
 8148SOL    HW124822   0.939   3.963   2.185  0.5814  0.4376 -0.8373
 8148SOL    HW224823   1.062   3.963   2.274 -0.9949 -1.9429  1.4817
 8149SOL     OW24824   2.089   1.232   1.631 -0.0518 -0.3217  0.5886
 8149SOL    HW124825   2.004   1.205   1.597  0.4567 -0.9085 -0.2632
 8149SOL    HW224826   2.142   1.153   1.629  1.0059  0.3721 -0.4683
 8150SOL     OW24827   0.383   4.332   1.809 -0.2545 -0.1202  0.6892
 8150SOL    HW124828   0.378   4.236   1.811 -0.0681 -0.2392 -1.6734
 8150SOL    HW224829   0.418   4.356   1.895  1.3472 -2.3045  0.7421
 8151SOL     OW24830   2.689   5.392   0.724 -0.0571  0.0200 -0.6778
 8151SOL    HW124831   2.669   5.483   0.702  0.5037 -0.0355 -1.4574
 8151SOL    HW224832   2.605   5.357   0.755 -0.2596  0.8174 -0.3042
 8152SOL     OW24833   3.498   1.111   4.869  0.2519  0.1947  0.2894
 8152SOL    HW124834   3.543   1.071   4.794  1.1278  1.3943  0.1309
 8152SOL    HW224835   3.499   1.205   4.849 -0.7116  0.4131  1.1790
 8153SOL     OW24836   4.966   3.232   5.516 -0.4651 -0.4195  0.2089
 8153SOL    HW124837   4.983   3.314   5.469 -0.2085 -0.0971  0.8537
 8153SOL    HW224838   5.022   3.237   5.593 -0.4537 -1.2060  0.2532
 8154SOL     OW24839   1.563   2.309   0.214  0.3613  0.4697 -0.0272
 8154SOL    HW124840   1.558   2.395   0.171 -0.0127  0.9272  0.8968
 8154SOL    HW224841   1.554   2.246   0.143 -2.5369  1.2085 -0.4438
 8155SOL     OW24842   0.309   3.335   6.663 -0.1633 -0.2999  0.2931
 8155SOL    HW124843   0.313   3.242   6.686 -0.8785 -0.5925 -0.6601
 8155SOL    HW224844   0.243   3.372   6.722  1.8875  0.1926  2.4070
 8156SOL     OW24845   0.828   6.609   1.998  0.0913 -0.2118 -0.2816
 8156SOL    HW124846   0.828   6.527   2.047 -0.9647 -0.3001 -0.4126
 8156SOL    HW224847   0.814   6.583   1.907 -0.3189  0.1103 -0.3176
 8157SOL     OW24848   0.441   3.407   6.438  0.1761  0.3447  0.1556
 8157SOL    HW124849   0.409   3.393   6.527  1.1771  1.0917  0.6463
 8157SOL    HW224850   0.395   3.485   6.408  0.6994  0.7716  0.4526
 8158SOL     OW24851   6.469   2.912   0.732 -0.0564 -0.6589  0.0165
 8158SOL    HW124852   6.390   2.960   0.755 -0.1061 -1.0052  0.5760
 8158SOL    HW224853   6.509   2.889   0.815  0.3143 -1.0149 -0.2532
 8159SOL     OW24854   3.823   3.213   2.399  0.3678  0.2249 -0.0571
 8159SOL    HW124855   3.782   3.128   2.413  1.4101 -0.0892  1.3655
 8159SOL    HW224856   3.807   3.261   2.480  1.5420  0.6214 -0.0414
 8160SOL     OW24857   4.453   5.185   0.872 -0.1562  0.0693  0.3249
 8160SOL    HW124858   4.364   5.190   0.906 -0.2689  0.9323 -0.0773
 8160SOL    HW224859   4.485   5.099   0.901 -0.6253  0.3249  1.6640
 8161SOL     OW24860   3.615   4.993   6.237  0.2787  0.0142 -0.5887
 8161SOL    HW124861   3.642   4.952   6.155  0.4504 -2.5700  0.6624
 8161SOL    HW224862   3.668   5.072   6.244  2.1251 -1.0695 -1.7399
 8162SOL     OW24863   2.769   3.935   3.287 -0.1331 -0.2365 -0.0921
 8162SOL    HW124864   2.747   3.845   3.311  0.3153 -0.1227  0.7687
 8162SOL    HW224865   2.783   3.932   3.192 -1.2275 -0.8395 -0.2472
 8163SOL     OW24866   1.401   5.502   2.285  0.4673 -0.0063 -0.2223
 8163SOL    HW124867   1.442   5.564   2.346  0.6663 -0.3498 -0.0035
 8163SOL    HW224868   1.473   5.443   2.260  0.0089 -0.9275  0.5567
 8164SOL     OW24869   3.439   5.798   4.779  0.2660 -0.3527  0.2822
 8164SOL    HW124870   3.529   5.791   4.809  0.2606  2.1102  1.0542
 8164SOL    HW224871   3.390   5.825   4.856 -1.1843 -1.6761 -0.1197
 8165SOL     OW24872   2.598   4.201   2.318  0.7783  0.4541 -0.2046
 8165SOL    HW124873   2.535   4.262   2.356  0.8407  0.8324 -0.6990
 8165SOL    HW224874   2.571   4.115   2.350  1.1680  0.8085  1.1652
 8166SOL     OW24875   5.670   2.488   6.342  0.2090  0.5942  0.4001
 8166SOL    HW124876   5.624   2.406   6.362 -0.7567 -0.0001 -3.4666
 8166SOL    HW224877   5.606   2.556   6.359  0.7152  0.5447  2.7747
 8167SOL     OW24878   3.529   1.119   5.275 -0.4480  0.1840  0.0457
 8167SOL    HW124879   3.541   1.056   5.203 -1.2687 -2.3180  1.9468
 8167SOL    HW224880   3.617   1.129   5.312 -0.2092  0.6506 -0.6278
 8168SOL     OW24881   3.556   4.213   4.862 -1.1321 -0.0718 -0.3246
 8168SOL    HW124882   3.537   4.128   4.903  0.7019 -0.1536  0.4475
 8168SOL    HW224883   3.646   4.232   4.887 -0.0222  0.1613 -3.9112
 8169SOL     OW24884   3.263   5.745   5.975  0.4117 -0.0019 -0.8820
 8169SOL    HW124885   3.283   5.688   5.900 -1.0674 -0.0915 -1.2247
 8169SOL    HW224886   3.260   5.833   5.938  0.4568  0.0432 -0.7785
 8170SOL     OW24887   3.503   2.756   4.573 -0.4519 -0.0981  0.3260
 8170SOL    HW124888   3.571   2.738   4.637 -0.6838  2.2103  1.3054
 8170SOL    HW224889   3.551   2.775   4.492 -0.0336 -0.3221  0.5175
 8171SOL     OW24890   1.309   0.286   0.198  0.0575 -0.1484 -0.6030
 8171SOL    HW124891   1.318   0.379   0.221 -0.3863  0.0117 -1.0603
 8171SOL    HW224892   1.300   0.242   0.282 -1.0529  0.3778 -0.4308
 8172SOL     OW24893   0.253   6.822   2.051 -0.2279  0.4583  0.6865
 8172SOL    HW124894   0.312   6.779   2.113 -1.3146 -0.1516  1.3264
 8172SOL    HW224895   0.255   6.767   1.973 -2.1247 -1.2404  1.7320
 8173SOL     OW24896   3.403   6.166   0.419  0.4319  0.5000 -0.3091
 8173SOL    HW124897   3.477   6.120   0.382 -0.0360 -0.8704  0.3893
 8173SOL    HW224898   3.370   6.221   0.348 -0.9959 -2.6842 -2.3511
 8174SOL     OW24899   1.593   6.498   0.176 -0.1678 -0.2805  0.5487
 8174SOL    HW124900   1.514   6.553   0.172 -1.4914 -2.1323 -2.9428
 8174SOL    HW224901   1.655   6.542   0.118 -0.9136 -1.8380 -1.5429
 8175SOL     OW24902   5.598   5.448   5.185 -0.5713 -0.1599  0.0952
 8175SOL    HW124903   5.666   5.465   5.120 -0.9694 -1.4803 -0.6882
 8175SOL    HW224904   5.562   5.535   5.205 -1.5490  0.1745 -2.6652
 8176SOL     OW24905   2.740   6.566   1.658  0.1063  0.0988  0.2370
 8176SOL    HW124906   2.664   6.621   1.674  0.0979 -0.0448  0.6940
 8176SOL    HW224907   2.707   6.476   1.663  0.3258  0.0334  0.5501
 8177SOL     OW24908   0.942   4.591   0.803  0.0954 -0.1877 -0.2198
 8177SOL    HW124909   0.906   4.645   0.873 -0.8129 -1.4972  0.3576
 8177SOL    HW224910   0.952   4.504   0.842 -2.1714 -1.4402 -2.1528
 8178SOL     OW24911   6.340   0.934   5.121 -0.1181 -0.0036 -0.2200
 8178SOL    HW124912   6.436   0.923   5.123 -0.2388 -1.1192  0.1834
 8178SOL    HW224913   6.318   0.931   5.028 -0.0404 -2.7647 -0.2247
 8179SOL     OW24914   4.885   4.710   5.345 -0.0182 -0.0957  0.0195
 8179SOL    HW124915   4.936   4.790   5.358 -0.6867  0.1310  1.4737
 8179SOL    HW224916   4.830   4.729   5.269  2.8905 -0.8305 -2.4624
 8180SOL     OW24917   2.773   5.457   0.989 -0.1779  0.0618  0.0730
 8180SOL    HW124918   2.756   5.414   0.905  1.4400  1.1767 -0.8855
 8180SOL    HW224919   2.743   5.547   0.976 -0.4730  0.0912  0.9171
 8181SOL     OW24920   4.458   4.611   0.383 -0.6270  0.4518 -0.0204
 8181SOL    HW124921   4.370   4.640   0.360 -0.8455 -0.0933  0.1141
 8181SOL    HW224922   4.516   4.661   0.325 -1.1178 -0.2345 -1.1323
 8182SOL     OW24923   0.027   2.612   2.719 -0.2832 -0.2089  0.2415
 8182SOL    HW124924  -0.006   2.687   2.670  2.3167  1.0806  0.3095
 8182SOL    HW224925  -0.038   2.598   2.788 -1.6671  0.8772 -0.7853
 8183SOL     OW24926   5.740   5.709   5.021 -0.6695  0.6341 -0.0857
 8183SOL    HW124927   5.710   5.789   5.064  0.8766  1.0138  0.3666
 8183SOL    HW224928   5.805   5.738   4.958  0.1343 -0.2631  0.2945
 8184SOL     OW24929   2.992   5.464   6.635 -0.0095 -0.2373 -0.0747
 8184SOL    HW124930   3.058   5.530   6.616  0.0663  0.3631  2.0224
 8184SOL    HW224931   2.914   5.513   6.658 -0.9763 -0.9424 -1.6666
 8185SOL     OW24932   1.445   1.664   0.443 -0.1712  0.2476 -0.0904
 8185SOL    HW124933   1.507   1.615   0.498 -1.8054 -3.9839 -1.6307
 8185SOL    HW224934   1.371   1.682   0.501 -1.0903 -2.5258 -0.2808
 8186SOL     OW24935   3.332   3.293   3.535 -0.1827 -0.0223 -0.8150
 8186SOL    HW124936   3.287   3.315   3.453  0.1521  0.4815 -0.8632
 8186SOL    HW224937   3.384   3.370   3.555  0.7122 -0.6270 -0.7851
 8187SOL     OW24938   3.403   2.472   4.528  0.3004  0.2663  0.0622
 8187SOL    HW124939   3.430   2.563   4.543 -0.7813  0.5978  0.1396
 8187SOL    HW224940   3.384   2.468   4.434 -0.7737  0.4657  0.2513
 8188SOL     OW24941   2.764   5.925   0.768 -0.0977  0.6072  0.2505
 8188SOL    HW124942   2.817   5.957   0.695  0.7012 -0.4008  0.3620
 8188SOL    HW224943   2.817   5.942   0.846  0.4320 -1.0864  0.2971
 8189SOL     OW24944   0.517   1.226   5.240  0.3657 -0.2259 -0.6031
 8189SOL    HW124945   0.570   1.154   5.276  2.0650  1.6094  0.7536
 8189SOL    HW224946   0.471   1.262   5.316 -0.7486 -0.0671 -1.3315
 8190SOL     OW24947   4.227   4.803   0.696  0.3589  0.1072 -0.0864
 8190SOL    HW124948   4.300   4.742   0.696  0.8916  0.5955  2.7438
 8190SOL    HW224949   4.151   4.749   0.722  1.0030  0.6243  3.3932
 8191SOL     OW24950   5.474   1.801   4.997  0.3148 -0.2335 -0.4188
 8191SOL    HW124951   5.387   1.821   5.031  0.1623  0.2504 -1.0830
 8191SOL    HW224952   5.521   1.885   4.999  0.0919 -0.0418 -1.9945
 8192SOL     OW24953   4.324   6.620   5.733 -0.3203 -0.0457  0.2111
 8192SOL    HW124954   4.342   6.696   5.788  0.5435  0.1798 -0.3586
 8192SOL    HW224955   4.246   6.644   5.683  2.0251  2.1554 -2.8129
 8193SOL     OW24956   2.527   3.951   3.039  0.0936 -0.2328  0.1263
 8193SOL    HW124957   2.579   3.874   3.019 -0.3885 -1.9718  4.3901
 8193SOL    HW224958   2.586   4.025   3.024  1.4439 -1.5767 -1.6116
 8194SOL     OW24959   5.406   4.750   3.261 -0.4943 -0.0218 -0.1103
 8194SOL    HW124960   5.361   4.785   3.339 -1.5507  1.6079 -1.3712
 8194SOL    HW224961   5.370   4.801   3.188  1.9784 -0.0435 -1.4504
 8195SOL     OW24962   1.662   5.822   5.915  0.1196  0.0109  0.6216
 8195SOL    HW124963   1.605   5.819   5.838  0.3127 -1.7295  0.5044
 8195SOL    HW224964   1.645   5.740   5.961  0.5675  0.6882  2.0438
 8196SOL     OW24965   3.511   2.101   3.493  0.2971 -0.0392  0.2958
 8196SOL    HW124966   3.544   2.188   3.472 -1.4254  0.5036 -0.2756
 8196SOL    HW224967   3.516   2.053   3.411 -2.6379  0.8495 -0.5255
 8197SOL     OW24968   4.938   2.933   3.462 -0.2637 -0.6401  0.2714
 8197SOL    HW124969   4.922   2.982   3.381 -1.5177 -0.3843  0.6490
 8197SOL    HW224970   5.032   2.915   3.461 -0.3565 -1.2423 -1.5721
 8198SOL     OW24971   1.586   1.354   1.596 -0.0147  0.0234  0.7369
 8198SOL    HW124972   1.576   1.272   1.645  0.2275  0.6484  1.8626
 8198SOL    HW224973   1.533   1.341   1.517  0.3950 -1.3866  0.6611
 8199SOL     OW24974   1.574   1.484   2.375  0.1783 -0.0204  0.0379
 8199SOL    HW124975   1.602   1.439   2.296 -1.2061 -0.2275 -0.3580
 8199SOL    HW224976   1.528   1.562   2.343 -0.0561  0.0961  0.6412
 8200SOL     OW24977   5.863   0.996   4.300  0.4496 -0.4866 -0.2399
 8200SOL    HW124978   5.780   1.025   4.336  0.9979  0.5684  0.2114
 8200SOL    HW224979   5.872   1.043   4.217  1.1700  0.3839  0.3163
 8201SOL     OW24980   1.267   2.331   1.809  0.0836 -0.0726 -0.4303
 8201SOL    HW124981   1.297   2.410   1.765  1.4936 -0.8015 -0.8540
 8201SOL    HW224982   1.335   2.312   1.874 -0.9454 -0.1656  0.6630
 8202SOL     OW24983   3.860   2.445   5.133 -0.7917  1.0666  0.9425
 8202SOL    HW124984   3.839   2.394   5.055 -1.1794  1.3600  0.8458
 8202SOL    HW224985   3.919   2.390   5.183 -1.1156  0.5721  0.7876
 8203SOL     OW24986   2.815   4.744   2.762  1.0167  0.2400 -0.1106
 8203SOL    HW124987   2.900   4.768   2.724  0.1446  1.1275 -1.5736
 8203SOL    HW224988   2.793   4.818   2.819  0.2999  0.9936 -1.3278
 8204SOL     OW24989   1.362   0.002   5.558  0.2416 -0.8688 -0.2353
 8204SOL    HW124990   1.378   0.079   5.613 -0.0391 -0.6504 -0.4564
 8204SOL    HW224991   1.341  -0.067   5.620  0.9565 -0.8912 -0.0035
 8205SOL     OW24992   5.128   6.162   5.215 -0.4474  0.1792  0.8080
 8205SOL    HW124993   5.195   6.230   5.214  0.2105 -0.3482 -2.4937
 8205SOL    HW224994   5.045   6.210   5.208 -0.0715  0.7081 -0.1619
 8206SOL     OW24995   1.586   5.628   4.386  0.0003  0.7871  0.7160
 8206SOL    HW124996   1.526   5.555   4.372 -0.4984  1.1014  1.2042
 8206SOL    HW224997   1.580   5.647   4.480  1.0522  0.6583  0.8260
 8207SOL     OW24998   6.113   1.545   6.705 -0.1071 -0.4326 -0.4996
 8207SOL    HW124999   6.036   1.547   6.649  0.7547  1.3275 -1.7124
 8207SOL    HW225000   6.168   1.476   6.669  0.2479  0.3997 -1.6167
 8208SOL     OW25001   4.457   3.040   2.257  0.0379 -0.3070 -0.9772
 8208SOL    HW125002   4.508   3.111   2.297 -0.8368 -0.5162  0.5891
 8208SOL    HW225003   4.417   3.080   2.180  0.2866  0.6608 -0.6174
 8209SOL     OW25004   0.935   5.339   1.304  0.2948  0.4279 -0.0173
 8209SOL    HW125005   1.002   5.370   1.365 -0.3027 -0.4744  1.1379
 8209SOL    HW225006   0.984   5.288   1.239  0.7535 -0.0660  0.7080
 8210SOL     OW25007   0.399   3.580   5.439 -0.0812 -0.1552 -0.0018
 8210SOL    HW125008   0.403   3.545   5.349  0.0274 -0.5106  0.1382
 8210SOL    HW225009   0.330   3.530   5.481 -1.0931  0.9579 -0.2775
 8211SOL     OW25010   2.493   4.178   0.957 -0.1535  0.5759  0.1393
 8211SOL    HW125011   2.585   4.164   0.981 -0.7748 -0.7444  1.9088
 8211SOL    HW225012   2.457   4.229   1.030 -1.0457  0.2654 -0.0766
 8212SOL     OW25013   2.062   3.802   6.735  0.2471  0.3066  0.9577
 8212SOL    HW125014   2.129   3.790   6.668 -1.1417 -0.2519 -0.4074
 8212SOL    HW225015   2.006   3.872   6.700  0.9981  1.9294  2.8318
 8213SOL     OW25016   2.582   0.602   1.952 -0.4872 -0.4688 -0.4576
 8213SOL    HW125017   2.547   0.690   1.967 -1.6955 -0.6674 -1.8226
 8213SOL    HW225018   2.612   0.603   1.861  1.2627 -0.9387  0.0566
 8214SOL     OW25019   3.938   5.764   0.182 -0.1010  0.5186 -0.1919
 8214SOL    HW125020   3.855   5.776   0.227 -0.6533  1.2779 -1.3689
 8214SOL    HW225021   3.924   5.801   0.095  0.8744 -1.0591 -1.0634
 8215SOL     OW25022   0.518   2.058   3.058 -0.1910 -0.0865  0.3125
 8215SOL    HW125023   0.579   2.087   2.990  0.7633 -1.3777  0.5802
 8215SOL    HW225024   0.560   2.083   3.140  1.5311 -3.4298  0.6690
 8216SOL     OW25025   6.224   1.658   2.756  0.0334 -0.1345 -0.0264
 8216SOL    HW125026   6.141   1.621   2.787  1.0594 -1.6514  1.0520
 8216SOL    HW225027   6.272   1.583   2.720  0.7602  0.8038 -1.0675
 8217SOL     OW25028   0.211   3.803   3.145  0.0297 -0.0347  0.6163
 8217SOL    HW125029   0.300   3.774   3.129 -0.4747 -2.0221  1.1723
 8217SOL    HW225030   0.156   3.752   3.086 -0.7258  1.5875 -0.1553
 8218SOL     OW25031   3.429   5.737   1.895  0.3761  0.0419 -0.3495
 8218SOL    HW125032   3.470   5.722   1.980  1.1227 -0.3634 -0.7718
 8218SOL    HW225033   3.492   5.702   1.832  0.2878  1.2505 -1.1316
 8219SOL     OW25034   5.323   1.669   0.064  0.0478  0.2867 -0.1799
 8219SOL    HW125035   5.267   1.745   0.082 -0.5217 -0.1519 -0.0894
 8219SOL    HW225036   5.297   1.604   0.129  1.2341  0.3553  0.3920
 8220SOL     OW25037   1.112   4.043   0.438 -0.3621 -0.0946  0.1115
 8220SOL    HW125038   1.069   4.004   0.514 -0.3341 -2.9592 -1.2233
 8220SOL    HW225039   1.040   4.083   0.389 -0.7472 -0.4081  0.4107
 8221SOL     OW25040   5.154   4.139   3.802 -0.0653  0.3976 -0.1790
 8221SOL    HW125041   5.194   4.205   3.858 -1.5566  0.0056  1.4296
 8221SOL    HW225042   5.078   4.183   3.763 -0.4884 -0.0452  0.1198
 8222SOL     OW25043   2.217   0.490   2.232 -0.5769  0.7478  0.3955
 8222SOL    HW125044   2.272   0.466   2.158  2.7794  0.7299  2.6585
 8222SOL    HW225045   2.159   0.414   2.244  1.1264 -0.7295 -0.2248
 8223SOL     OW25046   6.711   1.069   6.459 -0.2353  0.1400  0.2502
 8223SOL    HW125047   6.801   1.051   6.485  0.3162  1.8573 -0.3200
 8223SOL    HW225048   6.714   1.157   6.422 -1.7154 -0.6380 -1.9215
 8224SOL     OW25049   1.818   5.927   3.281  0.1687  0.4268 -0.4569
 8224SOL    HW125050   1.886   5.986   3.313  0.5687 -0.2167 -0.0705
 8224SOL    HW225051   1.837   5.844   3.326 -0.4782  0.0613 -0.8514
 8225SOL     OW25052   6.010   5.106   5.904  0.3937  0.1981  0.0136
 8225SOL    HW125053   6.099   5.102   5.940  0.6488  0.6333 -0.5444
 8225SOL    HW225054   5.963   5.035   5.947  1.5453 -1.3186 -1.1279
 8226SOL     OW25055   0.916   4.900   2.797 -0.1091  0.0131 -0.1041
 8226SOL    HW125056   0.927   4.995   2.799  0.8508 -0.0940  0.6256
 8226SOL    HW225057   0.998   4.866   2.833 -0.6242 -1.0804  0.0700
 8227SOL     OW25058   3.535   2.077   1.609  0.6245  0.5462 -0.3785
 8227SOL    HW125059   3.625   2.045   1.615  0.5706  0.2181 -1.2047
 8227SOL    HW225060   3.543   2.164   1.570  0.4811 -0.2159 -2.2271
 8228SOL     OW25061   6.184   3.991   2.911  0.1090  0.2073 -0.5609
 8228SOL    HW125062   6.154   3.946   2.832 -0.3061 -0.7801  0.1362
 8228SOL    HW225063   6.279   3.978   2.911 -0.0115 -0.7630 -0.3329
 8229SOL     OW25064   6.304   0.261   1.820 -0.2959 -0.7756 -0.1781
 8229SOL    HW125065   6.375   0.321   1.844 -0.2411 -0.5885 -0.7670
 8229SOL    HW225066   6.326   0.234   1.730  0.4945 -2.8644  0.5721
 8230SOL     OW25067   5.156   0.776   0.171  0.0153 -0.0817  0.5619
 8230SOL    HW125068   5.089   0.788   0.105  0.4660 -0.8553 -0.0529
 8230SOL    HW225069   5.239   0.782   0.124  0.3247 -1.9829  0.7832
 8231SOL     OW25070   5.896   3.968   5.110 -0.1327 -0.2254  0.5250
 8231SOL    HW125071   5.863   4.052   5.140 -0.2861  0.7536 -2.1688
 8231SOL    HW225072   5.822   3.927   5.066  0.2595 -1.2659  0.8011
 8232SOL     OW25073   6.207   1.674   5.461 -0.1867  0.1111 -0.2306
 8232SOL    HW125074   6.279   1.732   5.486  1.6165 -1.6586 -1.0732
 8232SOL    HW225075   6.183   1.629   5.543  0.1098  0.2483 -0.0660
 8233SOL     OW25076   2.605   1.399   2.047 -0.0843  0.2194 -0.0264
 8233SOL    HW125077   2.582   1.420   2.138  0.1564  1.2214 -0.1891
 8233SOL    HW225078   2.655   1.474   2.017  2.5939 -1.4371 -0.0188
 8234SOL     OW25079   6.022   1.334   3.565  0.1149 -0.0776  0.2951
 8234SOL    HW125080   5.958   1.403   3.552 -0.6982 -0.7952  0.3966
 8234SOL    HW225081   6.082   1.368   3.632 -0.2476  0.5395  0.3077
 8235SOL     OW25082   6.338   0.834   5.692  0.1315  0.1323  0.5858
 8235SOL    HW125083   6.265   0.831   5.630  0.4949 -1.0931  0.1957
 8235SOL    HW225084   6.354   0.743   5.716  2.1247  0.2638 -0.0390
 8236SOL     OW25085   3.465   2.075   0.289  0.0875 -0.3550 -0.4085
 8236SOL    HW125086   3.521   2.049   0.362  1.2817  0.1816 -1.1172
 8236SOL    HW225087   3.525   2.097   0.218 -0.9773  1.1022 -0.9084
 8237SOL     OW25088   0.301   2.797   0.984 -0.1776 -0.7990 -0.0170
 8237SOL    HW125089   0.322   2.888   0.964  2.3894 -1.2947  0.0838
 8237SOL    HW225090   0.216   2.782   0.942 -1.3722  1.9902  1.1487
 8238SOL     OW25091   6.261   1.120   0.311  0.1270 -0.3942 -0.4959
 8238SOL    HW125092   6.289   1.085   0.227  0.1385 -0.8303 -0.3099
 8238SOL    HW225093   6.279   1.050   0.374  1.1127  0.3130  0.0363
 8239SOL     OW25094   5.679   6.796   6.671 -0.2129 -0.9487  0.1506
 8239SOL    HW125095   5.772   6.803   6.695 -0.1079  0.6752 -0.5955
 8239SOL    HW225096   5.637   6.865   6.723 -0.8545 -1.0431 -0.2440
 8240SOL     OW25097   3.811   6.265   4.845 -0.0571 -0.0853  0.1081
 8240SOL    HW125098   3.838   6.196   4.906  1.4949 -0.4172 -0.9215
 8240SOL    HW225099   3.892   6.311   4.824 -0.6589  0.3542 -1.3076
 8241SOL     OW25100   4.750   6.622   5.420  0.5260 -0.1925 -0.4937
 8241SOL    HW125101   4.657   6.621   5.445  0.5695 -0.3579 -0.3396
 8241SOL    HW225102   4.783   6.536   5.446  0.7658 -0.0692 -0.3933
 8242SOL     OW25103   2.933   6.288   3.304 -0.6342  0.1132 -0.5706
 8242SOL    HW125104   2.934   6.248   3.217 -0.0518 -0.7662 -0.1727
 8242SOL    HW225105   3.001   6.241   3.352 -1.0963  0.4532  0.4202
 8243SOL     OW25106   0.138   4.952   3.729 -0.0134  0.6139 -0.2440
 8243SOL    HW125107   0.115   4.968   3.638  0.4342  0.1603 -0.4369
 8243SOL    HW225108   0.218   5.003   3.743 -0.6084  1.4780  0.1818
 8244SOL     OW25109   4.286   5.586   2.254  0.0134  0.7076  0.2732
 8244SOL    HW125110   4.207   5.594   2.308 -0.1105 -0.6918  0.3262
 8244SOL    HW225111   4.293   5.671   2.209 -1.9107  0.6229 -0.2762
 8245SOL     OW25112   4.113   4.648   4.269 -0.2207 -0.2056  0.0687
 8245SOL    HW125113   4.098   4.712   4.199  3.5441  0.6725 -0.1451
 8245SOL    HW225114   4.148   4.571   4.224  2.4287  0.4382  0.8644
 8246SOL     OW25115   4.053   5.790   3.548  0.1543 -0.1859 -0.3957
 8246SOL    HW125116   4.146   5.804   3.535  0.4795 -1.9731 -0.3172
 8246SOL    HW225117   4.040   5.796   3.643  0.1303  0.3553 -0.4323
 8247SOL     OW25118   5.444   5.810   4.308 -0.1551 -0.0700 -0.2252
 8247SOL    HW125119   5.360   5.766   4.299 -0.5493  0.4131  0.8925
 8247SOL    HW225120   5.482   5.809   4.220 -0.2264 -2.4711 -0.3051
 8248SOL     OW25121   6.296   3.040   0.314  0.0272 -0.1283  0.1560
 8248SOL    HW125122   6.221   3.075   0.265  0.1673  1.5282  1.0547
 8248SOL    HW225123   6.259   3.009   0.396  0.1080 -0.8714 -0.0801
 8249SOL     OW25124   1.640   1.274   6.737  0.2133  0.5060 -0.1017
 8249SOL    HW125125   1.653   1.191   6.782 -0.5777  0.8892  0.8773
 8249SOL    HW225126   1.559   1.263   6.687 -0.8378  1.2124  1.3800
 8250SOL     OW25127   2.481   3.169   3.480 -0.1211  0.0230  0.1621
 8250SOL    HW125128   2.533   3.128   3.411  0.4470 -0.4219  0.8484
 8250SOL    HW225129   2.396   3.187   3.438  0.1890 -0.3065 -0.6250
 8251SOL     OW25130   4.593   5.395   5.305  0.3561 -0.2433 -0.0753
 8251SOL    HW125131   4.586   5.487   5.279 -2.9007 -0.1960  0.4933
 8251SOL    HW225132   4.627   5.351   5.228  0.8641  1.2771 -0.7596
 8252SOL     OW25133   6.231   4.120   5.357  0.5356  0.0861 -0.2215
 8252SOL    HW125134   6.275   4.082   5.433 -0.6659  1.8062  1.4274
 8252SOL    HW225135   6.302   4.160   5.307  1.1356  1.0257  1.3004
 8253SOL     OW25136   3.241   4.783   3.362 -0.3543 -0.2254  0.1389
 8253SOL    HW125137   3.165   4.828   3.323 -1.2608 -0.4618  1.5482
 8253SOL    HW225138   3.252   4.825   3.447 -0.3884 -1.7597  0.9349
 8254SOL     OW25139   5.075   4.024   5.491 -0.6739  0.3278  0.3410
 8254SOL    HW125140   5.012   3.985   5.429  1.9226  0.6980 -2.8186
 8254SOL    HW225141   5.098   3.953   5.550 -0.6803 -1.1666 -1.3726
 8255SOL     OW25142   0.368   0.428   5.134 -0.4803  0.6710  0.2309
 8255SOL    HW125143   0.336   0.339   5.148  0.7090  0.5384  2.6091
 8255SOL    HW225144   0.295   0.484   5.162 -1.8428  0.5791 -2.7525
 8256SOL     OW25145   1.790   4.337   1.753 -0.1659  0.2527  0.5741
 8256SOL    HW125146   1.738   4.359   1.675  0.9339  1.6937  0.2061
 8256SOL    HW225147   1.867   4.394   1.747  1.5175 -1.8606  1.0704
 8257SOL     OW25148   6.745   5.160   4.864  0.8862 -0.5949 -0.2884
 8257SOL    HW125149   6.804   5.097   4.907  0.2017 -1.2024 -0.2080
 8257SOL    HW225150   6.657   5.132   4.891  0.4591 -0.7797 -1.7966
 8258SOL     OW25151   6.014   5.360   1.172 -0.2261 -0.7753  0.1942
 8258SOL    HW125152   6.052   5.330   1.090 -0.0484 -1.3383  0.4750
 8258SOL    HW225153   5.920   5.359   1.158 -0.1729  0.1483 -0.3436
 8259SOL     OW25154   1.752   5.167   1.371 -0.2200 -0.2846  0.0109
 8259SOL    HW125155   1.841   5.185   1.399 -0.2678 -0.0502  0.0104
 8259SOL    HW225156   1.712   5.122   1.446 -0.6520  1.2280  0.7373
 8260SOL     OW25157   0.878   0.468   6.636  0.1620  0.2156  0.0812
 8260SOL    HW125158   0.868   0.490   6.729  2.1609 -0.1124  0.4286
 8260SOL    HW225159   0.797   0.497   6.595 -0.9217  0.0154  1.9917
 8261SOL     OW25160   2.093   6.653   1.899  0.0176 -0.3620 -0.7512
 8261SOL    HW125161   2.150   6.729   1.914 -0.0506 -0.4914  0.1984
 8261SOL    HW225162   2.128   6.613   1.819  0.7623  0.0176 -0.6257
 8262SOL     OW25163   2.809   3.216   0.042  0.5319  0.8176  0.4547
 8262SOL    HW125164   2.739   3.211   0.107  1.7089  1.4869  1.8488
 8262SOL    HW225165   2.888   3.229   0.094  1.5710  1.0688 -1.1257
 8263SOL     OW25166   0.694   1.927   4.268 -0.1088  0.0703  0.4218
 8263SOL    HW125167   0.728   2.013   4.243 -0.2325 -0.5324 -2.0020
 8263SOL    HW225168   0.599   1.934   4.257 -0.0246 -0.7058 -1.0495
 8264SOL     OW25169   5.976   5.793   3.379 -0.7131 -0.1534 -0.3708
 8264SOL    HW125170   5.915   5.792   3.452 -2.3653  0.8253 -1.6540
 8264SOL    HW225171   5.921   5.804   3.301  1.1455  3.0955 -1.4764
 8265SOL     OW25172   1.322   4.394   3.464  0.1852 -0.2983  0.1291
 8265SOL    HW125173   1.356   4.423   3.548 -0.4387 -1.5060  0.8213
 8265SOL    HW225174   1.236   4.434   3.457  0.8227  1.0283 -0.6583
 8266SOL     OW25175   3.619   3.406   2.063  0.0434  0.1248 -0.0305
 8266SOL    HW125176   3.643   3.314   2.058  2.7006  0.7697 -1.3902
 8266SOL    HW225177   3.553   3.411   2.132 -0.4039 -2.8004 -0.1328
 8267SOL     OW25178   0.127   6.522   6.803  0.0557 -0.8766  0.3089
 8267SOL    HW125179   0.136   6.550   6.894 -1.3044 -0.1137  0.2403
 8267SOL    HW225180   0.166   6.435   6.800  0.8376 -0.5774  1.4410
 8268SOL     OW25181   0.426   4.509   0.905 -0.1737  0.1332  0.3869
 8268SOL    HW125182   0.461   4.447   0.969 -0.6680 -0.9441 -0.3547
 8268SOL    HW225183   0.332   4.496   0.907 -0.3117  1.0967  0.4433
 8269SOL     OW25184   1.396   0.390   2.800  0.1741 -0.1541 -0.5105
 8269SOL    HW125185   1.363   0.300   2.801 -0.9033  0.2006  1.4791
 8269SOL    HW225186   1.490   0.382   2.816 -0.0629 -0.9107  0.5784
 8270SOL     OW25187   3.283   4.324   1.662  0.1183  0.6132  0.5036
 8270SOL    HW125188   3.373   4.296   1.681  0.3521  2.4645  2.5709
 8270SOL    HW225189   3.228   4.254   1.696  0.7443 -0.5399 -0.7837
 8271SOL     OW25190   4.781   3.165   5.747  0.1742 -0.1891  0.4514
 8271SOL    HW125191   4.827   3.161   5.831  1.3507 -0.2009 -0.1710
 8271SOL    HW225192   4.832   3.108   5.689  1.2839  2.2381 -1.1213
 8272SOL     OW25193   5.774   5.936   3.955 -0.7827  0.4326 -0.2748
 8272SOL    HW125194   5.825   5.888   3.889 -1.1834  0.1360 -0.3718
 8272SOL    HW225195   5.840   5.980   4.008 -0.4748  1.1424 -1.2212
 8273SOL     OW25196   2.221   0.698   0.334 -0.2314 -0.2650 -0.5867
 8273SOL    HW125197   2.144   0.745   0.303 -0.0675  0.0833 -0.4641
 8273SOL    HW225198   2.295   0.746   0.297  0.0730  1.3698  1.9383
 8274SOL     OW25199   6.711   0.298   0.247  0.1952  0.6117  0.1760
 8274SOL    HW125200   6.633   0.272   0.196 -0.0915 -1.3529  1.4992
 8274SOL    HW225201   6.679   0.305   0.337  0.7504  3.7696  0.2346
 8275SOL     OW25202   6.479   0.122   3.984  0.2068 -0.0392  0.8611
 8275SOL    HW125203   6.472   0.101   3.891 -2.0169 -0.1162  0.9861
 8275SOL    HW225204   6.485   0.036   4.027 -0.8919 -0.1165  0.8896
 8276SOL     OW25205   2.076   3.778   1.001 -0.6675 -0.4090  0.0113
 8276SOL    HW125206   2.102   3.741   1.085 -2.1082 -1.1368  0.1725
 8276SOL    HW225207   2.151   3.831   0.974 -0.3085  0.1264  1.9011
 8277SOL     OW25208   1.330   3.690   3.614  0.1562 -0.3628 -0.3227
 8277SOL    HW125209   1.407   3.669   3.666  0.7634  1.1402 -0.5569
 8277SOL    HW225210   1.364   3.743   3.542 -0.8980 -0.9822 -1.3057
 8278SOL     OW25211   4.628   0.681   5.277  0.5200 -0.1380 -0.5981
 8278SOL    HW125212   4.568   0.626   5.328  1.2320 -0.5462 -0.1960
 8278SOL    HW225213   4.573   0.753   5.245 -0.2609 -0.6874 -0.5196
 8279SOL     OW25214   2.478   5.999   2.506  0.1870  0.0674 -0.0582
 8279SOL    HW125215   2.423   5.963   2.436 -0.2557  0.3847  0.1221
 8279SOL    HW225216   2.449   5.954   2.585  1.0454 -0.6698 -0.1534
 8280SOL     OW25217   2.234   3.810   0.097  0.6038 -0.1994 -0.5043
 8280SOL    HW125218   2.165   3.800   0.032  1.0528  0.5561 -1.1232
 8280SOL    HW225219   2.191   3.850   0.172  0.3901  0.4275 -0.9481
 8281SOL     OW25220   2.544   1.727   1.484 -0.7013  0.3864 -0.0901
 8281SOL    HW125221   2.599   1.670   1.430 -0.0395  0.6501  0.2954
 8281SOL    HW225222   2.525   1.676   1.562 -2.4673 -0.3674 -0.9623
 8282SOL     OW25223   0.295   4.142   1.077  0.5580 -0.9403  0.6562
 8282SOL    HW125224   0.249   4.151   1.160  1.7468 -0.6305  1.3036
 8282SOL    HW225225   0.362   4.210   1.080  0.2648 -0.5499 -0.8114
 8283SOL     OW25226   5.181   0.766   5.017  0.1379  0.5877  0.0583
 8283SOL    HW125227   5.147   0.679   4.996  0.2484  0.7533 -0.8162
 8283SOL    HW225228   5.270   0.766   4.983 -0.0250  1.2056 -0.3783
 8284SOL     OW25229   5.803   6.425   3.741 -0.0251 -0.8650  0.2859
 8284SOL    HW125230   5.808   6.338   3.781  0.3611 -0.7621  0.4715
 8284SOL    HW225231   5.778   6.483   3.812  1.1258 -0.6090  0.5023
 8285SOL     OW25232   6.551   1.926   5.341 -0.1445  0.0349 -0.0079
 8285SOL    HW125233   6.633   1.931   5.389  0.1988  1.1169 -0.6758
 8285SOL    HW225234   6.564   1.981   5.264 -1.3925 -0.0098 -0.2812
 8286SOL     OW25235   0.218   5.030   5.578  0.0077  0.7308 -0.9433
 8286SOL    HW125236   0.270   5.071   5.509  0.5437  1.5770 -0.0650
 8286SOL    HW225237   0.228   5.089   5.654 -2.1490  0.8711 -0.7095
 8287SOL     OW25238   1.518   2.578   4.430  0.3660 -0.2511  0.1627
 8287SOL    HW125239   1.549   2.614   4.513 -0.0381 -0.3596  0.3679
 8287SOL    HW225240   1.532   2.647   4.366  1.6252 -0.5290  0.1140
 8288SOL     OW25241   5.696   5.080   1.536 -0.0351 -0.1909  0.1251
 8288SOL    HW125242   5.602   5.092   1.531  0.0690  0.8608  0.5268
 8288SOL    HW225243   5.727   5.094   1.446 -0.0509  1.4818  0.3615
 8289SOL     OW25244   3.413   1.133   0.512 -0.4055  0.3272 -0.2950
 8289SOL    HW125245   3.502   1.098   0.520 -0.0523  1.1619 -0.4537
 8289SOL    HW225246   3.401   1.144   0.417 -0.5126  0.6362 -0.2451
 8290SOL     OW25247   2.136   3.847   1.355 -0.7505 -0.2364  0.1562
 8290SOL    HW125248   2.099   3.877   1.438 -2.2108 -1.0308 -0.1869
 8290SOL    HW225249   2.222   3.889   1.351 -0.4112 -0.6062  2.3220
 8291SOL     OW25250   3.751   2.933   3.695 -0.1255 -0.2777 -0.5881
 8291SOL    HW125251   3.839   2.969   3.682 -0.5570  0.2733 -2.3168
 8291SOL    HW225252   3.698   2.976   3.628 -1.2203 -2.2575 -1.0664
 8292SOL     OW25253   5.004   3.254   3.172 -0.7410  0.2846  0.1131
 8292SOL    HW125254   5.060   3.282   3.244 -0.4539  0.5005 -0.1849
 8292SOL    HW225255   5.053   3.280   3.093 -0.8563 -0.3096 -0.1611
 8293SOL     OW25256   3.591   2.199   6.624 -0.1322  0.0006  0.9233
 8293SOL    HW125257   3.612   2.287   6.594 -1.2947  0.8981  2.5786
 8293SOL    HW225258   3.625   2.196   6.714 -0.3633 -1.1403  0.9883
 8294SOL     OW25259   2.682   6.789   0.660  0.0137  0.6065  0.4599
 8294SOL    HW125260   2.650   6.878   0.669  0.7436  0.9722 -0.3979
 8294SOL    HW225261   2.653   6.762   0.573 -0.7627 -0.2398  0.9607
 8295SOL     OW25262   6.839   6.313   5.813  0.2317  0.0649 -0.5525
 8295SOL    HW125263   6.842   6.390   5.870 -0.0597 -0.5377  0.3199
 8295SOL    HW225264   6.866   6.240   5.871  0.3128 -0.5087 -1.2997
 8296SOL     OW25265   2.143   6.530   1.434  0.2940 -0.2463  0.3943
 8296SOL    HW125266   2.165   6.484   1.353 -0.2848  1.4384 -0.7880
 8296SOL    HW225267   2.048   6.527   1.439  0.0229  2.7135 -1.0017
 8297SOL     OW25268   1.868   1.013   5.544  0.6443 -0.2444  0.2740
 8297SOL    HW125269   1.826   1.042   5.463  1.2299 -2.3794 -0.9004
 8297SOL    HW225270   1.959   1.043   5.535  0.4691  0.4234  0.6591
 8298SOL     OW25271   2.215   1.653   0.091 -0.1721 -0.0052  0.2702
 8298SOL    HW125272   2.215   1.689   0.180  0.3829 -0.2203  0.3635
 8298SOL    HW225273   2.245   1.563   0.101 -1.4478 -0.4746  0.0195
 8299SOL     OW25274   2.101   1.282   4.004 -0.6349 -0.2318  0.0195
 8299SOL    HW125275   2.107   1.194   4.041  0.9787 -0.4105 -0.5871
 8299SOL    HW225276   2.064   1.268   3.916  0.3686 -0.4182 -0.3854
 8300SOL     OW25277   6.026   5.860   4.087  0.1108 -0.0361 -0.1695
 8300SOL    HW125278   6.106   5.864   4.139  0.2510  2.6737 -0.4349
 8300SOL    HW225279   5.957   5.842   4.151  0.5494  1.0944  0.6614
 8301SOL     OW25280   0.052   5.936   2.795  0.0715  0.3170 -0.2692
 8301SOL    HW125281   0.113   5.882   2.845  1.4909  0.8475 -1.3435
 8301SOL    HW225282  -0.029   5.885   2.792  0.1968 -0.0932  1.8129
 8302SOL     OW25283   6.245   5.003   0.973 -0.5431 -0.6157  0.0265
 8302SOL    HW125284   6.287   5.007   1.059 -0.0170 -0.0150 -0.2495
 8302SOL    HW225285   6.232   4.909   0.957 -0.7570 -0.7232  0.8079
 8303SOL     OW25286   3.128   4.129   1.737  0.1476 -0.1451  0.4029
 8303SOL    HW125287   3.083   4.103   1.817  1.1530  0.5973  1.2342
 8303SOL    HW225288   3.146   4.046   1.692  0.5936 -0.6585  1.5058
 8304SOL     OW25289   5.337   1.822   1.333 -0.1668  0.0769 -0.4408
 8304SOL    HW125290   5.317   1.852   1.422  0.5540 -1.4522  0.2735
 8304SOL    HW225291   5.334   1.902   1.280  1.8829  1.4990  1.3952
 8305SOL     OW25292   3.925   0.181   2.793  0.3138  0.4663 -0.2450
 8305SOL    HW125293   3.922   0.175   2.889  0.3872 -0.5446 -0.2962
 8305SOL    HW225294   3.854   0.241   2.771 -0.2927 -0.0054  0.3853
 8306SOL     OW25295   3.408   1.835   2.920 -0.1702 -0.4694  0.5134
 8306SOL    HW125296   3.434   1.927   2.932  0.8339 -0.9691  2.6395
 8306SOL    HW225297   3.313   1.838   2.911 -0.0983  0.8212 -0.0218
 8307SOL     OW25298   5.837   0.231   6.812  0.1535  0.0052 -0.2029
 8307SOL    HW125299   5.872   0.213   6.899 -0.6675  2.1348  0.6413
 8307SOL    HW225300   5.751   0.188   6.812  0.7532 -1.2474 -0.5501
 8308SOL     OW25301   1.709   1.097   2.152 -0.4574  0.3309  0.5569
 8308SOL    HW125302   1.656   1.037   2.205  1.5368 -1.7115  0.3922
 8308SOL    HW225303   1.796   1.091   2.191  0.8115 -0.3341 -2.1948
 8309SOL     OW25304   3.015   3.818   6.625  0.3362  0.5499 -0.7558
 8309SOL    HW125305   2.962   3.817   6.705  0.5987  1.3324 -0.5612
 8309SOL    HW225306   3.073   3.893   6.636  1.3847 -0.1952 -1.0311
 8310SOL     OW25307   5.758   0.717   0.920  0.0247  0.4508 -0.6680
 8310SOL    HW125308   5.761   0.707   0.825  0.1002  3.0032 -0.9997
 8310SOL    HW225309   5.713   0.800   0.934 -2.9626 -1.3372  1.6958
 8311SOL     OW25310   6.236   5.027   1.288  0.3791  0.2484 -0.3351
 8311SOL    HW125311   6.233   4.932   1.283 -0.7586  0.2198  0.3548
 8311SOL    HW225312   6.148   5.052   1.318  1.0605  1.4123  0.8195
 8312SOL     OW25313   3.299   4.631   2.978  0.7210  0.3860 -0.1705
 8312SOL    HW125314   3.382   4.654   3.019  0.5803 -0.2745  0.4925
 8312SOL    HW225315   3.324   4.582   2.899  0.9679 -0.9673  0.7134
 8313SOL     OW25316   4.095   4.606   6.601 -0.5284  0.2823 -0.3500
 8313SOL    HW125317   4.146   4.657   6.664 -2.7265  0.6342  1.2804
 8313SOL    HW225318   4.012   4.654   6.594 -1.0420 -0.7774 -2.0998
 8314SOL     OW25319   1.070   6.726   0.895 -0.4377 -0.1873  0.1899
 8314SOL    HW125320   1.026   6.800   0.853 -1.3889 -1.6606 -1.5026
 8314SOL    HW225321   1.161   6.734   0.867 -0.5571  0.2757 -0.0789
 8315SOL     OW25322   2.389   1.462   1.057 -0.0540  0.0719 -0.5671
 8315SOL    HW125323   2.421   1.375   1.081  1.2825  0.1681 -1.8513
 8315SOL    HW225324   2.332   1.487   1.129  1.0102 -1.0860  0.7456
 8316SOL     OW25325   6.609   4.699   6.792 -0.2352 -0.4317 -0.3285
 8316SOL    HW125326   6.515   4.702   6.805 -0.3499 -1.2867 -0.9448
 8316SOL    HW225327   6.627   4.766   6.726 -0.2145  0.7293  0.8118
 8317SOL     OW25328   5.572   0.060   0.121 -0.2790 -0.0154  0.0836
 8317SOL    HW125329   5.529   0.145   0.119  0.4167  0.3388 -2.3696
 8317SOL    HW225330   5.605   0.052   0.211 -0.1340  2.4120  0.2986
 8318SOL     OW25331   0.814   5.605   1.304 -0.1819 -0.1193  0.1002
 8318SOL    HW125332   0.824   5.510   1.307 -2.1553 -0.3523  1.1861
 8318SOL    HW225333   0.778   5.622   1.217  0.4022 -0.3245 -0.1887
 8319SOL     OW25334   0.556   1.465   1.434  0.3061 -0.0090  0.3262
 8319SOL    HW125335   0.532   1.389   1.381  1.6335 -0.2988  0.1268
 8319SOL    HW225336   0.482   1.476   1.495 -0.0905 -1.1915  0.0742
 8320SOL     OW25337   5.290   3.553   2.904  0.3098  0.8487 -0.0180
 8320SOL    HW125338   5.243   3.636   2.900 -3.2985 -1.0146 -0.3875
 8320SOL    HW225339   5.316   3.536   2.813 -2.2635 -0.0288 -0.6760
 8321SOL     OW25340   5.013   0.825   5.979  0.3820  0.7128 -0.1921
 8321SOL    HW125341   4.945   0.788   6.036  0.0117  1.1508 -0.3408
 8321SOL    HW225342   4.999   0.919   5.984  1.2019  0.8282  0.0402
 8322SOL     OW25343   4.726   3.380   0.615 -0.6677 -0.0928 -0.2208
 8322SOL    HW125344   4.808   3.385   0.566 -0.0256  0.0466  0.8314
 8322SOL    HW225345   4.677   3.309   0.573 -1.0262  1.3085 -2.3352
 8323SOL     OW25346   1.630   3.827   1.687 -0.1947 -0.0363  0.0072
 8323SOL    HW125347   1.599   3.815   1.597  0.4826  1.8612 -0.5224
 8323SOL    HW225348   1.558   3.872   1.731 -0.9490 -1.8657  0.7574
 8324SOL     OW25349   4.411   2.912   6.798  0.6148 -0.1482  0.1940
 8324SOL    HW125350   4.332   2.959   6.773 -0.2011 -0.9321  1.1891
 8324SOL    HW225351   4.393   2.879   6.886  0.1422 -4.3072 -1.2269
 8325SOL     OW25352   4.196   0.586   4.320  0.6246  0.1415 -0.0437
 8325SOL    HW125353   4.246   0.649   4.373 -0.4217 -0.4489  1.7393
 8325SOL    HW225354   4.114   0.574   4.369 -0.7446  0.1134 -2.2090
 8326SOL     OW25355   1.910   4.906   1.401 -0.0421 -0.1165 -0.4768
 8326SOL    HW125356   1.956   4.914   1.318 -0.0916 -0.5271 -0.5493
 8326SOL    HW225357   1.821   4.934   1.382 -0.2279 -0.8494 -0.7348
 8327SOL     OW25358   3.265   5.526   2.883 -0.3674 -0.2555 -0.0290
 8327SOL    HW125359   3.179   5.509   2.844 -0.3377  0.3411 -0.3676
 8327SOL    HW225360   3.324   5.531   2.808 -0.4428  1.7231 -0.0018
 8328SOL     OW25361   2.384   5.346   3.390 -0.3322 -0.2472  0.2013
 8328SOL    HW125362   2.321   5.279   3.365 -1.8455  1.0584  0.3206
 8328SOL    HW225363   2.388   5.405   3.315  1.8810 -1.0567 -0.3706
 8329SOL     OW25364   4.597   0.887   2.244 -0.2854 -0.3169 -0.0847
 8329SOL    HW125365   4.585   0.803   2.201 -0.1251 -1.0372  1.2251
 8329SOL    HW225366   4.651   0.867   2.320 -0.6734  0.8817  0.5274
 8330SOL     OW25367   4.724   3.947   5.690  0.1193 -0.0437  0.3994
 8330SOL    HW125368   4.635   3.949   5.724  0.4798 -1.7834  1.6358
 8330SOL    HW225369   4.777   3.987   5.760  0.2877  1.3917 -0.5163
 8331SOL     OW25370   5.890   0.754   4.182 -0.2927  0.3271  0.1804
 8331SOL    HW125371   5.885   0.798   4.097 -0.2087 -0.7923 -0.4172
 8331SOL    HW225372   5.871   0.823   4.245  2.5224  1.9067 -0.5089
 8332SOL     OW25373   0.823   0.298   1.293  0.5822  0.1641 -0.6026
 8332SOL    HW125374   0.828   0.373   1.352 -0.5202 -0.7046  0.6663
 8332SOL    HW225375   0.760   0.325   1.226 -0.1699  0.2234  0.1084
 8333SOL     OW25376   0.253   0.080   3.602 -0.0543 -0.4759  0.0804
 8333SOL    HW125377   0.288   0.066   3.690  1.2029 -1.4254 -0.5501
 8333SOL    HW225378   0.204   0.162   3.609  1.5695  0.4672  1.2345
 8334SOL     OW25379   3.972   4.871   0.025  0.1008  0.6102  0.0516
 8334SOL    HW125380   3.961   4.850  -0.068  1.2042  1.9590 -0.4248
 8334SOL    HW225381   3.896   4.927   0.046  0.0960  0.6918 -0.1759
 8335SOL     OW25382   3.261   4.125   1.198  0.1007  0.9845  0.0063
 8335SOL    HW125383   3.318   4.058   1.237 -1.2242  1.0676  2.2809
 8335SOL    HW225384   3.272   4.201   1.255 -0.5368  1.7686 -0.8882
 8336SOL     OW25385   5.837   1.536   3.517 -0.2477  0.1379 -0.0288
 8336SOL    HW125386   5.770   1.568   3.456 -1.3146 -1.8982 -0.0247
 8336SOL    HW225387   5.787   1.511   3.595  0.8098  0.5472  0.7918
 8337SOL     OW25388   6.441   1.178   3.610 -0.7271 -0.2050 -0.0291
 8337SOL    HW125389   6.522   1.230   3.611 -1.2146  0.5805  0.6670
 8337SOL    HW225390   6.469   1.089   3.627 -0.1432  0.3233  2.0873
 8338SOL     OW25391   4.228   6.273   1.652  0.3976  0.4128  0.4242
 8338SOL    HW125392   4.243   6.275   1.557 -0.8726  0.1285  0.1928
 8338SOL    HW225393   4.181   6.355   1.670  0.0658  0.1665  0.6900
 8339SOL     OW25394   5.133   5.838   5.526 -0.2068  0.0989 -0.5298
 8339SOL    HW125395   5.101   5.872   5.442  2.1066  0.9226 -1.1566
 8339SOL    HW225396   5.147   5.916   5.580 -0.0456 -0.2861 -0.0034
 8340SOL     OW25397   1.197   2.235   0.502 -0.0531  0.4590 -0.2338
 8340SOL    HW125398   1.209   2.168   0.435  1.7565 -1.4134  1.8504
 8340SOL    HW225399   1.272   2.293   0.491 -0.6117  1.0996 -0.8032
 8341SOL     OW25400   4.684   2.208   0.320  0.0567 -0.6652  0.5852
 8341SOL    HW125401   4.678   2.304   0.315 -0.1239 -0.6774  0.5244
 8341SOL    HW225402   4.775   2.188   0.300  0.5458 -0.4022  2.4298
 8342SOL     OW25403   4.214   0.858   0.505  0.6650  0.0760  0.0316
 8342SOL    HW125404   4.171   0.814   0.432 -0.4922  2.7260 -0.9992
 8342SOL    HW225405   4.179   0.814   0.583 -0.3926 -0.8381 -0.9164
 8343SOL     OW25406   3.815   1.711   1.103  0.0622 -0.1269  0.0968
 8343SOL    HW125407   3.869   1.771   1.051  0.4916 -0.5796  0.0125
 8343SOL    HW225408   3.742   1.765   1.133 -0.9567 -0.1721 -2.1350
 8344SOL     OW25409   0.839   1.511   5.152  0.6131  0.0597  0.4141
 8344SOL    HW125410   0.846   1.425   5.111  1.6648  0.2740  0.1235
 8344SOL    HW225411   0.914   1.560   5.119 -0.7979  1.6200 -0.6768
 8345SOL     OW25412   4.471   5.239   0.183 -0.3826 -0.3534  0.2545
 8345SOL    HW125413   4.470   5.182   0.260 -0.3286  0.7807  1.1361
 8345SOL    HW225414   4.560   5.231   0.149 -0.3363 -0.6910  0.4503
 8346SOL     OW25415   1.310   1.815   4.619  0.5991  0.4475 -0.2927
 8346SOL    HW125416   1.270   1.860   4.693  1.4617  0.2999  0.2778
 8346SOL    HW225417   1.274   1.860   4.542 -1.0116  0.0140  0.1635
 8347SOL     OW25418   3.214   5.905   6.585  0.2703 -0.0951 -0.1033
 8347SOL    HW125419   3.237   5.997   6.590  0.5902  0.0655 -3.0457
 8347SOL    HW225420   3.120   5.905   6.564  0.3098 -0.4236 -0.2865
 8348SOL     OW25421   0.389   2.907   0.687 -0.1128  0.4637  0.7107
 8348SOL    HW125422   0.303   2.865   0.685  0.5759 -1.0355  1.0118
 8348SOL    HW225423   0.394   2.948   0.773 -0.3528  0.1628  0.8696
 8349SOL     OW25424   0.742   1.247   3.285  0.0796 -0.5085 -0.0505
 8349SOL    HW125425   0.743   1.342   3.273 -0.0490 -0.4199  0.6340
 8349SOL    HW225426   0.818   1.228   3.339 -0.6331 -0.6395  0.9277
 8350SOL     OW25427   1.239   5.012   2.014 -0.0565  0.6025  0.2089
 8350SOL    HW125428   1.186   5.081   2.055 -1.4036 -1.1495  1.5666
 8350SOL    HW225429   1.273   4.961   2.087  0.2707 -0.6325 -0.7746
 8351SOL     OW25430   2.924   2.865   4.368  0.2415 -0.1724 -0.1892
 8351SOL    HW125431   2.996   2.806   4.346  1.1155  0.5618  0.5847
 8351SOL    HW225432   2.943   2.892   4.458 -1.1908 -0.2155  0.1533
 8352SOL     OW25433   6.098   3.784   0.850 -0.2043 -0.0812 -0.0285
 8352SOL    HW125434   6.062   3.872   0.841 -0.4894 -0.0367  1.3573
 8352SOL    HW225435   6.026   3.733   0.888  0.6474 -0.3785  1.2596
 8353SOL     OW25436   6.052   4.768   5.034 -0.0121  0.4260 -0.3898
 8353SOL    HW125437   6.078   4.684   5.072  1.1590  0.1462 -1.7310
 8353SOL    HW225438   5.964   4.752   5.000  0.3511 -0.3824 -0.9744
 8354SOL     OW25439   0.462   3.642   2.969  0.3918 -0.7034  0.8439
 8354SOL    HW125440   0.386   3.586   2.953  0.7806 -1.0516  0.1617
 8354SOL    HW225441   0.511   3.596   3.037  0.8600 -1.3580  0.0812
 8355SOL     OW25442   4.811   2.825   5.845 -0.2541  0.2550 -0.3355
 8355SOL    HW125443   4.823   2.878   5.925 -2.2024 -0.4061  0.4471
 8355SOL    HW225444   4.750   2.757   5.871 -1.4332  0.3921 -2.5847
 8356SOL     OW25445   6.668   0.414   5.788 -0.6255  0.5219  0.0631
 8356SOL    HW125446   6.706   0.382   5.706 -1.7132  0.3603 -0.3913
 8356SOL    HW225447   6.738   0.465   5.828  0.3413 -0.4260 -0.3591
 8357SOL     OW25448   6.529   0.888   2.572  0.4623 -0.1986 -0.4407
 8357SOL    HW125449   6.457   0.836   2.608  0.8348 -1.2193 -1.1252
 8357SOL    HW225450   6.488   0.971   2.548 -0.6573 -1.0234 -1.5106
 8358SOL     OW25451   4.451   1.853   0.657 -0.6758  0.1149  0.2901
 8358SOL    HW125452   4.494   1.776   0.621 -2.3585 -0.6650 -0.1718
 8358SOL    HW225453   4.445   1.914   0.584 -1.8253 -0.4565 -0.1166
 8359SOL     OW25454   5.035   4.069   6.818 -0.0074 -0.0615  0.3649
 8359SOL    HW125455   5.031   4.144   6.878  0.1139 -1.8098  2.6684
 8359SOL    HW225456   5.128   4.045   6.816 -0.1636 -0.6673  0.2892
 8360SOL     OW25457   5.740   2.970   2.433 -0.1193 -0.3674  0.4238
 8360SOL    HW125458   5.713   2.955   2.343  0.3315 -1.6479  0.4801
 8360SOL    HW225459   5.691   2.905   2.484 -2.0254  1.7144  1.4291
 8361SOL     OW25460   4.115   5.164   6.324 -0.6002 -0.1416  0.2901
 8361SOL    HW125461   4.161   5.191   6.245 -1.1943  0.8047  0.2534
 8361SOL    HW225462   4.179   5.177   6.394 -0.3277 -0.2503  0.0654
 8362SOL     OW25463   2.001   3.258   4.163 -0.0253 -0.8240  0.0992
 8362SOL    HW125464   2.070   3.294   4.220  0.1670 -0.3686 -0.4146
 8362SOL    HW225465   1.920   3.299   4.195  0.1624 -0.0944 -0.3366
 8363SOL     OW25466   6.661   6.799   6.621  0.3488  0.6389  0.0797
 8363SOL    HW125467   6.752   6.827   6.610  0.6617 -0.4029 -0.0506
 8363SOL    HW225468   6.611   6.857   6.563  1.0397  0.5545 -0.6104
 8364SOL     OW25469   0.041   5.724   3.844  0.2294 -0.2545 -0.6605
 8364SOL    HW125470  -0.019   5.765   3.782  0.3325  0.1299 -0.5043
 8364SOL    HW225471   0.015   5.631   3.844 -0.1136 -0.1604 -0.8825
 8365SOL     OW25472   3.963   1.254   4.061 -0.0216  0.3850 -0.1637
 8365SOL    HW125473   3.924   1.182   4.011 -1.0200  0.7020  0.1443
 8365SOL    HW225474   3.991   1.316   3.994  0.6905 -0.1950 -0.4243
 8366SOL     OW25475   6.504   2.948   2.507  0.4359  0.3854  0.0171
 8366SOL    HW125476   6.539   2.884   2.569  0.3833  0.1991 -0.1451
 8366SOL    HW225477   6.415   2.917   2.489  0.3968  0.5261 -0.0321
 8367SOL     OW25478   0.911   4.056   4.078 -0.3051  0.3376 -0.1673
 8367SOL    HW125479   1.003   4.060   4.054 -0.1339  0.6213  0.5137
 8367SOL    HW225480   0.868   4.018   4.001  0.7589 -2.5548  0.5341
 8368SOL     OW25481   3.541   0.689   0.925 -0.1106  0.4204 -0.5160
 8368SOL    HW125482   3.505   0.651   0.845  0.5810  0.3982 -0.8274
 8368SOL    HW225483   3.504   0.777   0.928  1.6362  1.2943 -2.1377
 8369SOL     OW25484   6.827   2.844   2.213  0.5295 -0.5569  0.3310
 8369SOL    HW125485   6.739   2.880   2.201  1.7819  3.3146  1.3303
 8369SOL    HW225486   6.827   2.805   2.300  0.0600  0.3066  0.7175
 8370SOL     OW25487   5.554   0.971   3.021 -0.0615  0.5165 -0.4679
 8370SOL    HW125488   5.595   0.893   3.059 -0.9374 -0.8341 -2.1229
 8370SOL    HW225489   5.566   1.039   3.087  0.2503 -1.1548  1.3031
 8371SOL     OW25490   5.829   5.796   3.149  0.2969 -0.1625 -0.0373
 8371SOL    HW125491   5.848   5.779   3.056 -2.9915  0.3254 -0.9094
 8371SOL    HW225492   5.799   5.887   3.151  1.4377  0.2201  1.7581
 8372SOL     OW25493   6.206   3.558   4.545 -0.4172  0.1471  0.0612
 8372SOL    HW125494   6.242   3.532   4.460 -0.1465  2.0562 -0.4510
 8372SOL    HW225495   6.120   3.516   4.548 -0.3061 -0.1880 -1.0330
 8373SOL     OW25496   0.578   1.467   6.804  0.2464  0.3443 -0.1176
 8373SOL    HW125497   0.551   1.554   6.776  0.4088  1.1686  2.1424
 8373SOL    HW225498   0.571   1.468   6.899  1.2438 -1.7863  0.0484
 8374SOL     OW25499   4.562   0.737   1.035 -0.5858  0.5314 -0.1596
 8374SOL    HW125500   4.639   0.688   1.008 -0.1550  0.4212  1.1934
 8374SOL    HW225501   4.570   0.821   0.990  1.2889  1.1981  1.3078
 8375SOL     OW25502   5.110   4.511   0.604 -0.4841  0.3379  0.1161
 8375SOL    HW125503   5.078   4.511   0.695 -0.7974  1.9705  0.0380
 8375SOL    HW225504   5.192   4.560   0.608 -0.2163 -0.0575 -0.4108
 8376SOL     OW25505   4.119   5.902   6.632 -0.1809 -0.1433  0.1101
 8376SOL    HW125506   4.167   5.942   6.704 -0.8220 -0.2676  0.6104
 8376SOL    HW225507   4.028   5.928   6.646 -0.1909  0.6772 -1.2151
 8377SOL     OW25508   1.664   1.378   4.044 -0.0959 -0.0423  0.3228
 8377SOL    HW125509   1.582   1.422   4.063 -0.3797 -0.8679  1.1006
 8377SOL    HW225510   1.729   1.448   4.040 -0.8644  0.6396 -0.5506
 8378SOL     OW25511   6.583   6.053   5.980  0.0777 -0.3111 -0.3467
 8378SOL    HW125512   6.543   6.000   6.049  0.5852  0.5477  0.6382
 8378SOL    HW225513   6.641   6.113   6.027 -0.8754  1.4736 -1.3894
 8379SOL     OW25514   3.508   1.362   5.624 -0.2789  0.2633 -0.4318
 8379SOL    HW125515   3.513   1.269   5.601 -1.2086  0.1936 -0.4040
 8379SOL    HW225516   3.532   1.408   5.544 -0.9921 -0.0011 -0.8102
 8380SOL     OW25517   3.329   4.681   4.602  0.3557  0.3508  0.0634
 8380SOL    HW125518   3.302   4.765   4.641  0.1710  0.1459  0.3800
 8380SOL    HW225519   3.264   4.618   4.633 -0.8850  0.5045 -2.0702
 8381SOL     OW25520   0.555   2.765   2.390 -0.2065  0.2938  0.1174
 8381SOL    HW125521   0.552   2.796   2.299  0.1193 -1.5035 -0.5525
 8381SOL    HW225522   0.584   2.674   2.383  2.5319  0.8790  2.2202
 8382SOL     OW25523   0.025   0.909   5.993  0.6806 -0.1520 -0.2697
 8382SOL    HW125524   0.100   0.955   6.029  0.3248  0.8202 -0.7481
 8382SOL    HW225525  -0.004   0.962   5.919 -1.2692  0.2097  0.6694
 8383SOL     OW25526   4.230   4.398   4.992  0.3289  0.7251 -0.1696
 8383SOL    HW125527   4.139   4.412   5.015 -0.3160 -0.0182 -2.0772
 8383SOL    HW225528   4.273   4.376   5.075 -1.7703 -1.6600  0.3870
 8384SOL     OW25529   2.754   4.426   1.751 -0.0504  0.2689  0.1645
 8384SOL    HW125530   2.701   4.367   1.805 -0.8010  2.9189  2.5562
 8384SOL    HW225531   2.823   4.370   1.716 -0.8319 -2.0687  2.0668
 8385SOL     OW25532   6.694   2.569   1.225 -0.6421 -0.3528 -0.8641
 8385SOL    HW125533   6.742   2.553   1.306  0.0677 -1.8046 -1.5386
 8385SOL    HW225534   6.603   2.548   1.246 -0.7821  1.0270  0.0240
 8386SOL     OW25535   0.890   0.650   3.547  1.1853  0.8363 -0.6618
 8386SOL    HW125536   0.884   0.745   3.533 -1.1554  1.0172  0.9765
 8386SOL    HW225537   0.805   0.616   3.517  0.9667 -0.3513  1.1401
 8387SOL     OW25538   0.798   0.581   0.056  0.7552  0.1691 -0.5743
 8387SOL    HW125539   0.744   0.653   0.023 -0.4990 -0.5978 -0.2678
 8387SOL    HW225540   0.799   0.594   0.151 -1.1288 -1.2659 -0.2984
 8388SOL     OW25541   4.752   4.028   6.442 -0.2447  0.0991  0.0913
 8388SOL    HW125542   4.790   4.070   6.519 -0.1815  1.2461 -0.5489
 8388SOL    HW225543   4.763   4.092   6.371  0.3165 -1.1945 -1.0393
 8389SOL     OW25544   3.590   3.833   4.428  0.1823  0.0301  0.3266
 8389SOL    HW125545   3.547   3.918   4.442 -1.1813 -0.5984  0.1296
 8389SOL    HW225546   3.594   3.794   4.516 -1.9622 -0.9395  0.0653
 8390SOL     OW25547   0.141   5.018   2.098 -0.1758 -0.4876  0.0267
 8390SOL    HW125548   0.105   4.981   2.018 -1.1822 -1.3843  0.8765
 8390SOL    HW225549   0.090   5.097   2.113 -0.9999 -1.1237  0.5903
 8391SOL     OW25550   0.699   6.566   4.600 -0.7276  0.1466  0.2910
 8391SOL    HW125551   0.691   6.501   4.669  0.2214 -0.8656 -0.5048
 8391SOL    HW225552   0.765   6.627   4.632 -0.1877 -0.3971  0.2326
 8392SOL     OW25553   0.511   0.393   4.673  0.6832  0.4106 -0.0562
 8392SOL    HW125554   0.461   0.461   4.719  0.0034  0.4215 -0.7925
 8392SOL    HW225555   0.519   0.426   4.583  0.3406 -0.4743 -0.4252
 8393SOL     OW25556   4.771   5.376   5.040  0.0885  0.0253 -0.3637
 8393SOL    HW125557   4.703   5.407   4.981 -0.7007 -1.6671 -0.4262
 8393SOL    HW225558   4.832   5.329   4.983  0.9153  0.8745 -0.2005
 8394SOL     OW25559   5.316   4.129   1.027 -0.2490 -0.3739  0.4368
 8394SOL    HW125560   5.345   4.080   0.950 -0.7488 -1.7704  1.1048
 8394SOL    HW225561   5.397   4.169   1.061  0.2937 -1.3138  0.2752
 8395SOL     OW25562   0.428   1.054   6.587 -0.3356 -0.6031 -0.1423
 8395SOL    HW125563   0.368   1.024   6.656 -0.1828  0.0133  0.2656
 8395SOL    HW225564   0.510   1.074   6.634 -0.5900  0.9388 -0.3160
 8396SOL     OW25565   3.637   6.124   4.673  0.1657 -0.2153  0.4686
 8396SOL    HW125566   3.723   6.157   4.698 -0.2484  1.0587  0.2768
 8396SOL    HW225567   3.645   6.101   4.581  0.5555 -1.0148  0.6938
 8397SOL     OW25568   5.587   2.294   5.171 -0.3247  0.8471  0.7396
 8397SOL    HW125569   5.528   2.340   5.113  0.9852  2.4527  0.6314
 8397SOL    HW225570   5.601   2.354   5.244  0.7836  0.3054  0.9978
 8398SOL     OW25571   5.935   0.602   0.604  0.2876 -0.1808 -0.1659
 8398SOL    HW125572   6.006   0.660   0.576  0.3460 -0.6280 -0.9657
 8398SOL    HW225573   5.940   0.603   0.699  1.2375 -0.0418 -0.2058
 8399SOL     OW25574   6.539   5.591   2.192 -0.0244  0.7644 -0.3193
 8399SOL    HW125575   6.630   5.618   2.189  0.0785  0.4724  0.1381
 8399SOL    HW225576   6.541   5.503   2.228 -0.2229 -0.4598 -3.0461
 8400SOL     OW25577   6.329   2.619   1.633 -0.2415  0.2333 -0.0784
 8400SOL    HW125578   6.417   2.586   1.615 -0.5772 -2.0769  1.9476
 8400SOL    HW225579   6.291   2.554   1.692 -2.6018  2.1808  0.7110
 8401SOL     OW25580   1.018   1.771   0.028 -0.3321 -0.6727  0.9179
 8401SOL    HW125581   0.968   1.807   0.101  0.3373  0.3101  0.9104
 8401SOL    HW225582   1.079   1.841   0.004  0.7908 -1.6966  0.6842
 8402SOL     OW25583   1.584   0.047   5.810  0.0365  0.3036  0.1306
 8402SOL    HW125584   1.586   0.139   5.835 -2.0938  0.6841 -0.8363
 8402SOL    HW225585   1.491   0.026   5.802  0.4165 -2.2613  1.3815
 8403SOL     OW25586   0.237   1.347   5.118 -0.0597 -0.4046  0.1107
 8403SOL    HW125587   0.222   1.404   5.193 -1.6102  0.1818 -0.5997
 8403SOL    HW225588   0.234   1.405   5.042  0.4335 -1.1363 -0.4861
 8404SOL     OW25589   3.306   5.324   1.596 -0.7405  0.4715  0.1133
 8404SOL    HW125590   3.307   5.305   1.690 -3.3015  1.0679  0.3242
 8404SOL    HW225591   3.218   5.301   1.567  0.1005 -0.0736 -2.2745
 8405SOL     OW25592   0.510   4.871   6.610  1.2112  0.1370 -0.1323
 8405SOL    HW125593   0.443   4.891   6.675 -0.5769 -0.2949 -1.7443
 8405SOL    HW225594   0.527   4.778   6.620  1.2175  0.1479 -0.0407
 8406SOL     OW25595   1.740   0.662   4.045 -0.1490 -0.7941 -0.2746
 8406SOL    HW125596   1.739   0.702   3.958 -0.4013 -0.9258 -0.3320
 8406SOL    HW225597   1.651   0.629   4.058 -0.3051 -0.1930  0.3024
 8407SOL     OW25598   5.297   3.065   5.098  0.1202 -0.3630  0.1174
 8407SOL    HW125599   5.217   3.065   5.047  0.8962 -1.2881 -1.1661
 8407SOL    HW225600   5.268   3.072   5.189 -1.3281  0.6810 -0.3887
 8408SOL     OW25601   4.542   0.598   1.317  0.3740  0.6555  0.1894
 8408SOL    HW125602   4.556   0.661   1.247 -0.3896 -0.7469 -1.2977
 8408SOL    HW225603   4.628   0.585   1.356  0.4419  3.0675  1.0101
 8409SOL     OW25604   6.520   5.277   4.253  0.1716  0.5800 -0.1084
 8409SOL    HW125605   6.552   5.230   4.330 -2.4907 -0.1142  0.6984
 8409SOL    HW225606   6.473   5.353   4.289 -0.7838  0.4555 -1.0335
 8410SOL     OW25607   0.867   5.526   2.051  0.0855  0.2899 -0.9061
 8410SOL    HW125608   0.942   5.563   2.004  1.5639  0.4726  1.4592
 8410SOL    HW225609   0.896   5.439   2.078  0.4304  1.2620  2.1178
 8411SOL     OW25610   3.796   2.740   5.872 -0.4545 -0.1068  0.0213
 8411SOL    HW125611   3.760   2.680   5.937  0.2654  0.7494  1.2481
 8411SOL    HW225612   3.719   2.772   5.824 -0.8691 -1.7992 -0.5186
 8412SOL     OW25613   3.122   5.431   1.182  0.0861 -0.2279 -0.0696
 8412SOL    HW125614   3.182   5.468   1.248 -0.2569 -3.5631  2.3339
 8412SOL    HW225615   3.170   5.357   1.145 -1.1024 -0.5872 -0.9383
 8413SOL     OW25616   4.823   0.588   3.488  0.3150 -0.2722  0.2057
 8413SOL    HW125617   4.883   0.618   3.557  0.0472 -0.9340  0.7445
 8413SOL    HW225618   4.881   0.561   3.417  0.7872 -2.1468  1.2130
 8414SOL     OW25619   5.882   2.012   0.699  0.7136  0.0944  0.0434
 8414SOL    HW125620   5.810   1.952   0.681  0.8498  0.1292 -0.6271
 8414SOL    HW225621   5.919   2.033   0.614  0.7222  1.0731  0.2653
 8415SOL     OW25622   1.182   4.674   0.220  0.1021 -0.6107  0.5296
 8415SOL    HW125623   1.175   4.755   0.168 -0.7557 -0.0323  1.5048
 8415SOL    HW225624   1.263   4.685   0.268  1.4259 -1.5901 -1.3537
 8416SOL     OW25625   5.055   1.130   5.367 -0.0188 -0.1270 -0.3843
 8416SOL    HW125626   5.110   1.162   5.438  0.2741 -0.7259 -0.3305
 8416SOL    HW225627   5.116   1.110   5.297 -0.5459  4.0379 -2.3311
 8417SOL     OW25628   3.934   0.638   6.177  0.6979  0.0775 -0.0958
 8417SOL    HW125629   3.902   0.657   6.265 -1.1500 -0.9479 -0.4925
 8417SOL    HW225630   3.932   0.722   6.132 -0.9878  0.1558  0.0717
 8418SOL     OW25631   3.624   0.445   2.073  0.6040 -0.1938  0.4586
 8418SOL    HW125632   3.618   0.397   2.155 -0.8462 -0.5950  0.1397
 8418SOL    HW225633   3.706   0.414   2.033  0.9501 -0.5274  1.3982
 8419SOL     OW25634   5.902   4.983   5.702  0.4655  0.5802 -0.2379
 8419SOL    HW125635   5.821   4.975   5.752  2.0665 -0.3608  2.4977
 8419SOL    HW225636   5.953   5.049   5.750  2.5144 -1.1184  0.1157
 8420SOL     OW25637   0.993   3.202   5.871 -0.4098 -0.5753 -0.1113
 8420SOL    HW125638   0.906   3.241   5.858  0.0906  0.8094  0.5065
 8420SOL    HW225639   1.002   3.193   5.966  0.0830 -0.8255 -0.1770
 8421SOL     OW25640   4.530   1.395   3.655 -0.3177 -0.5641 -0.2058
 8421SOL    HW125641   4.560   1.479   3.691 -0.2071 -0.3604 -0.7685
 8421SOL    HW225642   4.434   1.401   3.659 -0.3111 -0.3696 -0.3428
 8422SOL     OW25643   3.584   1.387   1.664  0.4438  0.6578 -0.5988
 8422SOL    HW125644   3.521   1.436   1.611  2.0322  3.0842 -0.4273
 8422SOL    HW225645   3.538   1.370   1.747 -1.4979 -1.7582 -2.0469
 8423SOL     OW25646   0.110   5.360   0.766  0.0190 -0.5544  0.6266
 8423SOL    HW125647   0.199   5.326   0.762 -0.3201 -1.4438  0.0307
 8423SOL    HW225648   0.082   5.345   0.856  0.4913 -0.2201  0.8294
 8424SOL     OW25649   6.804   0.065   6.332  0.0157  0.1088 -0.5488
 8424SOL    HW125650   6.830   0.030   6.247 -0.0138 -0.3589 -0.3707
 8424SOL    HW225651   6.709   0.074   6.326  0.1165  1.0245 -0.9081
 8425SOL     OW25652   1.221   0.750   4.096 -0.2246  0.3683  0.0802
 8425SOL    HW125653   1.244   0.734   4.188 -0.8616  1.9323  0.5600
 8425SOL    HW225654   1.147   0.692   4.080  1.0522 -1.2901 -0.0517
 8426SOL     OW25655   4.243   0.904   5.959 -0.5874 -0.5811 -0.3791
 8426SOL    HW125656   4.220   0.954   5.881  2.1813 -1.6170 -2.0159
 8426SOL    HW225657   4.300   0.962   6.009 -0.5906 -0.6954 -0.2416
 8427SOL     OW25658   5.640   2.628   4.335 -0.2542 -0.6863  0.4484
 8427SOL    HW125659   5.676   2.570   4.268  0.6930 -0.5168  0.7960
 8427SOL    HW225660   5.556   2.588   4.359 -0.8368 -0.5127 -1.1354
 8428SOL     OW25661   4.213   6.193   6.239  0.2139 -0.4503  0.0248
 8428SOL    HW125662   4.243   6.103   6.227  0.8757 -0.0495 -1.6457
 8428SOL    HW225663   4.293   6.244   6.242 -0.0806 -0.0412  2.6423
 8429SOL     OW25664   5.163   5.575   3.645  0.0748 -0.0350  0.7340
 8429SOL    HW125665   5.094   5.518   3.612  0.1737 -0.0713  0.5892
 8429SOL    HW225666   5.226   5.582   3.573  1.0414 -1.3183  1.4001
 8430SOL     OW25667   4.789   2.783   2.698  0.3313  0.2819  0.0813
 8430SOL    HW125668   4.795   2.712   2.761  3.8532 -0.3865 -0.7855
 8430SOL    HW225669   4.767   2.740   2.615  0.4210  0.4804 -0.0473
 8431SOL     OW25670   1.568   1.586   3.016  0.8702  0.6426 -0.3004
 8431SOL    HW125671   1.572   1.675   3.051 -1.8365  1.5874 -2.1229
 8431SOL    HW225672   1.489   1.584   2.963  0.9585 -2.8208 -0.5426
 8432SOL     OW25673   3.027   6.183   4.110 -0.1520  0.3956  0.1413
 8432SOL    HW125674   3.049   6.090   4.095  0.4600  0.6478 -0.6140
 8432SOL    HW225675   3.111   6.224   4.132 -0.3690  0.8216  0.1763
 8433SOL     OW25676   3.509   5.405   5.847  0.7823 -0.0371  0.2452
 8433SOL    HW125677   3.439   5.347   5.879  0.7477  0.4429  1.0682
 8433SOL    HW225678   3.509   5.478   5.909 -1.1302  2.3705 -2.3028
 8434SOL     OW25679   1.206   4.830   0.530 -0.2497  0.3386  0.6318
 8434SOL    HW125680   1.273   4.762   0.526 -0.0184  0.5527  0.7915
 8434SOL    HW225681   1.128   4.790   0.491  0.8106  1.0891 -2.5814
 8435SOL     OW25682   4.538   2.890   3.317 -0.1869 -0.0350  0.2636
 8435SOL    HW125683   4.494   2.806   3.304  2.4601 -1.5983  0.7525
 8435SOL    HW225684   4.466   2.953   3.327 -2.3112 -2.4679  1.5822
 8436SOL     OW25685   4.623   4.953   6.586 -0.2420  0.1469  0.2863
 8436SOL    HW125686   4.663   4.880   6.539  0.0552  0.0353  0.7147
 8436SOL    HW225687   4.549   4.914   6.633  0.1670  0.0421  0.8489
 8437SOL     OW25688   6.138   2.715   2.098  0.4596  0.1893 -0.2865
 8437SOL    HW125689   6.055   2.675   2.074  0.5334 -0.4400  0.4738
 8437SOL    HW225690   6.124   2.809   2.084 -0.7917  0.2232  0.9484
 8438SOL     OW25691   0.504   4.965   4.337  0.1420  0.0689 -0.5012
 8438SOL    HW125692   0.537   4.980   4.425  1.0813 -1.5102 -0.5498
 8438SOL    HW225693   0.417   5.003   4.337 -0.1331 -0.4963  1.3181
 8439SOL     OW25694   3.986   5.510   0.109  0.2196 -0.1899  0.1030
 8439SOL    HW125695   3.994   5.590   0.160 -0.2420 -1.5850  2.5099
 8439SOL    HW225696   4.052   5.451   0.146  0.7139 -0.8961 -1.7719
 8440SOL     OW25697   4.044   0.598   1.007 -0.5625 -0.1669  0.1611
 8440SOL    HW125698   4.057   0.511   0.969 -0.8962 -0.0659 -0.1860
 8440SOL    HW225699   4.128   0.619   1.048  0.1639  0.1667 -1.4371
 8441SOL     OW25700   2.817   2.012   6.431 -0.0399 -0.2241  0.5008
 8441SOL    HW125701   2.754   2.082   6.447 -2.0068 -1.7279 -0.3677
 8441SOL    HW225702   2.817   2.000   6.336  3.6825  1.5464  0.0823
 8442SOL     OW25703   4.521   1.166   2.352  0.0943  0.3970  0.5801
 8442SOL    HW125704   4.495   1.176   2.444  0.1316 -0.3640  0.6794
 8442SOL    HW225705   4.559   1.078   2.348  2.7878  1.4720  0.4700
 8443SOL     OW25706   6.827   6.565   0.791  0.1503 -1.5987  0.1803
 8443SOL    HW125707   6.821   6.629   0.721  0.7544 -1.3475  0.3549
 8443SOL    HW225708   6.743   6.518   0.788 -1.0721  0.3750  1.2033
 8444SOL     OW25709   0.132   2.424   5.875  0.1787 -0.8861 -0.1487
 8444SOL    HW125710   0.057   2.369   5.896  0.9696 -1.4247  1.4704
 8444SOL    HW225711   0.162   2.394   5.789 -0.5881 -1.6290 -0.1687
 8445SOL     OW25712   4.053   3.976   3.252 -0.1795 -0.3021  0.1492
 8445SOL    HW125713   4.143   3.973   3.286 -0.3202  0.4190  0.6183
 8445SOL    HW225714   4.015   4.053   3.295 -1.1728 -0.8918  0.3350
 8446SOL     OW25715   0.579   2.079   5.778 -0.0811 -0.1578  0.4315
 8446SOL    HW125716   0.654   2.106   5.831 -0.7286  0.6927  0.9370
 8446SOL    HW225717   0.531   2.018   5.833  0.2055 -0.6683  0.1244
 8447SOL     OW25718   6.690   4.640   4.938  0.0026 -0.3536  0.0473
 8447SOL    HW125719   6.621   4.691   4.897  0.7752 -0.0043 -0.8611
 8447SOL    HW225720   6.669   4.641   5.032 -1.1322 -0.1463 -0.2039
 8448SOL     OW25721   2.825   1.450   6.810  0.1180 -0.1721 -0.5840
 8448SOL    HW125722   2.853   1.465   6.721  1.2532  2.4609  0.1356
 8448SOL    HW225723   2.880   1.507   6.864  0.6376 -2.8482  2.0239
 8449SOL     OW25724   1.995   1.798   3.564 -0.4001  0.1132 -0.7741
 8449SOL    HW125725   2.027   1.744   3.492 -2.1158  0.2315 -1.6680
 8449SOL    HW225726   1.949   1.871   3.521 -2.4245 -0.4000  0.4076
 8450SOL     OW25727   5.118   4.231   2.837 -0.1699 -0.1304  0.8620
 8450SOL    HW125728   5.148   4.141   2.827  2.2124  0.6550  0.3882
 8450SOL    HW225729   5.161   4.279   2.766 -0.1279  1.6566  2.0412
 8451SOL     OW25730   1.311   6.736   0.507  0.3451 -0.1547  0.3183
 8451SOL    HW125731   1.401   6.763   0.523  0.6766 -1.3379  0.5688
 8451SOL    HW225732   1.308   6.644   0.533 -0.0199 -1.2050 -2.8823
 8452SOL     OW25733   2.417   0.043   3.512  0.5346 -0.1793 -0.0750
 8452SOL    HW125734   2.438   0.129   3.548 -1.3570 -0.3728  1.6994
 8452SOL    HW225735   2.385   0.060   3.424  0.0251  0.9739  0.3188
 8453SOL     OW25736   4.458   5.797   1.371 -0.0402 -0.3509  0.2408
 8453SOL    HW125737   4.421   5.839   1.449 -1.6190  0.1486 -0.7297
 8453SOL    HW225738   4.448   5.704   1.387  0.5853 -0.2878  1.0595
 8454SOL     OW25739   0.931   1.491   6.404  0.2785  0.0991  0.0834
 8454SOL    HW125740   0.912   1.488   6.311  1.3308 -0.9889 -0.1291
 8454SOL    HW225741   0.931   1.584   6.426 -0.4842  0.3420 -0.8804
 8455SOL     OW25742   6.557   3.758   1.170  0.2633  0.0389 -0.2964
 8455SOL    HW125743   6.614   3.695   1.215  0.2914 -1.2132 -1.9599
 8455SOL    HW225744   6.515   3.808   1.240  2.9859  0.6584  1.0097
 8456SOL     OW25745   0.894   3.610   3.390  0.6094 -0.3217 -0.2247
 8456SOL    HW125746   0.917   3.527   3.350 -0.6521 -0.8743  0.1346
 8456SOL    HW225747   0.863   3.586   3.478 -1.2876  0.3329 -0.6738
 8457SOL     OW25748   3.962   3.970   0.047 -0.2508 -0.5557 -0.0850
 8457SOL    HW125749   4.001   3.950  -0.038 -0.7683 -1.1487 -0.1902
 8457SOL    HW225750   4.006   3.910   0.108  0.8486  0.5630  0.2563
 8458SOL     OW25751   4.699   4.730   2.634  0.2376  0.6849  0.1233
 8458SOL    HW125752   4.678   4.750   2.543  2.1007 -0.2595 -0.5792
 8458SOL    HW225753   4.620   4.751   2.683 -0.8009  1.2249 -1.7115
 8459SOL     OW25754   5.618   1.378   0.609 -0.8416  0.6100 -0.4796
 8459SOL    HW125755   5.530   1.411   0.589 -0.6813  0.3742 -1.6441
 8459SOL    HW225756   5.657   1.446   0.665 -1.1941  1.4984 -1.2819
 8460SOL     OW25757   6.765   0.551   3.223 -0.7539  0.5735  0.2196
 8460SOL    HW125758   6.860   0.557   3.212 -0.8021 -0.4696 -0.9867
 8460SOL    HW225759   6.752   0.476   3.281 -0.9013 -0.5865 -1.2812
 8461SOL     OW25760   6.137   6.221   4.437 -0.4242  0.1893  0.1371
 8461SOL    HW125761   6.197   6.254   4.370 -0.7577  0.0411 -0.2391
 8461SOL    HW225762   6.051   6.253   4.410 -0.5023  0.4771  0.7242
 8462SOL     OW25763   5.324   4.732   4.365 -0.1822 -0.1776 -0.1234
 8462SOL    HW125764   5.307   4.744   4.459 -2.3943  0.1348 -0.5101
 8462SOL    HW225765   5.390   4.663   4.361 -0.6725 -0.8003  1.6478
 8463SOL     OW25766   4.477   5.084   1.667 -0.3214 -0.1976  0.6246
 8463SOL    HW125767   4.490   4.996   1.631  0.2222 -0.0758  0.5159
 8463SOL    HW225768   4.453   5.069   1.758  0.2770 -0.4461  0.7426
 8464SOL     OW25769   2.356   5.273   6.743  0.1585  0.1349 -0.0970
 8464SOL    HW125770   2.315   5.268   6.656 -1.3527  2.2479  0.4182
 8464SOL    HW225771   2.314   5.204   6.794  0.6463 -0.7428 -0.8434
 8465SOL     OW25772   1.005   3.827   0.794  0.2670  0.2234 -0.1046
 8465SOL    HW125773   1.013   3.737   0.825 -3.4629 -0.1303  0.3292
 8465SOL    HW225774   1.002   3.820   0.699  4.6566  0.5625 -0.4684
 8466SOL     OW25775   6.141   4.404   3.228 -0.8248 -0.2605  0.0453
 8466SOL    HW125776   6.136   4.317   3.189 -2.1978  0.1430 -0.7515
 8466SOL    HW225777   6.213   4.398   3.292 -1.8290 -2.3969  1.0830
 8467SOL     OW25778   6.269   3.489   1.064  0.2635  0.0768  0.2850
 8467SOL    HW125779   6.307   3.437   0.992 -2.8344 -1.6135 -0.2858
 8467SOL    HW225780   6.294   3.579   1.044  1.5946 -0.6209 -1.4925
 8468SOL     OW25781   5.151   1.143   1.791  0.3262  0.2285 -0.1963
 8468SOL    HW125782   5.181   1.232   1.807  1.8356 -0.3304  0.1993
 8468SOL    HW225783   5.187   1.120   1.705 -0.3734  0.1187 -0.4703
 8469SOL     OW25784   0.644   1.048   4.843 -0.5019  0.5092  0.5848
 8469SOL    HW125785   0.733   1.033   4.810 -0.2408  0.2334  1.3960
 8469SOL    HW225786   0.631   0.980   4.909 -1.3407  0.5140  0.4326
 8470SOL     OW25787   6.095   0.928   1.923 -0.2512  0.3411  0.2061
 8470SOL    HW125788   6.022   0.968   1.876 -1.0954 -0.5636  0.7113
 8470SOL    HW225789   6.062   0.843   1.950  0.9427 -0.0135  0.5990
 8471SOL     OW25790   0.785   0.496   6.041  0.6140  0.1468 -0.0894
 8471SOL    HW125791   0.873   0.532   6.033  0.1568  1.1122 -0.8756
 8471SOL    HW225792   0.794   0.405   6.013  1.2087  0.4554 -0.9490
 8472SOL     OW25793   4.463   2.951   2.992  0.1543  0.1349  0.2936
 8472SOL    HW125794   4.376   2.934   3.028  0.7444 -1.5192  1.0741
 8472SOL    HW225795   4.518   2.967   3.068  0.4904  1.4927 -0.2104
 8473SOL     OW25796   0.012   0.481   0.044 -0.0417 -0.5666 -0.2995
 8473SOL    HW125797  -0.069   0.511   0.085  0.4097 -0.7228  0.7109
 8473SOL    HW225798   0.069   0.457   0.116  0.1589 -2.4749 -1.0373
 8474SOL     OW25799   5.873   0.089   1.665 -0.2732  0.4125 -0.2459
 8474SOL    HW125800   5.910   0.019   1.612 -1.5500 -0.3879 -0.1174
 8474SOL    HW225801   5.799   0.049   1.711 -2.3740  2.2950 -1.7442
 8475SOL     OW25802   2.333   6.348   5.787  0.1709 -0.4341  0.0289
 8475SOL    HW125803   2.309   6.371   5.697  0.5026  0.0091  0.0525
 8475SOL    HW225804   2.372   6.260   5.780 -1.0200 -0.9718 -0.0731
 8476SOL     OW25805   2.621   4.924   6.303  0.3964 -0.3960 -0.1223
 8476SOL    HW125806   2.653   4.924   6.393  0.6628  0.8043 -0.1946
 8476SOL    HW225807   2.677   4.988   6.258 -0.4361 -0.1740 -0.8683
 8477SOL     OW25808   6.186   2.520   4.547 -0.3064  0.3348 -0.4174
 8477SOL    HW125809   6.140   2.599   4.522 -1.5742 -0.4898 -0.7817
 8477SOL    HW225810   6.199   2.528   4.642 -1.0955  0.6386 -0.3325
 8478SOL     OW25811   2.247   0.082   3.325  0.7649  0.4556 -0.4771
 8478SOL    HW125812   2.184   0.012   3.345  0.8343  0.9827  1.7425
 8478SOL    HW225813   2.194   0.162   3.322  1.2439  0.8806  1.2451
 8479SOL     OW25814   6.083   5.480   1.689 -0.1881 -0.3061 -0.0116
 8479SOL    HW125815   6.118   5.444   1.608  0.3866 -1.6318  0.7759
 8479SOL    HW225816   6.140   5.444   1.757 -0.8717  0.4837  1.0109
 8480SOL     OW25817   0.726   5.237   2.458 -0.6215  0.1692  0.1459
 8480SOL    HW125818   0.689   5.248   2.545 -3.4416 -1.7057 -0.6856
 8480SOL    HW225819   0.654   5.256   2.398  0.6094 -0.7409 -1.7162
 8481SOL     OW25820   6.698   1.668   1.659  0.0090 -0.3396  0.2380
 8481SOL    HW125821   6.651   1.630   1.733  1.2643 -0.2630  1.1003
 8481SOL    HW225822   6.668   1.618   1.583 -3.0693  1.0766  0.3653
 8482SOL     OW25823   1.400   1.764   1.319  0.0702 -0.4097  0.5395
 8482SOL    HW125824   1.384   1.849   1.362 -0.8739  1.0176 -2.3999
 8482SOL    HW225825   1.319   1.716   1.332 -0.8910  0.7060 -1.0355
 8483SOL     OW25826   6.401   6.264   1.030  0.3582 -0.0164 -0.1683
 8483SOL    HW125827   6.321   6.260   0.978  0.7590  0.8001 -0.8881
 8483SOL    HW225828   6.417   6.358   1.042  0.6522 -0.1794  0.8572
 8484SOL     OW25829   6.814   5.659   2.254 -0.4651  0.5885 -0.3535
 8484SOL    HW125830   6.867   5.693   2.182  0.2535 -1.3481 -0.7927
 8484SOL    HW225831   6.870   5.594   2.297 -2.2769 -1.1713 -0.5166
 8485SOL     OW25832   4.551   5.260   2.316  0.7355  0.6468  0.3555
 8485SOL    HW125833   4.494   5.313   2.372  0.0099  1.4650 -1.1123
 8485SOL    HW225834   4.619   5.320   2.287 -0.6408  1.1193 -2.1203
 8486SOL     OW25835   0.662   3.970   6.572 -0.2076  0.1274 -0.0352
 8486SOL    HW125836   0.611   3.890   6.587  2.0053 -1.2298  0.7087
 8486SOL    HW225837   0.635   4.028   6.644 -0.8078 -0.5029  0.2648
 8487SOL     OW25838   1.744   0.774   1.110  0.0026 -0.3042 -0.0519
 8487SOL    HW125839   1.756   0.854   1.162  1.6758 -0.8543  0.4726
 8487SOL    HW225840   1.651   0.753   1.120 -0.3507  1.2339  0.2725
 8488SOL     OW25841   0.905   4.152   0.335  1.0586  0.2399 -0.2452
 8488SOL    HW125842   0.849   4.126   0.407  0.0094 -0.7091 -1.3529
 8488SOL    HW225843   0.872   4.239   0.309  1.2794  0.4724  0.2454
 8489SOL     OW25844   1.525   6.340   2.490 -0.9224 -0.0832 -0.1533
 8489SOL    HW125845   1.573   6.391   2.556 -2.0006 -0.0040  0.5861
 8489SOL    HW225846   1.496   6.261   2.537 -3.2228  0.7835  0.0087
 8490SOL     OW25847   3.235   5.963   5.843  0.3077 -0.5245  0.5898
 8490SOL    HW125848   3.322   5.981   5.806 -0.2075 -1.0069 -0.8994
 8490SOL    HW225849   3.222   6.033   5.907  1.1196  0.5161 -0.3350
 8491SOL     OW25850   4.771   6.254   2.104  0.2206  0.3746  0.0930
 8491SOL    HW125851   4.731   6.174   2.137 -0.6658  0.8441  0.2061
 8491SOL    HW225852   4.798   6.233   2.015  0.0376 -0.0577  0.1378
 8492SOL     OW25853   3.008   1.378   4.930  0.3898  0.0585 -0.3290
 8492SOL    HW125854   2.984   1.447   4.991 -0.8640 -1.8886  1.4997
 8492SOL    HW225855   3.023   1.301   4.985  1.7442 -1.1546 -2.2773
 8493SOL     OW25856   4.471   3.218   4.171  0.1801  0.3003  0.7484
 8493SOL    HW125857   4.409   3.241   4.102 -0.3952 -1.5218  0.6134
 8493SOL    HW225858   4.557   3.234   4.133 -0.1636  0.9679  0.2391
 8494SOL     OW25859   1.969   0.526   2.845  0.2637 -0.0729 -0.6266
 8494SOL    HW125860   1.942   0.558   2.931  1.6211 -0.6083  0.0346
 8494SOL    HW225861   1.991   0.434   2.859 -2.2434 -1.0167 -2.1983
 8495SOL     OW25862   4.386   4.541   3.553 -0.5448 -0.4382  0.2619
 8495SOL    HW125863   4.298   4.554   3.518 -0.4746 -1.3864 -0.3205
 8495SOL    HW225864   4.433   4.495   3.483  0.4348  0.1038  0.5419
 8496SOL     OW25865   2.231   5.739   2.101 -0.1806  0.6552 -0.1205
 8496SOL    HW125866   2.191   5.755   2.186 -1.2936 -0.6212 -0.3575
 8496SOL    HW225867   2.276   5.820   2.079 -0.6331  1.3049  1.2796
 8497SOL     OW25868   1.737   5.151   1.107  0.6144 -0.9011 -0.1342
 8497SOL    HW125869   1.783   5.224   1.065 -1.8916  1.0448  0.2368
 8497SOL    HW225870   1.743   5.170   1.201 -1.2910 -0.2915 -0.0984
 8498SOL     OW25871   0.062   6.667   4.052  0.0772 -0.1309 -0.2165
 8498SOL    HW125872   0.039   6.578   4.077  1.2813 -0.2620  0.5317
 8498SOL    HW225873   0.075   6.663   3.957  1.3526 -1.0634 -0.0277
 8499SOL     OW25874   0.534   1.494   3.931  0.2440 -0.1649  0.1404
 8499SOL    HW125875   0.516   1.411   3.975  0.6272 -0.0086  0.6017
 8499SOL    HW225876   0.577   1.470   3.849 -0.2035 -0.4431 -0.0187
 8500SOL     OW25877   3.368   3.129   0.257 -0.2644 -0.1038  0.1031
 8500SOL    HW125878   3.376   3.170   0.343  1.8569  0.6505 -0.3875
 8500SOL    HW225879   3.323   3.046   0.274  0.3735 -0.1113  1.9702
 8501SOL     OW25880   1.814   0.111   3.220  0.5727  0.1509  0.3194
 8501SOL    HW125881   1.872   0.146   3.152  0.3303 -0.5956 -0.2858
 8501SOL    HW225882   1.730   0.153   3.203 -0.4676 -2.5576 -2.0822
 8502SOL     OW25883   6.571   3.935   1.869  0.3900  0.2661 -0.5881
 8502SOL    HW125884   6.639   3.942   1.936  1.0578 -1.7560 -0.9971
 8502SOL    HW225885   6.619   3.923   1.787 -0.4249 -1.6828 -0.8281
 8503SOL     OW25886   2.990   0.751   3.532 -0.5383 -0.7630  0.0454
 8503SOL    HW125887   3.020   0.823   3.587  1.1900 -1.5497  0.2199
 8503SOL    HW225888   2.927   0.704   3.586 -2.0796  0.8654 -0.2605
 8504SOL     OW25889   5.780   0.203   3.995 -0.4210 -0.0206 -0.4156
 8504SOL    HW125890   5.826   0.137   3.942 -0.7697  1.0798 -2.1677
 8504SOL    HW225891   5.838   0.279   3.995  0.5650 -0.6365  2.6489
 8505SOL     OW25892   0.575   4.641   4.289  0.1396 -0.0207 -0.8268
 8505SOL    HW125893   0.519   4.702   4.336  0.5655  0.3020 -0.7419
 8505SOL    HW225894   0.640   4.696   4.245  2.4047 -0.5301  1.6444
 8506SOL     OW25895   3.776   4.161   5.214  0.3509  0.0174  0.0555
 8506SOL    HW125896   3.868   4.135   5.221 -0.0852 -1.6257 -0.0221
 8506SOL    HW225897   3.734   4.123   5.291 -1.0144 -2.8436 -1.9132
 8507SOL     OW25898   5.757   1.589   5.844 -0.0603  0.3234 -0.0666
 8507SOL    HW125899   5.832   1.530   5.856  0.5445  0.6888 -1.7395
 8507SOL    HW225900   5.711   1.586   5.928  1.3538 -0.5669  0.7338
 8508SOL     OW25901   0.579   5.521   4.005 -0.1066  0.1828  0.1383
 8508SOL    HW125902   0.541   5.604   3.975 -0.5190 -0.1386 -0.2434
 8508SOL    HW225903   0.655   5.508   3.947  0.5556  0.7845  0.8492
 8509SOL     OW25904   4.613   1.515   4.147  0.0302  0.5471 -0.4602
 8509SOL    HW125905   4.694   1.465   4.152  1.2432  2.3142 -1.1651
 8509SOL    HW225906   4.604   1.536   4.054 -0.1043  2.0805 -0.1261
 8510SOL     OW25907   3.796   5.585   2.175  0.1461  0.4203 -0.1821
 8510SOL    HW125908   3.708   5.546   2.170 -0.0565  0.9102 -0.4737
 8510SOL    HW225909   3.807   5.629   2.091  0.9162 -0.1504 -0.3928
 8511SOL     OW25910   0.964   4.709   3.310  0.1032 -0.1286 -0.1361
 8511SOL    HW125911   1.027   4.768   3.269  1.3631 -0.6776  0.9314
 8511SOL    HW225912   0.982   4.716   3.404 -1.1986 -0.5795  0.1716
 8512SOL     OW25913   6.618   2.715   1.658 -0.3218  0.3170  0.4674
 8512SOL    HW125914   6.543   2.715   1.717  0.0772  0.6182  0.9889
 8512SOL    HW225915   6.624   2.805   1.627  0.2118  0.4574  0.9494
 8513SOL     OW25916   6.343   5.799   6.408  0.0523  0.0706 -0.0881
 8513SOL    HW125917   6.400   5.761   6.475  0.3654 -0.6147 -0.7293
 8513SOL    HW225918   6.272   5.736   6.398 -0.7136  0.7972  0.5183
 8514SOL     OW25919   0.498   1.689   3.188  0.1655  0.2542  0.0703
 8514SOL    HW125920   0.496   1.725   3.099  0.6348  1.0347  0.3635
 8514SOL    HW225921   0.536   1.602   3.178  0.3727  0.4054 -0.4777
 8515SOL     OW25922   3.714   2.453   3.971 -0.0077 -0.1022  0.1274
 8515SOL    HW125923   3.672   2.525   4.019 -0.0021 -0.1332  0.1785
 8515SOL    HW225924   3.733   2.490   3.884 -0.8178 -0.3152 -0.1473
 8516SOL     OW25925   4.659   5.479   3.727 -0.2740  0.0807 -0.4713
 8516SOL    HW125926   4.677   5.387   3.744  0.8506  0.0878 -1.4780
 8516SOL    HW225927   4.567   5.490   3.751 -0.4794 -1.3401 -0.5024
 8517SOL     OW25928   6.607   0.725   6.616  0.1942  0.1714  0.2593
 8517SOL    HW125929   6.696   0.693   6.624  0.3919  0.3895 -0.9018
 8517SOL    HW225930   6.553   0.654   6.651  0.8089  0.0883  1.0835
 8518SOL     OW25931   0.604   3.043   1.611 -0.0432 -0.2103  0.2731
 8518SOL    HW125932   0.553   3.019   1.688  1.0198 -0.2828  0.9862
 8518SOL    HW225933   0.604   3.138   1.610  0.1593 -0.2046  0.5327
 8519SOL     OW25934   2.529   3.980   1.885 -0.3876 -0.0989 -0.7798
 8519SOL    HW125935   2.581   4.059   1.898  0.0763 -0.6580  0.9782
 8519SOL    HW225936   2.442   4.013   1.860  0.3990  0.8665 -2.3884
 8520SOL     OW25937   1.568   0.316   4.370  0.5975  0.3092  0.2335
 8520SOL    HW125938   1.552   0.224   4.389 -0.7075  0.6687  0.9400
 8520SOL    HW225939   1.534   0.363   4.446 -3.7201  1.7263 -2.2280
 8521SOL     OW25940   0.419   1.146   4.692 -0.0957  0.2793 -0.6757
 8521SOL    HW125941   0.353   1.197   4.739 -1.7968 -0.5894 -1.9939
 8521SOL    HW225942   0.483   1.121   4.758 -0.6423  1.8288  0.5015
 8522SOL     OW25943   2.037   5.319   5.413 -0.7244  0.4066 -0.5418
 8522SOL    HW125944   2.077   5.232   5.405 -1.1235 -0.0422  1.7061
 8522SOL    HW225945   1.951   5.302   5.451 -0.1649  1.8689  1.5566
 8523SOL     OW25946   0.608   2.035   6.753 -0.0154  0.1672 -0.1863
 8523SOL    HW125947   0.695   2.056   6.788  0.8171 -2.1627 -0.6508
 8523SOL    HW225948   0.617   2.046   6.658 -0.3022  0.1643 -0.2155
 8524SOL     OW25949   2.135   4.777   0.773  0.0978  0.0982  0.3058
 8524SOL    HW125950   2.173   4.855   0.732 -0.2523  0.3600  0.4684
 8524SOL    HW225951   2.059   4.756   0.718  0.0058  0.0636  0.4464
 8525SOL     OW25952   6.577   4.736   4.260  0.5620 -0.2567  0.5895
 8525SOL    HW125953   6.614   4.802   4.201 -1.0426 -0.8016 -1.1209
 8525SOL    HW225954   6.599   4.652   4.221 -2.1234 -0.6176 -0.4056
 8526SOL     OW25955   5.886   1.986   1.919 -0.0383  0.6132 -0.0914
 8526SOL    HW125956   5.963   1.958   1.869  0.3936  1.8981 -0.1914
 8526SOL    HW225957   5.828   2.024   1.854 -1.2998 -1.3449 -0.1920
 8527SOL     OW25958   2.141   5.050   5.356  0.0837  0.0467  0.5019
 8527SOL    HW125959   2.216   5.102   5.325 -0.1548  1.5566  2.3311
 8527SOL    HW225960   2.175   5.001   5.431 -0.9983  1.7157  2.1686
 8528SOL     OW25961   1.203   1.780   5.982 -0.0870 -0.5881  0.3336
 8528SOL    HW125962   1.122   1.786   5.930 -0.2194  0.2302  0.6095
 8528SOL    HW225963   1.272   1.801   5.920 -0.2799  0.8002  0.5488
 8529SOL     OW25964   3.488   5.286   3.805 -0.2821  0.2456  0.6136
 8529SOL    HW125965   3.500   5.216   3.742  0.2887  0.2861  0.6750
 8529SOL    HW225966   3.496   5.366   3.754  0.3202  0.2803  0.7581
 8530SOL     OW25967   2.958   3.754   5.414 -0.1979 -0.0181 -1.0149
 8530SOL    HW125968   2.876   3.779   5.372 -0.0478  2.5208  0.0027
 8530SOL    HW225969   3.025   3.768   5.348 -0.3267  0.4230 -1.0526
 8531SOL     OW25970   4.094   3.838   6.656 -0.2125 -0.0390 -0.4232
 8531SOL    HW125971   4.109   3.750   6.690  0.0831  0.1174 -0.1399
 8531SOL    HW225972   4.152   3.845   6.580 -2.6836 -1.2920 -2.5930
 8532SOL     OW25973   0.952   1.591   5.721 -0.4447  0.1466 -0.0482
 8532SOL    HW125974   0.915   1.577   5.634 -0.4099  1.3367 -0.2731
 8532SOL    HW225975   1.034   1.638   5.705 -0.2894  0.1128  0.6112
 8533SOL     OW25976   4.499   0.871   3.968  0.1917  0.0429 -0.1474
 8533SOL    HW125977   4.549   0.818   3.906 -0.5161  0.4389 -1.0833
 8533SOL    HW225978   4.463   0.808   4.030  1.7703 -0.2534  0.4889
 8534SOL     OW25979   1.500   4.210   1.822  0.2222 -0.5580  0.4634
 8534SOL    HW125980   1.491   4.200   1.728 -2.2210  0.3150  0.5325
 8534SOL    HW225981   1.579   4.264   1.834  0.2219 -0.1843 -1.0940
 8535SOL     OW25982   3.178   3.585   6.699  0.2550  0.5058  0.3043
 8535SOL    HW125983   3.087   3.579   6.730  0.3612  0.6423  0.6477
 8535SOL    HW225984   3.213   3.663   6.741  0.4199  0.6688 -0.1319
 8536SOL     OW25985   6.412   1.732   5.993  0.9200 -0.2152 -0.5684
 8536SOL    HW125986   6.455   1.647   5.984  0.6424 -0.3690 -0.4546
 8536SOL    HW225987   6.405   1.746   6.087  0.7331 -0.1837 -0.5868
 8537SOL     OW25988   6.270   4.405   0.035  0.0213  0.3525  0.4937
 8537SOL    HW125989   6.363   4.417   0.018  0.2610 -0.8148  0.8511
 8537SOL    HW225990   6.238   4.491   0.060  0.2283  1.5926 -3.0161
 8538SOL     OW25991   6.644   2.543   2.893  0.2310 -0.2009 -0.3649
 8538SOL    HW125992   6.580   2.499   2.949  0.1136 -0.0057 -0.3407
 8538SOL    HW225993   6.696   2.597   2.953  1.0116 -1.0445 -0.2687
 8539SOL     OW25994   3.365   1.179   4.557  0.5239 -0.0032  0.3679
 8539SOL    HW125995   3.421   1.147   4.486 -0.5183 -0.3345 -0.3307
 8539SOL    HW225996   3.344   1.269   4.532 -1.8323 -0.8645 -1.0751
 8540SOL     OW25997   5.895   6.384   1.465  0.4428  0.7476 -0.4472
 8540SOL    HW125998   5.919   6.413   1.552  1.8969 -0.6129 -0.3395
 8540SOL    HW225999   5.897   6.288   1.470 -1.7293  0.5803 -1.3872
 8541SOL     OW26000   0.325   0.836   0.613 -0.1611  0.0720 -0.2543
 8541SOL    HW126001   0.255   0.880   0.661 -0.2958  1.1953 -1.4228
 8541SOL    HW226002   0.299   0.843   0.521  0.1424 -1.9072 -0.5466
 8542SOL     OW26003   5.115   1.592   5.368  0.5693  0.1943 -0.5317
 8542SOL    HW126004   5.023   1.570   5.381  0.4489  0.0418 -1.5763
 8542SOL    HW226005   5.155   1.579   5.454  0.0078 -1.6817 -0.4918
 8543SOL     OW26006   1.130   0.315   1.462  0.2643 -0.3773 -0.6639
 8543SOL    HW126007   1.204   0.265   1.495  1.5180  1.7485 -0.0519
 8543SOL    HW226008   1.059   0.251   1.454  1.3957 -1.9760  1.2385
 8544SOL     OW26009   1.559   6.468   5.607  0.4095 -0.1457 -0.0315
 8544SOL    HW126010   1.630   6.531   5.592  0.3023  0.0213  0.1599
 8544SOL    HW226011   1.486   6.522   5.636  0.0125 -0.2449 -0.8306
 8545SOL     OW26012   5.038   3.489   6.530  0.3944 -0.2238  0.3456
 8545SOL    HW126013   5.048   3.393   6.528  2.4782 -0.0662  0.6037
 8545SOL    HW226014   5.066   3.517   6.443 -0.3779  0.1493  0.2146
 8546SOL     OW26015   3.235   2.798   6.358  0.2554  0.6674  0.4871
 8546SOL    HW126016   3.157   2.747   6.335  0.1148  1.1075 -0.0090
 8546SOL    HW226017   3.210   2.889   6.344  1.8556  0.7514 -3.0346
 8547SOL     OW26018   5.843   5.701   4.674 -0.2588  0.1928  0.2623
 8547SOL    HW126019   5.877   5.754   4.746 -2.0738 -0.5417  1.7620
 8547SOL    HW226020   5.819   5.763   4.606  1.1719  0.9433  0.4283
 8548SOL     OW26021   5.548   1.300   5.155 -0.4087  0.5477  0.6616
 8548SOL    HW126022   5.574   1.277   5.066 -1.6398  0.2296  0.3638
 8548SOL    HW226023   5.631   1.317   5.201  0.1918  1.9353 -0.8540
 8549SOL     OW26024   4.985   2.866   2.448 -0.9539 -0.4408 -0.3742
 8549SOL    HW126025   4.909   2.887   2.394 -0.9583 -1.3908 -0.7550
 8549SOL    HW226026   4.958   2.887   2.537 -2.1369 -1.9594 -0.3407
 8550SOL     OW26027   5.843   3.078   5.802  0.3360  0.0880  0.0554
 8550SOL    HW126028   5.851   2.982   5.795  1.9535  0.0967  1.1060
 8550SOL    HW226029   5.905   3.101   5.871 -0.8273  1.7978  0.5742
 8551SOL     OW26030   5.307   6.475   0.968 -0.2220 -0.0232 -0.2692
 8551SOL    HW126031   5.272   6.455   1.055 -0.4518 -4.5309 -1.1516
 8551SOL    HW226032   5.228   6.487   0.913 -0.1460 -0.3116 -0.4411
 8552SOL     OW26033   6.231   6.793   0.984 -0.3124  0.3452 -0.2051
 8552SOL    HW126034   6.304   6.792   0.922 -1.2684 -2.1656 -1.3763
 8552SOL    HW226035   6.273   6.781   1.070  0.6964 -0.8550 -0.8325
 8553SOL     OW26036   2.353   0.051   1.290 -0.2780 -0.1812 -0.0121
 8553SOL    HW126037   2.399  -0.018   1.241 -2.2105 -0.3352 -1.7920
 8553SOL    HW226038   2.327   0.009   1.372  0.1187 -1.0340 -0.3089
 8554SOL     OW26039   3.535   0.493   1.129  0.4994  0.3297  0.6004
 8554SOL    HW126040   3.516   0.549   1.054  1.4416  1.8039  1.4138
 8554SOL    HW226041   3.624   0.461   1.113 -0.3404 -1.7296 -0.2942
 8555SOL     OW26042   1.568   1.822   5.644 -0.0095  0.3151  0.2798
 8555SOL    HW126043   1.601   1.900   5.688 -0.5723  0.3730  0.6065
 8555SOL    HW226044   1.527   1.771   5.714 -0.9839  0.4419 -0.1839
 8556SOL     OW26045   3.249   1.734   0.167  0.0465 -0.7937 -0.0219
 8556SOL    HW126046   3.246   1.738   0.071  2.2112 -0.2384 -0.1221
 8556SOL    HW226047   3.241   1.826   0.195  2.4133 -0.5526  0.1109
 8557SOL     OW26048   4.737   3.477   5.925  0.3778  0.1911 -0.1862
 8557SOL    HW126049   4.829   3.469   5.898  0.5716 -0.4360  0.6229
 8557SOL    HW226050   4.688   3.480   5.843  1.0976  0.1834 -0.6228
 8558SOL     OW26051   1.293   4.987   1.522  0.0764 -0.0625  0.1657
 8558SOL    HW126052   1.216   4.938   1.551 -0.5160  1.1161  0.6443
 8558SOL    HW226053   1.310   4.954   1.434 -0.4688 -0.9225  0.3639
 8559SOL     OW26054   3.477   4.211   5.895 -0.1988 -0.3710 -0.0292
 8559SOL    HW126055   3.477   4.192   5.989 -0.2149  0.5229  0.1601
 8559SOL    HW226056   3.405   4.158   5.860  0.0592 -1.0145  0.3929
 8560SOL     OW26057   2.314   5.027   0.742 -0.4194 -0.0002  0.1476
 8560SOL    HW126058   2.369   4.949   0.741  0.2095  0.4405 -0.2143
 8560SOL    HW226059   2.307   5.054   0.650  1.1584  1.5881  0.4308
 8561SOL     OW26060   1.364   4.523   6.250 -0.3635  0.2032  0.0707
 8561SOL    HW126061   1.391   4.437   6.218  0.9360  1.0652 -1.2619
 8561SOL    HW226062   1.380   4.520   6.345 -0.1872 -0.9502  0.0138
 8562SOL     OW26063   2.703   1.713   5.360  0.1298  0.1723 -0.5611
 8562SOL    HW126064   2.680   1.640   5.303 -1.6236  2.1396 -2.5874
 8562SOL    HW226065   2.628   1.721   5.419 -0.0290  0.7525 -0.8361
 8563SOL     OW26066   1.891   6.214   4.367  0.2702  0.8326  0.0175
 8563SOL    HW126067   1.851   6.301   4.362 -0.2698  0.6043  0.3200
 8563SOL    HW226068   1.911   6.192   4.276  2.8296  2.3618  0.1006
 8564SOL     OW26069   0.716   2.479   5.184 -0.8579  0.1917 -0.0218
 8564SOL    HW126070   0.702   2.408   5.247 -1.6458  2.0263  2.0104
 8564SOL    HW226071   0.800   2.518   5.210 -1.8107  1.7900  0.8252
 8565SOL     OW26072   2.671   3.478   6.523  0.1672 -0.3538 -0.3922
 8565SOL    HW126073   2.678   3.572   6.539  2.1300 -0.6355  0.8043
 8565SOL    HW226074   2.751   3.442   6.560 -0.7771 -2.5706 -0.3536
 8566SOL     OW26075   6.012   4.578   1.146  0.5300  0.3908  0.0758
 8566SOL    HW126076   5.954   4.504   1.129 -0.3905 -0.6026  5.6827
 8566SOL    HW226077   5.965   4.654   1.111 -1.6371 -0.9689 -0.1134
 8567SOL     OW26078   4.845   4.769   6.444 -0.0038  0.2280  0.5934
 8567SOL    HW126079   4.869   4.676   6.435 -0.3702 -0.0644  2.3047
 8567SOL    HW226080   4.780   4.783   6.376  0.0686 -0.7704  0.2903
 8568SOL     OW26081   5.876   4.178   2.529  0.4942  0.2629 -0.0224
 8568SOL    HW126082   5.952   4.158   2.584  1.1367  1.5651 -0.3947
 8568SOL    HW226083   5.843   4.261   2.563 -0.6591 -0.1851  0.0013
 8569SOL     OW26084   5.119   4.844   2.792 -0.0408 -0.0285  0.5116
 8569SOL    HW126085   5.153   4.785   2.859  2.4888  0.7998  0.0657
 8569SOL    HW226086   5.151   4.807   2.710 -0.7555  0.4715  0.0058
 8570SOL     OW26087   1.800   5.090   6.397  0.3543  0.2060  0.2690
 8570SOL    HW126088   1.894   5.108   6.397  0.3541  0.2073  0.1823
 8570SOL    HW226089   1.780   5.067   6.306  0.5261 -1.1182  0.5340
 8571SOL     OW26090   5.118   2.521   1.358 -0.5550  0.5020  0.6124
 8571SOL    HW126091   5.072   2.525   1.274  0.8452  1.4257 -0.1475
 8571SOL    HW226092   5.210   2.538   1.336 -0.5462  4.1878  2.6672
 8572SOL     OW26093   1.504   5.618   1.757  0.1387 -0.1567  0.6707
 8572SOL    HW126094   1.425   5.564   1.747  1.7139 -2.1754 -2.1086
 8572SOL    HW226095   1.470   5.708   1.766 -2.4939 -0.7907 -1.4922
 8573SOL     OW26096   3.789   5.327   3.380 -0.1726 -0.2647  0.4909
 8573SOL    HW126097   3.790   5.283   3.295 -0.2554  2.0447 -0.7647
 8573SOL    HW226098   3.801   5.256   3.443  0.7157 -1.9523 -1.4614
 8574SOL     OW26099   6.676   6.037   5.394  0.4823  0.1660  0.0966
 8574SOL    HW126100   6.611   6.066   5.330  0.5482  1.0606  0.4219
 8574SOL    HW226101   6.640   5.956   5.429  0.8713 -0.8304 -1.7001
 8575SOL     OW26102   1.004   4.808   5.541  0.3049  0.4807 -0.1831
 8575SOL    HW126103   1.096   4.813   5.567 -0.0805 -0.0614  1.3660
 8575SOL    HW226104   0.983   4.715   5.540 -0.2135  0.5920 -0.6038
 8576SOL     OW26105   3.720   1.597   6.521  0.2451  0.6985  0.1944
 8576SOL    HW126106   3.784   1.527   6.508  0.9936  1.0455  1.8825
 8576SOL    HW226107   3.636   1.557   6.497  0.6361 -0.8477  1.2887
 8577SOL     OW26108   2.242   5.546   6.094  0.1306 -0.1139 -0.0007
 8577SOL    HW126109   2.162   5.589   6.124 -0.2712  0.6183 -1.9323
 8577SOL    HW226110   2.312   5.602   6.127 -0.3025  0.8139 -0.5786
 8578SOL     OW26111   3.569   5.853   6.710  0.3224 -0.2036  0.1826
 8578SOL    HW126112   3.632   5.788   6.679 -1.9524 -2.0121 -0.9398
 8578SOL    HW226113   3.555   5.830   6.802 -1.0289 -1.9036 -0.3893
 8579SOL     OW26114   6.628   6.153   0.925 -0.3208  0.0436  0.3712
 8579SOL    HW126115   6.696   6.207   0.965 -0.8640  2.1273 -1.3035
 8579SOL    HW226116   6.546   6.192   0.956 -0.7711 -1.1678  0.7604
 8580SOL     OW26117   2.028   4.207   3.420  0.3712 -0.8419  0.5115
 8580SOL    HW126118   1.934   4.189   3.431  0.0174  0.9715  0.8346
 8580SOL    HW226119   2.055   4.246   3.503  1.1456 -0.3531  0.0429
 8581SOL     OW26120   4.989   4.382   0.410  0.1422 -0.1860  0.0278
 8581SOL    HW126121   5.021   4.434   0.484 -0.2477 -0.4530  0.3908
 8581SOL    HW226122   5.051   4.311   0.401 -0.9389 -1.3904  1.4974
 8582SOL     OW26123   5.542   3.978   2.893 -0.2917 -0.1217  0.0931
 8582SOL    HW126124   5.489   3.934   2.960  1.4912 -1.6436  0.6152
 8582SOL    HW226125   5.630   3.980   2.931  0.2410  1.3753 -1.1492
 8583SOL     OW26126   6.560   5.685   3.322  0.8489 -0.4897  0.3261
 8583SOL    HW126127   6.482   5.727   3.358  1.4682 -0.1430  1.2900
 8583SOL    HW226128   6.617   5.757   3.296  1.0807 -0.7394  0.1285
 8584SOL     OW26129   4.302   4.199   2.537  0.0608  0.3638  0.4343
 8584SOL    HW126130   4.275   4.162   2.453 -1.1580 -2.6544  1.9855
 8584SOL    HW226131   4.224   4.247   2.568 -0.7449 -1.4137  1.2801
 8585SOL     OW26132   1.019   4.117   1.173 -0.3971 -0.0715  0.5277
 8585SOL    HW126133   1.019   4.109   1.077 -1.0036  0.4650  0.4803
 8585SOL    HW226134   1.111   4.130   1.195 -0.1047 -1.3526  0.1226
 8586SOL     OW26135   2.664   0.069   6.338 -0.3048  0.4942 -0.1838
 8586SOL    HW126136   2.630   0.053   6.426 -0.7444 -0.1265 -0.4559
 8586SOL    HW226137   2.591   0.110   6.291 -0.1019  0.7398 -0.2856
 8587SOL     OW26138   3.663   3.969   6.615 -0.0151  0.0938 -0.0709
 8587SOL    HW126139   3.732   3.991   6.552 -0.2433  0.7277 -0.0984
 8587SOL    HW226140   3.663   4.041   6.678 -0.1515 -0.2735  0.3581
 8588SOL     OW26141   1.543   5.265   6.055  0.2807 -0.1244  0.8041
 8588SOL    HW126142   1.630   5.291   6.087 -0.2272  0.4478  1.7703
 8588SOL    HW226143   1.511   5.204   6.120  1.1149 -2.6899 -1.0311
 8589SOL     OW26144   4.818   0.720   2.803 -0.2575  0.3432 -0.1807
 8589SOL    HW126145   4.795   0.809   2.775 -0.9009  0.5394  0.8939
 8589SOL    HW226146   4.914   0.721   2.809 -0.3178  1.4011  1.0911
 8590SOL     OW26147   4.207   6.756   6.746  0.1242 -0.3614 -0.3751
 8590SOL    HW126148   4.181   6.675   6.701  0.6967 -0.9238  0.2794
 8590SOL    HW226149   4.300   6.765   6.725 -0.1351  0.6211 -1.1721
 8591SOL     OW26150   6.325   0.814   6.578 -0.2158  0.1243  0.4422
 8591SOL    HW126151   6.242   0.772   6.600 -0.3200  0.5056  0.7997
 8591SOL    HW226152   6.390   0.744   6.584 -0.4701 -0.1108  0.4545
 8592SOL     OW26153   4.555   4.311   4.418  0.1482  0.0068  0.4988
 8592SOL    HW126154   4.491   4.246   4.387  0.8039 -1.9067  2.8638
 8592SOL    HW226155   4.504   4.366   4.478  0.4030 -0.7824  1.4695
 8593SOL     OW26156   3.656   3.817   3.240 -0.2737  0.0945  0.0988
 8593SOL    HW126157   3.589   3.853   3.298  0.4461 -0.3193  1.2184
 8593SOL    HW226158   3.709   3.762   3.296  0.9546  0.3371 -0.7875
 8594SOL     OW26159   5.472   2.317   0.683 -0.0023 -0.8006 -0.6497
 8594SOL    HW126160   5.451   2.251   0.618 -1.7415 -0.8536 -0.0974
 8594SOL    HW226161   5.386   2.350   0.712  0.7821  0.5877  0.1967
 8595SOL     OW26162   3.124   3.710   0.494 -0.3061  0.4927  0.1964
 8595SOL    HW126163   3.108   3.680   0.584  0.6127  1.2055  0.6082
 8595SOL    HW226164   3.174   3.791   0.504  2.4592 -0.9572 -0.9841
 8596SOL     OW26165   2.553   0.121   5.557  0.1963 -0.2672 -0.2853
 8596SOL    HW126166   2.542   0.147   5.466 -0.6412 -0.8034 -0.3483
 8596SOL    HW226167   2.630   0.065   5.557 -1.8619 -3.3912 -1.3772
 8597SOL     OW26168   2.461   6.648   1.211  0.2133 -0.2242  0.1945
 8597SOL    HW126169   2.512   6.644   1.292  1.0032  1.0108 -0.1994
 8597SOL    HW226170   2.514   6.602   1.147  1.0018  1.2727 -0.2747
 8598SOL     OW26171   5.417   1.180   5.596 -0.2468 -0.1423  0.2914
 8598SOL    HW126172   5.485   1.244   5.576 -0.4272 -0.0860 -0.1659
 8598SOL    HW226173   5.439   1.146   5.682  0.4267 -0.2118  0.0933
 8599SOL     OW26174   2.479   2.610   3.102  0.1988  0.2012 -0.2192
 8599SOL    HW126175   2.408   2.661   3.139 -0.8704 -0.6286 -1.0505
 8599SOL    HW226176   2.437   2.553   3.038  1.4344 -1.1856  0.1292
 8600SOL     OW26177   1.497   5.213   2.951  0.0184 -0.5795  0.1976
 8600SOL    HW126178   1.472   5.134   2.902 -0.0172 -0.6306  0.2965
 8600SOL    HW226179   1.414   5.259   2.965  0.2477  0.4470 -1.5137
 8601SOL     OW26180   0.916   1.903   3.747 -0.1632 -0.1752 -0.0778
 8601SOL    HW126181   1.006   1.922   3.772 -0.4217 -0.2999  1.0110
 8601SOL    HW226182   0.863   1.948   3.813 -0.8691 -1.1372  0.0342
 8602SOL     OW26183   3.369   6.211   4.419  0.3023 -0.0902 -0.6091
 8602SOL    HW126184   3.377   6.256   4.504  0.4018 -0.9620 -0.1452
 8602SOL    HW226185   3.321   6.272   4.364  0.5710  0.6517 -0.0422
 8603SOL     OW26186   4.581   5.296   0.660 -0.1266  0.1925  0.5023
 8603SOL    HW126187   4.557   5.237   0.731  0.0983 -0.1952  0.2605
 8603SOL    HW226188   4.519   5.369   0.667 -0.7836 -0.3508  0.4437
 8604SOL     OW26189   0.763   3.342   5.658 -0.1313  0.3606  0.4975
 8604SOL    HW126190   0.714   3.420   5.634  0.4868  0.9383  1.0368
 8604SOL    HW226191   0.805   3.313   5.577  1.2176  1.7575  0.6428
 8605SOL     OW26192   5.770   1.227   5.888 -0.3175  0.1643  0.0931
 8605SOL    HW126193   5.733   1.206   5.803 -1.1276 -0.7100  0.6387
 8605SOL    HW226194   5.846   1.169   5.896 -0.6921 -0.3083  0.2757
 8606SOL     OW26195   4.535   5.979   0.699 -0.5799 -0.3135  0.0813
 8606SOL    HW126196   4.551   5.933   0.782 -0.9339 -1.0503 -0.2518
 8606SOL    HW226197   4.537   5.910   0.633 -0.7331  0.2130 -0.4760
 8607SOL     OW26198   1.503   0.506   0.928  0.1934 -0.4268  0.5902
 8607SOL    HW126199   1.488   0.412   0.927  1.0686 -0.5871  0.8995
 8607SOL    HW226200   1.482   0.532   1.018  0.0440 -0.3492  0.5318
 8608SOL     OW26201   3.502   3.078   5.816 -0.2512  0.5546 -0.0367
 8608SOL    HW126202   3.422   3.089   5.867 -0.2330 -1.1511  0.4199
 8608SOL    HW226203   3.573   3.100   5.877 -0.3030  0.1828  0.1616
 8609SOL     OW26204   0.504   6.179   0.353 -0.5255  0.4790  0.3985
 8609SOL    HW126205   0.584   6.132   0.327  0.6466  2.3901  0.3443
 8609SOL    HW226206   0.434   6.139   0.302  0.4285 -1.0484  0.2209
 8610SOL     OW26207   1.338   6.345   3.796 -0.3596 -0.6684 -0.9078
 8610SOL    HW126208   1.357   6.431   3.759  0.0582 -0.6036 -0.5539
 8610SOL    HW226209   1.407   6.332   3.862 -0.8304 -0.9697 -0.4699
 8611SOL     OW26210   3.942   1.718   6.162  0.3288  0.1443 -0.4156
 8611SOL    HW126211   3.962   1.691   6.073 -0.0209  1.5929 -0.9709
 8611SOL    HW226212   4.007   1.786   6.182 -0.5207  0.8961 -0.1395
 8612SOL     OW26213   5.006   5.471   2.208 -0.3223 -0.0459  0.1912
 8612SOL    HW126214   5.020   5.382   2.242  2.4099  0.6396  1.0322
 8612SOL    HW226215   5.044   5.469   2.120 -3.4463 -0.5677 -1.3301
 8613SOL     OW26216   6.041   2.859   4.931  0.1977 -0.1665 -0.3219
 8613SOL    HW126217   5.959   2.852   4.881 -0.1505  0.3326  0.1674
 8613SOL    HW226218   6.102   2.802   4.884 -0.3219 -0.2557 -0.9104
 8614SOL     OW26219   5.740   0.209   1.443 -0.0692 -0.0703 -0.2125
 8614SOL    HW126220   5.776   0.186   1.528 -1.3166  0.7492  0.5877
 8614SOL    HW226221   5.686   0.134   1.418 -0.3677  0.0234  0.1367
 8615SOL     OW26222   5.128   2.058   0.657  0.4406 -0.3387  0.1129
 8615SOL    HW126223   5.060   2.082   0.593  0.0853 -2.2066 -0.2661
 8615SOL    HW226224   5.079   2.031   0.735  0.8437  0.5009  0.6797
 8616SOL     OW26225   2.171   3.326   2.911  0.4381 -0.1942 -0.0438
 8616SOL    HW126226   2.108   3.319   2.840 -0.2971  0.4738  0.5246
 8616SOL    HW226227   2.210   3.413   2.900  3.8246 -1.7792 -2.4321
 8617SOL     OW26228   1.540   6.192   6.270  0.3291 -0.4915  0.3130
 8617SOL    HW126229   1.579   6.275   6.243  0.2064 -0.8090 -0.8824
 8617SOL    HW226230   1.557   6.132   6.198 -1.8350 -0.8060 -0.0084
 8618SOL     OW26231   0.614   6.193   3.200 -0.5634 -0.5881  0.3691
 8618SOL    HW126232   0.596   6.108   3.160 -0.0421 -0.7017  0.3610
 8618SOL    HW226233   0.658   6.243   3.131 -2.7146  0.4476 -0.3309
 8619SOL     OW26234   6.130   5.714   2.770 -0.4677  0.4008  0.4066
 8619SOL    HW126235   6.190   5.736   2.699  0.0102  0.4951  0.8358
 8619SOL    HW226236   6.184   5.669   2.834 -0.6299  1.4294  1.2841
 8620SOL     OW26237   5.569   6.443   5.157  0.2023  0.7158 -0.3090
 8620SOL    HW126238   5.629   6.474   5.090  1.5317  1.5606  1.2175
 8620SOL    HW226239   5.579   6.505   5.229 -0.4834 -0.6726  1.0317
 8621SOL     OW26240   5.375   1.678   3.441 -0.3945 -0.1959  0.0748
 8621SOL    HW126241   5.394   1.620   3.515 -0.2859  1.0569  1.0712
 8621SOL    HW226242   5.280   1.680   3.436 -0.3871 -1.1319 -0.5234
 8622SOL     OW26243   2.028   4.464   0.673  0.2194 -0.7465 -0.1429
 8622SOL    HW126244   2.123   4.455   0.662  0.1544 -2.8674  0.6738
 8622SOL    HW226245   2.008   4.548   0.632  2.8725  1.1993  2.0846
 8623SOL     OW26246   1.589   0.007   0.153 -0.3247  0.4072 -0.7786
 8623SOL    HW126247   1.659  -0.035   0.204 -0.0216 -0.9458 -2.2417
 8623SOL    HW226248   1.596   0.100   0.175  0.1613 -0.0456  1.1773
 8624SOL     OW26249   1.688   0.769   4.305 -0.1140 -0.3431 -0.0922
 8624SOL    HW126250   1.677   0.742   4.214 -2.1731  0.8483 -0.2765
 8624SOL    HW226251   1.682   0.865   4.302 -0.5331 -0.2994  1.3255
 8625SOL     OW26252   2.535   2.359   4.750  0.6518  0.4368 -0.2382
 8625SOL    HW126253   2.537   2.281   4.806 -0.4717  0.5610 -0.0109
 8625SOL    HW226254   2.627   2.376   4.730  0.9870 -0.3173  0.5911
 8626SOL     OW26255   6.614   3.824   4.717 -0.2233 -0.5723  0.3031
 8626SOL    HW126256   6.581   3.737   4.693 -0.8701 -0.3116  0.2114
 8626SOL    HW226257   6.612   3.872   4.634  0.9943 -0.7259  0.1672
 8627SOL     OW26258   3.496   2.742   2.115  0.4651  0.2115  0.5102
 8627SOL    HW126259   3.445   2.663   2.101 -0.2305  0.9421 -1.5483
 8627SOL    HW226260   3.544   2.726   2.196 -0.5099 -1.8324  0.7506
 8628SOL     OW26261   2.093   5.699   0.792 -0.2204  0.0698  0.5967
 8628SOL    HW126262   2.020   5.641   0.774 -1.6772  1.8362  0.5116
 8628SOL    HW226263   2.153   5.687   0.718 -0.5564 -1.1720  0.5118
 8629SOL     OW26264   3.256   3.436   4.968 -0.1703  0.0411  0.3864
 8629SOL    HW126265   3.195   3.482   4.910 -2.4151 -2.2745  0.6989
 8629SOL    HW226266   3.242   3.475   5.054 -0.4143  0.2625  0.2481
 8630SOL     OW26267   4.685   3.876   4.737  0.2182  0.3522 -0.2510
 8630SOL    HW126268   4.723   3.807   4.791 -1.6795  0.8816  1.9346
 8630SOL    HW226269   4.615   3.833   4.689 -0.8384  0.6631  0.9649
 8631SOL     OW26270   1.522   2.795   1.399 -0.0877  0.3306  0.2226
 8631SOL    HW126271   1.436   2.767   1.431 -0.3560  0.5924 -0.2481
 8631SOL    HW226272   1.548   2.865   1.458  0.2792 -0.4466  0.9954
 8632SOL     OW26273   4.833   5.336   1.718 -0.6306  0.2704  0.3501
 8632SOL    HW126274   4.920   5.319   1.681 -0.9364  0.3565 -0.4227
 8632SOL    HW226275   4.814   5.260   1.772 -0.7752 -0.5211 -0.7972
 8633SOL     OW26276   4.653   6.394   3.334 -0.0158  0.2697  0.2662
 8633SOL    HW126277   4.684   6.432   3.251  0.1366 -0.8955 -0.2325
 8633SOL    HW226278   4.709   6.434   3.401  0.8462  0.1382 -0.3538
 8634SOL     OW26279   0.730   2.745   3.102  0.8642  0.0341 -0.2955
 8634SOL    HW126280   0.691   2.693   3.172  1.3700 -0.4487 -0.3674
 8634SOL    HW226281   0.791   2.804   3.147  0.9046 -0.0121 -0.2889
 8635SOL     OW26282   6.640   1.325   5.866  0.0238  0.2416 -0.6232
 8635SOL    HW126283   6.704   1.385   5.827  0.1917 -0.1713 -0.9906
 8635SOL    HW226284   6.690   1.245   5.883  0.0297  0.4984  0.7210
 8636SOL     OW26285   3.767   2.776   4.724  0.4799 -0.4742  0.2242
 8636SOL    HW126286   3.754   2.716   4.798  0.7065 -0.5561  0.1973
 8636SOL    HW226287   3.763   2.863   4.763  5.4531 -0.4387  1.2598
 8637SOL     OW26288   5.116   2.585   3.257 -0.1269 -0.3054  0.3041
 8637SOL    HW126289   5.025   2.609   3.237  0.6139  1.2995 -1.4965
 8637SOL    HW226290   5.147   2.543   3.177  1.3010  1.0806  0.0799
 8638SOL     OW26291   5.191   3.732   5.636 -0.9479 -0.2868 -0.6571
 8638SOL    HW126292   5.130   3.709   5.706 -0.2710  0.0190  0.0373
 8638SOL    HW226293   5.158   3.685   5.559 -1.9505 -0.2732 -0.2508
 8639SOL     OW26294   4.907   1.291   2.226 -0.5419  0.1494  0.1382
 8639SOL    HW126295   4.945   1.216   2.181  3.8404  1.6051  0.9228
 8639SOL    HW226296   4.906   1.361   2.160  0.5331  0.7694  0.7513
 8640SOL     OW26297   4.555   0.037   2.048  0.1720 -0.3893 -0.1339
 8640SOL    HW126298   4.489  -0.026   2.077 -0.2212  0.1950  0.2677
 8640SOL    HW226299   4.504   0.112   2.018  0.6450 -0.0174 -0.0124
 8641SOL     OW26300   1.905   6.811   5.825  0.3274 -0.2845  0.0306
 8641SOL    HW126301   1.866   6.879   5.881 -0.2966 -2.4489  2.4239
 8641SOL    HW226302   1.999   6.817   5.841  0.2982  0.1275  0.0581
 8642SOL     OW26303   3.623   4.961   6.768 -0.3867 -0.0099 -0.0343
 8642SOL    HW126304   3.544   4.968   6.715 -0.5058  2.0232  0.3321
 8642SOL    HW226305   3.693   4.995   6.712 -0.4940  2.0365  0.9668
 8643SOL     OW26306   6.098   2.254   2.665  0.0899 -0.2162  0.2516
 8643SOL    HW126307   6.098   2.324   2.600 -0.3276 -0.5160 -0.0771
 8643SOL    HW226308   6.083   2.298   2.748 -1.8230 -0.0685 -0.1431
 8644SOL     OW26309   0.884   2.621   2.913  0.0536  0.2156  0.2608
 8644SOL    HW126310   0.942   2.584   2.979 -0.8137 -0.2190  0.8029
 8644SOL    HW226311   0.806   2.648   2.962 -0.2859  0.6026 -0.4733
 8645SOL     OW26312   2.820   0.658   5.625 -0.5492  0.3833  0.2933
 8645SOL    HW126313   2.793   0.695   5.709  0.3604 -0.3336  0.9273
 8645SOL    HW226314   2.819   0.563   5.640  1.6498  0.2948  0.1711
 8646SOL     OW26315   0.721   3.774   3.136 -0.6873  0.1442 -0.1250
 8646SOL    HW126316   0.725   3.693   3.085 -0.1318  0.5959 -0.8163
 8646SOL    HW226317   0.809   3.784   3.172 -0.3446  1.1659 -1.2047
 8647SOL     OW26318   1.360   1.300   3.889 -0.2683  0.1539  0.1816
 8647SOL    HW126319   1.446   1.276   3.856 -0.0612  0.6023  0.3815
 8647SOL    HW226320   1.313   1.217   3.898  0.1766 -0.1010  0.1637
 8648SOL     OW26321   0.300   5.402   1.482  0.0185 -0.0311  0.6429
 8648SOL    HW126322   0.244   5.391   1.559 -0.2181  1.6097  0.7414
 8648SOL    HW226323   0.373   5.341   1.496 -1.6881 -2.1945  0.5237
 8649SOL     OW26324   1.042   0.150   4.497 -0.2754  0.2728  0.0932
 8649SOL    HW126325   1.005   0.131   4.584 -0.0651 -0.0027  0.1256
 8649SOL    HW226326   1.099   0.226   4.511 -0.3364  0.3047  0.1716
 8650SOL     OW26327   6.438   5.572   3.714 -0.1287 -0.4980 -0.2353
 8650SOL    HW126328   6.473   5.500   3.766 -1.8364 -1.0801  0.1418
 8650SOL    HW226329   6.513   5.601   3.661  1.4696 -0.4304  1.8731
 8651SOL     OW26330   0.762   5.465   1.723 -0.1718  0.4794  0.1877
 8651SOL    HW126331   0.827   5.521   1.680 -0.3949  1.3735  0.9899
 8651SOL    HW226332   0.745   5.508   1.806 -1.5940  0.1106  0.1040
 8652SOL     OW26333   5.470   2.926   1.305  0.1901  0.6398  0.3573
 8652SOL    HW126334   5.467   2.988   1.232  0.6245  0.8530  0.5136
 8652SOL    HW226335   5.452   2.841   1.265 -0.3381  0.8555  0.1291
 8653SOL     OW26336   4.840   4.297   1.455 -0.0451  0.4920 -0.7719
 8653SOL    HW126337   4.770   4.269   1.515  0.8067 -1.8857 -0.7979
 8653SOL    HW226338   4.835   4.235   1.382  1.9331  0.4130 -0.8803
 8654SOL     OW26339   6.605   6.606   5.232 -0.2923 -0.3979  0.5897
 8654SOL    HW126340   6.685   6.554   5.224  0.4832  0.9144 -0.6449
 8654SOL    HW226341   6.534   6.543   5.220  0.4859 -1.7228  2.4448
 8655SOL     OW26342   2.163   4.370   1.354  0.0165 -0.6424 -0.6073
 8655SOL    HW126343   2.098   4.299   1.346  0.4317 -1.0257 -0.6189
 8655SOL    HW226344   2.125   4.442   1.304 -0.6854 -0.6591 -0.1209
 8656SOL     OW26345   1.513   1.288   6.155  0.0668 -0.4647  0.3924
 8656SOL    HW126346   1.536   1.379   6.172 -1.4375  0.1543 -0.6924
 8656SOL    HW226347   1.579   1.237   6.202  0.7157  1.1723  1.3141
 8657SOL     OW26348   1.717   5.042   0.057 -0.7035 -0.0846  0.2834
 8657SOL    HW126349   1.666   5.057  -0.023 -0.6983  0.4433  0.3784
 8657SOL    HW226350   1.807   5.034   0.026 -0.7544 -0.3099  0.1911
 8658SOL     OW26351   1.866   3.895   2.195 -0.1939  0.2021 -0.2650
 8658SOL    HW126352   1.942   3.907   2.138  0.3123  1.1212  0.5646
 8658SOL    HW226353   1.892   3.823   2.253 -0.3476 -0.1238 -0.5949
 8659SOL     OW26354   0.190   5.349   1.718  0.5435 -0.2312 -0.0732
 8659SOL    HW126355   0.254   5.415   1.743  0.6351  0.7601 -2.6686
 8659SOL    HW226356   0.117   5.362   1.780  2.4414 -0.9145  2.4647
 8660SOL     OW26357   6.217   3.579   6.171  0.2949 -0.0994 -0.2228
 8660SOL    HW126358   6.134   3.588   6.125 -1.0695 -0.1484  2.0688
 8660SOL    HW226359   6.213   3.493   6.213  0.5365  0.7242  1.6053
 8661SOL     OW26360   2.012   1.561   0.832  0.2204 -0.2444  0.0007
 8661SOL    HW126361   1.925   1.571   0.870 -0.3662  0.2278 -1.4141
 8661SOL    HW226362   2.016   1.627   0.763  1.8073 -0.0858  0.2044
 8662SOL     OW26363   0.920   0.895   3.469 -0.0515  0.4425 -0.3170
 8662SOL    HW126364   0.999   0.920   3.517  0.1732 -1.1262  0.1690
 8662SOL    HW226365   0.915   0.959   3.397  1.0833  1.1857  0.2287
 8663SOL     OW26366   6.229   2.939   3.883  0.0160  0.7354  0.1170
 8663SOL    HW126367   6.196   3.016   3.836  1.4362  0.1346 -1.9903
 8663SOL    HW226368   6.311   2.918   3.840 -0.7114 -2.4750  0.0873
 8664SOL     OW26369   4.451   2.669   1.656 -0.3778 -0.2385 -0.2519
 8664SOL    HW126370   4.417   2.583   1.633 -1.2973  0.6094 -2.3402
 8664SOL    HW226371   4.531   2.678   1.605 -0.4407  0.2523 -0.2718
 8665SOL     OW26372   6.536   3.166   2.980  0.3633 -0.7130  0.1870
 8665SOL    HW126373   6.449   3.193   2.950  0.6100  1.9001  1.4861
 8665SOL    HW226374   6.583   3.144   2.900 -0.5820  0.8619 -0.8765
 8666SOL     OW26375   4.153   3.334   5.534  0.1288 -0.3691 -0.5540
 8666SOL    HW126376   4.146   3.362   5.443 -1.8211  1.0892 -0.0245
 8666SOL    HW226377   4.066   3.298   5.555  1.4917 -3.8093 -0.1698
 8667SOL     OW26378   2.787   2.855   3.650 -0.2178 -0.1893 -0.2721
 8667SOL    HW126379   2.697   2.846   3.680 -0.6105 -0.7165 -1.5407
 8667SOL    HW226380   2.839   2.861   3.730 -1.1743 -1.7821  0.5167
 8668SOL     OW26381   3.768   0.833   3.466 -0.3517  0.2745 -0.1380
 8668SOL    HW126382   3.781   0.923   3.497  0.0111 -0.1781  1.1001
 8668SOL    HW226383   3.842   0.817   3.408 -0.2978  0.7024 -0.1920
 8669SOL     OW26384   0.566   4.723   1.043 -0.5119  0.2943 -0.4612
 8669SOL    HW126385   0.516   4.731   1.124  1.0192  0.9094  0.4601
 8669SOL    HW226386   0.511   4.669   0.986 -1.9784  0.5194  0.6769
 8670SOL     OW26387   4.379   1.464   0.753 -0.4752 -0.1361  0.3933
 8670SOL    HW126388   4.466   1.467   0.792 -0.4146 -0.8702  0.3191
 8670SOL    HW226389   4.392   1.428   0.665 -0.5491  1.9023 -0.5293
 8671SOL     OW26390   2.167   5.256   6.135  0.7188  0.8056 -0.0548
 8671SOL    HW126391   2.228   5.318   6.175  0.4368  0.8264  0.3500
 8671SOL    HW226392   2.171   5.275   6.041 -0.3704  2.3616  0.1872
 8672SOL     OW26393   5.877   1.519   6.565  0.0236 -0.3149 -0.1930
 8672SOL    HW126394   5.837   1.552   6.484 -0.2601  0.6659  0.3254
 8672SOL    HW226395   5.867   1.424   6.559  0.1330 -0.2695 -1.3701
 8673SOL     OW26396   4.654   1.395   5.177 -0.0204 -0.1954 -0.0929
 8673SOL    HW126397   4.749   1.406   5.179 -0.0335 -0.1373  0.3010
 8673SOL    HW226398   4.637   1.322   5.237 -0.1793 -0.5430 -0.5558
 8674SOL     OW26399   1.378   6.210   1.849 -0.5699 -0.1262  0.1764
 8674SOL    HW126400   1.359   6.304   1.848 -0.5302 -0.0782  1.4516
 8674SOL    HW226401   1.303   6.171   1.892 -1.6569 -0.9987 -2.3538
 8675SOL     OW26402   1.912   0.127   4.203  0.3712  0.5521  0.0609
 8675SOL    HW126403   1.896   0.149   4.294  0.5913 -0.0960  0.2641
 8675SOL    HW226404   1.878   0.038   4.193  2.4686 -0.3256  0.1479
 8676SOL     OW26405   6.220   0.141   5.837  0.3529  0.2864  0.1540
 8676SOL    HW126406   6.197   0.199   5.909  0.9656 -1.3560  1.7504
 8676SOL    HW226407   6.160   0.166   5.766 -1.3855  0.8937  1.7531
 8677SOL     OW26408   6.179   6.590   6.272 -0.4596 -0.4891 -0.0406
 8677SOL    HW126409   6.090   6.594   6.237 -1.1053 -1.1804  1.4391
 8677SOL    HW226410   6.230   6.548   6.203 -1.2760 -0.0966 -0.9069
 8678SOL     OW26411   6.087   4.862   5.527  0.2530  0.3708 -0.0874
 8678SOL    HW126412   6.027   4.915   5.580  1.7757  1.8844  0.2291
 8678SOL    HW226413   6.084   4.902   5.440 -0.0597 -0.2711 -0.3741
 8679SOL     OW26414   5.247   0.907   6.133 -0.2936  0.1672 -0.0500
 8679SOL    HW126415   5.209   0.990   6.163 -1.6033  0.2110 -1.6849
 8679SOL    HW226416   5.176   0.865   6.085  0.4973 -1.7134  0.3404
 8680SOL     OW26417   2.629   1.468   0.460  0.9074  0.5306  0.4408
 8680SOL    HW126418   2.722   1.447   0.457  1.1176  1.4757  0.1121
 8680SOL    HW226419   2.585   1.383   0.447  1.7345  0.3050 -1.1994
 8681SOL     OW26420   6.602   2.157   2.097 -0.5477  0.2407 -0.7578
 8681SOL    HW126421   6.626   2.110   2.177 -0.6648  0.9391 -0.2994
 8681SOL    HW226422   6.645   2.242   2.106 -1.0845  0.5541 -1.1406
 8682SOL     OW26423   1.737   3.205   5.196  0.5599  0.0954 -0.4543
 8682SOL    HW126424   1.817   3.254   5.175 -0.7955  1.5472 -2.6701
 8682SOL    HW226425   1.766   3.115   5.207  2.4472  0.4611 -1.8989
 8683SOL     OW26426   5.589   5.486   5.756 -0.6999  0.0735  0.0637
 8683SOL    HW126427   5.501   5.471   5.722 -0.3258  0.8642 -1.3750
 8683SOL    HW226428   5.647   5.449   5.689  0.1008  2.7311 -0.8268
 8684SOL     OW26429   3.801   3.568   5.541 -0.1081  0.5173 -0.3102
 8684SOL    HW126430   3.712   3.582   5.573 -0.4685 -0.4307 -0.8600
 8684SOL    HW226431   3.793   3.497   5.477  0.8957  1.0483 -1.0609
 8685SOL     OW26432   0.294   6.102   0.200  0.1602  0.6829 -0.0255
 8685SOL    HW126433   0.287   6.007   0.192  3.6295  0.2339  0.5292
 8685SOL    HW226434   0.281   6.135   0.111  1.4121 -0.6230 -0.7520
 8686SOL     OW26435   5.250   0.149   2.445 -0.0063 -0.1236  0.3094
 8686SOL    HW126436   5.318   0.202   2.404 -1.3671  1.2912 -0.2377
 8686SOL    HW226437   5.252   0.175   2.538 -1.8882  2.4219 -0.2582
 8687SOL     OW26438   2.223   6.021   0.590 -0.5128  0.6171 -0.5195
 8687SOL    HW126439   2.294   6.057   0.537  0.3560 -0.5967 -0.2280
 8687SOL    HW226440   2.265   5.953   0.643 -2.1462 -1.2812 -1.4991
 8688SOL     OW26441   1.197   2.784   4.643 -0.0440  0.6531  0.3917
 8688SOL    HW126442   1.269   2.826   4.690  2.0806 -1.5223 -0.6907
 8688SOL    HW226443   1.166   2.851   4.582  2.6141  1.0438 -0.6780
 8689SOL     OW26444   2.949   5.932   4.588 -0.1517 -0.0313  0.4019
 8689SOL    HW126445   2.934   5.838   4.590  0.1191 -0.0634  0.9482
 8689SOL    HW226446   2.959   5.953   4.495 -2.8227 -0.1313 -0.0027
 8690SOL     OW26447   0.681   1.804   5.207  0.3711  0.3672 -0.5273
 8690SOL    HW126448   0.762   1.753   5.198  1.0791  1.4764 -0.6208
 8690SOL    HW226449   0.624   1.749   5.261  1.0127 -0.6274 -0.8350
 8691SOL     OW26450   2.862   0.773   0.814 -0.3877  0.3488  0.0534
 8691SOL    HW126451   2.882   0.787   0.906 -1.0169 -0.4980  0.3333
 8691SOL    HW226452   2.783   0.718   0.814 -1.0826  1.2797 -0.9924
 8692SOL     OW26453   3.527   2.447   4.243  0.0933  0.3128 -0.1509
 8692SOL    HW126454   3.564   2.512   4.183 -0.0151 -0.1570 -0.7370
 8692SOL    HW226455   3.435   2.441   4.218 -0.0305  0.3599  0.2900
 8693SOL     OW26456   1.298   1.421   4.391  0.0983 -0.1603 -0.3263
 8693SOL    HW126457   1.282   1.439   4.298  0.4513  1.4150 -0.1205
 8693SOL    HW226458   1.394   1.420   4.398  0.1880  2.8534  0.4741
 8694SOL     OW26459   5.526   6.178   2.016 -0.3007 -0.3521 -0.1099
 8694SOL    HW126460   5.494   6.101   1.969 -2.2880  0.1208  0.3942
 8694SOL    HW226461   5.465   6.248   1.993  0.2410  0.5580  1.0910
 8695SOL     OW26462   4.465   0.541   6.319  0.3451  0.0206 -0.2561
 8695SOL    HW126463   4.396   0.575   6.376  0.2208 -1.4356  0.4833
 8695SOL    HW226464   4.529   0.612   6.315 -1.6956  1.9267 -1.9416
 8696SOL     OW26465   3.897   3.835   3.955  0.2474 -0.3647  0.2507
 8696SOL    HW126466   3.967   3.845   4.020  1.1224 -0.2485 -0.6924
 8696SOL    HW226467   3.910   3.908   3.895  0.3816 -1.3207 -0.9096
 8697SOL     OW26468   4.878   3.219   6.237 -0.1377 -0.8552  0.5340
 8697SOL    HW126469   4.916   3.141   6.278 -0.0277 -0.3626  1.3728
 8697SOL    HW226470   4.784   3.211   6.254 -0.1942 -1.0915  0.1237
 8698SOL     OW26471   2.802   4.190   1.087  0.1462  0.1948  0.5034
 8698SOL    HW126472   2.870   4.123   1.079 -0.4379 -0.5820  1.7761
 8698SOL    HW226473   2.831   4.246   1.159 -0.2997  0.1652  0.7130
 8699SOL     OW26474   0.487   2.710   5.767  0.0771  0.0827  0.1019
 8699SOL    HW126475   0.569   2.736   5.809  1.0242  1.1160 -2.2616
 8699SOL    HW226476   0.434   2.675   5.839  2.8586 -1.4101  1.6131
 8700SOL     OW26477   1.482   1.875   6.816 -0.1220  0.0021 -0.2414
 8700SOL    HW126478   1.502   1.791   6.774 -1.3873 -0.2597 -0.3580
 8700SOL    HW226479   1.506   1.861   6.908 -0.0500 -0.3877 -0.3150
 8701SOL     OW26480   3.028   4.598   3.559 -0.8992  0.3671 -0.1194
 8701SOL    HW126481   3.018   4.540   3.635  0.4383 -0.1370 -0.2936
 8701SOL    HW226482   2.963   4.667   3.573  0.2365  1.0672  2.2535
 8702SOL     OW26483   5.567   3.595   3.924  0.4185  0.0755  0.7845
 8702SOL    HW126484   5.481   3.613   3.962  0.4676 -0.5069  1.1930
 8702SOL    HW226485   5.628   3.605   3.997  0.8412  1.5617  0.2558
 8703SOL     OW26486   2.537   2.621   4.860  0.2184 -0.7504  0.3556
 8703SOL    HW126487   2.513   2.537   4.821 -0.3569 -1.2663  1.7566
 8703SOL    HW226488   2.453   2.668   4.869  0.6929  0.7787 -2.0576
 8704SOL     OW26489   6.085   1.864   1.139  0.5782 -0.2758  0.1925
 8704SOL    HW126490   6.049   1.923   1.073  2.2926  0.0497 -0.5075
 8704SOL    HW226491   6.109   1.922   1.211  0.7883 -0.3227  0.1607
 8705SOL     OW26492   4.749   2.863   6.423 -0.4579 -0.2734  0.1846
 8705SOL    HW126493   4.739   2.865   6.328  0.6029  1.0049  0.0797
 8705SOL    HW226494   4.665   2.893   6.456  0.1472  2.3329 -0.4591
 8706SOL     OW26495   1.259   1.267   2.030 -0.9067  0.3889  0.0131
 8706SOL    HW126496   1.257   1.282   2.124 -0.9254  0.2658  0.0328
 8706SOL    HW226497   1.244   1.173   2.020  0.4746  0.1617 -0.0544
 8707SOL     OW26498   0.978   0.506   0.885  0.5826 -0.2259  0.0651
 8707SOL    HW126499   1.030   0.430   0.913 -0.6441 -0.8700  0.7057
 8707SOL    HW226500   1.006   0.577   0.944  0.6005 -0.6139  0.5312
 8708SOL     OW26501   5.735   2.841   0.046  0.1825  0.3873  0.4307
 8708SOL    HW126502   5.678   2.781   0.093 -0.8262  0.8260 -0.1908
 8708SOL    HW226503   5.740   2.804  -0.042 -0.7218  1.3548 -0.0568
 8709SOL     OW26504   3.491   6.554   0.208  0.1772 -0.0033  0.4711
 8709SOL    HW126505   3.568   6.586   0.161  0.4077 -0.1123  0.7676
 8709SOL    HW226506   3.422   6.616   0.187  0.0629 -0.4774 -0.6464
 8710SOL     OW26507   2.790   5.826   6.419 -0.1387  0.5086  0.1258
 8710SOL    HW126508   2.841   5.889   6.369 -0.8430  0.3580 -0.8072
 8710SOL    HW226509   2.721   5.878   6.460 -1.1672  0.2890 -1.2362
 8711SOL     OW26510   4.440   3.017   6.160 -0.2306 -0.1952  0.2610
 8711SOL    HW126511   4.458   2.968   6.240  0.6785  0.0152  0.1972
 8711SOL    HW226512   4.451   2.954   6.090  1.1777  0.1235  0.1617
 8712SOL     OW26513   6.373   1.764   5.215 -0.1822  0.4171 -0.1223
 8712SOL    HW126514   6.407   1.837   5.266 -0.9805  2.9651 -2.9433
 8712SOL    HW226515   6.281   1.755   5.242 -0.0200  0.2974  0.3857
 8713SOL     OW26516   2.621   5.929   5.705 -0.1629 -0.1638  0.5018
 8713SOL    HW126517   2.685   5.999   5.699 -0.1616 -0.0792  1.3871
 8713SOL    HW226518   2.671   5.853   5.734 -0.2338 -0.4402 -0.0836
 8714SOL     OW26519   0.129   3.900   2.388  0.2463 -0.3156 -0.2112
 8714SOL    HW126520   0.210   3.851   2.404  1.4053  1.6104  0.1258
 8714SOL    HW226521   0.151   3.990   2.412 -1.0431  0.8502 -3.0391
 8715SOL     OW26522   5.212   2.092   3.631 -0.0193 -0.5221  0.5236
 8715SOL    HW126523   5.205   1.997   3.635  2.0399 -0.8427 -1.5465
 8715SOL    HW226524   5.294   2.112   3.676  1.8014 -0.2836 -2.5643
 8716SOL     OW26525   0.583   2.276   1.264  0.0373 -0.3809 -0.1957
 8716SOL    HW126526   0.501   2.289   1.312  0.2057  1.6618 -0.3677
 8716SOL    HW226527   0.570   2.194   1.216 -1.4072 -0.7515  0.7667
 8717SOL     OW26528   1.589   1.459   5.683 -0.2627  0.5231  0.6224
 8717SOL    HW126529   1.666   1.465   5.739  1.0395  1.3627 -1.1630
 8717SOL    HW226530   1.589   1.369   5.651  2.2191  1.4106 -2.2702
 8718SOL     OW26531   0.063   5.291   1.054 -0.0717 -0.1780 -0.4136
 8718SOL    HW126532   0.137   5.325   1.103  0.2763 -0.0230 -1.0412
 8718SOL    HW226533   0.076   5.196   1.054  0.4527 -0.1103 -1.0331
 8719SOL     OW26534   1.703   4.521   0.793  0.7797 -0.0392 -0.1552
 8719SOL    HW126535   1.642   4.506   0.721 -0.5314  0.9721  0.6943
 8719SOL    HW226536   1.704   4.616   0.804  3.7230  0.1162 -1.1303
 8720SOL     OW26537   3.189   3.811   3.472 -0.5685 -0.3714  0.5675
 8720SOL    HW126538   3.114   3.764   3.436 -1.3855 -0.4078  2.2135
 8720SOL    HW226539   3.161   3.839   3.559  0.7530  1.0695  0.5923
 8721SOL     OW26540   4.260   5.356   4.268  0.4516 -0.2810 -0.0166
 8721SOL    HW126541   4.231   5.391   4.351  1.0331  0.4945 -0.1279
 8721SOL    HW226542   4.281   5.264   4.286 -1.3710 -0.7012  0.2065
 8722SOL     OW26543   1.796   2.625   0.360 -0.5498 -0.2989 -0.1247
 8722SOL    HW126544   1.758   2.705   0.395  0.1017  1.5986 -3.3533
 8722SOL    HW226545   1.732   2.593   0.297  0.9342  0.1554 -1.9636
 8723SOL     OW26546   0.865   4.109   4.654 -0.5029  0.1848 -0.4480
 8723SOL    HW126547   0.879   4.016   4.673  0.7696  0.5058  0.3236
 8723SOL    HW226548   0.880   4.117   4.560 -2.7927 -0.7421 -0.9469
 8724SOL     OW26549   3.966   6.368   2.666  0.0987  0.1289 -0.4195
 8724SOL    HW126550   3.899   6.435   2.682 -1.1705 -0.7510 -1.7620
 8724SOL    HW226551   4.049   6.413   2.682 -0.7835  1.3138  1.1020
 8725SOL     OW26552   6.504   1.481   3.634  0.3810 -0.2284 -0.3768
 8725SOL    HW126553   6.542   1.502   3.548  2.1721  0.3835  0.5173
 8725SOL    HW226554   6.558   1.529   3.697 -0.5205 -1.1312  1.1460
 8726SOL     OW26555   3.476   0.918   2.979  0.4254  0.5338  0.2935
 8726SOL    HW126556   3.408   0.977   2.947  0.2786  0.0681 -0.2731
 8726SOL    HW226557   3.558   0.960   2.954  0.3531  1.1120  1.0056
 8727SOL     OW26558   5.779   6.675   1.300 -0.8272 -0.3759  0.1236
 8727SOL    HW126559   5.796   6.690   1.207  1.5865 -0.5382  0.4698
 8727SOL    HW226560   5.865   6.676   1.340 -1.8932  1.1528  2.6232
 8728SOL     OW26561   2.362   2.157   3.188 -0.0656 -0.2791 -0.1951
 8728SOL    HW126562   2.390   2.239   3.227 -2.3687  0.0566  0.8863
 8728SOL    HW226563   2.350   2.177   3.095 -1.2818  0.8161  0.1800
 8729SOL     OW26564   2.142   2.745   3.497 -0.4678 -0.3609 -0.4339
 8729SOL    HW126565   2.100   2.711   3.576 -1.0510  2.9635  0.8286
 8729SOL    HW226566   2.199   2.815   3.528  0.0939  0.3622 -2.8824
 8730SOL     OW26567   6.331   6.761   0.165 -0.3548 -0.1016  0.4120
 8730SOL    HW126568   6.377   6.803   0.238 -0.7545 -0.1193  0.6736
 8730SOL    HW226569   6.391   6.771   0.091 -1.1901  2.6145 -0.0245
 8731SOL     OW26570   2.523   0.632   6.107  0.5990 -0.4788 -0.1072
 8731SOL    HW126571   2.439   0.594   6.134 -0.6373  0.5155 -2.3088
 8731SOL    HW226572   2.584   0.558   6.109 -0.0327 -1.0122  2.5068
 8732SOL     OW26573   2.552   1.474   5.545  0.2525 -0.4238 -0.2743
 8732SOL    HW126574   2.559   1.438   5.456  0.4725 -0.1550 -0.3656
 8732SOL    HW226575   2.495   1.412   5.591  0.8418 -1.0374 -0.3520
 8733SOL     OW26576   2.967   0.388   4.092 -0.2741 -0.1052  0.0639
 8733SOL    HW126577   2.935   0.320   4.033 -0.5281  0.2263 -0.1835
 8733SOL    HW226578   2.942   0.470   4.050 -0.0328  0.1411  0.3951
 8734SOL     OW26579   1.468   1.421   3.392  0.0850  0.2654  0.4861
 8734SOL    HW126580   1.516   1.391   3.314  0.0558  1.2824  0.0716
 8734SOL    HW226581   1.409   1.348   3.412 -0.1920  0.1453 -0.6766
 8735SOL     OW26582   4.592   6.604   4.756  0.4086  0.0165  0.3511
 8735SOL    HW126583   4.559   6.689   4.726  1.4463  0.5137  0.6001
 8735SOL    HW226584   4.585   6.547   4.679  2.1614  1.0356 -0.6217
 8736SOL     OW26585   3.766   5.359   5.312 -0.1482 -0.3639 -0.4800
 8736SOL    HW126586   3.817   5.438   5.297  0.0562 -0.4109 -0.0624
 8736SOL    HW226587   3.811   5.315   5.385 -0.0483 -1.0484 -0.9477
 8737SOL     OW26588   4.515   3.886   6.603 -0.1299  0.0630 -0.1748
 8737SOL    HW126589   4.483   3.954   6.662 -0.3721  0.0906 -0.3383
 8737SOL    HW226590   4.562   3.825   6.661  0.0795  0.3590 -0.0260
 8738SOL     OW26591   5.694   2.424   5.878 -0.4327  0.3156 -0.3787
 8738SOL    HW126592   5.614   2.372   5.885 -0.2131 -0.2369 -1.6472
 8738SOL    HW226593   5.731   2.423   5.966 -1.2339 -0.3870 -0.0369
 8739SOL     OW26594   4.606   3.783   0.656 -0.4231 -0.1122 -0.5841
 8739SOL    HW126595   4.593   3.874   0.631  1.7308  0.0328 -1.3419
 8739SOL    HW226596   4.606   3.784   0.751  1.8101  1.1136 -0.5240
 8740SOL     OW26597   3.900   4.064   3.849 -0.3154 -0.7237 -0.3462
 8740SOL    HW126598   3.850   4.143   3.870  0.3076  0.2050 -2.1183
 8740SOL    HW226599   3.983   4.098   3.815  0.3722 -2.1817 -0.1675
 8741SOL     OW26600   5.593   3.231   2.436  0.0423 -0.0156 -0.6377
 8741SOL    HW126601   5.530   3.245   2.507  0.0117  0.3919 -0.7425
 8741SOL    HW226602   5.641   3.152   2.461  0.4334  0.4542  0.1235
 8742SOL     OW26603   3.693   1.018   4.694 -0.6522  0.0594 -0.7967
 8742SOL    HW126604   3.694   0.977   4.607 -0.8938  2.2230 -1.8853
 8742SOL    HW226605   3.775   0.990   4.734 -0.1609 -0.3364 -2.0290
 8743SOL     OW26606   5.793   3.755   0.411  0.0997  0.0801 -0.1945
 8743SOL    HW126607   5.794   3.820   0.481  3.9114  1.5608 -1.3845
 8743SOL    HW226608   5.796   3.671   0.456 -1.0935  0.8033  1.3528
 8744SOL     OW26609   4.289   5.691   0.116 -0.2171  0.1383 -0.6549
 8744SOL    HW126610   4.286   5.787   0.111  0.4596  0.1971 -0.0704
 8744SOL    HW226611   4.298   5.663   0.025 -1.5602  0.5734 -0.9373
 8745SOL     OW26612   4.238   2.740   1.399  0.0670  0.2699  0.0257
 8745SOL    HW126613   4.196   2.700   1.475 -0.0929  0.9622  0.3133
 8745SOL    HW226614   4.331   2.743   1.421  0.2011 -0.6976 -0.3520
 8746SOL     OW26615   3.674   4.157   2.242  0.0728 -0.2315  0.7253
 8746SOL    HW126616   3.761   4.167   2.202 -0.6311  0.8867 -0.6383
 8746SOL    HW226617   3.686   4.090   2.309  1.4633 -1.8405 -1.0110
 8747SOL     OW26618   2.368   6.019   3.596  0.0686  0.1527  0.1072
 8747SOL    HW126619   2.450   6.068   3.582  0.4760 -0.9841 -1.8324
 8747SOL    HW226620   2.301   6.087   3.605  1.0515  1.0924  0.6478
 8748SOL     OW26621   4.344   1.930   0.889 -0.7130  0.4978  0.1069
 8748SOL    HW126622   4.344   1.844   0.930  1.2820  0.6490  0.5427
 8748SOL    HW226623   4.379   1.915   0.801  1.5416  1.0336  0.8205
 8749SOL     OW26624   5.109   4.385   1.547 -0.0476 -0.1324 -0.0240
 8749SOL    HW126625   5.155   4.350   1.471  0.3697 -0.1523  0.2348
 8749SOL    HW226626   5.019   4.352   1.538 -0.2026  0.5193 -0.9236
 8750SOL     OW26627   0.317   4.498   6.680  0.2320 -0.0746 -0.0966
 8750SOL    HW126628   0.380   4.567   6.657  1.0037 -0.4167  0.8830
 8750SOL    HW226629   0.371   4.421   6.696 -0.6329 -0.9388 -1.2219
 8751SOL     OW26630   6.618   0.789   2.929 -0.1049 -0.2535  0.0876
 8751SOL    HW126631   6.609   0.710   2.983 -2.5560 -0.5802 -0.6686
 8751SOL    HW226632   6.624   0.860   2.993  0.0080 -0.8707  0.7810
 8752SOL     OW26633   4.086   2.658   1.654  0.3977 -0.2502 -0.4469
 8752SOL    HW126634   4.127   2.577   1.685  2.1130  0.7040 -0.1006
 8752SOL    HW226635   4.012   2.671   1.713  0.4471 -1.2715 -0.1378
 8753SOL     OW26636   0.953   1.489   2.220 -0.5943 -0.1759 -0.0676
 8753SOL    HW126637   0.899   1.566   2.204 -1.2042 -0.4462  0.6550
 8753SOL    HW226638   0.892   1.423   2.253  0.2498 -0.3107  1.2880
 8754SOL     OW26639   1.010   2.945   4.084  0.1834  0.0803  0.3735
 8754SOL    HW126640   0.979   2.856   4.065  0.2562  0.4222 -1.4840
 8754SOL    HW226641   1.077   2.933   4.151 -2.0932 -0.9281  2.6302
 8755SOL     OW26642   0.400   5.776   0.446  0.2313  0.4958 -0.4483
 8755SOL    HW126643   0.456   5.802   0.519 -0.1040 -0.7113  0.2730
 8755SOL    HW226644   0.460   5.737   0.383  0.3350 -0.0698 -0.0207
 8756SOL     OW26645   0.305   1.439   0.803  0.2296 -0.3260  0.2010
 8756SOL    HW126646   0.298   1.448   0.707  0.7922 -2.2319 -0.0621
 8756SOL    HW226647   0.343   1.352   0.816 -0.3748 -0.3389  2.1946
 8757SOL     OW26648   1.110   5.689   2.724  0.1607 -0.1684  0.2969
 8757SOL    HW126649   1.124   5.780   2.751  1.4218 -0.3870  0.4392
 8757SOL    HW226650   1.066   5.648   2.799  0.0753  0.1946  0.4433
 8758SOL     OW26651   6.614   3.323   4.291 -0.3745 -0.0122  0.0721
 8758SOL    HW126652   6.709   3.330   4.300 -0.4882  1.7751  0.4605
 8758SOL    HW226653   6.599   3.252   4.229  1.2163 -0.1655 -0.1563
 8759SOL     OW26654   4.603   3.268   6.219 -0.3848 -0.4520 -0.5442
 8759SOL    HW126655   4.580   3.353   6.181  1.1518  0.5678  0.6782
 8759SOL    HW226656   4.520   3.233   6.249 -0.7534  2.2529  2.0817
 8760SOL     OW26657   6.731   3.004   0.801 -0.1006  0.5134  0.4327
 8760SOL    HW126658   6.719   3.014   0.707 -1.2365 -0.0802  0.4873
 8760SOL    HW226659   6.662   2.942   0.827  1.4431 -0.9258  1.3348
 8761SOL     OW26660   1.229   1.801   5.694 -0.8282  0.3487  0.2196
 8761SOL    HW126661   1.203   1.803   5.602 -0.5593  1.0877  0.1559
 8761SOL    HW226662   1.282   1.722   5.702 -2.4737 -0.8316  0.1990
 8762SOL     OW26663   1.475   5.731   2.417 -0.1430  0.8142 -0.2844
 8762SOL    HW126664   1.402   5.786   2.444  0.9187  1.0396  2.3688
 8762SOL    HW226665   1.533   5.791   2.369 -0.2101  1.4188  0.3672
 8763SOL     OW26666   1.798   0.395   0.833  0.3280  0.2069  0.1318
 8763SOL    HW126667   1.737   0.373   0.903 -0.2867 -0.1175 -0.4938
 8763SOL    HW226668   1.771   0.341   0.759 -0.0586  1.6916 -0.8639
 8764SOL     OW26669   3.361   4.294   6.569 -0.5079 -0.3943  0.1427
 8764SOL    HW126670   3.396   4.209   6.545  0.0396  0.0890 -0.8425
 8764SOL    HW226671   3.309   4.321   6.494  1.5760  1.3392 -0.7833
 8765SOL     OW26672   0.996   3.414   4.638 -0.0898  0.2796  0.2574
 8765SOL    HW126673   1.014   3.345   4.702  1.4432  1.7061  1.4612
 8765SOL    HW226674   1.071   3.473   4.645 -1.3530  2.1000 -0.6867
 8766SOL     OW26675   2.634   3.737   3.684 -0.4812  0.3117  0.0657
 8766SOL    HW126676   2.660   3.707   3.772 -0.6485  0.5591  0.1995
 8766SOL    HW226677   2.680   3.678   3.625 -0.3358  0.1663  0.3197
 8767SOL     OW26678   2.129   6.197   6.451 -0.0665 -1.0067 -0.0526
 8767SOL    HW126679   2.096   6.177   6.363 -0.9509 -0.0950  0.0448
 8767SOL    HW226680   2.055   6.179   6.509  0.2680 -0.8864  0.4207
 8768SOL     OW26681   6.791   2.291   3.776 -0.4101 -0.2287 -0.1563
 8768SOL    HW126682   6.851   2.365   3.770 -1.7228  0.9229  0.1166
 8768SOL    HW226683   6.801   2.259   3.865 -2.0625  1.7144  0.8313
 8769SOL     OW26684   5.438   1.189   2.801  0.3516  0.4487  0.4131
 8769SOL    HW126685   5.519   1.148   2.833  0.2434 -1.0218 -1.0170
 8769SOL    HW226686   5.445   1.183   2.705  0.6588  4.5730 -0.0086
 8770SOL     OW26687   3.329   0.108   2.686 -0.0911  0.4269  0.7283
 8770SOL    HW126688   3.389   0.075   2.619  1.3776 -0.0783  2.2185
 8770SOL    HW226689   3.279   0.031   2.713 -0.2696  0.5096  0.6375
 8771SOL     OW26690   5.985   1.315   1.952  0.1078 -0.2169 -0.4088
 8771SOL    HW126691   6.029   1.307   2.037 -1.1355  2.5795  0.6320
 8771SOL    HW226692   5.897   1.280   1.967 -0.7880  2.0620  0.1696
 8772SOL     OW26693   2.312   4.069   3.652  0.0254  0.0905 -0.2987
 8772SOL    HW126694   2.308   3.978   3.682 -2.6657  0.8163  1.9168
 8772SOL    HW226695   2.227   4.105   3.674  1.3747  3.4879 -0.0981
 8773SOL     OW26696   1.710   5.676   3.075  0.1789  0.5386 -0.4833
 8773SOL    HW126697   1.654   5.599   3.074  0.7479  0.0901  0.6119
 8773SOL    HW226698   1.714   5.702   3.167  1.7302  0.5734 -0.5394
 8774SOL     OW26699   1.461   6.160   0.402  0.3525 -0.0036 -0.3622
 8774SOL    HW126700   1.458   6.183   0.495  0.1755  2.0840 -0.8412
 8774SOL    HW226701   1.484   6.067   0.401  1.4795  0.2060  1.7219
 8775SOL     OW26702   1.661   0.653   1.975  0.3382 -0.0597  0.2746
 8775SOL    HW126703   1.733   0.641   2.036 -0.1505 -1.1530  0.6552
 8775SOL    HW226704   1.652   0.569   1.931 -0.9237 -0.0388  0.4695
 8776SOL     OW26705   3.536   0.041   4.045  0.4437 -0.3244 -0.3347
 8776SOL    HW126706   3.520   0.040   3.950 -0.0083  4.9374 -0.5703
 8776SOL    HW226707   3.632   0.045   4.052  0.4584 -0.1517 -0.6016
 8777SOL     OW26708   3.560   2.062   4.086  0.2893 -0.4668 -0.8111
 8777SOL    HW126709   3.594   2.104   4.165  0.0791 -0.2666 -0.8278
 8777SOL    HW226710   3.510   1.987   4.118 -1.3278  0.6400 -0.6369
 8778SOL     OW26711   0.330   3.905   6.030  0.6759  0.2885 -0.0755
 8778SOL    HW126712   0.327   3.820   6.073  0.3930  0.8403  1.0192
 8778SOL    HW226713   0.409   3.901   5.975 -0.9485 -1.7862 -2.4975
 8779SOL     OW26714   3.494   0.955   0.900  0.3769  0.1853  0.2409
 8779SOL    HW126715   3.437   0.947   0.824 -0.3284 -0.3259  0.8168
 8779SOL    HW226716   3.516   1.049   0.902  0.6869  0.1537 -0.7780
 8780SOL     OW26717   6.378   5.846   0.187  0.3565  0.4228 -0.7218
 8780SOL    HW126718   6.400   5.865   0.095  0.6175  1.5102 -0.4395
 8780SOL    HW226719   6.428   5.910   0.238 -2.4405  2.1886  0.0089
 8781SOL     OW26720   3.311   5.434   4.552  0.0225  0.1501  0.2233
 8781SOL    HW126721   3.385   5.495   4.553  0.5810 -0.4501 -1.1782
 8781SOL    HW226722   3.279   5.434   4.642  2.7144 -0.7433  1.3040
 8782SOL     OW26723   3.474   0.770   3.403  0.5235  0.5180 -0.2749
 8782SOL    HW126724   3.416   0.754   3.328 -0.5588 -1.7292  0.9358
 8782SOL    HW226725   3.560   0.740   3.375 -0.1846 -1.7958 -0.2118
 8783SOL     OW26726   1.770   5.107   2.208  0.6132  0.2121  0.1057
 8783SOL    HW126727   1.744   5.044   2.141 -1.4194  1.5779 -0.4779
 8783SOL    HW226728   1.853   5.143   2.176  0.0872  0.2450 -1.2817
 8784SOL     OW26729   4.451   3.822   3.954  0.0291  0.0313 -0.3426
 8784SOL    HW126730   4.456   3.747   4.013  2.7088  0.7786  0.5525
 8784SOL    HW226731   4.379   3.802   3.895 -0.8414 -2.1361  1.3189
 8785SOL     OW26732   6.340   1.090   2.670 -0.2628  0.2790 -0.5527
 8785SOL    HW126733   6.401   1.122   2.737 -0.7610  0.0963 -0.0089
 8785SOL    HW226734   6.281   1.031   2.717  0.5288 -1.3456 -1.5016
 8786SOL     OW26735   0.657   6.579   3.040 -0.7800 -0.0120 -0.4252
 8786SOL    HW126736   0.742   6.575   3.086 -0.4713 -1.6140 -1.0884
 8786SOL    HW226737   0.679   6.609   2.952 -1.2377  1.9119  0.0528
 8787SOL     OW26738   3.619   4.623   5.450  0.3212  0.1135  0.2454
 8787SOL    HW126739   3.581   4.634   5.363  1.0507 -0.6516 -0.1850
 8787SOL    HW226740   3.616   4.710   5.489 -0.5622  0.3401 -0.3169
 8788SOL     OW26741   3.726   0.923   6.687  0.2555  0.5752  0.3734
 8788SOL    HW126742   3.801   0.981   6.670 -1.1452  2.6612  0.9651
 8788SOL    HW226743   3.650   0.979   6.674 -1.2018 -1.3101  0.4854
 8789SOL     OW26744   6.527   6.186   2.104 -0.3214 -0.2415  0.2364
 8789SOL    HW126745   6.600   6.234   2.065  0.3741 -1.2678  0.2478
 8789SOL    HW226746   6.526   6.214   2.195  0.1420 -0.3253  0.2687
 8790SOL     OW26747   4.699   5.475   4.237 -0.0787  0.2299  0.1624
 8790SOL    HW126748   4.629   5.431   4.190  0.2985 -1.8809  1.4656
 8790SOL    HW226749   4.749   5.405   4.278  1.0671  1.8311  1.6688
 8791SOL     OW26750   4.124   2.004   4.548 -0.6302  0.2848 -0.0589
 8791SOL    HW126751   4.206   2.014   4.596 -0.6699  1.3146 -0.1674
 8791SOL    HW226752   4.103   2.093   4.519 -3.3604  0.6130  2.5103
 8792SOL     OW26753   4.760   3.827   0.434  0.0726  0.0014 -0.5852
 8792SOL    HW126754   4.700   3.890   0.395 -1.1152 -0.5747  0.2659
 8792SOL    HW226755   4.709   3.783   0.502  1.0528 -1.4556 -0.7405
 8793SOL     OW26756   6.418   6.598   6.761 -0.2304  0.0285  0.4200
 8793SOL    HW126757   6.487   6.531   6.765 -1.0804 -0.8406  4.1031
 8793SOL    HW226758   6.337   6.548   6.759 -0.8255  1.0023 -0.2070
 8794SOL     OW26759   1.748   6.688   5.576  0.7609  0.5746 -0.2436
 8794SOL    HW126760   1.832   6.733   5.581  0.7999  0.4636  0.1501
 8794SOL    HW226761   1.697   6.725   5.648  1.2005 -0.8288  0.8440
 8795SOL     OW26762   2.805   3.894   2.125  0.2211 -0.0253 -0.8830
 8795SOL    HW126763   2.754   3.813   2.134  2.1022 -1.2772 -0.8333
 8795SOL    HW226764   2.826   3.918   2.215 -1.2047  1.1585 -0.8317
 8796SOL     OW26765   0.757   6.835   6.426 -0.6430 -0.1172  0.4449
 8796SOL    HW126766   0.696   6.836   6.499  0.2887 -1.5380  1.3007
 8796SOL    HW226767   0.708   6.795   6.354 -0.9851 -0.4958  0.8815
 8797SOL     OW26768   1.468   5.939   1.747 -0.1930 -0.3194 -0.0871
 8797SOL    HW126769   1.481   6.016   1.802 -1.6261  0.1654 -0.3724
 8797SOL    HW226770   1.514   5.960   1.666  1.1169 -0.6362  0.5459
 8798SOL     OW26771   6.476   4.477   5.590  0.2512  0.4448 -0.2940
 8798SOL    HW126772   6.396   4.513   5.551  1.4092  3.1235 -0.3587
 8798SOL    HW226773   6.524   4.440   5.516  0.7448  2.2249 -0.9210
 8799SOL     OW26774   2.075   1.868   5.224 -0.0596 -0.0704 -0.2817
 8799SOL    HW126775   2.057   1.880   5.318  0.7413  1.2676 -0.2689
 8799SOL    HW226776   2.012   1.925   5.180  0.1030 -0.0699 -0.5165
 8800SOL     OW26777   1.829   1.196   4.432 -0.3588 -0.2128  0.0233
 8800SOL    HW126778   1.857   1.125   4.489  1.6388 -0.8032 -1.5634
 8800SOL    HW226779   1.909   1.225   4.388 -1.3369  2.1686 -0.3323
 8801SOL     OW26780   4.549   5.715   4.124  1.2276  0.0645 -0.6497
 8801SOL    HW126781   4.523   5.623   4.119  0.0078  0.0975  2.5357
 8801SOL    HW226782   4.499   5.758   4.055 -0.3706 -1.2674 -0.3808
 8802SOL     OW26783   5.175   1.804   3.676  0.3569 -0.6896 -0.1045
 8802SOL    HW126784   5.129   1.763   3.603  0.2607 -1.3658  0.3277
 8802SOL    HW226785   5.144   1.757   3.754  0.8371 -0.3144  0.3224
 8803SOL     OW26786   1.514   0.382   5.014 -0.7517  0.2392  0.9197
 8803SOL    HW126787   1.534   0.316   5.080  1.1289  0.3181  0.4802
 8803SOL    HW226788   1.538   0.465   5.055 -1.8620  0.5403  0.9907
 8804SOL     OW26789   1.247   6.238   1.165 -0.1000 -0.0716 -0.4919
 8804SOL    HW126790   1.187   6.164   1.173 -0.2905 -0.1906 -2.5189
 8804SOL    HW226791   1.199   6.313   1.200 -1.4878 -0.1703 -2.0672
 8805SOL     OW26792   2.368   6.494   0.809  0.2285 -0.4912 -0.2868
 8805SOL    HW126793   2.321   6.559   0.862  2.1990  0.6352  0.1497
 8805SOL    HW226794   2.364   6.413   0.860 -1.5956 -0.5726 -0.4876
 8806SOL     OW26795   1.894   4.316   5.491  0.1702 -0.5085  0.2862
 8806SOL    HW126796   1.880   4.409   5.474 -0.3533 -0.7160 -0.5196
 8806SOL    HW226797   1.815   4.288   5.538 -1.1442 -1.1496 -2.0913
 8807SOL     OW26798   3.470   5.710   1.254  0.5621 -0.0945 -0.0891
 8807SOL    HW126799   3.504   5.795   1.228  0.8410  0.0020  0.5679
 8807SOL    HW226800   3.381   5.728   1.285  0.5634 -0.0713 -0.0983
 8808SOL     OW26801   5.918   3.375   4.913  0.5888 -0.2898  0.4668
 8808SOL    HW126802   5.829   3.346   4.894  0.2975  0.9639 -0.2146
 8808SOL    HW226803   5.964   3.296   4.938  0.1225 -1.5708 -2.3374
 8809SOL     OW26804   5.245   5.364   1.447 -0.2670 -0.4084 -0.6747
 8809SOL    HW126805   5.230   5.365   1.353  1.1286  0.3598 -0.9159
 8809SOL    HW226806   5.283   5.450   1.466 -1.0934 -0.3208  0.6895
 8810SOL     OW26807   4.641   1.489   6.366 -0.5064  0.1184 -0.1416
 8810SOL    HW126808   4.676   1.512   6.280  0.9148  1.4934  0.7468
 8810SOL    HW226809   4.546   1.480   6.352 -0.7633  3.3186 -1.3149
 8811SOL     OW26810   2.621   3.772   5.080 -0.0199  0.1348  0.4502
 8811SOL    HW126811   2.597   3.791   5.171 -0.5665 -1.8847  0.7747
 8811SOL    HW226812   2.538   3.773   5.033  0.1653  0.3778  0.1249
 8812SOL     OW26813   4.493   4.826   5.092 -0.1132 -0.1557  0.0610
 8812SOL    HW126814   4.500   4.916   5.062 -3.1412 -0.2145 -1.1307
 8812SOL    HW226815   4.485   4.832   5.187  0.8226  0.7213  0.0975
 8813SOL     OW26816   0.587   3.543   0.397  0.0314 -0.1507 -0.0225
 8813SOL    HW126817   0.658   3.544   0.462  1.8856 -0.3115 -1.9407
 8813SOL    HW226818   0.527   3.475   0.429 -0.7212  1.7022  2.9957
 8814SOL     OW26819   4.234   0.293   6.747  0.0037  0.3118  0.1586
 8814SOL    HW126820   4.214   0.233   6.818 -0.3034 -0.4409 -0.5429
 8814SOL    HW226821   4.174   0.267   6.676 -0.7164  1.9683  0.1088
 8815SOL     OW26822   4.739   3.048   2.985 -0.1296 -0.0686  0.0227
 8815SOL    HW126823   4.757   3.125   3.039  0.0268 -0.2760  0.2689
 8815SOL    HW226824   4.790   2.978   3.026 -0.8886 -0.4892  0.2716
 8816SOL     OW26825   1.466   2.909   2.739  0.6528  0.4030 -0.3858
 8816SOL    HW126826   1.471   2.927   2.833  0.3482  2.2232 -0.6709
 8816SOL    HW226827   1.527   2.836   2.725  0.8236  0.2099  1.1888
 8817SOL     OW26828   0.778   2.967   1.079  0.0199  0.7156  0.4612
 8817SOL    HW126829   0.867   3.000   1.093  0.2957 -0.6325  2.1110
 8817SOL    HW226830   0.729   2.997   1.155 -0.5965  0.2738  0.2473
 8818SOL     OW26831   5.161   5.855   0.603  0.3247 -0.2428  0.4519
 8818SOL    HW126832   5.254   5.836   0.588  0.2020  0.2157 -1.0753
 8818SOL    HW226833   5.156   5.878   0.695  1.5705 -1.1819  0.7905
 8819SOL     OW26834   5.579   3.140   4.270 -0.0797 -0.2809  0.2386
 8819SOL    HW126835   5.529   3.127   4.190  0.7573 -0.7709 -0.2232
 8819SOL    HW226836   5.659   3.089   4.257 -0.1426 -0.7761  1.5979
 8820SOL     OW26837   3.788   5.523   0.333 -0.2516  0.6604 -0.3223
 8820SOL    HW126838   3.854   5.531   0.265  0.2650  0.2422  0.1252
 8820SOL    HW226839   3.738   5.444   0.309 -0.0416  0.4878 -0.1995
 8821SOL     OW26840   2.301   0.505   6.134 -0.3052 -0.0926  0.6959
 8821SOL    HW126841   2.315   0.412   6.117 -0.2915 -0.1435  0.9742
 8821SOL    HW226842   2.217   0.508   6.179 -0.8904  0.1443 -0.3676
 8822SOL     OW26843   3.855   2.099   3.664  0.3042  0.1551  0.1172
 8822SOL    HW126844   3.823   2.082   3.752  2.5025  0.6322  1.0871
 8822SOL    HW226845   3.797   2.050   3.607 -0.7608 -0.7309  1.8846
 8823SOL     OW26846   4.111   4.373   2.178  0.3930  0.3348  0.5001
 8823SOL    HW126847   4.190   4.427   2.172  0.8164 -0.4437 -2.6587
 8823SOL    HW226848   4.047   4.418   2.123 -0.8653  0.0969  1.7142
 8824SOL     OW26849   5.000   1.843   1.548  0.0613  0.0714  0.4761
 8824SOL    HW126850   5.026   1.853   1.457  1.8900 -1.8206  0.7063
 8824SOL    HW226851   4.985   1.933   1.579  0.1567  0.7899 -1.4548
 8825SOL     OW26852   3.413   4.924   1.674 -0.0370 -0.2520  0.3610
 8825SOL    HW126853   3.418   4.837   1.713  0.7271 -0.4206 -0.0987
 8825SOL    HW226854   3.319   4.944   1.673 -0.2455 -1.1694  0.2682
 8826SOL     OW26855   3.635   3.729   4.085 -0.3695 -0.3532 -0.4150
 8826SOL    HW126856   3.591   3.808   4.115  0.5905 -0.2787  0.9273
 8826SOL    HW226857   3.727   3.756   4.075  0.4056 -1.7145  2.1034
 8827SOL     OW26858   0.986   4.729   3.602  0.1373  0.0430 -0.4377
 8827SOL    HW126859   0.910   4.724   3.660  0.1217  1.1990 -0.3279
 8827SOL    HW226860   0.982   4.818   3.566  1.8562  0.3958  0.1583
 8828SOL     OW26861   3.217   3.963   5.292  0.5101  0.0290  0.1680
 8828SOL    HW126862   3.203   3.876   5.254  2.3511  0.2128 -1.0723
 8828SOL    HW226863   3.129   4.002   5.295 -0.1826 -1.3822 -0.4582
 8829SOL     OW26864   3.472   3.271   5.032  0.1600  0.0492 -0.8270
 8829SOL    HW126865   3.494   3.289   5.124  0.9061  1.9795 -1.3446
 8829SOL    HW226866   3.390   3.319   5.017  1.6019  2.3626 -1.9282
 8830SOL     OW26867   0.133   0.687   4.658 -0.2326 -0.5068  0.6879
 8830SOL    HW126868   0.180   0.617   4.705  0.3830 -0.4222  0.2080
 8830SOL    HW226869   0.167   0.768   4.696 -0.5399 -0.4545  0.8549
 8831SOL     OW26870   3.556   5.869   0.541  0.0749  0.0543  0.0795
 8831SOL    HW126871   3.585   5.855   0.451  0.9574  0.4031  0.3071
 8831SOL    HW226872   3.621   5.928   0.580 -0.5449  0.2835  0.8116
 8832SOL     OW26873   4.736   1.209   3.416  0.3559  0.2976 -0.3055
 8832SOL    HW126874   4.717   1.293   3.457  1.5494  0.8881 -0.9361
 8832SOL    HW226875   4.689   1.212   3.333 -0.6474 -0.1989  0.2246
 8833SOL     OW26876   4.197   6.036   0.862 -0.5861 -0.2748  0.3302
 8833SOL    HW126877   4.173   6.101   0.796 -0.0190  0.5746  0.9400
 8833SOL    HW226878   4.201   6.085   0.944 -1.4601 -1.3487  1.0491
 8834SOL     OW26879   4.036   0.058   1.101  0.8094 -0.3249 -0.3456
 8834SOL    HW126880   3.951   0.034   1.065  0.7471  0.9881 -1.1206
 8834SOL    HW226881   4.030   0.035   1.194 -0.6047  0.2843 -0.2613
 8835SOL     OW26882   1.684   0.646   2.378  0.4102 -0.4784  0.3576
 8835SOL    HW126883   1.762   0.701   2.371 -0.5073  0.8178 -0.1048
 8835SOL    HW226884   1.629   0.690   2.443 -0.3987 -0.7887 -0.1026
 8836SOL     OW26885   5.501   5.323   2.892  0.0485 -0.6996  0.4926
 8836SOL    HW126886   5.561   5.268   2.842 -0.5433 -1.8015  0.9510
 8836SOL    HW226887   5.433   5.348   2.830 -0.5783 -1.8974  0.6557
 8837SOL     OW26888   1.661   4.408   1.484 -0.0076 -0.1116  0.2143
 8837SOL    HW126889   1.709   4.491   1.480  1.2844 -0.8468 -0.1179
 8837SOL    HW226890   1.587   4.420   1.424  2.4926 -0.6071 -3.2815
 8838SOL     OW26891   3.362   6.057   4.196 -0.1025  0.1032  0.9579
 8838SOL    HW126892   3.377   6.111   4.274  3.1650 -0.3798  0.7830
 8838SOL    HW226893   3.377   6.117   4.123  0.8671 -0.3607  0.7598
 8839SOL     OW26894   1.588   0.880   4.811 -0.3721  0.1383  0.0948
 8839SOL    HW126895   1.560   0.956   4.760  1.8900  1.5596  0.8420
 8839SOL    HW226896   1.561   0.900   4.901  1.7138  0.9362  0.5942
 8840SOL     OW26897   3.320   4.905   4.895 -0.1499 -0.5956  0.1170
 8840SOL    HW126898   3.407   4.877   4.866  0.0842 -1.1182  1.2825
 8840SOL    HW226899   3.320   5.000   4.884  0.3402 -0.6578 -0.4634
 8841SOL     OW26900   4.098   2.794   0.195 -0.3298  0.1777 -0.1780
 8841SOL    HW126901   4.042   2.871   0.181 -0.8446 -0.2651 -0.5753
 8841SOL    HW226902   4.065   2.729   0.134  0.0384 -0.4032  0.2350
 8842SOL     OW26903   2.670   4.025   3.808 -0.4482 -0.1463 -0.7116
 8842SOL    HW126904   2.653   4.030   3.714  0.7512 -1.6310 -1.0345
 8842SOL    HW226905   2.634   3.941   3.835  0.1505 -0.2115 -0.0751
 8843SOL     OW26906   3.139   1.360   0.799 -0.3169 -0.3725  0.0512
 8843SOL    HW126907   3.193   1.439   0.801 -0.9256  0.0606 -0.3490
 8843SOL    HW226908   3.077   1.371   0.871 -0.1157 -0.6889  0.2708
 8844SOL     OW26909   1.084   6.059   6.249 -0.3027 -0.3445  0.4516
 8844SOL    HW126910   1.154   6.091   6.306  0.3481 -1.8581  0.5367
 8844SOL    HW226911   1.064   6.133   6.193  2.7494 -0.4127 -0.9231
 8845SOL     OW26912   2.329   5.055   1.832 -0.2603 -0.0408 -0.1930
 8845SOL    HW126913   2.258   5.025   1.888 -1.6947  1.7718 -0.9322
 8845SOL    HW226914   2.399   5.079   1.893 -0.3217 -1.6756  0.5606
 8846SOL     OW26915   5.686   5.271   0.939 -0.2910 -0.4373 -0.2654
 8846SOL    HW126916   5.738   5.191   0.952 -0.4906 -0.5902 -0.4190
 8846SOL    HW226917   5.595   5.241   0.938 -0.4080 -0.1273  0.3446
 8847SOL     OW26918   4.564   5.674   6.508 -0.3462  0.0476  0.0506
 8847SOL    HW126919   4.499   5.743   6.523 -1.1901 -0.6874 -0.0995
 8847SOL    HW226920   4.532   5.600   6.559  1.3520  0.2166  1.4372
 8848SOL     OW26921   2.603   1.901   2.380 -0.3294 -0.6066 -0.0348
 8848SOL    HW126922   2.672   1.910   2.445  0.5869 -0.8804 -0.9386
 8848SOL    HW226923   2.523   1.927   2.425  0.0513 -2.0630  1.5967
 8849SOL     OW26924   2.028   5.630   1.911 -0.5218 -0.1476 -0.2457
 8849SOL    HW126925   2.096   5.685   1.872 -0.7140 -0.5357 -1.1721
 8849SOL    HW226926   2.075   5.568   1.967 -0.0325 -0.7955 -1.3324
 8850SOL     OW26927   3.005   1.618   2.094  0.0015 -0.1370 -0.1034
 8850SOL    HW126928   3.049   1.664   2.022 -1.1516 -1.0430 -1.4397
 8850SOL    HW226929   3.056   1.538   2.106 -1.0847 -1.0749 -1.4938
 8851SOL     OW26930   0.437   0.911   3.456 -0.9927 -0.0146  0.3877
 8851SOL    HW126931   0.472   0.915   3.545  0.7162  2.4621 -0.3034
 8851SOL    HW226932   0.439   1.001   3.425  1.0817 -1.0594 -3.0927
 8852SOL     OW26933   4.271   6.301   2.447 -0.4908 -0.8656 -0.1710
 8852SOL    HW126934   4.339   6.296   2.380 -0.1011  0.6571  0.0682
 8852SOL    HW226935   4.315   6.273   2.527 -0.5163 -1.1314 -0.2473
 8853SOL     OW26936   3.134   1.155   0.142 -0.1951 -0.1823 -0.1300
 8853SOL    HW126937   3.143   1.247   0.166  3.8802 -0.5886  0.5735
 8853SOL    HW226938   3.144   1.154   0.046  2.7816  0.0058  0.0879
 8854SOL     OW26939   0.324   1.182   1.071 -0.2162 -0.1225 -0.1604
 8854SOL    HW126940   0.230   1.167   1.080  0.0390 -2.2229 -0.4340
 8854SOL    HW226941   0.339   1.181   0.977  0.2188 -0.9300 -0.0909
 8855SOL     OW26942   1.138   6.624   6.628  0.4384 -0.2160  0.2243
 8855SOL    HW126943   1.188   6.563   6.574  0.7654 -0.4597  0.7958
 8855SOL    HW226944   1.074   6.663   6.567  1.0543 -0.1917 -0.4225
 8856SOL     OW26945   5.297   5.660   2.973  0.4170  0.7182 -0.2848
 8856SOL    HW126946   5.384   5.652   3.013  0.1748 -1.7076 -0.1175
 8856SOL    HW226947   5.241   5.602   3.024 -0.9068  0.9019 -1.4707
 8857SOL     OW26948   3.637   0.625   2.723 -0.1776 -0.7009 -0.3683
 8857SOL    HW126949   3.600   0.604   2.638  0.9892  0.4318 -1.2014
 8857SOL    HW226950   3.571   0.595   2.786 -2.0717  0.3807 -1.7264
 8858SOL     OW26951   3.981   5.207   5.188  0.2116 -0.0331 -0.2512
 8858SOL    HW126952   4.020   5.151   5.255  0.7986  0.4078 -0.2196
 8858SOL    HW226953   3.891   5.175   5.179  0.3513 -0.5642  0.2228
 8859SOL     OW26954   5.691   1.569   0.145 -0.3954  0.3166 -0.2682
 8859SOL    HW126955   5.669   1.514   0.070  1.3286  1.4772 -1.7227
 8859SOL    HW226956   5.745   1.514   0.201  1.2589  0.4369 -1.6691
 8860SOL     OW26957   4.789   2.101   5.903  0.6879 -0.2009 -0.1493
 8860SOL    HW126958   4.772   2.195   5.910  0.9022 -0.1322 -0.4857
 8860SOL    HW226959   4.723   2.060   5.959 -1.3296 -0.0122 -2.2344
 8861SOL     OW26960   5.039   1.157   4.265  0.1910  0.4783 -0.5626
 8861SOL    HW126961   5.118   1.210   4.260  0.8934 -0.4068  0.6542
 8861SOL    HW226962   5.070   1.068   4.281 -1.0440  0.1962  0.5042
 8862SOL     OW26963   5.295   0.030   5.990 -0.0976  0.4050  1.0650
 8862SOL    HW126964   5.354   0.031   6.065 -0.0795  0.4812  1.0499
 8862SOL    HW226965   5.275   0.122   5.975  0.7476  0.4789  0.3043
 8863SOL     OW26966   1.287   0.186   6.568 -0.0099  0.3842 -0.1981
 8863SOL    HW126967   1.223   0.154   6.505 -0.1587  0.1732  0.0560
 8863SOL    HW226968   1.264   0.277   6.582 -0.5540  0.1832  0.2508
 8864SOL     OW26969   6.172   3.302   6.275  0.3668 -0.5334  0.7853
 8864SOL    HW126970   6.162   3.310   6.180 -1.3823 -1.5213  0.8467
 8864SOL    HW226971   6.210   3.215   6.288  1.6236  0.0260  0.9588
 8865SOL     OW26972   1.323   1.242   2.304 -0.0371  0.0518  0.2315
 8865SOL    HW126973   1.312   1.178   2.374  1.3158  0.7625  1.1394
 8865SOL    HW226974   1.417   1.261   2.304  0.2358 -0.8195 -2.5897
 8866SOL     OW26975   4.205   6.530   0.653  0.1397 -0.0725 -0.3560
 8866SOL    HW126976   4.153   6.450   0.657 -0.6370  0.4489  2.4399
 8866SOL    HW226977   4.141   6.600   0.643  0.7978  0.2765 -2.5502
 8867SOL     OW26978   3.681   3.700   1.339  0.1426 -0.0464  0.5362
 8867SOL    HW126979   3.611   3.760   1.364 -1.1620 -1.2597 -0.1210
 8867SOL    HW226980   3.758   3.734   1.385 -0.4974  2.1800  0.1239
 8868SOL     OW26981   1.290   1.222   5.710 -0.5036  0.3090  0.0864
 8868SOL    HW126982   1.207   1.177   5.723 -1.1211  1.3451 -0.1769
 8868SOL    HW226983   1.299   1.229   5.614  0.7284 -1.2940  0.0401
 8869SOL     OW26984   4.752   0.491   0.689 -0.2051  0.3411 -0.7908
 8869SOL    HW126985   4.761   0.570   0.636  1.3635  1.0882  0.5232
 8869SOL    HW226986   4.797   0.424   0.638 -0.8631  0.4449 -1.5400
 8870SOL     OW26987   0.220   0.336   3.323  0.6152 -0.2235 -0.0058
 8870SOL    HW126988   0.207   0.419   3.277  1.9673  0.0961  0.1445
 8870SOL    HW226989   0.132   0.299   3.330 -0.1916  1.6726  0.8072
 8871SOL     OW26990   2.114   3.772   1.751  0.4997 -0.1137 -0.1462
 8871SOL    HW126991   2.043   3.831   1.727  0.5744 -0.2906 -0.8043
 8871SOL    HW226992   2.086   3.685   1.721  0.8638 -0.2324 -0.1596
 8872SOL     OW26993   6.797   6.169   6.124  0.4061 -0.1827  0.4239
 8872SOL    HW126994   6.808   6.262   6.143  1.6014 -0.0191 -0.9312
 8872SOL    HW226995   6.867   6.126   6.173  0.6420 -0.2288  0.0507
 8873SOL     OW26996   5.867   4.842   3.848 -0.3816  0.2476  0.1601
 8873SOL    HW126997   5.928   4.776   3.816  0.0953  0.4257  0.6897
 8873SOL    HW226998   5.882   4.918   3.792 -1.2317 -0.2211 -0.7284
 8874SOL     OW26999   6.192   6.488   2.353 -0.0715  0.3452 -0.2946
 8874SOL    HW127000   6.127   6.497   2.284 -1.1155  0.5542  0.6920
 8874SOL    HW227001   6.200   6.393   2.366 -1.5421  0.3423  0.8089
 8875SOL     OW27002   3.774   3.233   0.320 -0.6727  0.6132  0.0779
 8875SOL    HW127003   3.775   3.141   0.347 -2.2767  0.5401 -0.0014
 8875SOL    HW227004   3.833   3.276   0.382 -1.0908 -0.2254  1.1061
 8876SOL     OW27005   2.553   2.842   6.048 -0.0709  0.1609 -0.1048
 8876SOL    HW127006   2.569   2.915   6.107 -0.0270  0.0201  0.0596
 8876SOL    HW227007   2.462   2.818   6.064  0.0436 -0.1058  0.1663
 8877SOL     OW27008   0.776   4.473   0.093  0.8413 -0.4212  0.5989
 8877SOL    HW127009   0.853   4.470   0.149  2.7193 -0.6372 -1.8229
 8877SOL    HW227010   0.782   4.558   0.049  1.9237 -1.9073 -2.4037
 8878SOL     OW27011   6.722   0.717   2.051 -0.3127  0.5532  0.0757
 8878SOL    HW127012   6.661   0.661   2.100 -1.3411  1.4890 -0.1018
 8878SOL    HW227013   6.710   0.804   2.088 -0.5329  1.1286 -1.2788
 8879SOL     OW27014   4.936   0.356   6.157  0.3958  0.2272  0.2232
 8879SOL    HW127015   5.031   0.369   6.160  0.2342  1.5664  0.5088
 8879SOL    HW227016   4.915   0.355   6.064  0.6478  0.3151  0.1649
 8880SOL     OW27017   5.843   3.513   1.255 -0.1820 -0.2225 -0.0520
 8880SOL    HW127018   5.918   3.569   1.273 -0.6778  0.7622 -0.9116
 8880SOL    HW227019   5.804   3.496   1.340 -0.7753  1.8590  0.1556
 8881SOL     OW27020   4.361   0.438   5.169  0.3427 -0.2524 -0.0709
 8881SOL    HW127021   4.351   0.522   5.125  0.8970  0.7045  1.5483
 8881SOL    HW227022   4.292   0.383   5.131  1.3565  0.1664 -2.7692
 8882SOL     OW27023   2.942   1.668   1.636  0.2467 -0.5087  0.0136
 8882SOL    HW127024   2.970   1.744   1.686  0.0392 -1.2629  1.3087
 8882SOL    HW227025   2.939   1.699   1.545  0.2582  0.9878  0.4992
 8883SOL     OW27026   5.152   4.241   1.294  0.3419 -0.0121 -0.2145
 8883SOL    HW127027   5.106   4.164   1.328  0.7410  0.2666  1.0079
 8883SOL    HW227028   5.217   4.206   1.233  0.3884 -0.6371  0.1864
 8884SOL     OW27029   3.404   6.587   5.859  0.2387 -0.1095 -0.4968
 8884SOL    HW127030   3.423   6.641   5.782 -0.5705  0.3650 -0.3709
 8884SOL    HW227031   3.321   6.544   5.840  1.0091 -1.5633 -0.7093
 8885SOL     OW27032   1.178   4.962   3.724  0.0399  0.5326 -0.2254
 8885SOL    HW127033   1.255   4.934   3.674 -1.5335 -2.3828 -1.2446
 8885SOL    HW227034   1.108   4.967   3.659 -0.8855  2.2402  0.8312
 8886SOL     OW27035   1.560   1.452   4.361  0.3070  0.0780 -0.2862
 8886SOL    HW127036   1.653   1.471   4.363  0.5934 -1.1255 -0.9956
 8886SOL    HW227037   1.538   1.450   4.267 -0.4941  0.6274 -0.1232
 8887SOL     OW27038   5.726   6.411   6.582 -0.6717 -0.0943 -0.3748
 8887SOL    HW127039   5.695   6.347   6.646 -1.0090 -0.3661 -0.8069
 8887SOL    HW227040   5.649   6.432   6.529 -1.0573  2.0385  0.8726
 8888SOL     OW27041   5.174   2.836   3.427 -0.3252  0.3543 -0.0698
 8888SOL    HW127042   5.258   2.880   3.414  0.3224 -0.9872 -0.6571
 8888SOL    HW227043   5.172   2.768   3.360 -1.7420  0.1395  0.1616
 8889SOL     OW27044   2.835   2.346   2.010 -0.6265  0.0202  0.8066
 8889SOL    HW127045   2.841   2.405   2.085  0.4265  0.4101  0.4327
 8889SOL    HW227046   2.869   2.397   1.937  0.0299 -0.9524  0.4143
 8890SOL     OW27047   1.145   3.283   0.562 -0.1602 -0.4941  0.2408
 8890SOL    HW127048   1.143   3.236   0.479 -2.4387  0.0520 -0.0842
 8890SOL    HW227049   1.109   3.222   0.626 -5.4218  1.1587 -0.5830
 8891SOL     OW27050   1.299   6.678   2.067 -0.1121 -0.3077 -0.3132
 8891SOL    HW127051   1.346   6.619   2.008 -1.3680  0.3182 -2.0555
 8891SOL    HW227052   1.211   6.640   2.073  0.5815 -1.6484  3.1343
 8892SOL     OW27053   0.450   6.208   5.171  0.4190  0.1876  0.0567
 8892SOL    HW127054   0.479   6.296   5.144  1.0815 -0.5489 -1.7351
 8892SOL    HW227055   0.407   6.223   5.256 -0.0062  2.3258 -0.4643
 8893SOL     OW27056   6.207   5.576   6.318  0.0744 -0.2307 -0.5954
 8893SOL    HW127057   6.199   5.537   6.404 -1.3053 -0.9189 -0.9951
 8893SOL    HW227058   6.280   5.530   6.276  1.6922  1.0811  0.6544
 8894SOL     OW27059   4.622   2.166   5.571 -0.3186 -0.0218 -0.2223
 8894SOL    HW127060   4.564   2.133   5.639  0.5845 -0.4832  0.3557
 8894SOL    HW227061   4.686   2.096   5.559  0.1460  0.4917 -0.8014
 8895SOL     OW27062   0.830   6.388   3.954 -0.4994  0.5990  0.4093
 8895SOL    HW127063   0.798   6.395   4.043  0.5131 -0.5036  0.8851
 8895SOL    HW227064   0.909   6.442   3.952 -3.0062  4.6254 -1.1821
 8896SOL     OW27065   0.626   6.024   2.432  0.5268  0.9431 -0.2756
 8896SOL    HW127066   0.677   5.944   2.422 -0.0325  0.4998  0.3276
 8896SOL    HW227067   0.536   5.998   2.412  0.2053  1.2201  0.7530
 8897SOL     OW27068   1.003   0.010   5.548  0.2050  0.5147 -0.1715
 8897SOL    HW127069   1.003  -0.051   5.622 -0.7457 -1.9611 -2.0640
 8897SOL    HW227070   1.076  -0.020   5.493 -1.6569 -0.5095 -2.2460
 8898SOL     OW27071   5.410   4.047   6.778 -0.1008  0.1018  0.5323
 8898SOL    HW127072   5.505   4.047   6.788  0.1502  0.5772 -1.4419
 8898SOL    HW227073   5.393   3.980   6.712 -1.0529  0.6211  0.2250
 8899SOL     OW27074   6.403   2.212   4.983 -0.0876 -0.7072 -0.3135
 8899SOL    HW127075   6.445   2.292   4.954 -0.3799 -1.0157 -1.6535
 8899SOL    HW227076   6.335   2.241   5.044  1.9177 -0.1958  1.8235
 8900SOL     OW27077   2.978   2.294   4.471  0.1443  0.1716  0.2404
 8900SOL    HW127078   2.991   2.207   4.434  0.6904  0.6964 -0.8431
 8900SOL    HW227079   2.898   2.287   4.522 -0.7730 -0.5376 -1.2438
 8901SOL     OW27080   2.880   1.889   6.687  0.2292 -0.0765 -0.7906
 8901SOL    HW127081   2.864   1.942   6.609  0.6105 -0.5707 -1.2167
 8901SOL    HW227082   2.951   1.830   6.661 -0.3634 -0.9762 -0.4165
 8902SOL     OW27083   1.869   2.992   5.261  0.2445  0.2358  0.1084
 8902SOL    HW127084   1.831   2.912   5.224 -0.4479 -0.7077  2.6246
 8902SOL    HW227085   1.963   2.982   5.247  0.1448 -0.8944  0.0825
 8903SOL     OW27086   6.804   0.923   2.316 -0.5961  0.3419  0.0061
 8903SOL    HW127087   6.757   0.853   2.360 -0.6814  1.5202  1.9202
 8903SOL    HW227088   6.895   0.892   2.313 -0.7033 -0.0297  0.4456
 8904SOL     OW27089   3.214   2.812   5.693 -0.4074  0.0763  0.3351
 8904SOL    HW127090   3.155   2.737   5.682 -0.9857  0.2515  1.9337
 8904SOL    HW227091   3.160   2.888   5.672  0.2875  0.0714 -1.6707
 8905SOL     OW27092   3.441   2.794   1.842  0.0832  0.3369 -0.9226
 8905SOL    HW127093   3.506   2.779   1.911 -0.8375 -0.7643 -0.2537
 8905SOL    HW227094   3.391   2.870   1.872 -0.6901 -0.4877 -0.0425
 8906SOL     OW27095   0.453   4.064   4.925  0.0796  0.4118  0.0189
 8906SOL    HW127096   0.359   4.083   4.935  0.0869  1.1790 -1.1609
 8906SOL    HW227097   0.456   3.971   4.905 -0.3201  0.0935  1.3192
 8907SOL     OW27098   3.805   0.240   5.071 -0.2318 -0.4036  0.7020
 8907SOL    HW127099   3.897   0.249   5.047  0.2987 -1.7720  2.0613
 8907SOL    HW227100   3.792   0.301   5.143 -1.0742  1.5579 -0.9962
 8908SOL     OW27101   1.686   3.738   4.475  0.1294 -0.5173 -0.1925
 8908SOL    HW127102   1.639   3.654   4.474 -1.8711  0.5426 -0.2765
 8908SOL    HW227103   1.760   3.723   4.534 -0.9761 -1.9436  0.9145
 8909SOL     OW27104   5.191   1.248   0.980 -0.0549 -0.1786 -0.2414
 8909SOL    HW127105   5.149   1.165   0.960 -0.1333 -0.5409  1.2646
 8909SOL    HW227106   5.284   1.226   0.989 -0.0077 -0.0142 -0.3355
 8910SOL     OW27107   5.390   6.519   1.819  0.3073  0.1846  0.2083
 8910SOL    HW127108   5.361   6.442   1.868 -0.0313  1.9506  2.9655
 8910SOL    HW227109   5.432   6.483   1.741 -1.7165 -2.7197  0.2854
 8911SOL     OW27110   2.370   6.716   5.345 -0.1210  0.0171  0.2548
 8911SOL    HW127111   2.364   6.664   5.265  1.7701 -1.6541  1.0901
 8911SOL    HW227112   2.363   6.807   5.316 -1.3696 -0.6039 -1.5413
 8912SOL     OW27113   5.750   5.441   5.962  0.6652 -0.2523 -0.1030
 8912SOL    HW127114   5.698   5.442   5.881  0.8435 -0.1647 -0.2180
 8912SOL    HW227115   5.740   5.529   5.998  0.9572 -0.1506 -0.2691
 8913SOL     OW27116   6.825   5.811   5.997 -0.1452  0.2133  0.0263
 8913SOL    HW127117   6.798   5.844   5.911 -1.6094 -1.0699 -0.0528
 8913SOL    HW227118   6.841   5.717   5.982  2.6216  0.5377  0.5089
 8914SOL     OW27119   3.202   4.028   2.148  0.2493  0.2450  0.2645
 8914SOL    HW127120   3.163   4.098   2.200 -0.1020 -0.0294  0.3706
 8914SOL    HW227121   3.285   4.065   2.117 -1.1789  1.7902 -2.0673
 8915SOL     OW27122   6.754   5.643   1.493 -0.1323 -0.3805 -0.1666
 8915SOL    HW127123   6.708   5.721   1.462 -1.3268 -1.7798 -2.1283
 8915SOL    HW227124   6.841   5.648   1.452 -1.3185 -1.6485 -3.0871
 8916SOL     OW27125   0.773   3.561   0.574 -0.3200 -0.0261  0.0044
 8916SOL    HW127126   0.814   3.532   0.656  0.6265 -1.6035 -0.9821
 8916SOL    HW227127   0.842   3.554   0.509 -1.5133 -0.4089 -1.2580
 8917SOL     OW27128   5.074   6.519   5.999 -0.3233 -0.7434 -0.0557
 8917SOL    HW127129   5.167   6.526   5.978 -0.5067 -1.1536 -1.0311
 8917SOL    HW227130   5.053   6.603   6.042  0.6789 -0.9943  0.9698
 8918SOL     OW27131   0.634   5.577   3.692  0.4149  0.2232 -0.2876
 8918SOL    HW127132   0.603   5.668   3.694  0.2097  0.3531 -3.7305
 8918SOL    HW227133   0.556   5.525   3.713  0.6057  0.7522  2.0348
 8919SOL     OW27134   2.108   1.904   6.085  0.0839  0.6729  0.3795
 8919SOL    HW127135   2.153   1.922   6.168  0.7773  1.8509 -0.2196
 8919SOL    HW227136   2.019   1.934   6.100  0.5181  2.0638  0.3259
 8920SOL     OW27137   1.937   0.534   1.884 -0.0070 -0.1140  0.2646
 8920SOL    HW127138   1.861   0.477   1.866 -0.5581 -0.1476  2.4026
 8920SOL    HW227139   1.915   0.577   1.967  0.8787  2.4523 -0.7474
 8921SOL     OW27140   2.096   0.721   3.404  0.0897 -0.0117 -0.0777
 8921SOL    HW127141   2.096   0.638   3.451  1.0332 -0.9856 -1.6840
 8921SOL    HW227142   2.088   0.696   3.312 -1.4062  1.7930 -0.4923
 8922SOL     OW27143   0.098   4.299   5.981 -0.7564  0.5676  0.2479
 8922SOL    HW127144   0.173   4.348   6.015 -0.8675  0.9931 -0.1201
 8922SOL    HW227145   0.137   4.235   5.921 -0.6746  0.6713  0.1907
 8923SOL     OW27146   3.582   2.650   4.083  0.3721 -0.2653  0.0365
 8923SOL    HW127147   3.647   2.716   4.062 -0.3210  0.6614  0.7148
 8923SOL    HW227148   3.498   2.695   4.072 -0.1081 -0.9811  0.6814
 8924SOL     OW27149   5.457   4.335   0.361 -0.0232  0.0524 -0.2913
 8924SOL    HW127150   5.412   4.323   0.444  1.2708 -0.3082  0.3894
 8924SOL    HW227151   5.426   4.419   0.328 -0.4451  0.2639  0.6293
 8925SOL     OW27152   6.791   0.003   0.250 -0.3527 -0.2269 -0.2237
 8925SOL    HW127153   6.804   0.095   0.226 -0.3817  0.7193  2.9267
 8925SOL    HW227154   6.722  -0.028   0.191 -0.8036  1.9608 -0.9346
 8926SOL     OW27155   2.886   3.463   5.094 -0.2629 -0.0198  0.2445
 8926SOL    HW127156   2.920   3.376   5.119 -1.0454 -0.1158  1.0192
 8926SOL    HW227157   2.961   3.506   5.052  0.3998 -0.7449  0.6411
 8927SOL     OW27158   5.827   1.890   5.402  0.2480 -0.0175 -0.3261
 8927SOL    HW127159   5.777   1.968   5.426  0.0335  0.6730 -2.7916
 8927SOL    HW227160   5.777   1.850   5.331  2.2201 -0.3252 -1.6215
 8928SOL     OW27161   2.605   1.377   0.904  0.2402 -0.0142  0.3525
 8928SOL    HW127162   2.622   1.330   0.985  0.6248 -1.7430 -0.6672
 8928SOL    HW227163   2.654   1.328   0.837  0.4753  1.7272 -0.8214
 8929SOL     OW27164   0.616   3.031   5.009  0.4192  0.3507  0.0157
 8929SOL    HW127165   0.526   3.051   5.036  0.0273 -0.9808 -0.2332
 8929SOL    HW227166   0.642   3.106   4.956 -0.7193  0.5432 -0.3044
 8930SOL     OW27167   3.729   3.359   2.936 -0.2513  0.3752 -0.1478
 8930SOL    HW127168   3.764   3.341   3.023 -1.3584  1.3202  0.5161
 8930SOL    HW227169   3.743   3.453   2.923 -0.7551  0.3845 -0.6835
 8931SOL     OW27170   1.702   2.409   0.607 -0.1239 -0.6660 -0.3536
 8931SOL    HW127171   1.733   2.469   0.675 -0.6430 -0.0519 -0.6550
 8931SOL    HW227172   1.753   2.433   0.529 -0.7579 -0.2142 -0.6307
 8932SOL     OW27173   4.452   4.160   1.042  0.3021 -0.3691  0.1701
 8932SOL    HW127174   4.544   4.133   1.034  0.0704 -0.8198 -1.1444
 8932SOL    HW227175   4.410   4.127   0.963 -1.3882 -1.6716  1.5319
 8933SOL     OW27176   5.428   0.365   2.318  0.2656  0.6202 -0.5532
 8933SOL    HW127177   5.516   0.382   2.351 -0.0494  2.8686 -0.6785
 8933SOL    HW227178   5.439   0.357   2.223  0.6784 -2.1682 -0.3481
 8934SOL     OW27179   1.527   2.919   0.319 -0.3697 -0.4816  0.0833
 8934SOL    HW127180   1.568   2.895   0.236 -2.4921 -0.8247 -0.9455
 8934SOL    HW227181   1.541   2.843   0.376  0.5963 -0.4732 -0.1219
 8935SOL     OW27182   1.905   0.286   6.462  0.7633  0.5308 -0.3461
 8935SOL    HW127183   1.863   0.207   6.497  0.8910  0.6065 -0.0224
 8935SOL    HW227184   1.832   0.337   6.427  0.5521  0.7555  0.4001
 8936SOL     OW27185   1.296   1.855   1.683 -0.6767 -0.3943 -0.1454
 8936SOL    HW127186   1.372   1.899   1.645 -1.0321 -0.7229 -1.2540
 8936SOL    HW227187   1.317   1.850   1.777  0.5951 -0.3261 -0.3998
 8937SOL     OW27188   2.784   2.083   5.070  0.0617 -0.0007 -0.8853
 8937SOL    HW127189   2.729   2.055   5.143  0.1419  0.0800 -0.7935
 8937SOL    HW227190   2.821   2.002   5.036  1.7463  0.1153  0.5335
 8938SOL     OW27191   3.130   4.381   4.702 -0.4459  0.4440  0.1109
 8938SOL    HW127192   3.111   4.467   4.665  0.6861 -0.2852 -2.4060
 8938SOL    HW227193   3.122   4.321   4.628 -0.8556 -1.5985  1.7115
 8939SOL     OW27194   2.586   6.682   2.259 -0.3462  0.2480  0.5563
 8939SOL    HW127195   2.612   6.770   2.230 -0.9140  0.6697  1.2883
 8939SOL    HW227196   2.668   6.632   2.259 -0.3873  0.0184 -2.3309
 8940SOL     OW27197   4.949   0.795   4.061 -0.0514  0.2836  0.0281
 8940SOL    HW127198   4.877   0.736   4.084 -0.5057  0.8215  0.0031
 8940SOL    HW227199   4.908   0.863   4.007  0.4873  0.5566 -0.0428
 8941SOL     OW27200   0.247   1.731   2.345 -0.8353  0.8248 -0.3594
 8941SOL    HW127201   0.170   1.761   2.393 -0.4883  2.5363 -0.8186
 8941SOL    HW227202   0.215   1.714   2.257 -1.1788 -0.9413  0.0725
 8942SOL     OW27203   4.022   3.843   2.852  0.4311 -0.1995  0.0920
 8942SOL    HW127204   3.961   3.874   2.919 -0.0576  0.8326 -0.8186
 8942SOL    HW227205   4.102   3.893   2.868 -0.0419  0.8779 -0.7587
 8943SOL     OW27206   4.686   4.732   3.918  0.5058  0.5682 -0.1869
 8943SOL    HW127207   4.606   4.692   3.952  0.4989  1.4424  0.9028
 8943SOL    HW227208   4.658   4.782   3.842  0.6259 -1.9652 -2.0142
 8944SOL     OW27209   1.440   5.700   2.930 -0.3220 -0.1456 -0.1878
 8944SOL    HW127210   1.522   5.674   2.971 -1.1260  0.2112  1.7198
 8944SOL    HW227211   1.437   5.648   2.849  1.4631 -0.6322  0.0219
 8945SOL     OW27212   3.705   0.110   3.130  0.2537  1.0338  1.1256
 8945SOL    HW127213   3.695   0.057   3.051  0.8583  0.8909  1.1421
 8945SOL    HW227214   3.786   0.158   3.117 -0.2566  1.9141  1.1437
 8946SOL     OW27215   1.742   5.961   2.555  0.2838  0.3749  0.1341
 8946SOL    HW127216   1.826   6.004   2.537 -0.0223  1.4121  1.1010
 8946SOL    HW227217   1.703   5.947   2.469  1.7217 -0.7325 -0.3867
 8947SOL     OW27218   4.188   0.978   6.354  0.1735 -0.7493 -0.1485
 8947SOL    HW127219   4.156   0.969   6.264 -2.3940  2.6306  0.2655
 8947SOL    HW227220   4.113   0.954   6.409  0.5003  0.7577  1.0071
 8948SOL     OW27221   4.530   6.718   0.820 -0.1861  0.5991  0.2009
 8948SOL    HW127222   4.485   6.716   0.736  0.9713  0.5244 -0.4359
 8948SOL    HW227223   4.460   6.727   0.885 -1.4487 -2.5632 -0.5121
 8949SOL     OW27224   4.690   1.216   5.364 -0.4138 -0.3849 -0.1577
 8949SOL    HW127225   4.733   1.239   5.446 -0.6007 -0.2112 -0.1076
 8949SOL    HW227226   4.709   1.123   5.352 -0.2362 -0.3676 -0.0086
 8950SOL     OW27227   6.451   0.739   0.268  0.1784 -0.6825  0.1161
 8950SOL    HW127228   6.498   0.772   0.344  0.9365 -0.0047 -0.6344
 8950SOL    HW227229   6.372   0.794   0.263  0.3976 -0.3657  0.1030
 8951SOL     OW27230   3.661   6.068   5.514 -0.0548 -0.0250 -0.4637
 8951SOL    HW127231   3.687   6.055   5.605 -1.2476  1.5977  0.1528
 8951SOL    HW227232   3.711   6.002   5.466  1.5963 -0.0759  1.1859
 8952SOL     OW27233   3.142   4.481   6.685 -0.0854  0.5309 -0.1359
 8952SOL    HW127234   3.080   4.535   6.636  0.3666  0.1305 -1.1846
 8952SOL    HW227235   3.092   4.405   6.714  0.1054 -0.3177 -1.8775
 8953SOL     OW27236   5.078   5.295   3.465  0.0585  0.3380 -0.0598
 8953SOL    HW127237   5.057   5.280   3.373  0.2912 -0.5409  0.0237
 8953SOL    HW227238   5.030   5.375   3.488 -1.9423 -0.7301 -0.2976
 8954SOL     OW27239   4.768   3.161   3.687  0.6498  0.0308  0.5968
 8954SOL    HW127240   4.854   3.128   3.712 -0.6888 -3.6280  0.9968
 8954SOL    HW227241   4.759   3.137   3.594 -0.3919 -0.8278  0.9007
 8955SOL     OW27242   6.775   0.895   2.680 -0.9145 -0.6359  0.1760
 8955SOL    HW127243   6.707   0.875   2.745 -2.1311  1.8072 -0.2149
 8955SOL    HW227244   6.726   0.922   2.603  0.4856  1.1995 -0.1237
 8956SOL     OW27245   3.097   1.831   0.808 -0.6615  0.2227  0.0056
 8956SOL    HW127246   3.070   1.895   0.873  1.9932  2.0724 -0.5618
 8956SOL    HW227247   3.122   1.883   0.731  2.2145 -1.3341 -0.2622
 8957SOL     OW27248   6.754   1.237   4.252  0.0921  0.6255  0.0440
 8957SOL    HW127249   6.766   1.332   4.256 -0.4530  0.7190 -0.4051
 8957SOL    HW227250   6.790   1.213   4.167 -0.2464  0.5060 -0.0666
 8958SOL     OW27251   3.395   5.161   4.776  0.0312  0.6914  0.2042
 8958SOL    HW127252   3.485   5.134   4.794 -0.4820 -1.5147 -0.2042
 8958SOL    HW227253   3.377   5.127   4.688 -1.3868  0.5719  0.5203
 8959SOL     OW27254   5.066   6.096   2.288 -0.1506  0.1663 -0.6711
 8959SOL    HW127255   4.975   6.078   2.314 -0.0479  0.7143  0.1084
 8959SOL    HW227256   5.117   6.029   2.332 -0.2393 -0.6602 -1.7795
 8960SOL     OW27257   6.669   5.167   0.119 -0.4169 -0.3082  0.5438
 8960SOL    HW127258   6.673   5.199   0.029 -1.6445  0.5535  0.7597
 8960SOL    HW227259   6.711   5.236   0.171 -1.3371  0.0636  0.8108
 8961SOL     OW27260   2.565   2.087   4.094 -0.2321  0.1594  0.5862
 8961SOL    HW127261   2.547   2.043   4.011 -2.2182  0.1320  0.9910
 8961SOL    HW227262   2.479   2.109   4.129  0.6389  2.1373  1.6127
 8962SOL     OW27263   1.425   6.185   0.671 -0.4557  0.3678 -0.3499
 8962SOL    HW127264   1.363   6.233   0.726  1.5079  1.6719  0.8501
 8962SOL    HW227265   1.468   6.125   0.730 -1.1812 -1.2245 -1.3723
 8963SOL     OW27266   2.122   5.904   6.683 -0.3748 -0.1414  0.1213
 8963SOL    HW127267   2.188   5.972   6.669 -1.0412  0.4467 -0.2406
 8963SOL    HW227268   2.048   5.950   6.723 -2.2088  0.1494 -3.2161
 8964SOL     OW27269   1.594   6.797   5.100 -0.2066 -0.0361  0.2168
 8964SOL    HW127270   1.594   6.893   5.107 -0.9896 -0.0118 -0.0199
 8964SOL    HW227271   1.587   6.767   5.191  2.5980  0.0664  0.5481
 8965SOL     OW27272   5.390   3.802   6.611 -0.0299 -0.1641 -0.0112
 8965SOL    HW127273   5.412   3.710   6.630  1.1144 -0.0232 -0.5747
 8965SOL    HW227274   5.471   3.839   6.576 -0.8674  0.7126 -1.0768
 8966SOL     OW27275   6.528   1.855   0.298  0.2747 -0.2413  0.2343
 8966SOL    HW127276   6.607   1.838   0.248  0.6661  0.4659  0.6045
 8966SOL    HW227277   6.556   1.853   0.389 -0.3796 -1.2356  0.4251
 8967SOL     OW27278   3.379   6.673   2.309  0.1303 -0.3851 -0.0563
 8967SOL    HW127279   3.328   6.639   2.382  0.7700 -0.0374  0.5737
 8967SOL    HW227280   3.434   6.600   2.282 -0.5509 -0.6992 -0.6042
 8968SOL     OW27281   6.658   3.260   0.875  0.0494 -0.2280  0.1649
 8968SOL    HW127282   6.622   3.243   0.962 -0.2016  1.3675  0.4195
 8968SOL    HW227283   6.702   3.179   0.850 -0.1394 -0.8160  1.6394
 8969SOL     OW27284   3.647   0.517   4.002 -0.3827 -0.7575  0.0644
 8969SOL    HW127285   3.730   0.564   3.993 -0.2072 -0.9234  0.7166
 8969SOL    HW227286   3.641   0.498   4.096 -1.3726 -0.3626  0.0886
 8970SOL     OW27287   2.962   1.185   5.135 -0.4124  0.4370  1.0394
 8970SOL    HW127288   3.005   1.100   5.145  0.7327  0.3705 -2.7217
 8970SOL    HW227289   2.882   1.166   5.087  1.2615  1.5256 -2.5657
 8971SOL     OW27290   5.296   2.082   0.043  0.0008  0.5083  0.0455
 8971SOL    HW127291   5.351   2.008   0.068 -1.9020 -0.4928  1.5135
 8971SOL    HW227292   5.238   2.047  -0.025  0.0120  1.0440 -0.2466
 8972SOL     OW27293   6.567   2.950   6.232  0.1315  0.3266  0.0801
 8972SOL    HW127294   6.542   2.878   6.290 -1.1188  1.2735  0.7408
 8972SOL    HW227295   6.661   2.961   6.248 -0.0262  0.0384  1.3287
 8973SOL     OW27296   6.044   3.788   6.771  0.6850  1.0813  0.3733
 8973SOL    HW127297   6.080   3.781   6.859  1.2458  0.6345  0.1105
 8973SOL    HW227298   6.120   3.793   6.714  0.3664 -0.1958 -0.2093
 8974SOL     OW27299   6.355   4.307   2.339 -0.3427 -0.0401 -0.2336
 8974SOL    HW127300   6.273   4.344   2.371  1.0860  2.3065  0.9306
 8974SOL    HW227301   6.389   4.257   2.412 -1.6668 -2.8886 -1.4100
 8975SOL     OW27302   5.307   1.884   0.813 -0.2785  0.2998  0.9783
 8975SOL    HW127303   5.335   1.968   0.849  2.1623  0.5032 -1.0454
 8975SOL    HW227304   5.267   1.907   0.729 -0.9777 -0.4790  1.0919
 8976SOL     OW27305   5.167   6.531   3.870 -0.2898  0.1947  0.1810
 8976SOL    HW127306   5.146   6.512   3.779 -2.2270 -0.2523  0.6565
 8976SOL    HW227307   5.198   6.622   3.870 -0.5497  0.2919 -0.8939
 8977SOL     OW27308   6.500   3.276   6.690  0.2534  0.2329 -0.6963
 8977SOL    HW127309   6.582   3.229   6.703 -0.1674 -0.1054  0.8529
 8977SOL    HW227310   6.520   3.339   6.620  2.1263  0.8333  0.3133
 8978SOL     OW27311   4.581   3.276   2.384 -0.0473 -0.4421  0.6879
 8978SOL    HW127312   4.671   3.261   2.411  1.4387  4.5079 -0.3745
 8978SOL    HW227313   4.536   3.304   2.464  0.8655  1.9332  0.4451
 8979SOL     OW27314   6.453   3.473   0.356 -0.6361  0.2666 -0.4137
 8979SOL    HW127315   6.381   3.535   0.363 -0.4706  0.3618  0.8202
 8979SOL    HW227316   6.423   3.408   0.292 -1.4276  0.8012 -0.6017
 8980SOL     OW27317   2.460   3.765   5.715 -0.2847 -0.0529 -0.1588
 8980SOL    HW127318   2.428   3.758   5.805 -0.7843  0.1719 -0.3178
 8980SOL    HW227319   2.416   3.694   5.669 -0.0170 -0.1774 -0.2255
 8981SOL     OW27320   3.349   0.405   3.736  0.0717 -0.3730 -0.4432
 8981SOL    HW127321   3.436   0.416   3.697  0.5056  1.7042  0.9329
 8981SOL    HW227322   3.365   0.408   3.830 -1.4914 -0.0451 -0.1683
 8982SOL     OW27323   4.666   3.367   1.997 -0.2584 -0.0635 -0.4578
 8982SOL    HW127324   4.581   3.325   1.984 -1.1629  1.5354  0.0059
 8982SOL    HW227325   4.649   3.436   2.061  1.5854 -0.2387  0.2773
 8983SOL     OW27326   6.074   3.016   4.675  0.1801  0.1920 -0.1651
 8983SOL    HW127327   5.986   3.028   4.638 -1.1479 -0.5815  2.4566
 8983SOL    HW227328   6.061   3.027   4.770  2.1549 -3.5114  0.7281
 8984SOL     OW27329   0.526   4.512   0.646  0.4737  0.2168  0.2649
 8984SOL    HW127330   0.481   4.528   0.729 -0.1223  0.0145 -0.0143
 8984SOL    HW227331   0.586   4.587   0.636 -1.1786  1.5386 -0.2812
 8985SOL     OW27332   1.847   5.651   4.098 -0.3213 -0.0798 -0.0564
 8985SOL    HW127333   1.833   5.605   4.015 -1.4577 -0.4116  0.3009
 8985SOL    HW227334   1.901   5.591   4.150  2.6661  1.2000 -1.4398
 8986SOL     OW27335   6.679   6.500   3.131  0.1979  0.4540  0.1595
 8986SOL    HW127336   6.704   6.572   3.189 -0.9757  0.4527  0.6837
 8986SOL    HW227337   6.691   6.536   3.042 -1.1166  1.5796  0.4059
 8987SOL     OW27338   2.797   4.941   3.299  0.2858  0.1970 -0.5997
 8987SOL    HW127339   2.806   4.845   3.304  0.2441  0.2468  0.9065
 8987SOL    HW227340   2.887   4.973   3.290  0.4920  0.0869  0.8735
 8988SOL     OW27341   4.359   2.921   2.636  0.0813 -0.4656  0.1605
 8988SOL    HW127342   4.306   2.975   2.694  0.7953  1.1524 -0.6343
 8988SOL    HW227343   4.449   2.942   2.658  0.3679 -0.2050 -1.1466
 8989SOL     OW27344   3.649   5.332   1.668  0.0571  0.0077  0.2089
 8989SOL    HW127345   3.633   5.359   1.578 -2.2445  0.4158  0.6656
 8989SOL    HW227346   3.739   5.299   1.669 -0.0096 -0.3826 -2.3005
 8990SOL     OW27347   4.464   0.334   6.540 -0.4402  0.0904  0.5675
 8990SOL    HW127348   4.464   0.351   6.446 -0.5440  0.1466  0.5776
 8990SOL    HW227349   4.404   0.261   6.552 -2.7559  1.9418  0.9131
 8991SOL     OW27350   5.965   6.774   1.016  0.1901 -0.3075  0.6216
 8991SOL    HW127351   6.059   6.763   1.002  0.0835 -0.7772  0.2233
 8991SOL    HW227352   5.957   6.856   1.064  0.7572  0.1005  0.0434
 8992SOL     OW27353   2.135   3.004   6.468  0.5237  0.4016 -0.2475
 8992SOL    HW127354   2.126   3.086   6.516 -0.2671 -0.0282  0.3624
 8992SOL    HW227355   2.052   2.959   6.482  0.9759 -0.5380 -0.5108
 8993SOL     OW27356   5.268   0.925   2.685 -0.1897  0.5405 -0.0095
 8993SOL    HW127357   5.343   0.919   2.627 -1.3847  3.6266 -2.1525
 8993SOL    HW227358   5.208   0.857   2.654  1.5944 -2.0750  1.8353
 8994SOL     OW27359   2.934   6.158   1.056 -0.3642 -0.0784  0.4270
 8994SOL    HW127360   2.888   6.232   1.018 -0.7470 -0.4072  0.2404
 8994SOL    HW227361   3.002   6.136   0.993  0.6341  0.9669  1.1110
 8995SOL     OW27362   3.299   0.141   0.851 -0.5952  0.0878  0.5411
 8995SOL    HW127363   3.387   0.150   0.886 -0.3329 -0.8753  0.1529
 8995SOL    HW227364   3.306   0.073   0.784 -0.9923  2.1458 -1.7444
 8996SOL     OW27365   0.003   2.319   2.628 -0.0725 -0.1090 -0.8016
 8996SOL    HW127366   0.048   2.256   2.572  1.0330 -0.9761  0.9672
 8996SOL    HW227367   0.066   2.391   2.638 -0.5707  0.3975 -1.2865
 8997SOL     OW27368   3.732   2.265   4.305  0.2348  0.0199 -0.4558
 8997SOL    HW127369   3.659   2.322   4.282 -0.2612 -0.5890 -0.4138
 8997SOL    HW227370   3.693   2.195   4.358  1.2290  0.9658  1.6165
 8998SOL     OW27371   2.487   0.159   5.283 -0.0250 -0.7572  0.1939
 8998SOL    HW127372   2.551   0.230   5.281 -0.2193 -0.5831  0.1387
 8998SOL    HW227373   2.483   0.128   5.192 -0.6957 -0.1577  0.0078
 8999SOL     OW27374   2.517   1.694   0.379 -0.0062 -0.0999 -0.2134
 8999SOL    HW127375   2.422   1.702   0.382  0.1128  1.9014 -0.4247
 8999SOL    HW227376   2.535   1.604   0.407 -1.9257 -0.4123  0.1175
 9000SOL     OW27377   3.353   1.449   4.060  0.3558 -0.1084  0.7469
 9000SOL    HW127378   3.383   1.513   3.994  1.0814  0.5563  1.6901
 9000SOL    HW227379   3.365   1.494   4.144  1.2839 -1.6325  1.4794
 9001SOL     OW27380   1.382   0.931   5.927 -0.2850 -0.1635  0.3042
 9001SOL    HW127381   1.386   0.851   5.875 -0.9270 -0.1955  0.2957
 9001SOL    HW227382   1.372   1.001   5.863  3.2951  0.2796  0.0707
 9002SOL     OW27383   1.202   1.122   0.089 -0.4193  0.3342  0.2400
 9002SOL    HW127384   1.280   1.148   0.139 -0.0283  1.3014 -0.8438
 9002SOL    HW227385   1.215   1.028   0.072  0.7738  0.5804 -0.3568
 9003SOL     OW27386   1.552   6.032   3.004 -0.2662 -0.2775 -0.1852
 9003SOL    HW127387   1.608   5.959   2.979 -0.2629 -0.1574 -0.5486
 9003SOL    HW227388   1.543   6.026   3.099  1.0171  0.1594 -0.0136
 9004SOL     OW27389   0.186   1.351   2.946  0.0409  0.3106  0.6936
 9004SOL    HW127390   0.162   1.359   3.038 -1.2788 -2.1825  0.6742
 9004SOL    HW227391   0.103   1.360   2.899  0.5099  0.3459 -0.1510
 9005SOL     OW27392   5.194   6.116   1.670  0.3073  0.3421 -0.4018
 9005SOL    HW127393   5.195   6.037   1.616  1.8420 -0.2028  0.3736
 9005SOL    HW227394   5.101   6.141   1.674 -0.1011 -0.8961 -1.3819
 9006SOL     OW27395   0.462   1.190   3.366  0.0225 -0.3598  0.2131
 9006SOL    HW127396   0.422   1.228   3.288 -1.0417 -3.0501 -0.6583
 9006SOL    HW227397   0.556   1.192   3.347 -0.2091 -0.8630 -1.1222
 9007SOL     OW27398   3.905   2.147   1.130  0.0503  0.0724  0.1834
 9007SOL    HW127399   3.993   2.115   1.149 -0.1092  0.2294  1.2474
 9007SOL    HW227400   3.854   2.068   1.115  0.4226 -0.0103 -0.7531
 9008SOL     OW27401   6.387   6.408   4.452  0.3221  0.1942  0.9368
 9008SOL    HW127402   6.335   6.476   4.496  0.5670  0.0247  1.5000
 9008SOL    HW227403   6.379   6.428   4.359 -0.4683  0.3710  1.0372
 9009SOL     OW27404   5.954   4.017   3.991  0.1272 -0.1716  0.6985
 9009SOL    HW127405   6.036   4.058   4.017 -0.1294  0.5621  0.3666
 9009SOL    HW227406   5.929   4.059   3.909 -0.2526 -0.8447  0.4534
 9010SOL     OW27407   4.731   0.841   3.729 -0.3594  0.0986 -0.5781
 9010SOL    HW127408   4.804   0.779   3.721 -1.3154 -0.9893 -1.3291
 9010SOL    HW227409   4.760   0.918   3.681  0.4999 -0.1137 -0.4180
 9011SOL     OW27410   4.984   6.437   4.800  0.1406 -0.3597 -0.0677
 9011SOL    HW127411   5.009   6.346   4.815  2.7714  0.3662  0.4326
 9011SOL    HW227412   5.003   6.480   4.884  0.3868  0.9168 -0.7669
 9012SOL     OW27413   3.644   1.031   5.973  0.0700 -0.0389 -0.2596
 9012SOL    HW127414   3.722   1.005   5.924 -0.7033 -0.9866 -1.0561
 9012SOL    HW227415   3.626   1.120   5.944 -0.5612 -0.6873 -2.0334
 9013SOL     OW27416   3.172   3.202   6.561  0.0448 -0.5047  0.2928
 9013SOL    HW127417   3.227   3.261   6.613 -3.2659  1.3401  2.0161
 9013SOL    HW227418   3.097   3.184   6.616 -2.5476 -0.4257 -2.9191
 9014SOL     OW27419   5.835   1.211   2.835 -0.1607 -0.0082 -0.2244
 9014SOL    HW127420   5.859   1.276   2.769 -0.1213  0.0319 -0.1701
 9014SOL    HW227421   5.802   1.137   2.784 -1.1810  0.4445 -0.2574
 9015SOL     OW27422   0.111   3.993   2.828 -0.3262  0.3949 -0.0879
 9015SOL    HW127423   0.020   4.022   2.827 -1.1301 -1.8939  0.4280
 9015SOL    HW227424   0.131   3.984   2.922  0.3029  0.5285 -0.2094
 9016SOL     OW27425   5.995   5.819   4.882 -0.1242  0.2497 -0.2580
 9016SOL    HW127426   6.054   5.751   4.850 -1.0534  0.0318 -1.5720
 9016SOL    HW227427   6.049   5.870   4.943  1.2747 -0.2413 -1.0240
 9017SOL     OW27428   3.726   6.333   5.604 -0.2600  0.2865 -0.0892
 9017SOL    HW127429   3.657   6.349   5.669 -0.0306  1.3030 -0.0854
 9017SOL    HW227430   3.684   6.276   5.539 -0.4104 -0.9600  1.0701
 9018SOL     OW27431   2.290   2.514   2.849  0.1562  0.0454  0.2420
 9018SOL    HW127432   2.328   2.453   2.786  2.0928  0.6037  0.8289
 9018SOL    HW227433   2.199   2.485   2.857  0.3229 -1.1045 -1.4827
 9019SOL     OW27434   0.970   0.996   5.297 -0.2245  0.7740 -0.5143
 9019SOL    HW127435   1.060   0.979   5.322 -0.1579  0.5262 -0.9142
 9019SOL    HW227436   0.964   0.966   5.206 -1.0748 -0.5387 -0.0548
 9020SOL     OW27437   5.773   0.134   2.950 -0.6260 -0.0477  0.2265
 9020SOL    HW127438   5.859   0.095   2.963 -0.7406 -0.4245 -0.1435
 9020SOL    HW227439   5.724   0.111   3.029 -0.7207 -0.7219 -0.0280
 9021SOL     OW27440   6.071   5.113   4.158  0.0360  0.3169  0.1163
 9021SOL    HW127441   6.020   5.174   4.211 -0.7667  1.3187 -1.7289
 9021SOL    HW227442   6.016   5.035   4.150 -1.3010  1.3750 -1.8314
 9022SOL     OW27443   4.536   3.057   1.189 -0.3765  0.5376  0.3084
 9022SOL    HW127444   4.520   3.134   1.135 -1.0867 -0.0952 -0.4165
 9022SOL    HW227445   4.501   2.984   1.138  1.2115 -0.4123  0.5100
 9023SOL     OW27446   3.506   5.441   4.875 -0.0019  0.0569 -0.5532
 9023SOL    HW127447   3.516   5.460   4.969 -0.1038 -0.1948 -0.4911
 9023SOL    HW227448   3.413   5.422   4.865 -0.4114  2.0759 -1.0675
 9024SOL     OW27449   5.421   3.996   4.606 -0.0092  0.8848  0.7347
 9024SOL    HW127450   5.366   4.039   4.673  2.1098  4.3560  0.4744
 9024SOL    HW227451   5.384   4.026   4.523  0.5097  0.8554  0.4937
 9025SOL     OW27452   5.837   3.099   4.549  0.4732  0.1474  0.5311
 9025SOL    HW127453   5.866   3.085   4.459  0.6409 -1.6209  0.8173
 9025SOL    HW227454   5.745   3.071   4.549 -0.0606  1.7752  0.5575
 9026SOL     OW27455   1.671   2.931   2.378  0.5672  0.1870  0.2501
 9026SOL    HW127456   1.626   3.002   2.423  0.6166  0.8937 -0.7662
 9026SOL    HW227457   1.636   2.934   2.289  2.0779  0.3045 -0.3818
 9027SOL     OW27458   3.816   6.145   1.016 -0.1210  0.2042 -0.2528
 9027SOL    HW127459   3.790   6.195   0.939 -2.7225  2.3615  1.8300
 9027SOL    HW227460   3.905   6.175   1.035 -0.3101  1.3831 -1.1073
 9028SOL     OW27461   5.563   2.396   1.292 -0.5143 -0.0130  0.1883
 9028SOL    HW127462   5.648   2.433   1.315 -0.8355  1.2981 -0.6281
 9028SOL    HW227463   5.577   2.352   1.208 -0.5544 -0.1898  0.2717
 9029SOL     OW27464   2.029   4.171   5.690  0.1545 -0.8073  0.1679
 9029SOL    HW127465   2.016   4.087   5.645 -2.3577 -1.4774  1.9034
 9029SOL    HW227466   1.982   4.235   5.636  1.7400 -0.5132 -0.9451
 9030SOL     OW27467   1.588   1.136   5.771 -0.0893 -0.2200  0.4959
 9030SOL    HW127468   1.599   1.111   5.679 -2.1624 -2.2518  0.7132
 9030SOL    HW227469   1.504   1.181   5.774  0.5460  0.9743  1.2418
 9031SOL     OW27470   0.748   6.009   6.238 -0.3644 -0.2387 -0.0681
 9031SOL    HW127471   0.815   5.964   6.290 -0.3041  0.8212  0.8064
 9031SOL    HW227472   0.689   5.939   6.210  0.6409 -1.0749 -0.1477
 9032SOL     OW27473   2.195   1.719   5.522 -0.6329  0.1508 -0.0083
 9032SOL    HW127474   2.167   1.669   5.598  0.0701  1.4147  1.1361
 9032SOL    HW227475   2.161   1.671   5.447 -0.3113 -1.8021  1.0376
 9033SOL     OW27476   5.601   0.938   4.263  0.1548 -0.1598 -0.4273
 9033SOL    HW127477   5.578   0.849   4.238 -1.8527 -0.1093  0.9590
 9033SOL    HW227478   5.593   0.989   4.182  1.0540 -1.1763 -1.1718
 9034SOL     OW27479   2.727   3.698   1.626  0.9789  0.2312  0.2805
 9034SOL    HW127480   2.788   3.645   1.677  0.0969 -0.7451  0.3406
 9034SOL    HW227481   2.726   3.783   1.670  0.0181 -0.6749  2.0752
 9035SOL     OW27482   4.898   4.756   0.988  0.2211 -0.1286 -0.0461
 9035SOL    HW127483   4.967   4.695   1.015 -2.5930 -2.7849  1.8847
 9035SOL    HW227484   4.827   4.700   0.956 -1.5211  2.3318 -0.8033
 9036SOL     OW27485   2.439   0.950   3.855  0.3429 -0.0540 -0.1541
 9036SOL    HW127486   2.347   0.966   3.837  0.8033  0.2514 -2.6045
 9036SOL    HW227487   2.447   0.855   3.860 -0.0536 -0.0938 -0.3020
 9037SOL     OW27488   5.492   2.781   5.886  0.2322  0.0593 -0.2929
 9037SOL    HW127489   5.520   2.735   5.964 -1.0198  0.1951  0.2587
 9037SOL    HW227490   5.530   2.868   5.894 -0.6363  0.3621  0.6225
 9038SOL     OW27491   2.182   1.527   4.932 -0.2646  0.0035 -0.0342
 9038SOL    HW127492   2.119   1.569   4.873  0.6688  0.4352 -0.7427
 9038SOL    HW227493   2.263   1.523   4.882  0.4248 -0.0619  1.0576
 9039SOL     OW27494   4.568   5.685   2.116 -0.9610  0.1075 -0.0022
 9039SOL    HW127495   4.616   5.718   2.040  0.7439  0.1875  1.0549
 9039SOL    HW227496   4.485   5.733   2.115 -1.3334 -0.4546 -2.2233
 9040SOL     OW27497   4.493   4.492   2.503  0.3706 -0.2321  0.0483
 9040SOL    HW127498   4.465   4.579   2.532  0.9947  0.1851 -0.5671
 9040SOL    HW227499   4.437   4.432   2.551 -1.3392  0.5510 -0.8734
 9041SOL     OW27500   6.706   5.528   4.360  0.4883  0.1724  0.2119
 9041SOL    HW127501   6.787   5.547   4.313  0.7448 -2.3190 -0.4815
 9041SOL    HW227502   6.729   5.458   4.421 -1.4618 -1.8363 -1.2193
 9042SOL     OW27503   5.827   0.537   3.001  0.2369 -0.0272 -0.0262
 9042SOL    HW127504   5.878   0.474   3.052  0.3847 -0.4704 -0.7109
 9042SOL    HW227505   5.892   0.592   2.958  0.1127  0.2624  0.1514
 9043SOL     OW27506   1.212   5.553   3.083 -0.4253  0.1685 -0.2829
 9043SOL    HW127507   1.239   5.471   3.125 -2.6709 -0.3875  0.1712
 9043SOL    HW227508   1.291   5.583   3.037  0.6473 -1.8792  0.1044
 9044SOL     OW27509   2.892   2.507   6.134 -0.4880 -0.3769  0.5090
 9044SOL    HW127510   2.912   2.464   6.051 -1.4461 -0.3470  0.2487
 9044SOL    HW227511   2.800   2.534   6.125  0.5441  3.3912 -0.0814
 9045SOL     OW27512   2.476   2.170   1.137 -0.0766 -0.5044 -0.2623
 9045SOL    HW127513   2.384   2.148   1.127  0.3619 -2.4429 -0.4504
 9045SOL    HW227514   2.476   2.253   1.185 -1.9014 -0.8662  0.4536
 9046SOL     OW27515   4.515   0.161   5.674 -0.3199  0.7808 -0.3972
 9046SOL    HW127516   4.575   0.215   5.725  0.5950 -1.2955  0.8431
 9046SOL    HW227517   4.563   0.143   5.593 -0.8416  2.1667 -1.0559
 9047SOL     OW27518   1.073   6.441   1.275  0.3235 -0.1296 -0.0972
 9047SOL    HW127519   1.029   6.525   1.286  0.1653  0.4711 -3.8676
 9047SOL    HW227520   1.022   6.379   1.326 -0.1049  1.8446  2.0196
 9048SOL     OW27521   0.347   3.676   0.519 -0.2474  0.4310  0.2162
 9048SOL    HW127522   0.407   3.682   0.444 -0.8741  1.8628 -0.2022
 9048SOL    HW227523   0.268   3.636   0.483 -0.1527  0.0874  0.3842
 9049SOL     OW27524   3.561   1.153   1.504 -0.1478  0.0317  0.2970
 9049SOL    HW127525   3.587   1.228   1.558  2.4314 -1.6630  1.5470
 9049SOL    HW227526   3.475   1.128   1.538 -0.1519  1.1527  1.1848
 9050SOL     OW27527   5.301   2.308   3.953 -0.1195  0.3060  0.0742
 9050SOL    HW127528   5.253   2.231   3.985  0.3756 -0.6191 -1.2783
 9050SOL    HW227529   5.236   2.377   3.947 -1.3878 -0.9455 -1.8012
 9051SOL     OW27530   3.370   5.030   0.281  0.4582  0.6496  0.0384
 9051SOL    HW127531   3.377   4.937   0.259  0.2082  0.8630 -0.9986
 9051SOL    HW227532   3.327   5.032   0.366  0.3193 -0.1816 -0.0080
 9052SOL     OW27533   3.090   1.237   6.738  0.1849  0.1126 -0.2101
 9052SOL    HW127534   3.086   1.186   6.657  2.0960 -0.6584  0.1112
 9052SOL    HW227535   3.062   1.325   6.713  0.2873 -0.2230 -1.5966
 9053SOL     OW27536   4.857   2.795   5.597  0.2593  0.0497  0.0523
 9053SOL    HW127537   4.839   2.795   5.691 -1.4956 -0.7731 -0.2310
 9053SOL    HW227538   4.829   2.881   5.566 -0.4223 -0.1473  0.0999
 9054SOL     OW27539   5.621   3.739   1.655 -0.0327  0.0804  0.3531
 9054SOL    HW127540   5.715   3.754   1.646 -0.2247  1.0685 -0.1948
 9054SOL    HW227541   5.613   3.653   1.696  1.1217  0.3063  1.0729
 9055SOL     OW27542   4.905   1.328   1.127  0.5137  0.0609  0.2554
 9055SOL    HW127543   4.947   1.319   1.042  1.6339 -1.7129  0.9414
 9055SOL    HW227544   4.832   1.267   1.125  1.0798 -0.6644  0.8425
 9056SOL     OW27545   6.338   3.749   1.016 -0.6012 -0.8250 -0.6681
 9056SOL    HW127546   6.421   3.758   1.062  0.1933 -0.6037 -2.0806
 9056SOL    HW227547   6.274   3.794   1.072  0.2852 -0.7292  0.2835
 9057SOL     OW27548   6.455   4.181   5.705  0.0135 -0.0106  0.3421
 9057SOL    HW127549   6.480   4.266   5.671  0.4358 -1.4442 -3.4158
 9057SOL    HW227550   6.529   4.154   5.759  0.9710  0.9866 -0.4433
 9058SOL     OW27551   6.419   5.051   5.376  0.1943  0.0288 -0.1443
 9058SOL    HW127552   6.421   5.063   5.471  0.5354  0.6438 -0.2191
 9058SOL    HW227553   6.327   5.033   5.357  0.3565 -1.5640  0.4524
 9059SOL     OW27554   3.019   2.723   2.569 -0.4121 -1.0623  0.0329
 9059SOL    HW127555   3.077   2.739   2.644 -1.1858 -1.1283  0.6671
 9059SOL    HW227556   3.078   2.711   2.495  0.3317  0.9005  0.2431
 9060SOL     OW27557   0.528   5.733   1.597 -0.1387 -0.3324 -0.3101
 9060SOL    HW127558   0.619   5.705   1.607 -0.6563 -2.0529 -0.0676
 9060SOL    HW227559   0.478   5.674   1.653 -1.4925  0.0570 -1.0489
 9061SOL     OW27560   5.091   5.082   2.956  0.1326 -0.4167 -0.2788
 9061SOL    HW127561   5.146   5.158   2.941 -0.3225  0.3008  1.4262
 9061SOL    HW227562   5.130   5.013   2.903  1.5962  0.5431 -0.5064
 9062SOL     OW27563   2.014   2.175   4.709 -0.1362  0.0751  0.1899
 9062SOL    HW127564   1.951   2.150   4.777  1.6147  1.0752  2.2801
 9062SOL    HW227565   1.973   2.250   4.666 -1.1847 -0.4551  0.2209
 9063SOL     OW27566   4.130   5.527   4.012 -0.6491  0.4763  0.0544
 9063SOL    HW127567   4.084   5.469   3.952  0.0763 -0.2444  0.1675
 9063SOL    HW227568   4.143   5.473   4.091  0.3283  0.6742  0.0382
 9064SOL     OW27569   3.710   3.554   3.200  0.2169  0.2685  0.0501
 9064SOL    HW127570   3.717   3.624   3.135 -1.5388  0.3126 -0.1284
 9064SOL    HW227571   3.774   3.577   3.267 -0.0960  1.8874 -0.1728
 9065SOL     OW27572   4.182   1.714   5.997 -0.4654  0.7108  0.4987
 9065SOL    HW127573   4.273   1.696   5.975 -0.4547  1.4825 -0.1251
 9065SOL    HW227574   4.186   1.775   6.071 -0.4985 -0.5945  1.6219
 9066SOL     OW27575   3.210   1.579   6.241 -0.3551 -0.2159  0.8348
 9066SOL    HW127576   3.240   1.542   6.158 -2.7772 -1.4189  0.3965
 9066SOL    HW227577   3.251   1.523   6.308  1.3382  0.5566  0.5114
 9067SOL     OW27578   0.588   5.353   0.655 -0.3961 -0.3953 -0.1498
 9067SOL    HW127579   0.508   5.342   0.706 -1.1791  0.9861 -1.0194
 9067SOL    HW227580   0.620   5.264   0.640 -1.3926 -0.9291  0.7952
 9068SOL     OW27581   1.078   0.792   3.050  0.8117 -0.1104 -0.4463
 9068SOL    HW127582   1.137   0.793   3.125  0.8069 -2.0032 -0.3748
 9068SOL    HW227583   1.132   0.759   2.978  0.3668  0.0545 -0.8587
 9069SOL     OW27584   6.182   2.673   3.990  0.0129  0.2268  0.1532
 9069SOL    HW127585   6.165   2.766   3.976  0.1963  0.3009  0.4101
 9069SOL    HW227586   6.276   2.663   3.975 -0.0626  0.0239 -0.1867
 9070SOL     OW27587   3.212   2.185   1.027  0.7234 -0.2419 -0.1809
 9070SOL    HW127588   3.284   2.220   0.974  0.9514  2.0450  1.5117
 9070SOL    HW227589   3.142   2.250   1.019 -0.2074 -1.1512  0.2668
 9071SOL     OW27590   5.332   2.301   1.418 -0.3507  0.1639 -0.5405
 9071SOL    HW127591   5.406   2.331   1.365 -0.3500 -0.2532 -0.7795
 9071SOL    HW227592   5.255   2.324   1.366 -0.4136  0.9776 -0.1011
 9072SOL     OW27593   6.341   2.144   0.981 -0.3324 -0.1381 -0.1112
 9072SOL    HW127594   6.432   2.133   1.008 -1.0541 -4.8120  1.2778
 9072SOL    HW227595   6.346   2.156   0.887  1.7008  1.1726  0.0849
 9073SOL     OW27596   6.562   1.340   0.244  0.0174 -0.9322 -0.4414
 9073SOL    HW127597   6.520   1.296   0.318 -0.1082 -1.0633 -0.5890
 9073SOL    HW227598   6.493   1.393   0.206 -0.1243 -1.4705 -0.9368
 9074SOL     OW27599   0.330   6.447   1.782 -0.2034  0.0178  0.1255
 9074SOL    HW127600   0.400   6.455   1.847  0.2867 -0.3295 -0.3515
 9074SOL    HW227601   0.297   6.358   1.794 -0.4426  0.1195  0.2249
 9075SOL     OW27602   5.704   1.818   0.233 -0.2279  0.3617  0.0586
 9075SOL    HW127603   5.794   1.834   0.260 -0.5709  3.0510 -0.1578
 9075SOL    HW227604   5.703   1.726   0.207  2.3141  0.1293  0.5412
 9076SOL     OW27605   6.095   2.075   2.344 -0.1018  0.0081  0.2420
 9076SOL    HW127606   6.156   2.046   2.412 -1.4256 -2.1622  0.6090
 9076SOL    HW227607   6.109   2.169   2.337  2.6733 -0.2770  0.8787
 9077SOL     OW27608   1.052   0.757   6.575  0.0379 -0.4017  0.9157
 9077SOL    HW127609   1.087   0.683   6.624  0.2794  0.5829  2.2807
 9077SOL    HW227610   1.128   0.808   6.551 -0.2367  0.2904  1.4820
 9078SOL     OW27611   4.178   2.968   6.223 -0.3310 -0.0166  0.2888
 9078SOL    HW127612   4.107   3.018   6.262 -0.5826 -0.3175  0.2235
 9078SOL    HW227613   4.238   3.033   6.187 -0.2155  0.2573  0.9764
 9079SOL     OW27614   2.350   1.773   1.292 -0.4245 -0.2120 -0.2411
 9079SOL    HW127615   2.310   1.851   1.329  0.7165 -0.1251  0.9046
 9079SOL    HW227616   2.431   1.761   1.342  1.6099  0.2791 -3.1346
 9080SOL     OW27617   3.020   0.946   3.716  0.1125 -0.0042 -0.1991
 9080SOL    HW127618   3.093   0.897   3.756 -0.1692 -0.4145 -0.1796
 9080SOL    HW227619   3.058   1.031   3.694  0.0886  0.5517  1.6858
 9081SOL     OW27620   6.252   2.090   1.729 -0.2404 -0.0781  0.3696
 9081SOL    HW127621   6.332   2.132   1.697 -0.1268 -0.1756  0.5208
 9081SOL    HW227622   6.262   2.091   1.825 -1.0050  1.0762  0.4640
 9082SOL     OW27623   1.662   6.284   1.849 -0.6173  0.4485 -0.5162
 9082SOL    HW127624   1.698   6.197   1.863  0.6520  1.0518  0.0419
 9082SOL    HW227625   1.567   6.270   1.846 -0.6068 -0.6118  2.0880
 9083SOL     OW27626   4.595   4.464   5.389  0.1996  0.1769 -0.9863
 9083SOL    HW127627   4.570   4.380   5.429  2.3230 -0.0005  0.1174
 9083SOL    HW227628   4.638   4.439   5.308  0.5456  0.1980 -0.8128
 9084SOL     OW27629   4.973   3.813   3.966  0.4905  0.1424 -0.6741
 9084SOL    HW127630   4.980   3.771   3.880  0.0462  0.1624 -0.7232
 9084SOL    HW227631   5.003   3.746   4.027 -0.0667 -0.2012 -0.7664
 9085SOL     OW27632   6.836   4.607   2.368 -0.2137  0.1647 -0.5562
 9085SOL    HW127633   6.748   4.643   2.376 -0.1693  0.0021  1.0991
 9085SOL    HW227634   6.835   4.529   2.425  0.3898 -1.0851 -2.1720
 9086SOL     OW27635   5.406   4.267   1.803  0.1374 -0.1179  0.2217
 9086SOL    HW127636   5.349   4.204   1.845  0.3278 -0.9144 -0.6738
 9086SOL    HW227637   5.474   4.285   1.868  0.2102 -1.0177  0.4093
 9087SOL     OW27638   5.433   6.244   4.486  0.0546  0.0785 -0.8107
 9087SOL    HW127639   5.488   6.268   4.412 -0.9823 -0.5203 -1.8219
 9087SOL    HW227640   5.345   6.274   4.461 -0.1812  0.5867  0.5407
 9088SOL     OW27641   4.004   2.637   6.794 -0.0694  0.2552  0.2422
 9088SOL    HW127642   3.914   2.648   6.824 -0.4058 -2.6856  0.5417
 9088SOL    HW227643   3.997   2.580   6.717  1.7029 -3.7468  2.7420
 9089SOL     OW27644   2.645   1.157   2.867  0.1609  0.0053 -0.1647
 9089SOL    HW127645   2.641   1.198   2.954  0.4134 -0.9006  0.2771
 9089SOL    HW227646   2.555   1.161   2.835 -0.2511 -1.0547  0.8006
 9090SOL     OW27647   1.056   2.757   3.270  0.7568  0.0314  0.1362
 9090SOL    HW127648   1.100   2.696   3.210  1.3746 -0.1791  0.7967
 9090SOL    HW227649   1.120   2.826   3.286 -0.1370  1.1801 -1.0461
 9091SOL     OW27650   4.036   1.808   1.360  0.6928 -0.2573  0.3462
 9091SOL    HW127651   3.960   1.770   1.403  0.1360 -0.3783 -0.7091
 9091SOL    HW227652   4.086   1.850   1.430 -0.8867  0.7507  0.9136
 9092SOL     OW27653   5.912   3.131   2.089 -0.2056  0.6955 -0.2733
 9092SOL    HW127654   5.891   3.203   2.029  0.3160 -0.2539 -1.6689
 9092SOL    HW227655   5.827   3.099   2.118 -0.4727  1.1757 -0.5135
 9093SOL     OW27656   1.591   4.007   2.162  0.0066  0.0280  0.2767
 9093SOL    HW127657   1.550   4.090   2.186  2.0925  1.4956 -0.9381
 9093SOL    HW227658   1.679   4.031   2.132 -0.2695 -2.2901 -2.8120
 9094SOL     OW27659   5.010   2.791   1.984 -0.0940  0.2342 -0.5009
 9094SOL    HW127660   5.019   2.755   2.072  0.0748  0.9032 -0.2392
 9094SOL    HW227661   4.933   2.848   1.989 -0.9833 -0.8573 -1.1784
 9095SOL     OW27662   1.067   5.363   3.809  0.0559 -0.2644 -0.1165
 9095SOL    HW127663   1.097   5.453   3.796  1.2829 -0.8359 -1.7055
 9095SOL    HW227664   1.060   5.328   3.720 -2.0232 -1.2611  0.3831
 9096SOL     OW27665   2.583   5.083   2.770 -0.1299  0.0812  0.3905
 9096SOL    HW127666   2.544   5.108   2.686 -0.3285  0.0535  0.4729
 9096SOL    HW227667   2.509   5.050   2.822  0.3560 -2.2318 -0.2850
 9097SOL     OW27668   4.425   1.211   0.971 -0.1796 -0.0788  0.3810
 9097SOL    HW127669   4.416   1.267   0.894  0.8330  3.2018  2.4450
 9097SOL    HW227670   4.351   1.235   1.027 -0.1936 -1.4812  1.0147
 9098SOL     OW27671   2.538   2.755   5.801  0.1785 -0.0498 -0.1608
 9098SOL    HW127672   2.540   2.775   5.894 -0.9695 -1.9222  0.3336
 9098SOL    HW227673   2.610   2.692   5.789  1.3805  1.4140 -0.9105
 9099SOL     OW27674   0.225   4.248   3.708 -0.2735  0.0305 -0.1737
 9099SOL    HW127675   0.266   4.303   3.640 -3.4223  1.6987 -0.8834
 9099SOL    HW227676   0.232   4.299   3.788 -0.3059 -0.0318 -0.1309
 9100SOL     OW27677   1.302   1.565   3.723  0.6629 -0.5646  0.8446
 9100SOL    HW127678   1.308   1.477   3.761  0.2523 -0.1808  1.8319
 9100SOL    HW227679   1.297   1.624   3.798  2.2436  0.4314  0.2124
 9101SOL     OW27680   2.082   4.972   1.969  0.4405  0.2369  0.6772
 9101SOL    HW127681   2.034   4.924   1.901  2.3340 -0.8490  0.0434
 9101SOL    HW227682   2.047   4.938   2.051 -0.6783  0.3288  0.2634
 9102SOL     OW27683   4.990   5.759   1.119  0.1070 -0.2677 -0.1516
 9102SOL    HW127684   5.085   5.772   1.109  0.0206  1.2950  0.7084
 9102SOL    HW227685   4.958   5.743   1.031  1.1701 -0.8455 -0.4524
 9103SOL     OW27686   2.840   6.164   4.401 -0.2560  0.6826 -0.0236
 9103SOL    HW127687   2.896   6.102   4.355  1.7765  1.9151  0.6869
 9103SOL    HW227688   2.797   6.214   4.331 -0.1715  0.0131 -0.5715
 9104SOL     OW27689   4.180   4.163   0.028 -0.1237 -0.6158  0.4947
 9104SOL    HW127690   4.191   4.248  -0.013  0.5265 -1.4352 -1.1021
 9104SOL    HW227691   4.086   4.146   0.025 -0.0312 -0.9859 -1.4224
 9105SOL     OW27692   4.794   2.346   3.620  0.0276 -0.2301 -0.2044
 9105SOL    HW127693   4.784   2.272   3.561 -0.0912 -1.3432  1.1691
 9105SOL    HW227694   4.791   2.308   3.707  0.9484  1.2718  0.5244
 9106SOL     OW27695   6.758   3.011   0.102  0.4179 -0.3615 -0.0219
 9106SOL    HW127696   6.843   2.973   0.124  0.1545 -0.3013  1.1735
 9106SOL    HW227697   6.739   3.071   0.174 -0.9611 -0.9214  0.1229
 9107SOL     OW27698   2.636   2.025   5.292 -0.3254  0.1466  0.0615
 9107SOL    HW127699   2.680   1.945   5.319 -0.6633 -0.2224 -0.4693
 9107SOL    HW227700   2.553   2.024   5.340 -0.5459 -0.0726 -0.3222
 9108SOL     OW27701   2.576   0.127   0.275 -0.0986 -0.3141  0.2356
 9108SOL    HW127702   2.506   0.089   0.223  0.9900  0.3077 -1.7845
 9108SOL    HW227703   2.534   0.195   0.327 -1.0870 -0.3076 -0.5526
 9109SOL     OW27704   6.672   1.769   2.848  0.0221  0.1394  0.1804
 9109SOL    HW127705   6.677   1.777   2.753 -0.0822  1.4815  0.2601
 9109SOL    HW227706   6.588   1.810   2.871 -0.5211 -1.2466  0.7623
 9110SOL     OW27707   6.058   3.727   2.344 -0.8775  0.2024  0.6713
 9110SOL    HW127708   6.004   3.648   2.347 -0.9710  0.2846  1.8255
 9110SOL    HW227709   6.126   3.711   2.410 -0.2672  0.6524  0.1679
 9111SOL     OW27710   2.366   5.539   4.532  0.1629 -0.2257  0.6791
 9111SOL    HW127711   2.379   5.566   4.441  0.0463 -1.4297  0.2826
 9111SOL    HW227712   2.271   5.543   4.544 -0.1623 -2.8711 -0.2323
 9112SOL     OW27713   6.130   0.131   1.407  0.0418  0.3357  0.4524
 9112SOL    HW127714   6.213   0.142   1.454 -0.1088 -0.2217  0.8589
 9112SOL    HW227715   6.085   0.215   1.417  0.9749  1.0006 -0.6247
 9113SOL     OW27716   3.942   4.579   0.129  0.5696  0.4887 -0.0873
 9113SOL    HW127717   3.928   4.508   0.066  1.3325  0.6221 -0.4160
 9113SOL    HW227718   3.912   4.658   0.084  0.5808  0.5061 -0.0641
 9114SOL     OW27719   1.238   5.649   5.687 -0.7656  0.0843 -0.1782
 9114SOL    HW127720   1.263   5.638   5.778 -1.2127  2.1901  0.2454
 9114SOL    HW227721   1.154   5.602   5.679 -0.3426 -0.7623  0.2715
 9115SOL     OW27722   4.708   5.756   1.536  0.3061 -0.5924 -0.5633
 9115SOL    HW127723   4.694   5.662   1.537  0.1873 -0.5860 -1.2027
 9115SOL    HW227724   4.787   5.768   1.483 -0.0819 -0.2945 -1.0922
 9116SOL     OW27725   5.276   0.076   0.882  0.1724  0.2413 -0.2947
 9116SOL    HW127726   5.185   0.085   0.911 -0.0479 -0.8498 -0.5867
 9116SOL    HW227727   5.321   0.036   0.957  0.9585  2.8505  0.7173
 9117SOL     OW27728   5.090   4.277   0.922 -0.4208 -0.3908 -0.0800
 9117SOL    HW127729   5.159   4.228   0.967  0.5298  0.4046 -0.6173
 9117SOL    HW227730   5.100   4.253   0.830  0.6860  1.4366 -0.5100
 9118SOL     OW27731   0.549   6.667   2.489 -0.5531  0.1033  0.2128
 9118SOL    HW127732   0.534   6.630   2.576 -0.1696 -0.5360  0.0124
 9118SOL    HW227733   0.590   6.596   2.439 -3.6246 -0.7124 -1.4469
 9119SOL     OW27734   3.619   4.886   5.525  0.2368 -0.4225 -0.4587
 9119SOL    HW127735   3.625   4.879   5.620 -1.3995  0.1228 -0.2708
 9119SOL    HW227736   3.702   4.926   5.498  1.4678 -2.2243  0.5097
 9120SOL     OW27737   2.869   0.031   5.097  0.5224 -0.1925  0.1202
 9120SOL    HW127738   2.779   0.065   5.091  0.7857  0.3013 -2.0460
 9120SOL    HW227739   2.921   0.106   5.124  0.2364 -0.6661  2.1477
 9121SOL     OW27740   2.123   4.178   5.412  0.0572  0.0792  0.0758
 9121SOL    HW127741   2.051   4.221   5.460  1.3260  1.5908  0.7110
 9121SOL    HW227742   2.180   4.144   5.481  0.3921 -0.3560 -0.4154
 9122SOL     OW27743   2.823   4.341   3.537 -0.0171 -0.1092 -0.1949
 9122SOL    HW127744   2.848   4.290   3.460  2.1656 -2.0933  1.6632
 9122SOL    HW227745   2.751   4.292   3.577  1.0007 -0.9101  0.7148
 9123SOL     OW27746   2.625   2.919   4.345  0.2166  0.3317  0.4460
 9123SOL    HW127747   2.576   2.973   4.407  0.8307  0.7171  0.6031
 9123SOL    HW227748   2.715   2.948   4.354  0.2101  0.9154 -1.1928
 9124SOL     OW27749   4.158   5.360   6.677  0.0020 -0.5461  0.2445
 9124SOL    HW127750   4.094   5.322   6.617 -0.2001 -0.6245  0.5112
 9124SOL    HW227751   4.127   5.449   6.692  0.0624 -0.5208  0.2207
 9125SOL     OW27752   3.530   0.499   5.619  0.3948  0.2584  0.2569
 9125SOL    HW127753   3.572   0.434   5.675 -0.9562 -0.2524  0.7133
 9125SOL    HW227754   3.568   0.485   5.532 -1.0849 -2.3534 -0.0677
 9126SOL     OW27755   3.048   6.589   5.897 -0.1816  0.4134  0.1451
 9126SOL    HW127756   2.977   6.592   5.832 -1.2012 -0.5868  1.1753
 9126SOL    HW227757   3.004   6.574   5.980  1.2284  0.1766  0.8807
 9127SOL     OW27758   1.148   0.921   0.843  0.2868  0.2177 -0.2999
 9127SOL    HW127759   1.221   0.861   0.854  0.4205  0.0541 -1.8367
 9127SOL    HW227760   1.074   0.877   0.886  0.6261 -0.5694 -0.5011
 9128SOL     OW27761   5.233   3.069   6.021 -0.4121 -0.1971  0.0087
 9128SOL    HW127762   5.314   3.119   6.033 -1.7633  2.4825 -1.2019
 9128SOL    HW227763   5.205   3.049   6.110  1.2190 -0.6179  0.4664
 9129SOL     OW27764   0.066   2.848   5.556  0.2035 -0.0966 -0.3666
 9129SOL    HW127765   0.029   2.934   5.537  1.2881  0.1541 -1.4486
 9129SOL    HW227766   0.138   2.866   5.617  0.2403 -0.2772 -0.3572
 9130SOL     OW27767   4.953   2.271   6.597 -0.0142 -0.7880 -0.3111
 9130SOL    HW127768   4.911   2.226   6.524 -1.7120 -0.1860  0.2367
 9130SOL    HW227769   4.884   2.279   6.663  1.1754 -0.3603  0.9317
 9131SOL     OW27770   5.005   1.878   5.357  0.2553  0.6176 -0.0159
 9131SOL    HW127771   4.983   1.924   5.276 -2.8628 -1.6057 -0.6260
 9131SOL    HW227772   5.052   1.799   5.329  0.4497  0.5454  0.4881
 9132SOL     OW27773   2.602   0.240   4.532 -0.1145  0.2677  0.3695
 9132SOL    HW127774   2.641   0.188   4.602  0.7963  0.4468  0.0014
 9132SOL    HW227775   2.508   0.225   4.541  0.0753 -0.6599  0.8778
 9133SOL     OW27776   5.992   1.853   3.123 -0.2901 -0.7154  0.2295
 9133SOL    HW127777   6.040   1.773   3.143 -0.3686 -0.1845  2.8853
 9133SOL    HW227778   6.057   1.912   3.086  0.1366 -1.4312 -0.1787
 9134SOL     OW27779   2.853   0.485   5.906 -0.4774  0.8122  0.0515
 9134SOL    HW127780   2.928   0.542   5.924 -0.2592  0.7767 -0.7028
 9134SOL    HW227781   2.811   0.473   5.991 -0.5111  2.0634  0.2344
 9135SOL     OW27782   4.116   3.337   2.775  0.2311 -0.1154  0.3793
 9135SOL    HW127783   4.185   3.303   2.718 -0.8090 -1.6663 -0.0389
 9135SOL    HW227784   4.150   3.326   2.863  0.6840 -0.5308  0.1607
 9136SOL     OW27785   5.145   3.313   0.789  0.4409  0.0792 -0.2683
 9136SOL    HW127786   5.126   3.306   0.883 -0.4259  0.9230 -0.3600
 9136SOL    HW227787   5.078   3.373   0.756  3.2116  3.2238 -0.6798
 9137SOL     OW27788   2.332   4.387   1.557  0.2531 -0.2244 -0.0720
 9137SOL    HW127789   2.402   4.444   1.523  0.2825 -0.1598  0.0976
 9137SOL    HW227790   2.270   4.381   1.485 -0.0616  0.5355  0.1290
 9138SOL     OW27791   4.191   4.642   0.276 -0.0926  0.7874  0.2896
 9138SOL    HW127792   4.147   4.590   0.209  1.2262  1.1518 -0.8897
 9138SOL    HW227793   4.137   4.720   0.285  0.5705  1.5166 -1.5873
 9139SOL     OW27794   3.640   0.454   3.244  0.4429  0.2921 -0.2738
 9139SOL    HW127795   3.652   0.362   3.222 -0.3922 -0.0362  0.5947
 9139SOL    HW227796   3.546   0.463   3.261  0.7120  1.0078  0.9533
 9140SOL     OW27797   3.893   4.906   5.078  0.3309  0.0307  0.5866
 9140SOL    HW127798   3.799   4.921   5.083  0.2233 -0.1565 -0.5684
 9140SOL    HW227799   3.928   4.945   5.158 -0.8252 -0.7605  1.5285
 9141SOL     OW27800   5.037   3.702   0.116  0.0289 -0.1511  0.4153
 9141SOL    HW127801   4.953   3.660   0.134 -0.6022  0.6697 -0.5337
 9141SOL    HW227802   5.061   3.744   0.199 -0.2404 -0.8109  0.8344
 9142SOL     OW27803   4.409   1.808   4.840 -0.5625  0.4483 -0.3035
 9142SOL    HW127804   4.415   1.748   4.765  0.1551  0.2774 -0.1156
 9142SOL    HW227805   4.430   1.894   4.804 -1.4993  0.5902 -0.5538
 9143SOL     OW27806   0.343   6.187   4.274  0.4471 -0.2051 -0.6974
 9143SOL    HW127807   0.333   6.135   4.354  1.3158  1.7983  0.8038
 9143SOL    HW227808   0.429   6.162   4.240  0.3692 -0.5787 -0.6224
 9144SOL     OW27809   4.331   4.436   6.784  0.2707  0.1235 -0.3608
 9144SOL    HW127810   4.415   4.431   6.739 -0.0007  1.1155 -0.9942
 9144SOL    HW227811   4.289   4.514   6.748 -1.3619 -0.9232 -0.8221
 9145SOL     OW27812   1.577   1.631   5.451  0.1013 -0.2884  1.0767
 9145SOL    HW127813   1.614   1.561   5.505  0.5923  0.5834  1.9006
 9145SOL    HW227814   1.588   1.710   5.504 -0.2423  0.4495  0.0715
 9146SOL     OW27815   0.097   1.706   3.002  0.4073 -0.0286  0.6857
 9146SOL    HW127816   0.002   1.719   2.995  0.4062 -0.4776 -0.2280
 9146SOL    HW227817   0.106   1.614   3.026  0.5989  0.1730  1.4123
 9147SOL     OW27818   6.569   3.106   0.343  0.2979  0.5065 -0.8328
 9147SOL    HW127819   6.473   3.105   0.344  0.2810 -0.2788  0.7415
 9147SOL    HW227820   6.592   3.172   0.409  0.7965 -0.9411  0.4930
 9148SOL     OW27821   2.214   5.460   6.444  0.2553 -0.1030  0.0214
 9148SOL    HW127822   2.169   5.543   6.454 -1.3161 -0.9092 -0.0191
 9148SOL    HW227823   2.295   5.481   6.396 -0.2704  1.3262 -0.2638
 9149SOL     OW27824   0.514   0.448   1.992 -0.2767  0.3043 -0.0892
 9149SOL    HW127825   0.454   0.374   1.986 -0.5757  0.5787 -0.5749
 9149SOL    HW227826   0.486   0.507   1.922  0.5284  0.4551 -0.2919
 9150SOL     OW27827   3.993   1.459   2.336 -0.1691  0.9535  0.2156
 9150SOL    HW127828   3.956   1.517   2.402 -1.3691  1.4174 -0.8298
 9150SOL    HW227829   4.060   1.511   2.292  1.1874  0.3894  1.5476
 9151SOL     OW27830   5.301   2.278   3.250 -0.1160 -0.2316 -0.0566
 9151SOL    HW127831   5.362   2.244   3.316 -0.9886 -2.6309 -0.3903
 9151SOL    HW227832   5.216   2.281   3.295 -0.2386  0.6983 -0.3213
 9152SOL     OW27833   2.128   6.016   2.696 -0.0949 -0.7423  0.0256
 9152SOL    HW127834   2.161   5.944   2.643  3.1481  0.9107 -0.4772
 9152SOL    HW227835   2.174   6.009   2.779 -1.7585 -0.7209  0.9943
 9153SOL     OW27836   1.294   4.202   2.546 -0.4930 -0.0005 -0.2512
 9153SOL    HW127837   1.286   4.270   2.479  1.3297  0.4152 -0.1011
 9153SOL    HW227838   1.238   4.232   2.617 -1.2952  0.2940 -0.9786
 9154SOL     OW27839   2.156   6.094   5.601  0.5491  0.0029  0.3810
 9154SOL    HW127840   2.165   6.102   5.506 -3.1300 -1.6427 -0.2764
 9154SOL    HW227841   2.217   6.023   5.625 -0.6369 -1.6937 -1.3312
 9155SOL     OW27842   5.725   1.030   5.160  0.6348 -0.2118 -0.7132
 9155SOL    HW127843   5.651   1.075   5.200  0.4702  0.0448 -1.2949
 9155SOL    HW227844   5.689   0.995   5.078  0.9736 -0.6928 -0.6585
 9156SOL     OW27845   6.240   3.358   5.738  0.3614 -0.1183 -0.2731
 9156SOL    HW127846   6.198   3.387   5.819 -1.2736  1.1470 -1.4964
 9156SOL    HW227847   6.327   3.399   5.741  1.0797 -1.6438  1.6602
 9157SOL     OW27848   6.024   6.785   3.610  0.1206 -0.2086  0.0767
 9157SOL    HW127849   5.989   6.696   3.609 -0.3022 -0.0434 -0.0819
 9157SOL    HW227850   6.115   6.775   3.581 -0.7711 -0.2451 -3.0045
 9158SOL     OW27851   3.940   6.803   3.564  0.5409  0.5295 -0.0319
 9158SOL    HW127852   4.021   6.802   3.616  1.3415 -1.3315 -1.2312
 9158SOL    HW227853   3.943   6.723   3.512 -2.2962  0.1808  0.1668
 9159SOL     OW27854   3.828   6.206   6.646  0.2782 -0.1539 -0.6371
 9159SOL    HW127855   3.908   6.259   6.648  0.9706 -0.9417 -3.4015
 9159SOL    HW227856   3.833   6.158   6.564 -2.9394 -0.4735 -0.7699
 9160SOL     OW27857   5.656   4.133   1.039 -0.2338 -0.1903 -0.4871
 9160SOL    HW127858   5.695   4.048   1.021 -0.6642 -0.4581 -0.1651
 9160SOL    HW227859   5.688   4.190   0.969  1.4485 -0.1783  0.2485
 9161SOL     OW27860   3.679   4.074   0.023  0.2493  0.1131  0.4242
 9161SOL    HW127861   3.753   4.015   0.038 -0.2080 -0.4345  0.5673
 9161SOL    HW227862   3.697   4.150   0.079  1.3453  0.5732 -0.5090
 9162SOL     OW27863   2.816   1.143   3.748  0.3168 -0.4887 -0.7126
 9162SOL    HW127864   2.879   1.073   3.762 -0.2568 -0.6921  1.1690
 9162SOL    HW227865   2.847   1.215   3.802 -0.2363 -0.0365 -0.9813
 9163SOL     OW27866   0.920   3.508   5.149  0.3815 -0.0468  0.1339
 9163SOL    HW127867   0.928   3.538   5.239  1.0560 -1.4696  0.5727
 9163SOL    HW227868   1.003   3.464   5.130  0.0214 -0.2922 -0.9796
 9164SOL     OW27869   1.969   5.010   4.377  0.3791 -0.0444  0.8003
 9164SOL    HW127870   1.944   4.961   4.455  0.8671  0.8155  1.5222
 9164SOL    HW227871   1.974   4.945   4.307  2.1377 -1.2383  1.9750
 9165SOL     OW27872   2.974   5.798   2.789  0.2713  0.3004  0.1542
 9165SOL    HW127873   2.966   5.843   2.874  0.6931  2.7149 -0.9991
 9165SOL    HW227874   3.068   5.782   2.779  0.3779  1.1758 -0.3744
 9166SOL     OW27875   3.702   6.457   6.723 -0.3715 -0.4923 -0.0357
 9166SOL    HW127876   3.740   6.398   6.658 -1.7411  0.6979 -2.0281
 9166SOL    HW227877   3.688   6.403   6.800  0.8556 -2.0928 -0.8950
 9167SOL     OW27878   3.795   1.289   4.677 -0.0178  0.2250  0.5557
 9167SOL    HW127879   3.775   1.285   4.584  0.1588  1.4330  0.4505
 9167SOL    HW227880   3.785   1.198   4.708  1.0920 -0.4111 -0.8588
 9168SOL     OW27881   4.166   5.598   1.059 -0.0054  0.4880  0.0930
 9168SOL    HW127882   4.216   5.636   0.986  0.2004  1.2210  0.6049
 9168SOL    HW227883   4.231   5.547   1.108 -0.1461 -0.0144 -0.2383
 9169SOL     OW27884   1.167   4.789   1.829 -0.0653  0.3589 -0.3235
 9169SOL    HW127885   1.249   4.817   1.869  0.7283 -0.4364 -1.3484
 9169SOL    HW227886   1.109   4.772   1.903  1.0561 -0.1455  0.4679
 9170SOL     OW27887   5.517   0.073   6.149 -0.2171 -0.3383  0.1645
 9170SOL    HW127888   5.578   0.110   6.085 -0.9425  0.5867 -0.0111
 9170SOL    HW227889   5.571   0.015   6.203  0.5300 -0.6430 -0.8820
 9171SOL     OW27890   5.749   2.038   5.848 -0.0637 -0.3590 -0.3275
 9171SOL    HW127891   5.763   1.958   5.797  2.1507 -0.8358  0.8857
 9171SOL    HW227892   5.658   2.061   5.833 -0.3092 -2.2040 -2.0031
 9172SOL     OW27893   2.911   0.461   2.478 -0.3306  0.0496  0.7465
 9172SOL    HW127894   2.941   0.379   2.518  0.2752 -0.3234 -0.4144
 9172SOL    HW227895   2.904   0.441   2.384 -1.5311  0.9398  0.6165
 9173SOL     OW27896   1.060   5.629   4.463 -0.2437 -0.1298  0.4231
 9173SOL    HW127897   1.071   5.611   4.369  2.3587 -1.0550  0.8170
 9173SOL    HW227898   1.007   5.709   4.466  1.1286  0.9894 -1.9076
 9174SOL     OW27899   2.539   0.917   0.446  0.1332  0.2093 -0.2484
 9174SOL    HW127900   2.451   0.954   0.442  0.2879  0.6153  0.0641
 9174SOL    HW227901   2.594   0.989   0.476  0.6504  0.0861 -0.8795
 9175SOL     OW27902   0.446   5.191   1.588  0.0247  0.0119  0.4345
 9175SOL    HW127903   0.532   5.151   1.569 -0.1671 -0.0820 -0.2776
 9175SOL    HW227904   0.432   5.173   1.680  0.1345 -1.2283  0.2361
 9176SOL     OW27905   5.506   2.094   6.225  0.1782 -0.6256  0.4131
 9176SOL    HW127906   5.556   2.038   6.285  0.3406  0.5944  1.4757
 9176SOL    HW227907   5.570   2.156   6.191 -0.3535  0.2299  0.9023
 9177SOL     OW27908   5.796   5.722   5.997 -0.0829 -0.2691  0.1110
 9177SOL    HW127909   5.793   5.817   6.006 -0.7168 -0.3477  0.8374
 9177SOL    HW227910   5.843   5.692   6.075  0.2960 -0.5485 -0.2167
 9178SOL     OW27911   0.331   4.340   4.479 -0.3636  0.0022  0.0000
 9178SOL    HW127912   0.343   4.388   4.561 -1.3271 -0.8413  0.6641
 9178SOL    HW227913   0.409   4.361   4.427 -0.3092  1.5123  0.6350
 9179SOL     OW27914   5.868   1.279   6.839 -0.4573  0.0438 -0.0256
 9179SOL    HW127915   5.843   1.226   6.916  0.9762 -1.6126 -0.6308
 9179SOL    HW227916   5.943   1.329   6.869  1.0007 -1.6555 -0.6734
 9180SOL     OW27917   4.066   5.859   2.020 -0.8897 -0.3518 -0.6140
 9180SOL    HW127918   4.062   5.918   1.945  0.9625 -1.4580 -1.6754
 9180SOL    HW227919   3.986   5.807   2.014 -2.0053  1.2592 -0.2924
 9181SOL     OW27920   0.005   1.250   4.793 -0.1647  0.2605 -0.4172
 9181SOL    HW127921   0.097   1.259   4.766  0.4453 -1.3378  0.9460
 9181SOL    HW227922  -0.010   1.324   4.852  0.4802  0.1421 -0.0908
 9182SOL     OW27923   2.286   2.253   4.419  0.8928  0.3100  0.6512
 9182SOL    HW127924   2.278   2.328   4.478 -1.1157  0.9586 -0.3565
 9182SOL    HW227925   2.231   2.185   4.460 -0.0053  0.5547 -0.1161
 9183SOL     OW27926   4.938   1.377   5.170 -0.3667 -1.1064  0.4131
 9183SOL    HW127927   4.900   1.372   5.257 -0.9101  0.4611  0.3089
 9183SOL    HW227928   5.031   1.390   5.185 -0.5476 -0.1591  0.8054
 9184SOL     OW27929   5.178   4.310   2.088 -0.4036  0.2298  0.5870
 9184SOL    HW127930   5.265   4.344   2.106  0.8234 -2.0894 -0.4995
 9184SOL    HW227931   5.119   4.370   2.133  1.6048  2.9429 -0.1578
 9185SOL     OW27932   1.930   1.007   4.636  0.0946  0.5800 -0.1951
 9185SOL    HW127933   1.902   0.968   4.719 -1.5797 -0.2938 -1.1259
 9185SOL    HW227934   2.002   1.065   4.660  1.3780 -1.5742  1.5394
 9186SOL     OW27935   1.618   1.205   3.226  0.1733  0.3199 -0.3855
 9186SOL    HW127936   1.683   1.216   3.296  0.0122 -0.4310 -0.1145
 9186SOL    HW227937   1.535   1.194   3.273  0.4024 -2.9076 -0.5494
 9187SOL     OW27938   6.608   4.409   6.632 -0.3329 -0.4334 -0.2400
 9187SOL    HW127939   6.653   4.328   6.660  2.4754  1.6402  1.8453
 9187SOL    HW227940   6.629   4.417   6.539 -1.4398 -2.4868 -0.7286
 9188SOL     OW27941   2.977   5.839   6.787  0.5025  0.1953 -0.4317
 9188SOL    HW127942   3.050   5.802   6.737  0.8196 -1.5419  1.2045
 9188SOL    HW227943   2.996   5.933   6.791  0.9933  0.2462 -2.6165
 9189SOL     OW27944   3.296   5.242   1.085 -0.1130 -0.1475 -0.3056
 9189SOL    HW127945   3.372   5.200   1.125  0.4601  0.4147 -0.7754
 9189SOL    HW227946   3.331   5.286   1.007 -0.4497  2.1511  0.7446
 9190SOL     OW27947   4.676   2.804   0.417  0.5529 -0.2838  0.0516
 9190SOL    HW127948   4.598   2.749   0.417 -0.1187  0.6290 -0.8295
 9190SOL    HW227949   4.679   2.841   0.506 -2.2623  2.6538 -0.8504
 9191SOL     OW27950   0.412   0.716   5.275 -0.8586 -0.2306 -0.1433
 9191SOL    HW127951   0.414   0.801   5.319 -1.7690  0.5067 -1.4693
 9191SOL    HW227952   0.497   0.677   5.296 -0.1261  1.3009 -0.1037
 9192SOL     OW27953   2.567   6.096   6.767 -0.1138 -0.2057 -0.2806
 9192SOL    HW127954   2.532   6.024   6.820  0.2080  0.2534  0.5833
 9192SOL    HW227955   2.560   6.066   6.677 -0.5801 -1.0570  0.0328
 9193SOL     OW27956   4.067   3.293   5.984 -0.0405 -0.2711 -0.1758
 9193SOL    HW127957   4.143   3.241   5.956 -0.1023  0.1164 -1.0943
 9193SOL    HW227958   4.003   3.283   5.913 -0.4829  0.1597  0.1537
 9194SOL     OW27959   6.334   5.061   1.885 -0.1516  0.0809 -0.0824
 9194SOL    HW127960   6.296   5.084   1.970  0.5103 -1.3849  0.6426
 9194SOL    HW227961   6.348   4.966   1.889 -1.1884 -0.2531 -2.2780
 9195SOL     OW27962   1.962   0.656   1.642  0.8378 -0.1987  0.5165
 9195SOL    HW127963   2.055   0.642   1.626  1.0227  0.4978  0.9165
 9195SOL    HW227964   1.946   0.615   1.727  1.1024  0.8960  1.1071
 9196SOL     OW27965   2.396   2.110   2.182  0.4957  0.1244 -0.1209
 9196SOL    HW127966   2.463   2.159   2.135 -0.1027  1.6442  0.5390
 9196SOL    HW227967   2.322   2.171   2.189 -0.8366 -1.3881 -0.5307
 9197SOL     OW27968   4.756   5.897   3.547  0.1913 -0.7932 -0.5259
 9197SOL    HW127969   4.764   5.844   3.627  2.5725  0.7242  0.3498
 9197SOL    HW227970   4.741   5.986   3.579 -1.2727 -0.5075 -1.8987
 9198SOL     OW27971   4.189   4.725   3.152  0.1648 -0.0226  0.0913
 9198SOL    HW127972   4.175   4.820   3.147  0.0884  0.0621  1.5032
 9198SOL    HW227973   4.119   4.688   3.099  1.2834  0.7341 -2.0595
 9199SOL     OW27974   2.397   4.096   1.543 -0.2100 -0.1178 -0.1644
 9199SOL    HW127975   2.467   4.070   1.604  0.5275 -1.3994 -1.4968
 9199SOL    HW227976   2.387   4.190   1.557  0.7137 -0.1872  1.1401
 9200SOL     OW27977   0.899   0.120   0.307 -0.0973 -0.6545  0.4482
 9200SOL    HW127978   0.970   0.056   0.303  1.2341  0.6614  1.5738
 9200SOL    HW227979   0.881   0.129   0.401 -0.1034  0.7575  0.3322
 9201SOL     OW27980   3.553   1.287   6.033 -0.3391 -0.2683  0.3939
 9201SOL    HW127981   3.596   1.254   6.112  1.4101  0.4790 -0.1795
 9201SOL    HW227982   3.615   1.352   5.999 -1.5285  0.1533 -1.0383
 9202SOL     OW27983   0.416   6.379   5.617 -0.3130  0.4561 -0.0496
 9202SOL    HW127984   0.326   6.354   5.599  0.2430 -2.2798  0.5269
 9202SOL    HW227985   0.410   6.440   5.691 -1.7418  1.3759 -0.8908
 9203SOL     OW27986   0.763   1.993   3.965  0.0608  0.5495  0.2813
 9203SOL    HW127987   0.786   2.045   4.042 -2.2998  3.0225 -0.5304
 9203SOL    HW227988   0.672   2.016   3.946  0.3605 -0.3838 -2.9198
 9204SOL     OW27989   3.175   3.737   1.075  0.7230 -0.0145  0.3834
 9204SOL    HW127990   3.210   3.676   1.139 -0.0013 -0.8861 -0.0343
 9204SOL    HW227991   3.207   3.705   0.991 -0.5645 -0.5074  0.0464
 9205SOL     OW27992   5.414   1.488   3.181  0.7078 -0.0180  0.5694
 9205SOL    HW127993   5.444   1.579   3.171  1.8999 -0.2667  1.6438
 9205SOL    HW227994   5.329   1.486   3.138 -0.5956  2.2929  2.7399
 9206SOL     OW27995   3.568   5.463   1.167 -0.2982 -0.1053 -0.5945
 9206SOL    HW127996   3.492   5.520   1.171 -1.2743 -1.3795 -0.2911
 9206SOL    HW227997   3.600   5.470   1.077  0.3657  1.8314 -0.2470
 9207SOL     OW27998   0.597   3.430   3.753  0.1298 -0.8818 -0.6459
 9207SOL    HW127999   0.604   3.390   3.840  0.0286  1.1504  0.3482
 9207SOL    HW228000   0.524   3.384   3.712  0.3183 -2.0295  0.2297
 9208SOL     OW28001   1.870   1.158   0.492 -0.1395 -0.4133 -0.7298
 9208SOL    HW128002   1.894   1.075   0.533  1.1802  0.5965  0.6460
 9208SOL    HW228003   1.827   1.207   0.562  0.1655  0.5075 -1.1864
 9209SOL     OW28004   0.060   0.748   4.335 -0.7594  0.0817 -0.2766
 9209SOL    HW128005   0.088   0.837   4.355  0.4539 -0.1391 -0.9102
 9209SOL    HW228006   0.087   0.697   4.411 -0.2580  0.0280 -0.4898
 9210SOL     OW28007   4.528   1.602   0.511  0.6140  0.2942  0.5853
 9210SOL    HW128008   4.623   1.592   0.515  0.6973  1.3541  1.9993
 9210SOL    HW228009   4.494   1.518   0.540  1.1189  0.0217  0.4043
 9211SOL     OW28010   0.771   2.998   0.453  0.4998 -0.3096  0.0306
 9211SOL    HW128011   0.829   2.938   0.408  0.3675  0.2806 -0.9565
 9211SOL    HW228012   0.786   3.083   0.410 -0.8593 -0.0881 -0.0464
 9212SOL     OW28013   3.222   0.820   0.395 -0.5584  0.0344  0.4618
 9212SOL    HW128014   3.190   0.783   0.478  0.9931  0.2022  1.1638
 9212SOL    HW228015   3.268   0.748   0.353  1.1637  0.6817  1.1324
 9213SOL     OW28016   1.303   0.177   0.483  0.4780 -0.1571 -0.0844
 9213SOL    HW128017   1.300   0.081   0.475  0.9908 -0.1602 -0.2865
 9213SOL    HW228018   1.247   0.196   0.558 -1.6891 -0.4065 -1.5442
 9214SOL     OW28019   6.475   2.457   4.946 -0.0717 -0.3442  0.0652
 9214SOL    HW128020   6.525   2.505   5.011  0.1487 -0.9003  0.3081
 9214SOL    HW228021   6.423   2.524   4.901 -0.1845  0.0457  0.7737
 9215SOL     OW28022   3.087   5.497   3.727 -0.4329 -0.1403 -0.0291
 9215SOL    HW128023   3.123   5.583   3.706 -0.2261  0.0079  0.8815
 9215SOL    HW228024   3.064   5.460   3.643  1.2358  0.0353 -0.6064
 9216SOL     OW28025   0.389   3.452   5.028 -0.4915 -0.2108 -0.1354
 9216SOL    HW128026   0.404   3.503   5.108 -1.2348  0.2135 -0.2546
 9216SOL    HW228027   0.474   3.447   4.986  0.1356 -1.2612  1.1596
 9217SOL     OW28028   6.244   4.402   2.730 -0.0417  0.0217  0.1899
 9217SOL    HW128029   6.229   4.457   2.807 -0.4371  1.3105 -0.7787
 9217SOL    HW228030   6.340   4.399   2.721  0.0109 -0.2900  0.8381
 9218SOL     OW28031   2.279   4.657   1.950 -0.5422  0.5517  0.3031
 9218SOL    HW128032   2.348   4.640   1.885  0.4107  2.5460  0.7163
 9218SOL    HW228033   2.211   4.703   1.900 -0.4310  0.8496  0.4260
 9219SOL     OW28034   3.700   5.721   2.628 -0.0748 -0.3739 -0.2540
 9219SOL    HW128035   3.780   5.721   2.575  0.3735 -0.4472  0.4119
 9219SOL    HW228036   3.640   5.664   2.579 -0.1444  0.5938 -1.3530
 9220SOL     OW28037   3.334   4.309   5.459  0.2570 -0.5285  0.1932
 9220SOL    HW128038   3.243   4.307   5.490  0.0847 -0.0038 -0.2668
 9220SOL    HW228039   3.330   4.354   5.375  1.1780  1.3134  1.0551
 9221SOL     OW28040   4.454   1.963   4.148 -0.3415  1.0991  0.4542
 9221SOL    HW128041   4.477   2.008   4.067 -0.8845  0.7862  0.1176
 9221SOL    HW228042   4.385   1.901   4.122 -1.0672  1.5291  1.2872
 9222SOL     OW28043   0.622   0.046   6.663 -0.1556 -0.5403  1.0789
 9222SOL    HW128044   0.665   0.085   6.738 -1.4221  0.1472  1.4683
 9222SOL    HW228045   0.568  -0.025   6.699  0.2393 -1.0771  0.6533
 9223SOL     OW28046   1.003   3.407   0.031 -0.5583  0.0578  0.4605
 9223SOL    HW128047   0.947   3.473   0.069 -0.5665  0.4331 -0.1795
 9223SOL    HW228048   0.944   3.353  -0.022 -0.1614  1.2880 -1.3394
 9224SOL     OW28049   0.301   2.916   4.673  0.0339 -0.3263  0.0458
 9224SOL    HW128050   0.349   2.995   4.647  0.3962 -0.9803 -1.3618
 9224SOL    HW228051   0.212   2.947   4.690  0.1945  0.4162 -0.3976
 9225SOL     OW28052   6.530   0.094   6.323  0.6506  0.4723  0.3209
 9225SOL    HW128053   6.442   0.085   6.286  0.1884  0.2608  1.4305
 9225SOL    HW228054   6.523   0.169   6.382  1.6539  1.4849 -0.7742
 9226SOL     OW28055   3.819   2.314   1.325 -0.1868  0.3961 -0.3328
 9226SOL    HW128056   3.883   2.332   1.394 -0.7246 -0.1064  0.3099
 9226SOL    HW228057   3.873   2.299   1.247  0.5381 -0.6146  0.3252
 9227SOL     OW28058   3.637   3.935   2.013  0.6558 -0.2773 -0.3452
 9227SOL    HW128059   3.618   3.841   2.020  0.0813 -0.1601 -0.2642
 9227SOL    HW228060   3.684   3.955   2.094  2.1992 -0.8113 -1.0718
 9228SOL     OW28061   6.407   5.008   5.667  0.5161 -0.1297  0.0363
 9228SOL    HW128062   6.422   5.093   5.708 -1.1657  0.1657  0.0989
 9228SOL    HW228063   6.340   4.966   5.722  1.5837 -1.6699  0.2340
 9229SOL     OW28064   4.690   4.813   3.172  0.6519 -0.2906 -0.4074
 9229SOL    HW128065   4.764   4.862   3.137  1.4278 -1.0250  0.1517
 9229SOL    HW228066   4.645   4.778   3.095  0.3857  0.8593 -0.7806
 9230SOL     OW28067   6.628   4.164   0.592 -0.1975 -1.0316 -0.5689
 9230SOL    HW128068   6.541   4.188   0.623 -0.1462 -0.0419 -1.1498
 9230SOL    HW228069   6.671   4.125   0.668 -1.4016 -2.2776 -0.4672
 9231SOL     OW28070   0.002   4.570   6.741 -0.4690 -0.0949 -0.1879
 9231SOL    HW128071  -0.093   4.579   6.738 -0.5546 -0.5305  0.8989
 9231SOL    HW228072   0.024   4.574   6.834  0.5328 -0.4123 -0.3964
 9232SOL     OW28073   5.864   4.407   2.655  0.5263  0.2734  0.2014
 9232SOL    HW128074   5.918   4.413   2.734  0.0610  0.6538  0.4983
 9232SOL    HW228075   5.805   4.482   2.661 -0.1410 -0.2194 -0.0279
 9233SOL     OW28076   3.449   6.571   0.570 -0.5820 -0.1667  0.0201
 9233SOL    HW128077   3.373   6.611   0.526 -0.5500  0.2929  0.3771
 9233SOL    HW228078   3.412   6.528   0.647 -0.5567 -0.4653 -0.1312
 9234SOL     OW28079   6.664   2.278   4.370  0.1114 -0.5968  0.2263
 9234SOL    HW128080   6.619   2.197   4.347 -1.3307  0.4265 -0.7641
 9234SOL    HW228081   6.629   2.343   4.308  0.0537  1.1245  1.9602
 9235SOL     OW28082   0.825   2.536   1.988  0.6502 -0.1624 -0.5857
 9235SOL    HW128083   0.867   2.490   1.915  0.2809 -0.2197 -0.7625
 9235SOL    HW228084   0.842   2.628   1.971  0.7094 -0.1854 -0.6522
 9236SOL     OW28085   4.891   2.595   6.142 -0.2044 -0.2187 -0.2451
 9236SOL    HW128086   4.804   2.556   6.151 -0.0521 -0.6386 -0.5709
 9236SOL    HW228087   4.930   2.548   6.069  1.0914 -1.5482  1.2108
 9237SOL     OW28088   3.654   5.592   6.572  0.1015  0.1702  0.2155
 9237SOL    HW128089   3.576   5.570   6.520 -1.1208  1.8456  1.2550
 9237SOL    HW228090   3.718   5.621   6.508 -0.7076  0.3764 -0.5218
 9238SOL     OW28091   5.017   2.186   1.388  0.0403  0.2055  0.4776
 9238SOL    HW128092   5.009   2.157   1.479 -1.1422 -0.6349  0.1364
 9238SOL    HW228093   4.947   2.252   1.378  0.8594  1.1001  0.4532
 9239SOL     OW28094   0.021   6.353   0.956  0.3506 -0.2999 -0.3903
 9239SOL    HW128095   0.115   6.333   0.961  0.4479 -0.0743 -1.1898
 9239SOL    HW228096   0.015   6.427   0.896 -0.0466  1.9486  2.2242
 9240SOL     OW28097   5.850   2.349   0.895  0.4221  0.0767 -0.2194
 9240SOL    HW128098   5.850   2.381   0.805 -0.6375 -0.3227 -0.3796
 9240SOL    HW228099   5.939   2.364   0.926  0.3503  1.8249 -0.7524
 9241SOL     OW28100   3.151   1.285   4.062 -0.0209 -0.3594  0.0552
 9241SOL    HW128101   3.119   1.319   4.145 -0.3019  1.4717 -0.7427
 9241SOL    HW228102   3.238   1.324   4.053 -0.1668 -0.1925 -0.6910
 9242SOL     OW28103   3.259   6.101   2.676  0.0453  0.3899  0.0352
 9242SOL    HW128104   3.220   6.187   2.662  1.9149  1.3925  0.6269
 9242SOL    HW228105   3.341   6.103   2.626  0.0571 -1.1018 -0.0551
 9243SOL     OW28106   5.356   6.585   5.628  0.5512  0.4120  0.1652
 9243SOL    HW128107   5.299   6.658   5.603  0.4169  0.1775 -0.2123
 9243SOL    HW228108   5.336   6.570   5.721 -0.0476  0.2926  0.0222
 9244SOL     OW28109   6.304   6.046   4.535  0.0367  0.0651 -1.0168
 9244SOL    HW128110   6.234   6.106   4.512  1.0833  1.0841 -1.6170
 9244SOL    HW228111   6.369   6.056   4.466  1.7458  0.7363  0.6164
 9245SOL     OW28112   5.095   5.840   6.709  0.0145  0.3274  0.7327
 9245SOL    HW128113   5.105   5.747   6.730 -1.0727 -0.3916 -1.6282
 9245SOL    HW228114   5.183   5.875   6.716  0.5962 -1.0681  0.8054
 9246SOL     OW28115   0.340   0.480   1.484  0.0668  0.1159 -0.5991
 9246SOL    HW128116   0.435   0.464   1.486  0.1074  0.2462 -1.2533
 9246SOL    HW228117   0.330   0.562   1.436 -0.3368  0.4811  0.1036
 9247SOL     OW28118   4.711   5.295   3.471  0.4948  0.1592  0.0595
 9247SOL    HW128119   4.722   5.224   3.408  0.0702  0.5221 -0.4420
 9247SOL    HW228120   4.707   5.252   3.556 -1.3700 -0.5810 -0.3617
 9248SOL     OW28121   0.408   6.139   3.409 -0.1207  0.1074 -0.3716
 9248SOL    HW128122   0.346   6.212   3.410 -0.0695  0.1599  0.7741
 9248SOL    HW228123   0.480   6.170   3.354  1.4225  2.3208  2.5629
 9249SOL     OW28124   1.667   5.807   4.209 -0.1088  0.1228  0.1398
 9249SOL    HW128125   1.741   5.771   4.162  2.2511  2.3996  1.8322
 9249SOL    HW228126   1.639   5.737   4.268  2.2833 -0.0816  1.1331
 9250SOL     OW28127   4.404   3.603   5.819  0.5238 -0.2241  0.1565
 9250SOL    HW128128   4.360   3.523   5.789 -0.4561  0.4903 -0.3578
 9250SOL    HW228129   4.413   3.656   5.740 -2.8068  2.0382  1.1235
 9251SOL     OW28130   4.823   6.147   4.980 -0.1774  0.4485 -0.2423
 9251SOL    HW128131   4.795   6.067   5.024  0.1284  0.3579 -0.2151
 9251SOL    HW228132   4.881   6.118   4.909  0.1037  0.6562 -0.1007
 9252SOL     OW28133   1.004   4.079   0.902  0.0336 -0.6787  0.0227
 9252SOL    HW128134   1.006   3.991   0.864 -3.1268 -0.7759 -0.1581
 9252SOL    HW228135   0.989   4.137   0.828  0.6536 -0.1168  0.3248
 9253SOL     OW28136   1.317   5.863   1.485  0.1468 -0.4989 -0.2797
 9253SOL    HW128137   1.321   5.836   1.393  1.2743 -0.9120 -0.1205
 9253SOL    HW228138   1.389   5.926   1.494 -0.7228  0.4847  0.0335
 9254SOL     OW28139   1.816   5.025   2.470 -0.1561 -0.5062 -0.5313
 9254SOL    HW128140   1.817   5.028   2.375 -1.0916 -0.9316 -0.5692
 9254SOL    HW228141   1.743   5.082   2.495  0.1213 -0.3473 -0.0637
 9255SOL     OW28142   5.969   6.828   6.368 -0.3089  0.1350 -0.4039
 9255SOL    HW128143   6.052   6.851   6.326  0.2935  1.2684  1.3073
 9255SOL    HW228144   5.994   6.790   6.452 -1.5071  1.0373  0.3958
 9256SOL     OW28145   2.252   2.610   1.770  0.7738  0.0772 -0.1662
 9256SOL    HW128146   2.227   2.544   1.835  3.4116  0.2478  1.1760
 9256SOL    HW228147   2.292   2.560   1.699  0.7361  0.0867 -0.1940
 9257SOL     OW28148   3.724   2.689   2.763  0.4742 -0.2831 -0.3161
 9257SOL    HW128149   3.707   2.620   2.827 -0.7897  0.0775 -0.2265
 9257SOL    HW228150   3.799   2.736   2.798  0.5183 -0.8058  0.3042
 9258SOL     OW28151   2.883   0.361   2.213  0.4025  0.2579 -0.5842
 9258SOL    HW128152   2.917   0.371   2.124 -1.6604  0.1994 -1.4494
 9258SOL    HW228153   2.798   0.405   2.210 -0.3614 -1.0263  0.9291
 9259SOL     OW28154   2.181   3.120   3.118 -0.1006 -0.6872 -0.2104
 9259SOL    HW128155   2.204   3.196   3.063 -0.0952 -1.6264 -1.5625
 9259SOL    HW228156   2.114   3.074   3.067 -0.6997 -1.1488  0.9732
 9260SOL     OW28157   0.012   5.548   2.573  0.0914 -0.6200 -0.4074
 9260SOL    HW128158   0.087   5.505   2.532 -1.0738 -0.9283 -2.3025
 9260SOL    HW228159   0.041   5.639   2.585  0.3710 -0.4186 -2.3072
 9261SOL     OW28160   1.347   4.076   5.248 -0.5831  0.0192  0.5688
 9261SOL    HW128161   1.321   4.056   5.158 -0.3295  0.5238  0.3781
 9261SOL    HW228162   1.284   4.143   5.276  0.2725  1.0066  0.2194
 9262SOL     OW28163   1.685   3.918   5.485 -0.4269  0.3368  0.4435
 9262SOL    HW128164   1.683   3.993   5.425 -1.0112 -0.9683 -1.2559
 9262SOL    HW228165   1.602   3.873   5.470 -0.2271 -0.4875  1.6623
 9263SOL     OW28166   4.988   3.431   3.500  0.2016  0.2740  0.4862
 9263SOL    HW128167   4.984   3.389   3.586 -0.9522  2.2049  1.4548
 9263SOL    HW228168   5.082   3.447   3.485  0.3531  1.0179  2.0001
 9264SOL     OW28169   6.008   2.634   3.391 -0.2043  0.4377  0.5188
 9264SOL    HW128170   6.035   2.648   3.300  3.0807 -2.3010  0.8645
 9264SOL    HW228171   6.086   2.656   3.443 -0.6357 -1.8445  2.2814
 9265SOL     OW28172   1.999   6.038   1.353  0.4262  0.1831  0.0804
 9265SOL    HW128173   1.912   5.999   1.366 -0.1074  0.7108 -1.6932
 9265SOL    HW228174   2.043   5.977   1.293  1.1511  0.1431  0.6356
 9266SOL     OW28175   3.357   1.791   1.529 -0.0658  0.6624  0.1221
 9266SOL    HW128176   3.332   1.874   1.569 -1.1277  0.0775  0.7161
 9266SOL    HW228177   3.309   1.788   1.446 -2.0932 -0.4376  1.2392
 9267SOL     OW28178   5.996   5.058   0.251 -0.2950  0.2932 -0.2124
 9267SOL    HW128179   6.085   5.094   0.248 -0.2236  0.0887 -0.6211
 9267SOL    HW228180   5.939   5.135   0.244 -0.1428  0.3508 -0.8618
 9268SOL     OW28181   1.575   1.526   0.644  0.0622  0.3731  0.2899
 9268SOL    HW128182   1.494   1.475   0.647 -0.7108  1.5120 -0.2854
 9268SOL    HW228183   1.568   1.587   0.718 -0.5224  1.7569 -0.8638
 9269SOL     OW28184   3.083   2.702   0.190 -0.0936 -0.3216  0.8536
 9269SOL    HW128185   3.011   2.680   0.131  1.3970  0.5071 -1.4080
 9269SOL    HW228186   3.118   2.617   0.218 -0.0368 -0.7607 -0.5095
 9270SOL     OW28187   2.801   3.446   4.165  0.1872  0.1938  0.2506
 9270SOL    HW128188   2.818   3.364   4.210  0.9721  0.9243  1.3642
 9270SOL    HW228189   2.858   3.509   4.209 -1.4919  1.6617  0.4424
 9271SOL     OW28190   4.340   5.108   4.339  0.2125  0.4081 -0.2029
 9271SOL    HW128191   4.420   5.105   4.391 -0.2963  1.1217  0.6329
 9271SOL    HW228192   4.300   5.022   4.352  0.1800  0.5180  0.4514
 9272SOL     OW28193   4.503   3.382   5.110 -0.9250  0.7803 -0.4197
 9272SOL    HW128194   4.441   3.454   5.102 -2.7911 -0.8393 -1.4801
 9272SOL    HW228195   4.448   3.304   5.119  0.9035 -0.8601 -2.3667
 9273SOL     OW28196   2.338   5.871   1.065  0.2992 -0.0870  0.2542
 9273SOL    HW128197   2.261   5.870   1.122  0.5777 -1.8303  0.6552
 9273SOL    HW228198   2.406   5.828   1.116  0.7440 -1.0936 -1.1200
 9274SOL     OW28199   5.404   5.846   6.790 -0.6092  0.0694  0.4680
 9274SOL    HW128200   5.497   5.845   6.815 -1.0710  0.1461  2.3246
 9274SOL    HW228201   5.385   5.755   6.769 -0.3337 -0.1345  1.0510
 9275SOL     OW28202   6.065   2.030   5.185 -0.1983 -0.2754  0.0817
 9275SOL    HW128203   5.990   2.079   5.219  0.7420  0.8140  0.6314
 9275SOL    HW228204   6.064   1.948   5.233 -0.5096  0.1168  0.7551
 9276SOL     OW28205   2.524   2.478   3.696  0.3263  0.2572 -0.2538
 9276SOL    HW128206   2.456   2.493   3.762 -0.0777  0.6211 -0.7422
 9276SOL    HW228207   2.557   2.390   3.715 -0.4467 -0.0155 -0.1607
 9277SOL     OW28208   4.966   2.156   0.309  0.1526  0.6667 -0.2136
 9277SOL    HW128209   4.996   2.160   0.218 -1.1415  0.2445 -0.6916
 9277SOL    HW228210   4.976   2.246   0.341  1.9325  0.5326 -0.3039
 9278SOL     OW28211   5.155   0.797   4.608  0.7948  0.4884 -0.1209
 9278SOL    HW128212   5.224   0.812   4.673  0.2897  0.4141  0.4425
 9278SOL    HW228213   5.111   0.717   4.638 -0.3365  1.2265  0.2303
 9279SOL     OW28214   4.725   3.305   3.124  0.5415  0.1864 -0.4765
 9279SOL    HW128215   4.818   3.321   3.109  0.6443 -1.0733 -1.3812
 9279SOL    HW228216   4.705   3.350   3.206  2.4558 -1.2514  0.8715
 9280SOL     OW28217   3.795   1.443   5.278  0.4107  0.1942  0.3386
 9280SOL    HW128218   3.711   1.445   5.325  0.3272  0.7978  0.1843
 9280SOL    HW228219   3.860   1.420   5.344  0.2569  0.7708  0.6960
 9281SOL     OW28220   4.685   0.712   3.040 -0.2327  0.7336 -0.7422
 9281SOL    HW128221   4.656   0.621   3.039 -0.6244  0.8521 -0.1336
 9281SOL    HW228222   4.740   0.720   2.962  0.2927 -0.1800 -0.4799
 9282SOL     OW28223   5.803   0.194   0.450 -0.1337 -0.0361  0.2334
 9282SOL    HW128224   5.751   0.226   0.524  0.2126 -0.0690  0.4947
 9282SOL    HW228225   5.881   0.249   0.451 -0.6395  0.7276 -0.8158
 9283SOL     OW28226   0.158   1.077   6.463  0.4217  0.7505 -0.1292
 9283SOL    HW128227   0.231   1.123   6.503  0.0563  1.0414  0.2172
 9283SOL    HW228228   0.190   0.987   6.450  0.0302  0.1588  2.3999
 9284SOL     OW28229   4.501   6.320   5.084  0.2962 -0.1271  0.0103
 9284SOL    HW128230   4.492   6.225   5.091 -1.6341  0.0354  0.1626
 9284SOL    HW228231   4.539   6.347   5.167 -0.5505 -0.6142  0.5641
 9285SOL     OW28232   4.343   1.852   2.488  0.1022 -0.1849  0.0023
 9285SOL    HW128233   4.365   1.782   2.550 -1.2677 -0.4079  0.2745
 9285SOL    HW228234   4.373   1.820   2.403  1.3811 -0.1756  0.4274
 9286SOL     OW28235   4.617   2.527   6.174 -0.2917 -0.1032 -1.1605
 9286SOL    HW128236   4.591   2.602   6.121 -1.4397 -1.0074 -1.9421
 9286SOL    HW228237   4.572   2.539   6.258  1.5693  1.3604 -0.3047
 9287SOL     OW28238   0.557   3.911   3.617 -0.2229  0.1107  0.2978
 9287SOL    HW128239   0.568   3.979   3.550  0.2580 -0.6982 -0.4643
 9287SOL    HW228240   0.586   3.831   3.574  0.9061 -0.2883  1.7665
 9288SOL     OW28241   3.070   3.034   2.317  0.3368 -0.6799 -0.2425
 9288SOL    HW128242   3.109   3.109   2.273  1.8549 -1.4291 -0.2181
 9288SOL    HW228243   3.086   3.050   2.410  0.2109 -0.7892 -0.2016
 9289SOL     OW28244   6.173   3.458   2.815  0.0935  0.0004 -0.1619
 9289SOL    HW128245   6.152   3.400   2.888 -1.4935  2.1246  1.1781
 9289SOL    HW228246   6.236   3.520   2.850  1.2229 -0.4268 -1.3621
 9290SOL     OW28247   4.802   1.566   1.163  0.3673  0.1598  0.7410
 9290SOL    HW128248   4.708   1.549   1.156  0.3884  0.5043 -0.9884
 9290SOL    HW228249   4.843   1.480   1.152  0.2591 -0.2116  2.8972
 9291SOL     OW28250   1.970   0.292   2.093 -0.6236  0.2996  0.2134
 9291SOL    HW128251   1.876   0.273   2.099 -0.3223 -1.0406  1.4339
 9291SOL    HW228252   2.012   0.208   2.112  0.8571  0.3996 -2.1689
 9292SOL     OW28253   4.062   2.878   2.342  0.6244 -0.3833 -0.2676
 9292SOL    HW128254   4.005   2.802   2.329  0.1366  0.2731 -2.5556
 9292SOL    HW228255   4.147   2.841   2.366 -0.0978 -1.5134  0.6653
 9293SOL     OW28256   1.326   0.520   2.521  0.2321 -0.2333  0.4363
 9293SOL    HW128257   1.328   0.464   2.444  0.1894 -0.1324  0.3607
 9293SOL    HW228258   1.321   0.460   2.595 -0.4506 -0.3164  0.3295
 9294SOL     OW28259   1.023   0.595   2.750  0.1777 -0.6355 -0.4544
 9294SOL    HW128260   0.981   0.681   2.755  1.1985 -0.1206 -0.3834
 9294SOL    HW228261   1.019   0.573   2.657  1.8981  0.5574 -0.8703
 9295SOL     OW28262   1.741   1.788   2.672 -0.5054 -0.5210  0.0581
 9295SOL    HW128263   1.773   1.698   2.662 -0.6484 -0.5362 -0.2623
 9295SOL    HW228264   1.649   1.778   2.693 -0.0669 -0.5202  2.2157
 9296SOL     OW28265   4.742   1.576   2.140 -0.4254 -0.3150  0.1664
 9296SOL    HW128266   4.775   1.542   2.056 -2.4648  1.7294 -1.5869
 9296SOL    HW228267   4.795   1.655   2.156 -0.2400 -0.5391  0.6823
 9297SOL     OW28268   2.932   4.859   4.892  0.2897  0.1971 -0.0001
 9297SOL    HW128269   2.889   4.916   4.828 -0.0736 -0.7901 -0.6789
 9297SOL    HW228270   2.868   4.850   4.963 -0.1269 -0.2677 -0.4254
 9298SOL     OW28271   5.296   2.374   0.010  0.3359 -0.5718  0.3224
 9298SOL    HW128272   5.261   2.390  -0.078  0.1770  0.3713  0.5453
 9298SOL    HW228273   5.297   2.279   0.018 -0.0760 -0.6632 -0.5318
 9299SOL     OW28274   5.302   3.695   2.665  0.1151  0.0534  0.2727
 9299SOL    HW128275   5.291   3.606   2.631  0.5916 -0.1069  0.5214
 9299SOL    HW228276   5.217   3.717   2.703  0.0464 -0.3656  0.3683
 9300SOL     OW28277   3.116   3.538   2.070 -0.0621  0.5912  0.2758
 9300SOL    HW128278   3.036   3.491   2.050  1.1344 -1.3903 -0.0954
 9300SOL    HW228279   3.087   3.625   2.099 -2.2143  0.9916 -2.6456
 9301SOL     OW28280   6.414   6.684   5.690  0.0705  0.1642  0.3420
 9301SOL    HW128281   6.369   6.620   5.635 -0.5170 -0.5214  1.5775
 9301SOL    HW228282   6.350   6.754   5.704  0.3302  0.4937 -0.1033
 9302SOL     OW28283   3.208   6.650   2.016 -0.4265  0.2627 -0.1291
 9302SOL    HW128284   3.227   6.574   2.071 -0.0842 -0.2016 -0.8642
 9302SOL    HW228285   3.114   6.646   2.000  0.0398 -2.1298 -3.1023
 9303SOL     OW28286   2.160   0.951   1.530  0.4697  0.0238  0.0426
 9303SOL    HW128287   2.166   0.964   1.435  1.0863  0.7635  0.1707
 9303SOL    HW228288   2.199   0.866   1.546  0.8987  0.1517 -0.3102
 9304SOL     OW28289   1.922   6.788   1.327 -0.3857  0.0888 -0.3773
 9304SOL    HW128290   1.936   6.839   1.407 -0.2179 -2.4535  1.3180
 9304SOL    HW228291   1.828   6.770   1.327 -0.0370 -2.0796  0.7474
 9305SOL     OW28292   6.090   0.071   0.745  0.7214 -0.1402 -0.2550
 9305SOL    HW128293   6.014   0.115   0.782  0.6650  1.2604 -1.8936
 9305SOL    HW228294   6.132   0.028   0.820 -1.0595 -0.0484  0.8528
 9306SOL     OW28295   3.939   4.857   4.687 -0.1303 -0.9790  0.0998
 9306SOL    HW128296   3.965   4.935   4.736 -0.3182 -0.2544 -0.9230
 9306SOL    HW228297   3.900   4.800   4.753 -2.0541  0.7174  0.5322
 9307SOL     OW28298   4.512   5.414   2.977 -0.0027 -0.8852  0.2012
 9307SOL    HW128299   4.540   5.422   3.067 -0.2178 -2.7497  0.4738
 9307SOL    HW228300   4.447   5.344   2.978 -0.6807 -0.3303 -1.2598
 9308SOL     OW28301   5.389   4.352   6.408 -0.3820  0.2628  0.0851
 9308SOL    HW128302   5.305   4.310   6.421  0.3273 -1.2370  0.0334
 9308SOL    HW228303   5.371   4.422   6.344 -0.7805 -3.3121 -4.2524
 9309SOL     OW28304   6.649   5.889   1.446  0.2690  0.0933 -0.0825
 9309SOL    HW128305   6.688   5.949   1.510  1.6407  0.9976 -1.6599
 9309SOL    HW228306   6.608   5.947   1.381 -0.3008 -0.7588 -0.5073
 9310SOL     OW28307   5.603   2.849   4.093 -0.1917 -0.2874  0.1267
 9310SOL    HW128308   5.627   2.756   4.095  1.1143  0.0087 -0.2802
 9310SOL    HW228309   5.672   2.892   4.143  0.1998  0.6393 -1.1569
 9311SOL     OW28310   2.977   4.896   4.590  0.3261 -0.3903 -0.0889
 9311SOL    HW128311   2.899   4.912   4.644  1.1127 -0.0279  0.9942
 9311SOL    HW228312   2.963   4.947   4.511 -0.4402 -0.1526  0.1949
 9312SOL     OW28313   5.755   1.217   3.845 -0.4241 -0.3508 -0.5290
 9312SOL    HW128314   5.722   1.293   3.797 -1.6730 -0.0049  0.7980
 9312SOL    HW228315   5.790   1.254   3.927 -1.0468 -1.1799  0.1269
 9313SOL     OW28316   3.764   1.793   0.436  0.3799 -0.1035 -0.3531
 9313SOL    HW128317   3.790   1.779   0.345 -1.6138 -1.7882 -0.7525
 9313SOL    HW228318   3.704   1.720   0.455  1.5020 -0.3839  2.6312
 9314SOL     OW28319   0.953   1.071   6.835  0.7052 -0.3679  0.1092
 9314SOL    HW128320   0.902   1.144   6.869 -1.8196 -1.7873 -0.3828
 9314SOL    HW228321   1.045   1.099   6.845 -0.0916  1.9432  1.8562
 9315SOL     OW28322   3.889   0.188   1.653 -0.0631  0.3937  0.2164
 9315SOL    HW128323   3.815   0.239   1.686 -1.4957 -1.2982 -0.2543
 9315SOL    HW228324   3.921   0.238   1.577  0.5784  2.1340  1.5664
 9316SOL     OW28325   0.599   3.571   6.822  0.2324  0.1334 -0.1120
 9316SOL    HW128326   0.600   3.515   6.744 -0.6861 -0.8427  0.5373
 9316SOL    HW228327   0.527   3.536   6.875 -0.6676  2.2423  0.1238
 9317SOL     OW28328   2.984   4.291   0.743 -0.4227 -0.0027  0.4544
 9317SOL    HW128329   2.960   4.199   0.759 -0.0432 -0.3842 -1.0148
 9317SOL    HW228330   3.076   4.296   0.768  0.1657 -0.5940 -1.4170
 9318SOL     OW28331   0.899   0.682   0.686 -0.3159 -0.7916  0.8328
 9318SOL    HW128332   0.885   0.626   0.762  0.6947 -2.2456  0.0050
 9318SOL    HW228333   0.939   0.761   0.722 -1.3152 -0.7688  1.9716
 9319SOL     OW28334   1.860   2.772   2.541  0.0598  0.1521  0.8335
 9319SOL    HW128335   1.801   2.828   2.490  2.0403  3.1964  1.6201
 9319SOL    HW228336   1.809   2.749   2.619 -1.3157 -0.4928 -0.2082
 9320SOL     OW28337   6.159   1.672   6.306 -0.0785  0.0277  0.4005
 9320SOL    HW128338   6.231   1.610   6.309  0.6708  0.8184 -0.4780
 9320SOL    HW228339   6.166   1.722   6.388  0.8625  0.6036 -0.0111
 9321SOL     OW28340   0.783   1.296   6.805 -0.1284  0.2899  0.4681
 9321SOL    HW128341   0.720   1.368   6.801 -1.0594 -0.4465  1.2776
 9321SOL    HW228342   0.840   1.309   6.729  0.1497  2.2517  0.9447
 9322SOL     OW28343   0.994   6.376   6.241  0.3433  0.1333 -0.0469
 9322SOL    HW128344   1.074   6.341   6.202  0.4910 -0.1252  0.4788
 9322SOL    HW228345   0.947   6.415   6.168 -0.2882 -1.9914 -0.8568
 9323SOL     OW28346   2.751   0.237   3.410 -0.3655  0.2687  0.0685
 9323SOL    HW128347   2.735   0.147   3.382  0.8503  0.8733 -2.9432
 9323SOL    HW228348   2.846   0.243   3.417 -0.2351  1.8475 -2.0678
 9324SOL     OW28349   6.547   5.795   6.640  0.9197  0.3334 -0.7733
 9324SOL    HW128350   6.556   5.849   6.561  1.8435  3.3884  1.2055
 9324SOL    HW228351   6.634   5.799   6.681  0.0426  0.3154  1.1922
 9325SOL     OW28352   3.211   5.340   5.993 -0.6440  0.3378  0.6319
 9325SOL    HW128353   3.179   5.407   6.053 -0.8670 -0.2932  1.2402
 9325SOL    HW228354   3.219   5.384   5.909  0.3415  1.4368  1.2701
 9326SOL     OW28355   6.658   1.413   6.267 -0.0230 -0.3538  0.3459
 9326SOL    HW128356   6.737   1.466   6.261  1.7563 -3.0431 -2.9893
 9326SOL    HW228357   6.604   1.441   6.193 -0.9730 -0.3992  1.0022
 9327SOL     OW28358   3.570   4.081   0.322 -0.0034 -0.3939 -0.5941
 9327SOL    HW128359   3.563   4.173   0.347  1.2845 -0.1713 -0.9626
 9327SOL    HW228360   3.654   4.075   0.276 -1.9704 -0.8633 -4.5320
 9328SOL     OW28361   1.010   2.130   2.618  0.1787  0.0919  0.5015
 9328SOL    HW128362   1.022   2.121   2.523  0.0743  1.0186  0.3941
 9328SOL    HW228363   1.041   2.218   2.638  1.1627 -0.4679  1.5023
 9329SOL     OW28364   6.190   6.398   3.393  0.4854  0.4628 -0.3557
 9329SOL    HW128365   6.219   6.348   3.317  1.5310  1.6282 -0.7547
 9329SOL    HW228366   6.214   6.343   3.468 -2.4380 -1.6639 -0.8352
 9330SOL     OW28367   3.410   0.175   1.821 -0.0443 -0.3336  0.0732
 9330SOL    HW128368   3.361   0.104   1.779  0.9480 -1.6605  1.0529
 9330SOL    HW228369   3.351   0.209   1.888  0.4065 -2.1282  1.4549
 9331SOL     OW28370   6.337   0.868   3.245  0.0017  0.6586 -0.1757
 9331SOL    HW128371   6.315   0.939   3.185 -0.0048 -0.4768 -1.5729
 9331SOL    HW228372   6.410   0.902   3.297 -0.3620  1.8756 -0.4238
 9332SOL     OW28373   4.560   6.481   4.477 -0.5012 -0.0093  0.0910
 9332SOL    HW128374   4.558   6.553   4.414 -1.6599 -1.0711 -1.1699
 9332SOL    HW228375   4.653   6.465   4.492 -0.1774  0.2653 -1.4069
 9333SOL     OW28376   0.422   2.615   1.137 -0.3167  0.0335 -1.1861
 9333SOL    HW128377   0.510   2.651   1.128 -0.3343  0.4322  0.0594
 9333SOL    HW228378   0.366   2.674   1.087  0.0448  0.1046 -1.5097
 9334SOL     OW28379   4.495   3.283   1.045  0.6677 -0.4531 -0.3251
 9334SOL    HW128380   4.543   3.350   1.093  1.1231 -1.3524  0.5195
 9334SOL    HW228381   4.404   3.312   1.048  0.6126 -0.6524  1.4608
 9335SOL     OW28382   5.900   6.769   5.432  0.2802 -0.0135  0.5662
 9335SOL    HW128383   5.908   6.686   5.384 -2.2539 -0.4935  0.8661
 9335SOL    HW228384   5.859   6.745   5.515 -1.2556  1.5989  0.3300
 9336SOL     OW28385   4.229   3.633   6.003  0.0257 -0.3402  0.1303
 9336SOL    HW128386   4.154   3.667   5.954 -0.7940  0.3031  1.7700
 9336SOL    HW228387   4.301   3.634   5.940 -0.9289  0.6681 -0.9882
 9337SOL     OW28388   6.210   5.379   5.177  0.8801  0.4217 -0.3474
 9337SOL    HW128389   6.281   5.320   5.202  0.7348  0.0779 -0.7489
 9337SOL    HW228390   6.188   5.425   5.258  0.6596 -0.4296  0.0878
 9338SOL     OW28391   4.293   0.642   1.117 -0.0766  0.3185 -0.4200
 9338SOL    HW128392   4.380   0.670   1.088 -0.1328  2.7942  1.4381
 9338SOL    HW228393   4.305   0.552   1.147  1.5853  0.2641 -1.1373
 9339SOL     OW28394   4.936   0.340   5.128  0.3010 -0.6081 -0.3064
 9339SOL    HW128395   5.007   0.298   5.175  0.6943 -0.7306 -1.0006
 9339SOL    HW228396   4.875   0.269   5.107 -0.3085 -0.4230  0.7562
 9340SOL     OW28397   5.971   3.767   3.046 -0.1596  0.1714 -0.1814
 9340SOL    HW128398   6.058   3.736   3.069  0.3466  0.2395 -1.8607
 9340SOL    HW228399   5.940   3.706   2.979 -0.9139  0.8376 -0.4616
 9341SOL     OW28400   1.983   5.919   0.985  0.0990  0.2096 -0.3431
 9341SOL    HW128401   2.018   5.872   1.060 -1.0065  1.0583  0.7595
 9341SOL    HW228402   2.011   5.869   0.909  2.5453  0.1550  0.5254
 9342SOL     OW28403   3.647   4.795   5.766 -0.0236  0.1044 -0.5811
 9342SOL    HW128404   3.593   4.721   5.795 -1.2490  1.0286 -0.4334
 9342SOL    HW228405   3.672   4.840   5.847 -2.9367  2.3329 -0.7526
 9343SOL     OW28406   6.185   3.350   1.305  0.0777 -0.7495 -0.1019
 9343SOL    HW128407   6.208   3.362   1.213 -0.4352 -1.4977 -0.3322
 9343SOL    HW228408   6.210   3.433   1.347  0.1225 -0.3286 -0.9475
 9344SOL     OW28409   2.204   5.944   0.158  0.6436 -0.3197  0.1382
 9344SOL    HW128410   2.151   5.942   0.238 -1.5975 -1.2379 -1.2514
 9344SOL    HW228411   2.162   6.011   0.104  1.9382  0.0786 -0.4085
 9345SOL     OW28412   4.663   4.057   1.368 -0.4721  0.1503 -1.0460
 9345SOL    HW128413   4.607   4.104   1.430 -0.8594  1.2777 -2.2255
 9345SOL    HW228414   4.651   3.965   1.391  0.2661  0.5584  1.2826
 9346SOL     OW28415   1.291   5.193   2.276 -0.0717  0.2526 -0.2957
 9346SOL    HW128416   1.288   5.269   2.217  1.1282  0.7903  0.2949
 9346SOL    HW228417   1.215   5.205   2.334 -0.3350  0.5790 -0.7016
 9347SOL     OW28418   4.252   0.496   0.589 -0.2549  0.4533 -0.4690
 9347SOL    HW128419   4.190   0.568   0.604 -0.8355 -0.0232 -0.5554
 9347SOL    HW228420   4.309   0.497   0.665 -1.7013 -0.4579  0.6756
 9348SOL     OW28421   2.186   3.321   6.551 -0.6911 -0.8960  0.1058
 9348SOL    HW128422   2.150   3.388   6.610 -0.0067  0.7235 -1.2365
 9348SOL    HW228423   2.271   3.299   6.588 -0.6380 -0.5253  0.2087
 9349SOL     OW28424   4.634   4.402   0.665  0.1035  0.0763  0.6258
 9349SOL    HW128425   4.550   4.433   0.699 -0.6509 -0.8091 -0.3664
 9349SOL    HW228426   4.618   4.387   0.572  0.7794 -2.0498  0.7961
 9350SOL     OW28427   0.364   3.860   1.165 -0.0572 -0.1825  0.4805
 9350SOL    HW128428   0.456   3.847   1.188 -0.1055  1.5057  1.8196
 9350SOL    HW228429   0.361   3.947   1.125 -1.1075 -0.1243  0.6608
 9351SOL     OW28430   4.911   2.999   3.199 -0.2391 -0.4570 -0.5705
 9351SOL    HW128431   4.949   3.086   3.198 -0.3303 -0.1286  3.8378
 9351SOL    HW228432   4.966   2.947   3.141  2.2383  1.7067 -0.3107
 9352SOL     OW28433   6.836   5.236   2.198  0.2827  0.0389  0.5320
 9352SOL    HW128434   6.764   5.297   2.216  0.3591  0.5376 -0.7393
 9352SOL    HW228435   6.841   5.180   2.276 -1.8253 -0.3495  0.4375
 9353SOL     OW28436   3.001   6.801   0.582  0.4817  0.8362 -0.3356
 9353SOL    HW128437   2.915   6.802   0.540  1.2999  0.9735 -2.0993
 9353SOL    HW228438   3.047   6.728   0.541  0.9580  0.2570  1.1654
 9354SOL     OW28439   0.883   5.444   4.479 -0.1365  0.7728  0.3168
 9354SOL    HW128440   0.954   5.507   4.470  0.1320  0.9727  3.1525
 9354SOL    HW228441   0.909   5.371   4.423  0.4071  2.3696 -1.6255
 9355SOL     OW28442   6.712   1.459   4.976  0.2343  0.2632 -0.8147
 9355SOL    HW128443   6.759   1.539   4.952 -3.0025  2.2662 -1.1602
 9355SOL    HW228444   6.639   1.455   4.915 -0.6148 -2.1248  0.2212
 9356SOL     OW28445   0.150   1.451   3.731 -0.0628  0.5082  0.0583
 9356SOL    HW128446   0.184   1.540   3.742  1.7521 -0.2125  0.6372
 9356SOL    HW228447   0.228   1.398   3.713 -1.1840 -0.8682 -0.9490
 9357SOL     OW28448   2.320   6.679   3.937  0.2301  0.1499 -0.1421
 9357SOL    HW128449   2.355   6.591   3.925  1.5979  0.6926 -0.2863
 9357SOL    HW228450   2.274   6.697   3.854 -0.0460 -0.4043 -0.1201
 9358SOL     OW28451   0.135   1.492   3.180  0.1246  0.1211 -0.1289
 9358SOL    HW128452   0.080   1.423   3.218 -0.0782  0.5607  0.3813
 9358SOL    HW228453   0.142   1.558   3.249 -0.8383  1.2736 -1.0910
 9359SOL     OW28454   2.823   1.014   5.830 -0.1751 -0.0497  0.0167
 9359SOL    HW128455   2.807   1.090   5.887  3.7059 -1.0167  2.8890
 9359SOL    HW228456   2.905   1.035   5.786 -0.0775 -1.7511 -0.6843
 9360SOL     OW28457   1.755   1.157   5.043 -0.0560  0.2169 -0.2635
 9360SOL    HW128458   1.702   1.231   5.070  0.0982 -0.6297  2.6667
 9360SOL    HW228459   1.747   1.155   4.948 -2.9594  1.8070 -0.1587
 9361SOL     OW28460   6.498   0.466   4.081  0.1738  0.0058  0.4181
 9361SOL    HW128461   6.498   0.371   4.080  2.8668 -0.0866  0.6463
 9361SOL    HW228462   6.546   0.490   4.160  0.9398  1.4731 -0.4182
 9362SOL     OW28463   3.686   0.075   6.304  0.2149 -0.0865 -0.0039
 9362SOL    HW128464   3.694   0.169   6.318 -1.6592  0.1092  0.0178
 9362SOL    HW228465   3.685   0.037   6.392  0.7236 -0.1193 -0.0067
 9363SOL     OW28466   2.537   4.321   5.499 -0.2982 -0.7929 -0.5137
 9363SOL    HW128467   2.499   4.409   5.496  1.7016  0.1350 -0.1131
 9363SOL    HW228468   2.521   4.285   5.412  1.1114  1.0058 -1.5908
 9364SOL     OW28469   1.461   2.676   0.490 -0.1261  0.0794  0.3677
 9364SOL    HW128470   1.440   2.592   0.449  3.3747  0.0313 -1.6810
 9364SOL    HW228471   1.510   2.653   0.569  1.9167  0.0566 -0.8291
 9365SOL     OW28472   4.122   0.612   2.745 -0.1672  0.8865  0.0555
 9365SOL    HW128473   4.192   0.553   2.774 -0.5176  0.5535  0.2413
 9365SOL    HW228474   4.155   0.700   2.764  0.7838  0.8197 -1.1621
 9366SOL     OW28475   0.665   1.409   6.417  0.3641 -0.8195 -0.1574
 9366SOL    HW128476   0.752   1.444   6.436 -0.0022 -0.4134  0.8953
 9366SOL    HW228477   0.664   1.324   6.462 -0.3959 -0.0051  1.4477
 9367SOL     OW28478   5.868   4.630   4.436  0.4694  0.2269 -0.0607
 9367SOL    HW128479   5.825   4.628   4.351  0.6371 -2.3571 -0.1480
 9367SOL    HW228480   5.937   4.564   4.431  0.8018  0.3400  1.9181
 9368SOL     OW28481   2.860   0.052   1.915 -0.1316  0.2249 -0.1426
 9368SOL    HW128482   2.897  -0.035   1.928 -1.9957 -0.5111  0.6201
 9368SOL    HW228483   2.808   0.068   1.994 -0.0658  1.9078 -0.4120
 9369SOL     OW28484   5.194   0.467   2.189  0.3764 -0.0295  0.5114
 9369SOL    HW128485   5.246   0.444   2.265  0.5547  0.0336  0.4098
 9369SOL    HW228486   5.120   0.407   2.191  1.2432 -1.1609 -0.1923
 9370SOL     OW28487   4.261   4.401   5.821  0.0765 -0.3345 -0.0007
 9370SOL    HW128488   4.186   4.385   5.879 -0.5494 -0.8572 -0.9349
 9370SOL    HW228489   4.297   4.484   5.851 -1.7795  0.6813 -0.4572
 9371SOL     OW28490   3.153   5.950   2.179  0.0665 -0.3923 -0.4970
 9371SOL    HW128491   3.167   5.899   2.100 -1.1744 -1.9169  0.2251
 9371SOL    HW228492   3.075   6.002   2.161  1.1264  1.0533 -1.1011
 9372SOL     OW28493   1.110   5.774   5.239 -0.3150  0.0720  0.5209
 9372SOL    HW128494   1.142   5.862   5.256  1.8168 -0.6522  0.5276
 9372SOL    HW228495   1.035   5.786   5.181 -0.7190  1.9207  1.3717
 9373SOL     OW28496   6.295   6.704   3.902  0.1082 -0.0775 -0.2986
 9373SOL    HW128497   6.384   6.670   3.911 -0.3065 -0.9277  0.8228
 9373SOL    HW228498   6.278   6.705   3.808  1.8843  1.6974 -0.6667
 9374SOL     OW28499   3.205   5.050   4.467 -0.1459 -0.6410  0.3518
 9374SOL    HW128500   3.151   5.127   4.453  0.4114 -0.0379  1.3773
 9374SOL    HW228501   3.149   4.976   4.445 -0.9557  0.0318  0.1547
 9375SOL     OW28502   4.870   3.481   6.180 -0.2361  0.5537  0.4831
 9375SOL    HW128503   4.812   3.489   6.105 -0.6581  1.3126  0.8796
 9375SOL    HW228504   4.870   3.387   6.201 -1.9050  0.6390  0.9471
 9376SOL     OW28505   6.101   0.024   3.194 -0.2519 -0.0053 -0.3782
 9376SOL    HW128506   6.138  -0.062   3.217 -0.7199 -0.5006 -1.3849
 9376SOL    HW228507   6.013   0.023   3.232 -0.4412 -0.1825 -0.8131
 9377SOL     OW28508   0.452   2.817   2.980  0.6969  0.1570  0.1983
 9377SOL    HW128509   0.379   2.810   2.918 -0.8417  1.1456  1.8325
 9377SOL    HW228510   0.521   2.764   2.941 -1.4674 -2.2670 -0.5739
 9378SOL     OW28511   1.004   1.803   4.875 -0.1628  0.0977 -0.2008
 9378SOL    HW128512   0.925   1.841   4.914 -0.3349  1.3173 -1.6534
 9378SOL    HW228513   0.982   1.792   4.782  0.7765 -1.2272 -0.2988
 9379SOL     OW28514   3.555   2.928   6.046  0.0491 -0.0716 -0.5336
 9379SOL    HW128515   3.519   3.008   6.085 -0.2604 -0.3055 -0.3298
 9379SOL    HW228516   3.481   2.868   6.042  0.6272 -0.9506  0.9028
 9380SOL     OW28517   2.286   1.704   6.651  0.2346  0.2426 -0.1226
 9380SOL    HW128518   2.199   1.727   6.620 -0.7441  1.6405  3.2694
 9380SOL    HW228519   2.282   1.712   6.746  3.0857 -3.2356  0.5358
 9381SOL     OW28520   5.115   5.026   4.782  1.0208  0.1967  0.1949
 9381SOL    HW128521   5.041   5.039   4.841 -0.4978  1.2940 -1.8062
 9381SOL    HW228522   5.191   5.051   4.834 -0.4888  4.3943  0.8546
 9382SOL     OW28523   2.519   4.802   1.561  0.2338 -0.7105 -0.2832
 9382SOL    HW128524   2.449   4.867   1.554 -0.4223 -0.9528  2.7211
 9382SOL    HW228525   2.594   4.844   1.519 -0.7057  1.1617 -0.2006
 9383SOL     OW28526   1.450   4.456   1.307 -0.0383  0.1055 -0.8061
 9383SOL    HW128527   1.412   4.402   1.239  0.4203  0.5865 -1.4577
 9383SOL    HW228528   1.402   4.539   1.302 -1.1350 -0.4222  0.5702
 9384SOL     OW28529   0.899   0.075   3.320  0.0857 -0.3940  0.3648
 9384SOL    HW128530   0.828   0.028   3.277 -0.4694 -0.4174  1.2754
 9384SOL    HW228531   0.943   0.123   3.250  0.6574 -2.2353 -0.6003
 9385SOL     OW28532   6.137   0.580   6.825  0.1555  0.2585 -0.4529
 9385SOL    HW128533   6.050   0.546   6.849  0.5226 -0.3161  0.0855
 9385SOL    HW228534   6.120   0.636   6.748 -0.5234 -0.8210 -1.1213
 9386SOL     OW28535   3.714   6.401   2.493  0.5582  0.2102 -0.3303
 9386SOL    HW128536   3.742   6.472   2.435 -0.4921  0.0946 -0.9971
 9386SOL    HW228537   3.744   6.428   2.579 -0.3515  1.7717 -0.4709
 9387SOL     OW28538   5.551   4.291   3.288 -0.4696  0.4750  0.5732
 9387SOL    HW128539   5.632   4.245   3.267 -0.3820 -0.7325  3.2031
 9387SOL    HW228540   5.482   4.238   3.249 -0.1756 -0.2850  1.0713
 9388SOL     OW28541   1.946   5.509   4.313 -0.1640 -1.0201  0.1171
 9388SOL    HW128542   1.854   5.481   4.310 -0.3923 -0.2917  0.2895
 9388SOL    HW228543   1.996   5.427   4.301 -0.8292 -1.3130 -0.7745
 9389SOL     OW28544   4.982   0.892   0.373 -0.2915 -0.0505 -0.5947
 9389SOL    HW128545   5.028   0.974   0.383 -3.5573  1.9739 -0.5643
 9389SOL    HW228546   5.027   0.847   0.301  1.8589  1.5269 -0.3041
 9390SOL     OW28547   5.149   3.948   2.652 -0.3739  0.0302 -0.1265
 9390SOL    HW128548   5.230   3.930   2.604  0.4834 -2.2225  2.0021
 9390SOL    HW228549   5.095   3.997   2.589  1.5492 -0.7541 -2.5580
 9391SOL     OW28550   3.345   3.594   3.451  1.1065 -0.4280 -0.3174
 9391SOL    HW128551   3.268   3.651   3.452 -0.2259 -2.1459  0.8398
 9391SOL    HW228552   3.417   3.650   3.479  0.4383  1.3659 -1.9241
 9392SOL     OW28553   3.490   1.536   4.565 -0.2821 -0.8154  0.5237
 9392SOL    HW128554   3.514   1.560   4.655  0.9005  0.0572 -0.0036
 9392SOL    HW228555   3.573   1.523   4.520 -0.8660 -2.4607 -0.1568
 9393SOL     OW28556   1.128   2.690   6.165 -0.8937 -0.2958 -0.1605
 9393SOL    HW128557   1.108   2.783   6.163  0.7166  0.1224  1.4047
 9393SOL    HW228558   1.045   2.648   6.187 -1.5494  0.7855 -0.4997
 9394SOL     OW28559   6.081   0.623   0.952  0.0767 -0.1538 -0.3347
 9394SOL    HW128560   6.053   0.712   0.935  0.9186 -0.1719 -2.0617
 9394SOL    HW228561   6.027   0.594   1.026 -0.2576  1.7322  0.2105
 9395SOL     OW28562   4.357   1.370   1.454  0.4925  0.3157 -0.0906
 9395SOL    HW128563   4.322   1.306   1.392  3.1165 -1.4190  0.0771
 9395SOL    HW228564   4.393   1.318   1.525 -1.4131  2.2247  2.4611
 9396SOL     OW28565   0.016   5.212   5.261  0.3832 -0.1435  0.1404
 9396SOL    HW128566  -0.033   5.248   5.336 -0.8439 -0.3212 -0.5524
 9396SOL    HW228567   0.026   5.287   5.201  0.7555 -0.1712  0.1627
 9397SOL     OW28568   2.534   5.217   1.441  0.1518 -0.1246  0.0848
 9397SOL    HW128569   2.470   5.153   1.472 -0.1295  1.8578  4.2640
 9397SOL    HW228570   2.519   5.222   1.347 -3.4115 -2.3384  0.3520
 9398SOL     OW28571   0.353   6.732   4.938 -0.1818  0.3345  0.2230
 9398SOL    HW128572   0.347   6.736   4.842  2.4663  1.0579  0.0050
 9398SOL    HW228573   0.293   6.801   4.968  0.9511  2.0037 -1.0958
 9399SOL     OW28574   3.856   4.407   6.766 -0.4561  0.3976 -0.1869
 9399SOL    HW128575   3.917   4.382   6.696  1.3063  1.9276  0.7573
 9399SOL    HW228576   3.776   4.432   6.719 -0.0552 -0.6273 -1.5016
 9400SOL     OW28577   3.946   2.254   6.034  0.2826  0.5574 -0.3413
 9400SOL    HW128578   3.880   2.187   6.017  0.0724  0.4925  0.6790
 9400SOL    HW228579   4.026   2.218   5.996  0.3644 -0.6731  0.8995
 9401SOL     OW28580   4.484   2.402   1.634 -0.3450 -0.1012 -0.7502
 9401SOL    HW128581   4.418   2.335   1.616 -0.6920  0.0139  0.0837
 9401SOL    HW228582   4.561   2.353   1.662 -0.1075 -0.2288 -1.6062
 9402SOL     OW28583   1.828   0.969   3.224  0.6051 -0.1005  0.2267
 9402SOL    HW128584   1.884   1.036   3.263  0.8816 -0.3318  0.2220
 9402SOL    HW228585   1.749   1.017   3.197  0.3056  0.0111  1.2833
 9403SOL     OW28586   2.421   0.635   4.321  0.3450 -0.6272  0.1193
 9403SOL    HW128587   2.511   0.626   4.291  0.8442 -0.8477  1.5992
 9403SOL    HW228588   2.419   0.721   4.364  0.1964 -1.1371  1.1663
 9404SOL     OW28589   1.879   2.358   4.544  0.1669  0.3569 -0.1440
 9404SOL    HW128590   1.935   2.405   4.482 -1.2035  2.8608  0.4145
 9404SOL    HW228591   1.805   2.328   4.491 -0.0673  0.8095 -0.0710
 9405SOL     OW28592   5.438   3.061   0.809 -0.0172 -0.4035  0.2753
 9405SOL    HW128593   5.521   3.024   0.838 -0.0038  0.2962  1.1491
 9405SOL    HW228594   5.374   2.991   0.824  0.1175 -0.3205  1.2786
 9406SOL     OW28595   0.597   1.741   1.349 -0.2444 -0.2760 -0.1767
 9406SOL    HW128596   0.576   1.658   1.390  0.2000 -0.0058  0.6159
 9406SOL    HW228597   0.550   1.807   1.401 -0.2760  0.0075 -0.5531
 9407SOL     OW28598   4.371   0.948   3.435 -0.3056  0.3752 -0.0968
 9407SOL    HW128599   4.416   0.906   3.362 -0.1573  0.8361 -0.2775
 9407SOL    HW228600   4.343   0.876   3.492  0.1988  0.0580 -0.2504
 9408SOL     OW28601   3.189   4.100   3.366 -0.3520 -0.1811 -0.3523
 9408SOL    HW128602   3.101   4.124   3.397  0.1112 -0.0978  0.9595
 9408SOL    HW228603   3.237   4.078   3.446  1.0798  0.6202 -0.9548
 9409SOL     OW28604   6.343   3.726   1.821  0.2607  0.4403 -0.1340
 9409SOL    HW128605   6.391   3.687   1.748 -0.7393  1.0417 -1.1560
 9409SOL    HW228606   6.406   3.785   1.862  0.7526  0.3178 -0.7002
 9410SOL     OW28607   3.291   6.347   1.103 -0.1510 -0.1497 -0.1897
 9410SOL    HW128608   3.378   6.373   1.075  0.3221 -2.2348 -0.8802
 9410SOL    HW228609   3.306   6.269   1.157 -1.5010  0.3607  0.9852
 9411SOL     OW28610   3.459   0.271   4.705 -0.3243  0.0796 -0.1595
 9411SOL    HW128611   3.517   0.211   4.660 -0.1410 -0.0722  0.2790
 9411SOL    HW228612   3.484   0.265   4.797  0.1294  1.2888 -0.1765
 9412SOL     OW28613   4.108   1.228   4.488 -0.3197 -0.1802 -0.1848
 9412SOL    HW128614   4.142   1.156   4.541  0.7249 -0.1902 -0.8347
 9412SOL    HW228615   4.015   1.208   4.477 -0.2911 -0.7978  0.6281
 9413SOL     OW28616   3.915   0.151   4.347 -0.4737  0.4322 -0.4209
 9413SOL    HW128617   3.966   0.070   4.349  0.8506  1.2475  1.2860
 9413SOL    HW228618   3.888   0.159   4.255 -0.2060 -1.6430 -0.7428
 9414SOL     OW28619   3.604   1.107   3.961  0.2119 -0.2974  0.4333
 9414SOL    HW128620   3.599   1.155   4.044 -1.3161  1.2869 -0.5127
 9414SOL    HW228621   3.513   1.094   3.935  0.6607  0.3100 -1.5829
 9415SOL     OW28622   5.098   4.899   5.509  0.0032 -0.7759  0.7382
 9415SOL    HW128623   5.175   4.938   5.467 -1.0226  1.2936  0.6413
 9415SOL    HW228624   5.112   4.804   5.502  2.1056 -0.4665 -0.0370
 9416SOL     OW28625   5.594   4.872   3.583  0.6736  0.4815 -0.1018
 9416SOL    HW128626   5.564   4.963   3.589 -0.4295  0.0576  2.4786
 9416SOL    HW228627   5.687   4.878   3.565  0.9400  2.2376  1.4895
 9417SOL     OW28628   0.475   2.705   3.689 -0.3200 -0.0652  0.1234
 9417SOL    HW128629   0.555   2.747   3.656  0.1036 -0.1978  0.9570
 9417SOL    HW228630   0.456   2.750   3.771 -1.5089  0.4286 -0.4149
 9418SOL     OW28631   3.654   0.808   5.745  0.3324  0.0747 -0.2197
 9418SOL    HW128632   3.597   0.754   5.690  0.2473 -0.5422  0.4675
 9418SOL    HW228633   3.731   0.754   5.761 -0.8125 -0.9188  2.5515
 9419SOL     OW28634   3.756   1.509   6.028 -0.1952  0.2545  0.6206
 9419SOL    HW128635   3.836   1.504   5.976 -0.3192  0.2866  0.4238
 9419SOL    HW228636   3.700   1.570   5.980 -1.1406 -1.3219 -0.3557
 9420SOL     OW28637   0.105   4.667   3.828 -0.7694  0.4106 -0.5168
 9420SOL    HW128638   0.171   4.607   3.863 -2.3583 -1.1352 -0.0554
 9420SOL    HW228639   0.156   4.739   3.791  1.1159  0.4015  1.8141
 9421SOL     OW28640   0.928   5.320   5.358  0.2583 -0.0301  0.1786
 9421SOL    HW128641   0.936   5.319   5.453 -0.0984 -0.1764  0.2074
 9421SOL    HW228642   0.864   5.252   5.338 -0.1763  0.4589 -0.1154
 9422SOL     OW28643   0.683   2.264   0.545 -0.0956  0.2079 -0.0567
 9422SOL    HW128644   0.688   2.240   0.637  1.0638 -2.1135 -0.6432
 9422SOL    HW228645   0.609   2.213   0.511 -0.1770  0.6330 -0.5376
 9423SOL     OW28646   4.520   1.528   1.072 -0.3002 -0.1496 -0.0316
 9423SOL    HW128647   4.559   1.547   0.987  0.9326  0.4066  0.6285
 9423SOL    HW228648   4.439   1.579   1.074  0.5290  1.2262 -0.2056
 9424SOL     OW28649   2.206   6.709   5.592  0.4632 -1.0284  0.7429
 9424SOL    HW128650   2.173   6.619   5.598  1.2286 -1.3429  0.3401
 9424SOL    HW228651   2.261   6.709   5.514 -2.1450  0.6576 -1.2508
 9425SOL     OW28652   4.607   1.170   3.804  0.2286  0.2733  0.2090
 9425SOL    HW128653   4.679   1.219   3.844 -0.8020  1.7273  0.3836
 9425SOL    HW228654   4.578   1.225   3.731 -0.4916 -0.4420 -0.0577
 9426SOL     OW28655   2.216   2.633   5.841  0.3377 -0.3378 -0.3108
 9426SOL    HW128656   2.122   2.649   5.833  0.2640 -1.1166 -1.3867
 9426SOL    HW228657   2.254   2.678   5.766  0.6850 -0.9313 -0.5009
 9427SOL     OW28658   1.756   6.585   3.618  0.0275 -0.7157 -0.5724
 9427SOL    HW128659   1.808   6.541   3.551  0.5741 -1.1478  0.1189
 9427SOL    HW228660   1.815   6.651   3.654 -0.5389  0.0873 -1.0782
 9428SOL     OW28661   2.760   4.540   5.622  0.4522 -0.5310  0.2224
 9428SOL    HW128662   2.800   4.627   5.617 -0.5662 -0.0429  0.2317
 9428SOL    HW228663   2.787   4.497   5.541  0.4290  0.0399 -0.0986
 9429SOL     OW28664   5.227   3.101   5.704  0.3593 -0.6077  0.0384
 9429SOL    HW128665   5.232   3.010   5.676 -0.5749 -0.5386 -0.3785
 9429SOL    HW228666   5.206   3.096   5.798 -1.3950 -0.8374 -0.3338
 9430SOL     OW28667   0.000   0.714   1.002  0.0800  0.5651 -0.5782
 9430SOL    HW128668   0.021   0.679   1.088 -0.7160 -0.2133 -0.6849
 9430SOL    HW228669   0.066   0.675   0.944  0.1011  0.4230 -0.4595
 9431SOL     OW28670   1.492   0.210   5.216  0.0336  0.1369 -0.1147
 9431SOL    HW128671   1.526   0.263   5.289 -0.3528  0.6806 -0.3192
 9431SOL    HW228672   1.397   0.211   5.228 -0.2199  2.0054 -1.7823
 9432SOL     OW28673   5.545   2.849   2.886  0.2249 -0.1029  0.2023
 9432SOL    HW128674   5.513   2.781   2.826  0.2555 -1.0597  1.2467
 9432SOL    HW228675   5.634   2.821   2.908  0.2038  0.2372  0.7135
 9433SOL     OW28676   0.924   0.295   2.319  0.2772 -0.0310  0.0011
 9433SOL    HW128677   0.888   0.213   2.354  0.1108 -0.3361 -0.8496
 9433SOL    HW228678   0.848   0.339   2.280  0.4943  0.1916 -0.1729
 9434SOL     OW28679   3.562   4.984   3.287 -0.7179 -0.3774 -0.4390
 9434SOL    HW128680   3.599   4.955   3.370 -1.8261 -0.2114  0.1272
 9434SOL    HW228681   3.518   4.907   3.252 -1.3241 -0.1222 -0.2550
 9435SOL     OW28682   3.442   1.183   1.143 -0.5478  0.1002 -0.3518
 9435SOL    HW128683   3.416   1.275   1.153  0.2292  0.8437 -3.8417
 9435SOL    HW228684   3.527   1.178   1.186  0.5067  1.7230 -2.0709
 9436SOL     OW28685   3.317   0.573   2.153  0.3707 -0.0679  0.2048
 9436SOL    HW128686   3.295   0.529   2.235  0.6225 -1.5948 -0.5076
 9436SOL    HW228687   3.393   0.627   2.174  0.9968 -1.1375  0.7974
 9437SOL     OW28688   6.690   0.227   2.718  0.2360  0.1053 -0.1410
 9437SOL    HW128689   6.778   0.217   2.683  0.3223 -0.0719  0.1240
 9437SOL    HW228690   6.698   0.205   2.810 -0.0722  0.1593 -0.0995
 9438SOL     OW28691   1.509   4.925   3.717 -0.3539 -0.4383 -0.1346
 9438SOL    HW128692   1.448   4.852   3.713  2.1523 -2.6991  0.4395
 9438SOL    HW228693   1.546   4.922   3.805  0.8971  0.5448 -0.5799
 9439SOL     OW28694   1.762   6.317   0.311  0.4118  0.6820  0.3825
 9439SOL    HW128695   1.729   6.333   0.399 -0.4707 -1.6690  0.5388
 9439SOL    HW228696   1.708   6.373   0.254 -1.2523 -0.2120  1.0288
 9440SOL     OW28697   0.598   3.669   2.040  0.1929  0.4955 -0.2955
 9440SOL    HW128698   0.522   3.714   2.075  0.3672  0.8958 -0.4284
 9440SOL    HW228699   0.625   3.609   2.111  1.3775  2.2746  0.8297
 9441SOL     OW28700   4.698   6.138   1.787 -0.4500 -0.4214  0.0686
 9441SOL    HW128701   4.773   6.186   1.754  0.5373 -0.5711  1.9311
 9441SOL    HW228702   4.660   6.095   1.710  0.2698  1.1131 -1.1894
 9442SOL     OW28703   5.262   2.482   0.776 -0.1857  0.5909  0.3161
 9442SOL    HW128704   5.277   2.560   0.828 -1.2053  0.6107  0.5972
 9442SOL    HW228705   5.205   2.511   0.704  0.8516  0.4763 -0.5697
 9443SOL     OW28706   2.509   0.631   0.357  0.1079 -0.3767 -0.3315
 9443SOL    HW128707   2.514   0.722   0.387  1.0833 -0.8191  0.9893
 9443SOL    HW228708   2.425   0.600   0.389 -0.3431  0.1200 -1.0072
 9444SOL     OW28709   0.672   3.982   5.721  0.3963 -0.2791  0.0602
 9444SOL    HW128710   0.709   4.070   5.722  0.2948 -0.2421  0.5639
 9444SOL    HW228711   0.661   3.962   5.628  0.3445  0.2726 -0.0539
 9445SOL     OW28712   6.233   2.690   3.493  0.0355 -0.1575  0.4438
 9445SOL    HW128713   6.283   2.747   3.552 -0.1973  0.0921  0.4011
 9445SOL    HW228714   6.298   2.631   3.456  0.4161  0.6261 -0.1531
 9446SOL     OW28715   5.113   1.749   4.631 -0.6083  0.1530 -0.2202
 9446SOL    HW128716   5.164   1.668   4.628 -0.3997  0.3181 -2.6050
 9446SOL    HW228717   5.155   1.801   4.700 -0.3522 -1.4561  0.9170
 9447SOL     OW28718   1.072   6.474   4.337 -0.2234  0.2827 -0.2882
 9447SOL    HW128719   1.059   6.569   4.332 -0.1650  0.4061  1.3597
 9447SOL    HW228720   1.164   6.461   4.310 -0.9806  0.3250 -3.3255
 9448SOL     OW28721   3.123   0.609   2.963  0.3742 -0.4969 -0.2925
 9448SOL    HW128722   3.155   0.650   3.043  0.6122 -1.8159  0.3210
 9448SOL    HW228723   3.122   0.679   2.898  0.9236  0.4148  0.6633
 9449SOL     OW28724   5.775   5.450   2.723 -0.1995  0.2683 -0.6041
 9449SOL    HW128725   5.707   5.387   2.700 -0.3479 -0.6405  1.9533
 9449SOL    HW228726   5.847   5.431   2.662 -0.9092 -1.1789 -1.0442
 9450SOL     OW28727   1.128   1.794   0.986 -0.0865 -0.1641  0.3885
 9450SOL    HW128728   1.098   1.856   1.053  0.2189 -0.9237  1.2508
 9450SOL    HW228729   1.082   1.712   1.007  3.0630 -1.6284  2.2715
 9451SOL     OW28730   0.278   2.628   4.079  0.8253  0.2745  0.4232
 9451SOL    HW128731   0.227   2.559   4.123  1.2816 -0.6796 -0.5125
 9451SOL    HW228732   0.212   2.690   4.048  0.4702  0.9240  2.2908
 9452SOL     OW28733   6.503   4.558   6.065 -0.0985  0.0890 -0.2602
 9452SOL    HW128734   6.551   4.486   6.024  0.1857  0.0713  0.1045
 9452SOL    HW228735   6.539   4.637   6.024  2.9732  0.3978  2.6095
 9453SOL     OW28736   5.657   5.829   0.017  0.3067  0.5147 -0.0467
 9453SOL    HW128737   5.701   5.785  -0.055  1.4878 -0.7849  1.3870
 9453SOL    HW228738   5.727   5.876   0.063 -0.0523 -0.2281  1.3178
 9454SOL     OW28739   1.576   0.555   0.485  0.1412  0.6532 -0.1787
 9454SOL    HW128740   1.579   0.460   0.491 -0.5951  0.6428  0.2099
 9454SOL    HW228741   1.666   0.583   0.499  0.6432 -0.0457 -1.7692
 9455SOL     OW28742   2.384   4.196   3.165  0.1557 -0.2179 -0.1621
 9455SOL    HW128743   2.412   4.104   3.161  0.6118 -0.0394 -1.5513
 9455SOL    HW228744   2.353   4.215   3.077  0.4082  1.0785  0.0152
 9456SOL     OW28745   4.841   0.748   6.614 -0.3828 -0.0202 -0.4136
 9456SOL    HW128746   4.923   0.719   6.573  0.1990 -0.5958  1.1006
 9456SOL    HW228747   4.772   0.702   6.566  0.4280 -2.8504  0.9751
 9457SOL     OW28748   2.886   0.714   4.902  0.3388 -0.0836  0.2506
 9457SOL    HW128749   2.839   0.682   4.979 -2.1725 -0.0838 -1.1669
 9457SOL    HW228750   2.886   0.809   4.913 -0.1858 -0.0711  0.1885
 9458SOL     OW28751   5.220   2.319   1.140  0.9449 -0.0078  0.2417
 9458SOL    HW128752   5.145   2.276   1.183  0.3322  1.1172  0.3281
 9458SOL    HW228753   5.206   2.303   1.047  0.2805  0.6677  0.2159
 9459SOL     OW28754   6.552   3.934   4.965  0.4862  0.2780 -0.0845
 9459SOL    HW128755   6.467   3.975   4.950  0.6943  1.1666  0.9773
 9459SOL    HW228756   6.568   3.882   4.887 -1.4689 -0.7014  0.1049
 9460SOL     OW28757   1.922   4.132   5.170  0.5762  0.1720  0.3239
 9460SOL    HW128758   1.874   4.207   5.204  1.8687  2.4292 -2.4434
 9460SOL    HW228759   1.889   4.057   5.221 -2.9821  2.1016  1.1662
 9461SOL     OW28760   3.386   3.421   2.396  0.3428 -0.0691  0.3364
 9461SOL    HW128761   3.404   3.468   2.314 -2.8086 -0.6750 -0.8581
 9461SOL    HW228762   3.374   3.490   2.461  1.3031  0.4853 -0.0526
 9462SOL     OW28763   5.071   0.154   6.570 -0.1313 -0.6486 -0.1588
 9462SOL    HW128764   5.025   0.238   6.574 -0.8141 -1.0135 -0.1256
 9462SOL    HW228765   5.004   0.089   6.593 -0.3142 -1.4319 -2.6182
 9463SOL     OW28766   6.435   2.723   0.542 -0.5936 -0.5699 -0.0814
 9463SOL    HW128767   6.434   2.798   0.600  2.1970 -1.2268  0.9385
 9463SOL    HW228768   6.478   2.754   0.462  0.4802 -1.0199  0.3058
 9464SOL     OW28769   5.008   2.395   3.077 -0.2743 -0.6252 -0.3563
 9464SOL    HW128770   4.933   2.343   3.106 -0.5737  0.0804  0.1717
 9464SOL    HW228771   5.076   2.330   3.060 -0.1538 -1.1226  1.7464
 9465SOL     OW28772   1.776   2.808   3.000  0.2391  0.1960  0.4808
 9465SOL    HW128773   1.720   2.739   3.033  0.5577 -0.0194  0.5813
 9465SOL    HW228774   1.765   2.880   3.063  0.8680 -0.2253  1.0907
 9466SOL     OW28775   5.441   2.208   2.585 -0.4360  0.0156 -0.4992
 9466SOL    HW128776   5.451   2.122   2.544  0.1947  0.1960 -0.7402
 9466SOL    HW228777   5.490   2.267   2.529  0.3645  0.2824  0.4367
 9467SOL     OW28778   4.066   5.397   3.118  0.1674 -0.0354  0.3588
 9467SOL    HW128779   3.986   5.362   3.079  0.3408  0.1150 -0.1366
 9467SOL    HW228780   4.088   5.473   3.065 -1.5166  2.3371  2.8372
 9468SOL     OW28781   1.942   0.201   3.947  0.5786  0.4406  0.0364
 9468SOL    HW128782   1.919   0.175   4.037 -0.9171  0.7179 -0.2542
 9468SOL    HW228783   1.959   0.295   3.953  1.1735  0.3351  0.1418
 9469SOL     OW28784   5.916   0.444   6.209  0.3975 -0.0215  0.0208
 9469SOL    HW128785   5.855   0.509   6.173  0.1822 -0.8127 -1.0615
 9469SOL    HW228786   5.860   0.373   6.241  0.6875 -0.1124  0.3433
 9470SOL     OW28787   3.991   4.125   1.856  0.3253  0.1948  0.6916
 9470SOL    HW128788   3.949   4.209   1.876  2.2603  0.6837  3.3597
 9470SOL    HW228789   4.074   4.149   1.816  0.3059 -0.5380  0.1915
 9471SOL     OW28790   1.186   5.428   4.620  0.3735  0.0993  0.3931
 9471SOL    HW128791   1.281   5.422   4.631  0.3208  1.4460  1.9224
 9471SOL    HW228792   1.172   5.513   4.579 -0.1821 -0.0291  0.3038
 9472SOL     OW28793   0.954   5.090   5.826 -0.0822  0.3780  0.2546
 9472SOL    HW128794   0.902   5.025   5.873 -0.4905  1.0480  0.7525
 9472SOL    HW228795   1.045   5.060   5.837 -0.2791 -0.2422  0.2505
 9473SOL     OW28796   3.462   1.801   1.799 -0.6215 -0.1922  0.3893
 9473SOL    HW128797   3.436   1.786   1.708  0.6821 -1.4860  0.1894
 9473SOL    HW228798   3.552   1.832   1.794  0.0187 -1.7912  1.2591
 9474SOL     OW28799   3.851   1.000   1.725 -0.3233 -0.0512 -0.0105
 9474SOL    HW128800   3.830   1.047   1.805  0.2762 -0.0342  0.1394
 9474SOL    HW228801   3.945   0.983   1.731 -0.2978 -0.1525 -0.6525
 9475SOL     OW28802   6.404   1.047   0.066 -0.1059  0.0330  0.5531
 9475SOL    HW128803   6.323   1.071   0.020 -0.3890 -1.4018  0.2337
 9475SOL    HW228804   6.460   1.010  -0.003 -0.2370 -1.4467  1.2089
 9476SOL     OW28805   0.282   0.608   5.519  0.0696  0.3871 -0.0130
 9476SOL    HW128806   0.188   0.624   5.515  0.1192  1.3349  1.5880
 9476SOL    HW228807   0.316   0.641   5.436 -0.8454  1.3006 -0.0437
 9477SOL     OW28808   2.742   2.711   3.118  0.1229 -0.2841 -0.0099
 9477SOL    HW128809   2.647   2.697   3.120 -0.5654  3.4032 -0.2356
 9477SOL    HW228810   2.772   2.683   3.205 -1.0396 -1.9911 -0.1209
 9478SOL     OW28811   5.146   6.082   3.940  0.6387  0.0153 -0.0003
 9478SOL    HW128812   5.130   6.175   3.957 -0.8073 -0.2777  0.3494
 9478SOL    HW228813   5.100   6.036   4.010  0.1301 -1.0057 -0.9715
 9479SOL     OW28814   4.402   3.602   1.565  0.1308 -0.3331 -0.0042
 9479SOL    HW128815   4.459   3.602   1.642 -0.1619  1.8453  0.2674
 9479SOL    HW228816   4.449   3.653   1.499 -1.1784  0.9173 -0.0033
 9480SOL     OW28817   0.853   6.813   5.990  0.3038  0.3890  0.4156
 9480SOL    HW128818   0.778   6.803   6.048  1.3344 -0.8498  1.6014
 9480SOL    HW228819   0.877   6.905   5.997 -0.9284  0.7416  0.2204
 9481SOL     OW28820   2.734   6.069   2.869  0.1184 -0.5192  0.1664
 9481SOL    HW128821   2.661   6.013   2.894  1.1064 -1.9809 -0.0710
 9481SOL    HW228822   2.773   6.025   2.793  2.6877 -1.1612  1.7218
 9482SOL     OW28823   0.566   1.748   6.768  0.2116  0.1342  0.2758
 9482SOL    HW128824   0.561   1.842   6.752 -0.2176 -0.0388 -0.6060
 9482SOL    HW228825   0.529   1.737   6.856  1.8077  0.9758  1.1042
 9483SOL     OW28826   4.001   1.920   0.577 -0.0682  0.1549  0.1492
 9483SOL    HW128827   3.949   1.901   0.498 -1.0174 -0.6253  0.9329
 9483SOL    HW228828   4.072   1.855   0.574 -0.7212 -0.5965  0.4783
 9484SOL     OW28829   3.922   1.286   1.146 -0.0118 -0.1367 -0.0844
 9484SOL    HW128830   3.854   1.254   1.206  1.6208 -0.2285  1.8379
 9484SOL    HW228831   3.946   1.372   1.181 -1.1727  1.2594 -2.5071
 9485SOL     OW28832   0.857   4.872   1.722 -0.1103  0.1911  0.1025
 9485SOL    HW128833   0.893   4.909   1.803 -1.2861  0.2106  0.6434
 9485SOL    HW228834   0.809   4.795   1.751 -1.7363  0.9853 -0.3796
 9486SOL     OW28835   3.266   5.022   0.658  0.1139 -0.0986  0.0504
 9486SOL    HW128836   3.263   5.111   0.623 -0.3096 -0.0700  0.1556
 9486SOL    HW228837   3.176   5.005   0.688 -0.0208 -0.8673 -0.7469
 9487SOL     OW28838   2.173   2.184   6.457 -0.5313 -0.5685  0.2573
 9487SOL    HW128839   2.208   2.268   6.427 -2.5030  0.9484  1.8793
 9487SOL    HW228840   2.078   2.198   6.461 -0.6825 -1.5784  4.0682
 9488SOL     OW28841   3.095   5.951   0.262 -0.4072  0.1457 -0.9568
 9488SOL    HW128842   3.135   5.912   0.339 -1.6041 -0.2094 -0.4802
 9488SOL    HW228843   3.168   5.987   0.211  0.4583 -0.2597 -0.0229
 9489SOL     OW28844   2.130   1.809   2.449 -0.1269  0.1164  0.0766
 9489SOL    HW128845   2.077   1.730   2.443  0.4862 -0.2543 -0.5895
 9489SOL    HW228846   2.152   1.831   2.358 -0.4954  1.1978  0.2341
 9490SOL     OW28847   3.202   4.874   2.910 -0.2259 -0.5763 -0.3923
 9490SOL    HW128848   3.187   4.782   2.934 -3.4980 -0.1144 -0.1861
 9490SOL    HW228849   3.294   4.877   2.884  0.0904 -3.8365 -0.1301
 9491SOL     OW28850   6.055   4.650   2.382 -0.1899  0.3658 -0.7473
 9491SOL    HW128851   6.099   4.572   2.415 -2.2226 -0.7488 -0.4746
 9491SOL    HW228852   5.992   4.672   2.451 -0.8091  1.2321 -1.5712
 9492SOL     OW28853   1.944   4.910   6.755 -0.4581 -0.4435 -0.1483
 9492SOL    HW128854   1.927   4.889   6.663 -0.7131  0.8210 -0.4076
 9492SOL    HW228855   1.985   4.831   6.790  1.3692 -0.2933 -1.8034
 9493SOL     OW28856   0.086   0.017   5.000 -0.0892  0.8285  0.3574
 9493SOL    HW128857   0.000   0.032   5.041  0.0770 -0.1770  1.0864
 9493SOL    HW228858   0.071  -0.055   4.939  0.2615  0.5804  0.5633
 9494SOL     OW28859   5.904   5.089   3.780  0.3714 -0.1248  0.8159
 9494SOL    HW128860   5.841   5.151   3.818  0.4808  0.7948 -0.4558
 9494SOL    HW228861   5.983   5.140   3.765  0.8572 -0.8630  0.8066
 9495SOL     OW28862   5.359   5.394   0.463  0.2089 -0.3773 -0.2272
 9495SOL    HW128863   5.394   5.430   0.381  1.7675 -0.0940  0.5149
 9495SOL    HW228864   5.306   5.464   0.499 -2.1403 -1.1876 -1.9012
 9496SOL     OW28865   3.683   2.533   1.623  0.1120  0.1009 -0.1602
 9496SOL    HW128866   3.755   2.538   1.686 -0.0148  0.6728 -0.0501
 9496SOL    HW228867   3.644   2.621   1.625  0.9313  0.5527 -2.0081
 9497SOL     OW28868   6.382   0.425   4.810 -0.7515 -0.3684 -0.0599
 9497SOL    HW128869   6.417   0.460   4.892  0.7523 -1.3145 -0.2542
 9497SOL    HW228870   6.381   0.330   4.822  0.1171 -0.5741 -1.3524
 9498SOL     OW28871   5.553   6.635   1.437 -0.2620  0.3403 -0.0340
 9498SOL    HW128872   5.580   6.563   1.495 -1.3649  1.5204  2.0811
 9498SOL    HW228873   5.626   6.646   1.377  0.7376 -1.3101  0.8068
 9499SOL     OW28874   6.433   6.076   4.304 -0.1704  0.0442 -0.2235
 9499SOL    HW128875   6.386   6.124   4.236 -1.8381 -0.7741  0.2884
 9499SOL    HW228876   6.517   6.121   4.312  0.0693  0.2071 -2.7613
 9500SOL     OW28877   5.565   6.556   3.624 -0.1311 -0.3657  0.5760
 9500SOL    HW128878   5.537   6.473   3.662  0.4577 -0.0986  1.6408
 9500SOL    HW228879   5.618   6.597   3.692  0.2548  0.5270 -0.2288
 9501SOL     OW28880   4.650   0.281   2.781 -0.1832  0.0555  0.0246
 9501SOL    HW128881   4.717   0.218   2.808 -0.3285  0.5824  1.7180
 9501SOL    HW228882   4.569   0.247   2.820 -0.1665  1.5547  1.4631
 9502SOL     OW28883   5.901   5.439   2.042  0.2835 -0.4700  0.5373
 9502SOL    HW128884   5.911   5.354   2.085  1.4748 -0.0706  1.0972
 9502SOL    HW228885   5.991   5.467   2.021 -0.0746  0.6744  0.4225
 9503SOL     OW28886   2.334   3.653   1.904  0.5330  0.2552 -0.1319
 9503SOL    HW128887   2.300   3.565   1.890  1.1112 -0.2267  1.2730
 9503SOL    HW228888   2.267   3.711   1.869 -0.2832 -0.7274 -0.2478
 9504SOL     OW28889   6.525   4.800   5.385  0.0585  0.3187 -0.1708
 9504SOL    HW128890   6.556   4.802   5.476 -0.8621 -1.0860  0.2260
 9504SOL    HW228891   6.506   4.891   5.364 -0.0464  0.6384  1.1855
 9505SOL     OW28892   6.772   0.218   3.979 -0.2552  0.1617 -0.4867
 9505SOL    HW128893   6.708   0.284   3.951 -0.7821  0.6219  1.5986
 9505SOL    HW228894   6.745   0.195   4.068  1.8413 -0.4632  0.0454
 9506SOL     OW28895   2.960   6.753   0.204 -0.3033 -0.0586 -0.4773
 9506SOL    HW128896   2.934   6.807   0.278 -0.6386 -1.2151  0.2825
 9506SOL    HW228897   2.878   6.726   0.164 -0.1836 -0.7612 -0.2710
 9507SOL     OW28898   5.373   5.238   5.719 -0.2087 -0.7277  0.8650
 9507SOL    HW128899   5.335   5.322   5.693 -0.8958 -1.6529 -1.4393
 9507SOL    HW228900   5.312   5.173   5.684  1.8595 -2.2233 -0.1590
 9508SOL     OW28901   5.049   2.856   3.009  0.2697  0.1384  0.0463
 9508SOL    HW128902   5.062   2.762   2.994  0.6513  0.3029 -0.7126
 9508SOL    HW228903   5.138   2.893   3.007  0.0616  0.6176 -0.3989
 9509SOL     OW28904   5.872   0.921   3.175 -0.5982 -0.3648 -0.9792
 9509SOL    HW128905   5.847   0.989   3.238  0.2103 -1.3410  0.4459
 9509SOL    HW228906   5.922   0.968   3.109 -0.6961  0.5625 -0.4197
 9510SOL     OW28907   3.943   6.120   6.156 -0.7742  1.0360 -0.1696
 9510SOL    HW128908   4.020   6.172   6.180  0.7383 -0.3827 -1.7121
 9510SOL    HW228909   3.912   6.160   6.075 -0.0680  0.0440 -0.9464
 9511SOL     OW28910   4.417   5.022   3.566  0.0600 -0.2485 -0.2118
 9511SOL    HW128911   4.444   4.983   3.649  0.0453 -0.4480 -0.3003
 9511SOL    HW228912   4.476   4.985   3.501  1.5860  1.6400  0.0181
 9512SOL     OW28913   1.310   6.321   4.550  0.1138  0.1338 -0.1693
 9512SOL    HW128914   1.266   6.272   4.481  1.0591 -0.3721 -0.4333
 9512SOL    HW228915   1.270   6.408   4.547 -1.9808 -0.7283  0.6616
 9513SOL     OW28916   1.225   3.438   5.914  0.5639  0.0199 -0.2645
 9513SOL    HW128917   1.191   3.508   5.969  0.2318 -0.1047 -0.3145
 9513SOL    HW228918   1.175   3.361   5.938  0.2188  0.0214 -0.9337
 9514SOL     OW28919   3.020   1.052   6.185  0.2437 -0.0256  0.7088
 9514SOL    HW128920   2.929   1.040   6.157  0.5419 -1.0421  0.1368
 9514SOL    HW228921   3.026   1.146   6.205  0.3155  1.1934 -3.8228
 9515SOL     OW28922   0.100   4.309   5.151  0.0866 -0.1763  0.0456
 9515SOL    HW128923   0.110   4.292   5.244 -0.5367  0.4216  0.2344
 9515SOL    HW228924   0.007   4.292   5.134  0.3238 -0.8731 -0.5948
 9516SOL     OW28925   6.058   3.699   1.255 -0.7096  0.2101  0.1469
 9516SOL    HW128926   6.076   3.790   1.279  1.3275 -0.0198 -0.3585
 9516SOL    HW228927   6.138   3.651   1.279 -1.4424 -1.3178 -0.3093
 9517SOL     OW28928   2.868   6.591   4.966 -0.5903 -0.3401 -0.0483
 9517SOL    HW128929   2.962   6.604   4.978 -0.7356  0.3236  0.4187
 9517SOL    HW228930   2.831   6.679   4.962 -1.0539 -0.5834 -1.4758
 9518SOL     OW28931   3.000   0.755   5.901  0.1843 -0.0431  0.1288
 9518SOL    HW128932   3.020   0.835   5.853 -0.5972  1.2467  1.8377
 9518SOL    HW228933   3.075   0.743   5.960  0.3361 -0.6446 -0.1706
 9519SOL     OW28934   5.201   1.216   2.954  0.0052 -0.7244  0.5277
 9519SOL    HW128935   5.233   1.163   3.028  1.3227 -3.7917 -2.0007
 9519SOL    HW228936   5.273   1.213   2.890 -1.2632  1.3990 -1.1201
 9520SOL     OW28937   2.765   6.225   3.720  0.3711 -0.0660  0.5002
 9520SOL    HW128938   2.780   6.146   3.771  0.0190  0.1207  0.9055
 9520SOL    HW228939   2.849   6.271   3.720  0.3300  0.0249  1.0835
 9521SOL     OW28940   2.328   5.804   2.382  0.1063  0.4272 -0.2389
 9521SOL    HW128941   2.309   5.748   2.457  0.0759  1.3256  0.4361
 9521SOL    HW228942   2.243   5.839   2.354  0.1938  0.6156 -0.2745
 9522SOL     OW28943   6.134   1.070   2.306  0.7847  0.0843 -0.3750
 9522SOL    HW128944   6.079   1.147   2.320  2.1720  1.0822 -0.3023
 9522SOL    HW228945   6.211   1.103   2.260  1.2469 -1.3284 -0.6740
 9523SOL     OW28946   2.042   2.423   2.888 -0.0988  0.1315  0.4236
 9523SOL    HW128947   1.965   2.479   2.899  1.8818  2.9873  0.9814
 9523SOL    HW228948   2.049   2.376   2.971 -0.3085  1.1818  1.0658
 9524SOL     OW28949   3.473   4.641   2.558 -0.1883  0.0350 -0.1495
 9524SOL    HW128950   3.447   4.577   2.624  0.6506 -1.1694 -0.9508
 9524SOL    HW228951   3.402   4.638   2.493 -0.3818  0.2820  0.0467
 9525SOL     OW28952   1.825   1.805   1.390  0.0900 -0.5960 -0.0589
 9525SOL    HW128953   1.899   1.774   1.442  0.2788 -1.3943 -0.7839
 9525SOL    HW228954   1.865   1.838   1.309 -0.2413  0.1929  0.0924
 9526SOL     OW28955   0.534   2.424   4.983 -0.6687  0.1734  0.2433
 9526SOL    HW128956   0.482   2.504   4.972  0.8296  1.1338 -0.2048
 9526SOL    HW228957   0.618   2.455   5.018  0.5694 -0.9724 -1.5513
 9527SOL     OW28958   0.831   2.415   1.584 -0.4702 -0.1857 -0.3016
 9527SOL    HW128959   0.772   2.455   1.649 -0.2977  1.7280 -1.2586
 9527SOL    HW228960   0.790   2.433   1.500 -0.7999 -2.8366 -0.8051
 9528SOL     OW28961   4.221   4.095   4.876 -0.5047 -0.3111 -0.3115
 9528SOL    HW128962   4.186   4.180   4.847 -1.2134 -0.3172  0.4727
 9528SOL    HW228963   4.184   4.084   4.964 -1.1118 -1.8242 -0.7346
 9529SOL     OW28964   4.293   4.323   5.564 -0.0811  0.5940  0.1463
 9529SOL    HW128965   4.309   4.347   5.655  1.6749 -1.2955  0.3969
 9529SOL    HW228966   4.328   4.235   5.555 -2.3169 -0.2217 -1.7973
 9530SOL     OW28967   6.034   6.602   5.969  0.0504  0.2899  0.1226
 9530SOL    HW128968   6.020   6.562   5.884  0.6251 -0.7357  0.4921
 9530SOL    HW228969   5.985   6.684   5.966 -0.0957  0.1671 -1.1125
 9531SOL     OW28970   1.750   6.658   0.521  0.0418  0.4281 -0.2140
 9531SOL    HW128971   1.759   6.669   0.426  1.6170  1.9876  0.0671
 9531SOL    HW228972   1.805   6.582   0.541  0.0308  0.3456 -0.4805
 9532SOL     OW28973   1.557   3.463   0.846  0.3790 -0.4878  0.6427
 9532SOL    HW128974   1.522   3.442   0.760  1.0277  1.7132 -0.2341
 9532SOL    HW228975   1.564   3.379   0.891 -2.8474 -1.3829 -0.3088
 9533SOL     OW28976   5.494   0.638   5.116  0.8015 -0.0716 -0.5075
 9533SOL    HW128977   5.454   0.561   5.077 -1.2813  0.3007  0.7559
 9533SOL    HW228978   5.479   0.708   5.052 -1.2894  0.2135  0.2163
 9534SOL     OW28979   0.862   3.415   2.611  0.1467 -0.0750 -0.1950
 9534SOL    HW128980   0.861   3.454   2.523 -0.3364  2.1597  0.7264
 9534SOL    HW228981   0.955   3.413   2.634  0.3039 -0.9398 -0.8341
 9535SOL     OW28982   3.942   3.819   6.405  0.3449  0.4608  0.0949
 9535SOL    HW128983   3.852   3.794   6.424  0.1952  0.6388 -0.3482
 9535SOL    HW228984   3.995   3.764   6.462  0.0143 -0.6297 -0.6197
 9536SOL     OW28985   5.262   1.663   6.480  0.0398 -0.2031  0.5960
 9536SOL    HW128986   5.319   1.733   6.512 -0.4575 -0.2534  1.6448
 9536SOL    HW228987   5.219   1.700   6.403 -0.6462  0.8681  1.4667
 9537SOL     OW28988   0.819   0.859   2.358  0.0364 -0.1405  0.3297
 9537SOL    HW128989   0.842   0.945   2.324 -0.7287  1.0115  2.5649
 9537SOL    HW228990   0.904   0.814   2.367  0.7900  1.4490  1.7857
 9538SOL     OW28991   6.215   2.518   2.419 -0.2128 -0.0238  0.2183
 9538SOL    HW128992   6.129   2.539   2.383  0.1486  0.4738 -0.3736
 9538SOL    HW228993   6.239   2.595   2.470  1.0294  1.0127 -1.7933
 9539SOL     OW28994   3.451   2.024   3.178 -0.1539  0.1983  0.2279
 9539SOL    HW128995   3.498   1.954   3.222  2.0855  0.7237 -1.1928
 9539SOL    HW228996   3.359   2.009   3.201  0.2958 -2.8787  0.3525
 9540SOL     OW28997   6.205   1.400   6.351 -0.2369 -0.1288 -0.1756
 9540SOL    HW128998   6.251   1.456   6.413  0.1973 -0.3757 -0.2700
 9540SOL    HW228999   6.272   1.375   6.287 -1.2480  2.4631 -2.4604
 9541SOL     OW29000   1.869   3.427   1.381  0.8262  0.2114  0.2604
 9541SOL    HW129001   1.915   3.398   1.302  0.6500  1.0844 -0.1783
 9541SOL    HW229002   1.854   3.521   1.367  0.3819  0.2822  1.1301
 9542SOL     OW29003   3.518   1.268   1.897 -0.0330  0.2107 -0.4601
 9542SOL    HW129004   3.546   1.178   1.909  2.3353  0.9557  0.1026
 9542SOL    HW229005   3.425   1.267   1.919  0.8114 -1.2725  4.2200
 9543SOL     OW29006   1.544   5.806   6.816  0.2110 -0.4509  0.1654
 9543SOL    HW129007   1.563   5.877   6.876 -0.3976  0.0341 -0.2046
 9543SOL    HW229008   1.521   5.849   6.734  0.9712 -1.0968 -0.4066
 9544SOL     OW29009   1.523   4.095   3.896 -0.5337  0.0185 -0.4926
 9544SOL    HW129010   1.486   4.182   3.908 -2.6985 -1.2553  4.0429
 9544SOL    HW229011   1.488   4.065   3.812 -0.0952  3.1629 -1.9678
 9545SOL     OW29012   4.335   1.185   2.838 -0.1975 -0.1926  0.0363
 9545SOL    HW129013   4.319   1.260   2.895 -0.2851 -0.5702  0.5195
 9545SOL    HW229014   4.248   1.157   2.810 -0.1500  0.0366 -0.3416
 9546SOL     OW29015   6.160   5.052   5.295  0.4030 -0.1990 -0.2282
 9546SOL    HW129016   6.126   5.057   5.206  0.9418 -1.5714 -0.5349
 9546SOL    HW229017   6.127   5.131   5.338 -2.2534 -0.8965 -0.7935
 9547SOL     OW29018   1.719   4.424   3.034 -0.2507  0.0928  0.0501
 9547SOL    HW129019   1.716   4.402   3.128 -0.4883  0.0469  0.0342
 9547SOL    HW229020   1.803   4.390   3.004 -0.5540 -0.7012  0.0572
 9548SOL     OW29021   2.716   4.814   2.292  0.2727  0.2165  0.3353
 9548SOL    HW129022   2.655   4.863   2.237 -0.0051  0.5256  0.8989
 9548SOL    HW229023   2.777   4.880   2.326  0.2425  0.0894  0.6475
 9549SOL     OW29024   3.073   3.034   5.572  0.1758 -0.4993  0.0103
 9549SOL    HW129025   3.016   3.052   5.497  1.7398  1.6579 -0.7532
 9549SOL    HW229026   3.158   3.014   5.533  0.8898  0.1784  1.1603
 9550SOL     OW29027   1.211   2.341   3.278 -0.0766 -0.1655 -0.3023
 9550SOL    HW129028   1.185   2.278   3.344 -0.4153  2.1378  1.9430
 9550SOL    HW229029   1.299   2.368   3.304 -1.0538  2.4221  0.7129
 9551SOL     OW29030   3.005   6.027   1.746  0.3407  0.2853  0.3388
 9551SOL    HW129031   2.934   5.975   1.709  1.6805 -0.3824 -1.4831
 9551SOL    HW229032   3.039   5.973   1.817  0.0013 -0.0936  0.2185
 9552SOL     OW29033   4.509   3.708   0.928 -0.4505 -0.2950  0.1388
 9552SOL    HW129034   4.540   3.618   0.919  0.5753  0.0144  0.4701
 9552SOL    HW229035   4.561   3.744   1.000 -1.4493  0.3092  0.5768
 9553SOL     OW29036   4.881   5.201   1.394 -0.7093  0.0071  0.1356
 9553SOL    HW129037   4.808   5.250   1.357 -1.4156 -1.6447 -0.7677
 9553SOL    HW229038   4.945   5.195   1.323  0.3327  1.3972  0.9025
 9554SOL     OW29039   2.688   6.538   3.094 -0.2393  0.3920 -0.5828
 9554SOL    HW129040   2.728   6.616   3.056  4.0271 -0.4110  1.5804
 9554SOL    HW229041   2.719   6.465   3.040  1.4223 -0.2550  1.1029
 9555SOL     OW29042   5.492   4.298   1.179 -0.1319 -0.0031 -0.0399
 9555SOL    HW129043   5.553   4.356   1.226 -0.3255  2.2703 -2.3490
 9555SOL    HW229044   5.547   4.229   1.143  0.4398 -0.1890  1.1579
 9556SOL     OW29045   3.500   5.578   6.090 -0.2178 -0.1316  0.4975
 9556SOL    HW129046   3.407   5.589   6.111 -0.1437 -0.0757  0.7969
 9556SOL    HW229047   3.544   5.576   6.175 -0.1370 -1.9179  0.4536
 9557SOL     OW29048   2.116   6.565   5.976 -0.7627 -0.6094  0.2746
 9557SOL    HW129049   2.179   6.505   5.936 -1.1959 -0.9250  0.0559
 9557SOL    HW229050   2.158   6.651   5.968 -0.6086 -0.7340 -0.3960
 9558SOL     OW29051   6.499   2.403   1.620 -0.2051  0.1336  0.1665
 9558SOL    HW129052   6.546   2.414   1.702  0.7297 -0.6623 -0.2399
 9558SOL    HW229053   6.510   2.311   1.598 -1.2809  0.1152 -0.3630
 9559SOL     OW29054   5.561   1.200   0.106 -0.1626 -0.2703  0.0202
 9559SOL    HW129055   5.564   1.280   0.054  0.0915  0.1150  0.6142
 9559SOL    HW229056   5.527   1.228   0.191  0.9836 -0.5733  0.6083
 9560SOL     OW29057   5.581   2.551   4.068  0.1515 -0.2306 -0.2658
 9560SOL    HW129058   5.596   2.466   4.027 -0.8262 -1.3005  1.4915
 9560SOL    HW229059   5.523   2.596   4.007  0.7693 -0.7616 -1.2716
 9561SOL     OW29060   5.795   3.960   2.960  0.6217  0.0070 -0.2494
 9561SOL    HW129061   5.855   3.892   2.988  0.6489  0.0800 -0.1325
 9561SOL    HW229062   5.838   4.042   2.982  0.6783  0.0662 -0.5734
 9562SOL     OW29063   0.272   1.946   0.563 -0.1069  0.0129  0.0601
 9562SOL    HW129064   0.198   1.888   0.582 -0.0596 -0.1421 -0.2292
 9562SOL    HW229065   0.348   1.903   0.601 -0.3319  0.7359  1.4006
 9563SOL     OW29066   0.881   5.234   1.786 -0.1521 -0.4378  0.4176
 9563SOL    HW129067   0.855   5.318   1.749  0.2177 -0.4344  0.1612
 9563SOL    HW229068   0.962   5.212   1.741  1.0726  0.2192  2.1566
 9564SOL     OW29069   5.091   1.268   1.418  0.3133 -0.7034  1.0537
 9564SOL    HW129070   5.178   1.289   1.386  1.1710  1.4212  4.2833
 9564SOL    HW229071   5.032   1.292   1.346  2.2514 -0.5871 -0.5754
 9565SOL     OW29072   3.871   5.497   3.580  0.0859  0.4219  0.0043
 9565SOL    HW129073   3.961   5.510   3.550  0.3614 -0.3890  0.4419
 9565SOL    HW229074   3.833   5.437   3.516  1.3422 -3.1068  2.2753
 9566SOL     OW29075   5.711   3.281   1.948  0.1832 -0.0612 -0.1291
 9566SOL    HW129076   5.688   3.195   1.912 -2.1867  0.8611 -0.9701
 9566SOL    HW229077   5.666   3.285   2.032  2.3190 -0.5498  1.1246
 9567SOL     OW29078   2.647   6.111   5.960 -0.5960  0.4217  0.1400
 9567SOL    HW129079   2.649   6.041   6.026  1.4929  0.4256  0.1253
 9567SOL    HW229080   2.562   6.100   5.916 -0.3701 -2.0429  0.2017
 9568SOL     OW29081   1.670   5.767   3.707 -0.1630 -0.3685 -0.2878
 9568SOL    HW129082   1.689   5.791   3.616  0.3218 -1.1755 -0.4092
 9568SOL    HW229083   1.574   5.761   3.711 -0.2173  0.2075 -0.5968
 9569SOL     OW29084   5.233   3.324   3.047  0.4714 -0.3884  0.6874
 9569SOL    HW129085   5.273   3.391   2.993  1.3630 -0.9923  0.5686
 9569SOL    HW229086   5.251   3.351   3.137  0.8349 -0.4611  0.6390
 9570SOL     OW29087   5.579   2.021   4.716  0.3278  0.0491  0.2400
 9570SOL    HW129088   5.668   2.000   4.745  1.6243  2.8365 -1.3795
 9570SOL    HW229089   5.561   2.107   4.754 -1.1153  0.1800 -0.6605
 9571SOL     OW29090   3.212   3.785   6.356  0.0885 -0.3522 -0.2248
 9571SOL    HW129091   3.150   3.802   6.427 -0.1752  0.5064 -0.6457
 9571SOL    HW229092   3.195   3.693   6.331  0.7588 -0.9314  1.3516
 9572SOL     OW29093   1.758   3.996   0.574 -0.6615  0.0263  0.4916
 9572SOL    HW129094   1.669   3.971   0.549 -0.8392  0.1469  1.0000
 9572SOL    HW229095   1.758   3.992   0.669  0.3144 -1.4697  0.4510
 9573SOL     OW29096   1.293   2.669   5.054  0.4851  0.2541 -0.1510
 9573SOL    HW129097   1.347   2.593   5.073  2.8155  2.0978  1.0686
 9573SOL    HW229098   1.335   2.741   5.101 -0.0723  2.8520 -3.3081
 9574SOL     OW29099   3.247   1.282   1.847 -0.3552 -0.0717  0.2459
 9574SOL    HW129100   3.188   1.336   1.795  2.1673  1.7294 -0.9834
 9574SOL    HW229101   3.272   1.210   1.789  1.0084  0.9029 -0.4223
 9575SOL     OW29102   2.373   1.947   3.952  0.0828  0.4135  0.6952
 9575SOL    HW129103   2.336   1.975   4.036 -2.4644 -0.1813 -0.1461
 9575SOL    HW229104   2.303   1.961   3.889  1.3238 -0.7981 -1.0473
 9576SOL     OW29105   5.255   5.832   2.737  0.2484 -0.1280 -0.1979
 9576SOL    HW129106   5.308   5.810   2.814  0.9510 -0.7315 -0.8372
 9576SOL    HW229107   5.311   5.810   2.663 -0.2940  0.7512 -0.8878
 9577SOL     OW29108   4.961   4.031   1.343 -0.0714 -0.2761  0.5790
 9577SOL    HW129109   5.016   3.985   1.280 -0.9098 -2.0770  1.1170
 9577SOL    HW229110   4.871   4.012   1.316 -0.5165  2.0204  0.1510
 9578SOL     OW29111   0.144   3.879   3.541  0.1855 -0.0012 -0.2627
 9578SOL    HW129112   0.220   3.880   3.600  1.6920 -0.9878 -2.0834
 9578SOL    HW229113   0.123   3.786   3.531  0.2823  0.1039 -1.6312
 9579SOL     OW29114   2.029   5.721   6.497 -0.3991  0.3065  0.4467
 9579SOL    HW129115   1.980   5.656   6.548 -0.9179 -1.4675 -2.1072
 9579SOL    HW229116   2.050   5.790   6.559 -1.9071 -1.1946  2.7620
 9580SOL     OW29117   2.471   0.102   5.819 -0.2339  0.2164 -0.3521
 9580SOL    HW129118   2.557   0.118   5.858 -0.5845  1.9876 -0.2482
 9580SOL    HW229119   2.486   0.108   5.724 -0.3940  1.4174 -0.3092
 9581SOL     OW29120   5.608   0.941   6.793 -0.1333 -0.5848  0.0764
 9581SOL    HW129121   5.578   1.028   6.816  0.1688 -0.7216  1.0309
 9581SOL    HW229122   5.647   0.951   6.706 -1.3043 -0.0567 -0.3972
 9582SOL     OW29123   0.443   6.388   4.458  0.1456  0.2119 -0.3876
 9582SOL    HW129124   0.446   6.319   4.393 -0.9671 -0.3020  0.0802
 9582SOL    HW229125   0.438   6.342   4.542 -0.8784  0.8307 -0.0793
 9583SOL     OW29126   1.584   6.038   1.535 -0.1267  0.5780 -0.3239
 9583SOL    HW129127   1.649   6.101   1.565 -0.4539  0.2038  1.2760
 9583SOL    HW229128   1.630   5.986   1.469  0.8576  1.0050  0.0088
 9584SOL     OW29129   2.240   2.786   5.022  0.2369 -0.7391  0.5957
 9584SOL    HW129130   2.182   2.747   4.957 -2.9353  0.7579  2.2732
 9584SOL    HW229131   2.289   2.852   4.973 -1.5700 -0.0998 -0.4555
 9585SOL     OW29132   3.134   4.700   4.972  0.3030 -0.5354  0.0263
 9585SOL    HW129133   3.203   4.726   4.911  0.0091  0.2042  0.0079
 9585SOL    HW229134   3.059   4.754   4.949 -1.0426 -2.8571 -1.4134
 9586SOL     OW29135   2.791   4.796   3.978  0.0452 -0.0383 -0.7380
 9586SOL    HW129136   2.885   4.792   3.991  0.0265  0.5125 -0.4027
 9586SOL    HW229137   2.754   4.739   4.045 -0.0006  2.0268  1.0971
 9587SOL     OW29138   5.954   0.690   1.977 -0.6117 -0.1365 -0.3499
 9587SOL    HW129139   6.009   0.627   1.930  1.1612 -1.0281  2.6412
 9587SOL    HW229140   5.878   0.639   2.006 -0.1945 -0.4080  0.2984
 9588SOL     OW29141   5.278   0.093   5.091 -1.0159 -0.4413 -0.0039
 9588SOL    HW129142   5.366   0.131   5.086 -1.0053 -0.5864 -1.1372
 9588SOL    HW229143   5.258   0.093   5.184  0.3179 -0.7017  0.3106
 9589SOL     OW29144   2.281   0.451   3.995 -0.1955 -0.0351 -0.2473
 9589SOL    HW129145   2.250   0.389   4.061  0.5158  0.3025  0.4100
 9589SOL    HW229146   2.308   0.395   3.921  1.1337 -0.5945  0.6193
 9590SOL     OW29147   3.450   3.631   2.233 -0.0630 -0.2782 -0.2342
 9590SOL    HW129148   3.489   3.696   2.174  1.6367 -0.0209  1.1023
 9590SOL    HW229149   3.380   3.678   2.278  1.0758  0.6266  0.6352
 9591SOL     OW29150   5.747   5.563   0.122 -0.7400 -0.3237  0.1379
 9591SOL    HW129151   5.793   5.643   0.147 -0.2468 -0.3179 -0.7410
 9591SOL    HW229152   5.762   5.556   0.028 -0.1951 -1.8096  0.3132
 9592SOL     OW29153   1.503   3.503   3.288 -0.0437  0.1314 -0.1038
 9592SOL    HW129154   1.537   3.593   3.294 -0.8386  0.4743 -0.5727
 9592SOL    HW229155   1.414   3.509   3.323 -0.1928 -0.4285 -0.3818
 9593SOL     OW29156   4.856   0.357   3.895 -0.2862  0.1748 -0.1686
 9593SOL    HW129157   4.825   0.445   3.915  0.1920  0.4845 -0.7307
 9593SOL    HW229158   4.943   0.371   3.857  0.4243 -0.6413  1.1033
 9594SOL     OW29159   5.642   5.338   6.589 -0.8468 -0.3292  0.7411
 9594SOL    HW129160   5.624   5.342   6.495 -0.1128 -1.1809  0.5555
 9594SOL    HW229161   5.556   5.353   6.629 -0.8464  2.0580  0.0036
 9595SOL     OW29162   1.478   4.617   3.994  0.5910 -0.1016  0.6852
 9595SOL    HW129163   1.431   4.535   4.004  1.1997 -0.6511 -0.6788
 9595SOL    HW229164   1.419   4.683   4.031 -0.8299 -0.8818 -0.0719
 9596SOL     OW29165   5.051   0.391   1.846 -0.1850  0.1812  0.3131
 9596SOL    HW129166   5.050   0.437   1.930  0.9202 -0.1817  0.5378
 9596SOL    HW229167   4.982   0.325   1.854 -2.5596  2.3841 -0.4016
 9597SOL     OW29168   3.001   6.105   2.446 -0.0118  0.4440 -0.7475
 9597SOL    HW129169   2.995   6.200   2.453  0.6734  0.3452  1.9587
 9597SOL    HW229170   3.092   6.088   2.421  0.6515  0.4540  1.5061
 9598SOL     OW29171   4.308   3.579   5.116  0.4867  0.4059  0.0771
 9598SOL    HW129172   4.379   3.628   5.074  1.6571  0.3875  1.8925
 9598SOL    HW229173   4.229   3.605   5.069  1.6211  0.7801 -1.7219
 9599SOL     OW29174   2.203   2.523   5.213  0.5051  0.4126  0.2403
 9599SOL    HW129175   2.246   2.493   5.292 -0.5398  0.0776  0.7056
 9599SOL    HW229176   2.156   2.602   5.240 -0.6473 -0.2359  0.2213
 9600SOL     OW29177   4.357   1.784   1.297  0.0448 -0.0273  0.6190
 9600SOL    HW129178   4.448   1.804   1.316  0.2645  0.2449 -0.6359
 9600SOL    HW229179   4.331   1.722   1.365  1.5005 -0.9858  0.3358
 9601SOL     OW29180   5.246   3.387   3.313 -0.2825 -0.2303 -0.0633
 9601SOL    HW129181   5.236   3.319   3.379 -0.5280  1.5133  1.8030
 9601SOL    HW229182   5.300   3.454   3.356 -1.8671  1.7475 -0.9894
 9602SOL     OW29183   5.640   1.672   4.328 -0.3800  0.2546  0.7746
 9602SOL    HW129184   5.655   1.759   4.363 -0.8957 -0.2420  2.3147
 9602SOL    HW229185   5.557   1.644   4.367 -0.3492 -0.8281  0.1192
 9603SOL     OW29186   4.444   0.861   5.489 -0.6451  0.6051  0.1038
 9603SOL    HW129187   4.448   0.906   5.405  0.8341 -0.7039 -0.5852
 9603SOL    HW229188   4.509   0.906   5.543  0.7679 -0.5776 -0.5550
 9604SOL     OW29189   5.317   4.813   1.608  0.3693  0.4770  0.2232
 9604SOL    HW129190   5.261   4.882   1.644  0.9724  0.3741  1.4082
 9604SOL    HW229191   5.342   4.760   1.684 -0.5610 -1.4240 -0.7130
 9605SOL     OW29192   0.155   2.622   4.614  0.2102 -0.1507  0.4143
 9605SOL    HW129193   0.080   2.570   4.585  0.0393  0.9900 -1.3262
 9605SOL    HW229194   0.116   2.695   4.662  0.1166  0.7880 -1.0328
 9606SOL     OW29195   0.364   5.494   3.798 -0.1022  0.2302 -0.5357
 9606SOL    HW129196   0.308   5.514   3.873  2.0409  0.2484  1.1549
 9606SOL    HW229197   0.352   5.568   3.738 -0.5432  1.1049  0.6138
 9607SOL     OW29198   0.441   3.154   4.593  0.4194  0.0510 -0.8437
 9607SOL    HW129199   0.370   3.210   4.622  1.5424  0.9302  0.2860
 9607SOL    HW229200   0.449   3.173   4.499 -1.1342 -0.4518 -1.1170
 9608SOL     OW29201   6.620   0.973   2.087  0.3699  0.4570 -0.5898
 9608SOL    HW129202   6.533   1.013   2.084 -0.4120 -1.1827 -0.9232
 9608SOL    HW229203   6.654   0.998   2.173 -1.3616 -0.6954  0.4938
 9609SOL     OW29204   6.777   1.773   2.235  0.3102 -0.4773 -0.2100
 9609SOL    HW129205   6.701   1.794   2.180  0.6316  0.1947 -0.4082
 9609SOL    HW229206   6.821   1.702   2.189 -0.2897 -0.9779 -0.0110
 9610SOL     OW29207   1.712   2.703   0.726 -0.1537  0.0253 -0.0602
 9610SOL    HW129208   1.628   2.661   0.743 -0.7608  1.2131  0.0190
 9610SOL    HW229209   1.746   2.723   0.814 -0.5804  1.0146 -0.1056
 9611SOL     OW29210   2.221   1.076   0.121  1.1260 -0.0656  0.0121
 9611SOL    HW129211   2.297   1.122   0.156  1.7592 -0.7235 -0.4623
 9611SOL    HW229212   2.256   0.992   0.090  0.5428  0.3109 -1.7996
 9612SOL     OW29213   1.568   1.205   2.474 -0.2194  0.0042 -0.3012
 9612SOL    HW129214   1.576   1.295   2.504  2.1372  0.1551 -1.1754
 9612SOL    HW229215   1.648   1.162   2.504 -1.4898 -1.9623  0.4967
 9613SOL     OW29216   3.199   2.409   6.772  0.0662 -0.1678 -0.0440
 9613SOL    HW129217   3.279   2.445   6.811 -1.0725  0.8822  1.4493
 9613SOL    HW229218   3.182   2.464   6.696  2.0516 -1.9389 -1.9157
 9614SOL     OW29219   4.067   5.488   1.501 -0.1037  0.2107  0.2432
 9614SOL    HW129220   4.138   5.539   1.540  1.6384 -0.9774 -1.1781
 9614SOL    HW229221   4.039   5.540   1.426  0.7742 -0.2690 -0.4405
 9615SOL     OW29222   3.116   2.844   4.887 -0.1497  0.1790 -0.1154
 9615SOL    HW129223   3.077   2.758   4.870 -0.3145  0.5184 -1.5543
 9615SOL    HW229224   3.206   2.824   4.914 -0.1765 -0.4456 -0.4629
 9616SOL     OW29225   4.732   3.746   1.099  0.1666 -0.7616  0.0371
 9616SOL    HW129226   4.715   3.766   1.191  2.4619  0.1954  0.3140
 9616SOL    HW229227   4.814   3.696   1.100 -0.7758 -2.4659 -1.3762
 9617SOL     OW29228   4.803   2.024   4.714  0.2017 -0.0564 -0.1872
 9617SOL    HW129229   4.776   1.951   4.659 -0.2393  0.3024 -0.4559
 9617SOL    HW229230   4.749   2.017   4.793 -0.2032  0.2657 -0.4305
 9618SOL     OW29231   3.034   4.133   0.490  0.6043  0.0699 -0.6177
 9618SOL    HW129232   2.965   4.195   0.467  0.7366  0.5049  0.1626
 9618SOL    HW229233   3.010   4.101   0.577  2.0101  1.1078  0.1768
 9619SOL     OW29234   0.769   2.475   5.952 -0.3362  0.7384 -0.0574
 9619SOL    HW129235   0.714   2.418   5.899  2.0079 -0.2780 -1.5726
 9619SOL    HW229236   0.820   2.525   5.888  2.3005 -0.2137  1.1725
 9620SOL     OW29237   2.491   5.350   5.760  0.0901 -0.2596 -0.6668
 9620SOL    HW129238   2.405   5.370   5.723  0.4959  0.6196 -1.1711
 9620SOL    HW229239   2.544   5.428   5.740  0.7818 -0.4575  0.3206
 9621SOL     OW29240   6.008   4.880   1.825  0.1762  0.1475  0.0464
 9621SOL    HW129241   6.017   4.896   1.919 -0.1093  0.1305  0.0772
 9621SOL    HW229242   5.914   4.871   1.811  0.0995  1.5086 -0.4571
 9622SOL     OW29243   0.302   4.480   5.011  0.3972 -0.0817  0.0736
 9622SOL    HW129244   0.385   4.493   5.058  0.6397 -1.2109  0.0012
 9622SOL    HW229245   0.247   4.431   5.073  0.2092 -0.3542 -0.3067
 9623SOL     OW29246   5.067   5.442   5.269  0.3140 -0.0690 -0.3480
 9623SOL    HW129247   5.134   5.390   5.225  1.0056 -0.5436  1.1824
 9623SOL    HW229248   5.026   5.493   5.199  1.1487 -1.0005 -1.5550
 9624SOL     OW29249   0.436   0.328   3.705  0.4868 -0.5202  0.8321
 9624SOL    HW129250   0.428   0.272   3.782 -1.4768  0.5779  1.5235
 9624SOL    HW229251   0.415   0.416   3.738 -1.1746 -0.1227 -1.0524
 9625SOL     OW29252   5.321   5.954   3.161 -0.4317  0.2356  0.5822
 9625SOL    HW129253   5.229   5.932   3.149  0.0188 -2.6179  1.4978
 9625SOL    HW229254   5.368   5.877   3.130  1.6336  1.4292  0.5921
 9626SOL     OW29255   1.159   4.887   0.039  0.4061  0.0951  0.3890
 9626SOL    HW129256   1.185   4.965   0.089  2.2201 -0.4589  0.3728
 9626SOL    HW229257   1.130   4.922  -0.045 -1.1155  0.9075  1.2128
 9627SOL     OW29258   1.161   4.599   5.158  0.4764  0.9797 -0.2815
 9627SOL    HW129259   1.130   4.684   5.189 -0.0912  1.3747 -1.8145
 9627SOL    HW229260   1.143   4.601   5.064 -2.3770 -2.0367  0.0528
 9628SOL     OW29261   3.742   1.988   3.886 -0.2052 -0.2053  0.4934
 9628SOL    HW129262   3.677   1.951   3.825 -0.0149  2.3483 -1.4045
 9628SOL    HW229263   3.690   2.038   3.949 -0.2179 -0.3184  0.5737
 9629SOL     OW29264   5.450   3.822   3.084 -0.5116  0.6587  0.8285
 9629SOL    HW129265   5.421   3.850   3.171 -0.1679  0.2894  1.0600
 9629SOL    HW229266   5.507   3.747   3.100 -0.6881  0.4006  0.2646
 9630SOL     OW29267   0.729   5.170   1.264 -0.0058 -0.1083  0.1021
 9630SOL    HW129268   0.688   5.123   1.337  0.2023  0.0812  0.3412
 9630SOL    HW229269   0.784   5.236   1.305  2.1679 -1.6496 -0.1348
 9631SOL     OW29270   4.869   6.759   3.741  0.4109  0.5017 -0.3567
 9631SOL    HW129271   4.803   6.755   3.671 -0.3701  2.8943  0.1269
 9631SOL    HW229272   4.927   6.831   3.716 -0.1049  1.6749  1.5543
 9632SOL     OW29273   4.069   5.012   0.854 -0.4949 -0.1138 -0.4513
 9632SOL    HW129274   4.115   4.940   0.811 -0.4225 -0.5476  0.3399
 9632SOL    HW229275   4.107   5.091   0.815  1.8103 -0.4124  1.0118
 9633SOL     OW29276   0.367   4.171   6.099  0.8202 -0.3084  0.5891
 9633SOL    HW129277   0.360   4.076   6.095  0.2352 -0.2366 -0.2879
 9633SOL    HW229278   0.401   4.197   6.014 -0.6001  0.3777  0.1899
 9634SOL     OW29279   1.787   6.575   6.792 -0.1089 -0.4178 -0.4850
 9634SOL    HW129280   1.716   6.639   6.803  0.0466 -0.4829  1.1927
 9634SOL    HW229281   1.866   6.628   6.780 -0.2738 -0.3353 -1.2552
 9635SOL     OW29282   2.576   6.296   1.985 -0.3020  0.1435  0.0549
 9635SOL    HW129283   2.495   6.255   1.955  0.7386 -0.4353 -2.2172
 9635SOL    HW229284   2.551   6.386   2.007 -1.7854 -0.4066  0.7628
 9636SOL     OW29285   2.049   6.071   3.373 -0.0294  0.0154  0.1737
 9636SOL    HW129286   2.030   6.082   3.466 -1.2928  2.4756 -0.2830
 9636SOL    HW229287   2.105   6.145   3.351  3.1557 -2.3514 -0.4201
 9637SOL     OW29288   5.120   5.373   1.927 -0.5710  0.3056 -0.0073
 9637SOL    HW129289   5.167   5.332   1.855  1.1170 -1.2845  1.8931
 9637SOL    HW229290   5.120   5.466   1.906  4.6215  0.6661  0.3437
 9638SOL     OW29291   6.647   2.785   6.762 -0.0873  0.0222  0.3801
 9638SOL    HW129292   6.679   2.873   6.780 -0.3106 -0.3155  2.8358
 9638SOL    HW229293   6.665   2.736   6.842 -0.1599 -2.1237 -0.8380
 9639SOL     OW29294   0.132   2.993   3.287 -0.1436  0.1358  0.2042
 9639SOL    HW129295   0.101   3.011   3.199 -0.9873  0.8641  0.6289
 9639SOL    HW229296   0.083   2.915   3.315  1.8348 -1.5608 -0.7945
 9640SOL     OW29297   1.664   3.894   6.607 -0.1731 -0.1626 -0.0457
 9640SOL    HW129298   1.599   3.873   6.674 -1.1530 -0.9752 -1.2142
 9640SOL    HW229299   1.616   3.948   6.544  0.3982 -0.4198 -0.7065
 9641SOL     OW29300   5.549   4.569   4.353 -0.1556 -0.0283 -0.2120
 9641SOL    HW129301   5.515   4.529   4.273  0.4878 -0.1110 -0.4492
 9641SOL    HW229302   5.614   4.632   4.323 -0.2059  0.2402  0.2268
 9642SOL     OW29303   0.511   0.305   5.383 -0.7639 -0.3094 -0.0688
 9642SOL    HW129304   0.519   0.235   5.318  0.8483  2.0457 -2.6314
 9642SOL    HW229305   0.436   0.356   5.354  0.4139  1.1908 -0.6437
 9643SOL     OW29306   2.584   5.077   5.169 -0.1376  0.7473 -0.1626
 9643SOL    HW129307   2.593   5.130   5.249 -1.6841  0.3709  0.2918
 9643SOL    HW229308   2.590   5.141   5.098 -1.4286  1.4825  0.3586
 9644SOL     OW29309   0.012   0.146   1.705  0.5429  0.0818  0.4192
 9644SOL    HW129310   0.099   0.181   1.685  1.0004  0.0655  2.1851
 9644SOL    HW229311  -0.048   0.217   1.684  1.3199  1.4131  2.3910
 9645SOL     OW29312   6.468   5.810   1.631  0.0657 -0.6881 -0.0638
 9645SOL    HW129313   6.431   5.725   1.609 -2.3040  0.3323 -0.4223
 9645SOL    HW229314   6.498   5.845   1.547  2.1483 -1.5911  0.2536
 9646SOL     OW29315   5.028   0.400   3.680  0.0464  0.2975 -0.2372
 9646SOL    HW129316   4.987   0.445   3.606  0.1411  0.9247  0.0841
 9646SOL    HW229317   5.120   0.426   3.676  0.0894  0.1850 -0.0062
 9647SOL     OW29318   1.897   4.029   6.578  0.2265 -0.3545 -0.4830
 9647SOL    HW129319   1.918   4.026   6.484 -0.4150 -1.5523 -0.6142
 9647SOL    HW229320   1.809   3.993   6.583 -1.0170  2.5784  0.2831
 9648SOL     OW29321   1.978   5.218   0.227  0.0183  0.0061 -0.6050
 9648SOL    HW129322   1.909   5.284   0.216 -0.3617 -0.2915 -0.0827
 9648SOL    HW229323   1.933   5.143   0.265  1.0672  0.7477  2.3579
 9649SOL     OW29324   0.278   3.361   5.325  0.1703 -0.7432 -0.5581
 9649SOL    HW129325   0.256   3.310   5.402  1.3450  1.2242  1.1827
 9649SOL    HW229326   0.199   3.360   5.272 -0.4325 -2.7302  0.3001
 9650SOL     OW29327   5.730   0.996   2.707 -0.2873 -0.4872 -0.1375
 9650SOL    HW129328   5.693   1.017   2.622  0.5372 -1.0423 -0.6565
 9650SOL    HW229329   5.696   0.908   2.727 -1.4341  0.1121  0.6838
 9651SOL     OW29330   0.550   1.496   5.099 -0.1325  0.2267  0.5265
 9651SOL    HW129331   0.641   1.507   5.127  0.2435 -1.8018  0.2539
 9651SOL    HW229332   0.531   1.403   5.116 -1.1300 -0.1774 -2.3329
 9652SOL     OW29333   3.981   3.172   2.990 -0.8063  0.4777 -0.5749
 9652SOL    HW129334   4.075   3.178   3.008 -0.5309 -0.6714 -1.4701
 9652SOL    HW229335   3.941   3.231   3.053  0.7006  3.0735 -1.8562
 9653SOL     OW29336   4.778   5.852   0.421 -0.5455 -0.2971  0.3061
 9653SOL    HW129337   4.755   5.914   0.352  0.9840  0.6733  0.6361
 9653SOL    HW229338   4.695   5.836   0.467 -1.0910  1.0213 -0.1663
 9654SOL     OW29339   0.204   6.623   5.736  0.6132  0.6044 -0.3741
 9654SOL    HW129340   0.227   6.624   5.643 -1.5022 -0.2240 -0.9789
 9654SOL    HW229341   0.109   6.637   5.736  0.5976  0.7394  1.6924
 9655SOL     OW29342   3.159   3.661   5.878 -0.0544 -0.4342 -0.7858
 9655SOL    HW129343   3.095   3.638   5.810 -1.0349  1.6058 -0.6329
 9655SOL    HW229344   3.176   3.579   5.924 -1.3760 -1.3367 -1.8229
 9656SOL     OW29345   5.506   3.562   6.624 -0.6551  0.2753 -0.2113
 9656SOL    HW129346   5.571   3.522   6.567 -0.4384  0.3484 -0.0186
 9656SOL    HW229347   5.526   3.528   6.711 -1.4327 -0.4084 -0.2820
 9657SOL     OW29348   3.089   3.503   3.886 -0.0399  0.1279  0.1606
 9657SOL    HW129349   3.081   3.424   3.940 -0.9340 -1.0369 -1.5875
 9657SOL    HW229350   3.027   3.490   3.815 -0.3450  2.5189 -0.0965
 9658SOL     OW29351   2.708   1.027   2.201  0.0153  0.5149 -0.6053
 9658SOL    HW129352   2.790   0.981   2.181 -0.0967 -0.0154  0.0913
 9658SOL    HW229353   2.688   1.076   2.122  1.5363  1.4727 -0.4505
 9659SOL     OW29354   3.665   6.546   5.968  0.4838  0.7130  0.0598
 9659SOL    HW129355   3.576   6.537   5.934  0.0831  1.7423  0.7806
 9659SOL    HW229356   3.719   6.561   5.890 -0.3206  2.3244 -0.2434
 9660SOL     OW29357   0.410   0.145   3.916 -0.5716 -0.0856  0.2988
 9660SOL    HW129358   0.434   0.053   3.924 -0.1987 -0.0769 -0.6630
 9660SOL    HW229359   0.343   0.158   3.983 -1.1035 -1.2148  0.0019
 9661SOL     OW29360   6.703   6.709   3.319  0.0144  0.2801  0.0307
 9661SOL    HW129361   6.778   6.708   3.379  0.7221 -0.1912 -0.8394
 9661SOL    HW229362   6.648   6.781   3.352  1.5601  1.6315 -0.1708
 9662SOL     OW29363   2.875   2.628   0.033 -0.4137  0.2308  0.2092
 9662SOL    HW129364   2.837   2.542   0.052 -1.0694  0.7909  1.5554
 9662SOL    HW229365   2.846   2.648  -0.056 -0.0120 -1.0652 -0.2257
 9663SOL     OW29366   5.226   6.172   6.282 -0.6865  0.3926  0.5267
 9663SOL    HW129367   5.269   6.086   6.276  0.6706  1.0721  0.0418
 9663SOL    HW229368   5.179   6.170   6.365 -0.5424 -0.7559  0.5994
 9664SOL     OW29369   3.130   0.528   5.389  0.2189 -0.2641 -0.1253
 9664SOL    HW129370   3.157   0.602   5.442 -1.4453  1.0790 -1.0819
 9664SOL    HW229371   3.108   0.459   5.452 -0.4155  0.8287  0.8641
 9665SOL     OW29372   3.490   4.034   5.655  0.4624 -0.4102 -0.2577
 9665SOL    HW129373   3.420   3.974   5.683  0.3723 -0.7515 -1.1637
 9665SOL    HW229374   3.472   4.049   5.562  1.2669 -0.0380 -0.3582
 9666SOL     OW29375   0.723   6.413   4.203 -0.3025  0.7483  0.2700
 9666SOL    HW129376   0.779   6.372   4.269  0.4753  0.4210 -0.5774
 9666SOL    HW229377   0.712   6.503   4.234  0.7771  0.8520  0.4146
 9667SOL     OW29378   1.962   4.569   0.970  0.6360 -0.1322  0.3252
 9667SOL    HW129379   1.935   4.488   1.013 -2.6472  1.4461  1.5790
 9667SOL    HW229380   1.948   4.553   0.877  0.5084 -1.1257  0.5030
 9668SOL     OW29381   1.476   3.735   1.170  0.1178 -0.3490 -0.0300
 9668SOL    HW129382   1.545   3.797   1.191 -0.6568  0.2895  0.7023
 9668SOL    HW229383   1.517   3.672   1.110  1.5255 -0.4101  0.9602
 9669SOL     OW29384   5.261   6.466   2.316  0.6698  0.5953  0.9543
 9669SOL    HW129385   5.255   6.402   2.386 -0.3443  0.5184  0.8170
 9669SOL    HW229386   5.219   6.424   2.241  0.0636  1.3778  0.8399
 9670SOL     OW29387   0.181   1.502   1.084 -0.4446 -0.0963 -0.4987
 9670SOL    HW129388   0.206   1.458   1.002  1.7504  0.9233 -0.4538
 9670SOL    HW229389   0.221   1.589   1.078 -3.3756  1.4271  0.0879
 9671SOL     OW29390   4.600   0.863   0.051  0.0907 -0.8222 -0.3290
 9671SOL    HW129391   4.638   0.932   0.106 -0.2538 -0.1778 -0.8826
 9671SOL    HW229392   4.600   0.785   0.106 -0.2036 -0.1996  0.5682
 9672SOL     OW29393   5.186   2.145   5.121 -0.2901  0.5763  0.3472
 9672SOL    HW129394   5.206   2.222   5.174 -1.7279  1.6356 -0.5744
 9672SOL    HW229395   5.139   2.179   5.045  0.0412 -1.1036 -0.6626
 9673SOL     OW29396   2.631   4.098   5.864  0.3582  0.1335 -0.5927
 9673SOL    HW129397   2.570   4.160   5.823  0.8879  0.2192 -1.2713
 9673SOL    HW229398   2.576   4.044   5.921 -0.5003 -0.3740 -1.8603
 9674SOL     OW29399   4.885   6.291   5.184 -0.3145  0.1460  0.3139
 9674SOL    HW129400   4.877   6.270   5.091 -0.9936  0.9608  0.1726
 9674SOL    HW229401   4.925   6.378   5.186  2.4329 -1.0397  0.8811
 9675SOL     OW29402   0.231   5.054   3.231  0.2168 -0.3799  0.5693
 9675SOL    HW129403   0.230   5.113   3.155  1.4386  0.8047  1.4304
 9675SOL    HW229404   0.302   4.993   3.214  1.0603  0.4266  1.1316
 9676SOL     OW29405   1.404   2.916   4.765 -0.6944  0.0962  0.4007
 9676SOL    HW129406   1.406   2.930   4.860  0.8942 -1.5705  0.6628
 9676SOL    HW229407   1.447   2.994   4.729  2.1479 -0.8601  1.3828
 9677SOL     OW29408   0.567   0.791   6.529 -0.1880  0.0108  0.4791
 9677SOL    HW129409   0.500   0.859   6.524 -0.8831 -0.7486 -1.7111
 9677SOL    HW229410   0.648   0.839   6.546 -0.5697  1.4845 -1.5109
 9678SOL     OW29411   6.636   2.812   3.238 -0.5793  0.0927  0.1531
 9678SOL    HW129412   6.662   2.776   3.322 -1.5969 -0.1411  0.3845
 9678SOL    HW229413   6.590   2.893   3.260 -1.3119 -0.2339 -0.1277
 9679SOL     OW29414   5.475   1.104   5.320 -0.3323 -0.0659  0.0194
 9679SOL    HW129415   5.477   1.123   5.414 -0.0495 -1.3087  0.2804
 9679SOL    HW229416   5.487   1.190   5.278 -1.5598  0.6711  1.0854
 9680SOL     OW29417   3.974   2.405   1.941  0.0515  0.1373  0.1970
 9680SOL    HW129418   4.024   2.325   1.922  0.6420  0.9924 -2.2918
 9680SOL    HW229419   3.886   2.374   1.960  0.6561 -1.1954  0.9897
 9681SOL     OW29420   2.654   6.313   1.667 -0.3925 -0.1017 -0.5034
 9681SOL    HW129421   2.667   6.290   1.759 -1.8458  2.0759  0.3374
 9681SOL    HW229422   2.581   6.259   1.638 -0.8652  0.2104  0.0820
 9682SOL     OW29423   6.667   5.377   0.957  0.0580 -0.2904 -0.1450
 9682SOL    HW129424   6.748   5.335   0.985  0.0158 -1.2708 -1.3862
 9682SOL    HW229425   6.655   5.450   1.017  1.5915 -0.4319  0.3631
 9683SOL     OW29426   2.160   4.832   4.048  0.2177  0.1742 -0.4226
 9683SOL    HW129427   2.102   4.836   4.124  0.9685 -2.5926  0.4124
 9683SOL    HW229428   2.246   4.856   4.083  0.2352  0.7032 -0.8270
 9684SOL     OW29429   3.141   1.046   4.664 -0.1656 -0.6304  0.2931
 9684SOL    HW129430   3.076   1.027   4.596 -0.7412  0.9078  0.3971
 9684SOL    HW229431   3.210   1.094   4.618  0.0231 -0.6298  0.5713
 9685SOL     OW29432   3.394   4.187   2.746  0.2650  0.0101  0.7854
 9685SOL    HW129433   3.424   4.223   2.662 -0.9099  1.9525  1.1308
 9685SOL    HW229434   3.464   4.127   2.772  0.4724 -0.9997 -1.7591
 9686SOL     OW29435   2.759   6.461   2.147  0.1270 -0.1464 -0.4071
 9686SOL    HW129436   2.778   6.441   2.239 -1.6463 -1.2203 -0.2338
 9686SOL    HW229437   2.711   6.385   2.116  1.4661 -0.2141 -2.5140
 9687SOL     OW29438   2.212   4.861   4.532 -0.2209 -0.0877  0.3712
 9687SOL    HW129439   2.150   4.869   4.604 -0.9417 -0.4957 -0.1908
 9687SOL    HW229440   2.172   4.910   4.460  0.4856  0.3132  0.2409
 9688SOL     OW29441   5.755   5.312   3.845 -0.2127 -0.0315 -0.3006
 9688SOL    HW129442   5.824   5.378   3.840 -2.3712  2.5491  1.1479
 9688SOL    HW229443   5.694   5.335   3.774 -1.0691 -0.3672  0.3065
 9689SOL     OW29444   4.003   3.069   2.164  0.6872  0.5474 -0.3358
 9689SOL    HW129445   3.909   3.088   2.173  0.8525  0.4061  2.2056
 9689SOL    HW229446   4.021   3.005   2.232  2.8318  1.2457 -0.1946
 9690SOL     OW29447   1.210   3.917   4.597 -0.2972 -0.7118  0.2261
 9690SOL    HW129448   1.288   3.935   4.545 -0.1104 -0.1906  0.6696
 9690SOL    HW229449   1.165   3.846   4.551  0.1314 -0.6095 -0.3537
 9691SOL     OW29450   6.374   2.887   4.097  0.0147  0.4671  0.1556
 9691SOL    HW129451   6.313   2.908   4.026 -1.0708  0.4156  1.0331
 9691SOL    HW229452   6.419   2.808   4.067 -0.9537  0.0216 -0.1836
 9692SOL     OW29453   2.087   2.250   1.332 -0.3424 -0.0982 -0.0712
 9692SOL    HW129454   2.050   2.307   1.399  1.3140  0.0820  0.7597
 9692SOL    HW229455   2.015   2.194   1.305 -0.8047 -1.0996  2.8729
 9693SOL     OW29456   1.198   1.662   0.587  0.6851 -0.5717  0.0726
 9693SOL    HW129457   1.144   1.650   0.509  0.2417 -0.0686  0.3055
 9693SOL    HW229458   1.159   1.735   0.634 -0.4306 -2.2489  1.9303
 9694SOL     OW29459   5.744   5.189   4.087  0.6431  0.1798  0.4587
 9694SOL    HW129460   5.760   5.225   4.175 -1.3325  0.9655  0.5568
 9694SOL    HW229461   5.763   5.261   4.028 -0.2906  0.4137  0.4292
 9695SOL     OW29462   2.566   4.254   3.354  0.2704  0.6848 -0.3442
 9695SOL    HW129463   2.498   4.246   3.286  0.1724 -1.5314 -0.0579
 9695SOL    HW229464   2.648   4.255   3.305  0.2517 -1.7708 -0.5534
 9696SOL     OW29465   0.517   2.064   5.320  0.3064  0.1924  0.1273
 9696SOL    HW129466   0.428   2.037   5.295  1.1283 -0.2327 -2.6708
 9696SOL    HW229467   0.573   2.027   5.252  2.4232  2.1427  0.7048
 9697SOL     OW29468   4.172   6.831   1.945  0.0607 -0.1560 -0.2159
 9697SOL    HW129469   4.245   6.801   1.998 -0.4497 -0.6928  0.2007
 9697SOL    HW229470   4.119   6.883   2.004  0.8054  1.3962 -0.8727
 9698SOL     OW29471   4.121   5.621   6.647  0.1614 -0.4292 -0.3185
 9698SOL    HW129472   4.176   5.600   6.571 -0.4766  0.7641 -1.1367
 9698SOL    HW229473   4.138   5.714   6.663  0.2661 -0.6604  1.0011
 9699SOL     OW29474   1.895   0.621   2.149  0.0273  0.5908 -0.0360
 9699SOL    HW129475   1.934   0.675   2.218 -1.4617  0.7803  0.7077
 9699SOL    HW229476   1.884   0.535   2.190 -0.6808  0.6499 -0.0862
 9700SOL     OW29477   5.595   1.114   3.279 -0.7151  0.4348 -0.2790
 9700SOL    HW129478   5.674   1.148   3.321 -0.2072 -0.4352 -0.5095
 9700SOL    HW229479   5.534   1.098   3.351 -0.5829  0.8531 -0.0755
 9701SOL     OW29480   1.782   3.600   0.821  0.2752  0.1541  1.0076
 9701SOL    HW129481   1.813   3.509   0.818  0.1494  0.1295 -0.8160
 9701SOL    HW229482   1.697   3.597   0.777  1.9804  1.7239 -2.7474
 9702SOL     OW29483   4.002   2.841   0.607  0.0127  0.5066 -0.0058
 9702SOL    HW129484   4.013   2.763   0.552  1.1340  0.0954  0.7768
 9702SOL    HW229485   4.039   2.913   0.555  0.4388  0.2372 -0.0786
 9703SOL     OW29486   6.768   3.454   5.539  0.1816 -0.1566  0.1465
 9703SOL    HW129487   6.847   3.507   5.533  1.2397 -1.7053 -0.4348
 9703SOL    HW229488   6.696   3.515   5.522  1.1333  1.5177  1.7693
 9704SOL     OW29489   3.599   2.379   3.611 -0.3597 -0.3877 -0.3506
 9704SOL    HW129490   3.506   2.397   3.615 -0.1777  0.4375  0.5593
 9704SOL    HW229491   3.641   2.460   3.639  0.5360 -1.6848  2.3995
 9705SOL     OW29492   4.582   1.106   4.144 -0.1520  0.0928 -0.4860
 9705SOL    HW129493   4.640   1.048   4.094 -2.1345 -2.5643  0.0699
 9705SOL    HW229494   4.552   1.170   4.080 -0.2557 -1.3691 -1.9691
 9706SOL     OW29495   6.244   0.231   3.002 -0.4547  0.0664  0.3363
 9706SOL    HW129496   6.328   0.195   2.975 -1.6643 -1.1448 -2.0664
 9706SOL    HW229497   6.193   0.155   3.031 -1.8499  0.2376 -1.5072
 9707SOL     OW29498   6.737   4.618   3.996  0.3786 -0.1481  0.3202
 9707SOL    HW129499   6.809   4.616   3.933  0.2093 -0.2541  0.1278
 9707SOL    HW229500   6.683   4.542   3.973 -0.2152  0.3644 -0.0423
 9708SOL     OW29501   5.270   1.560   1.220 -0.1045 -0.3636 -0.9638
 9708SOL    HW129502   5.324   1.639   1.212 -0.5055  0.0678  0.2589
 9708SOL    HW229503   5.307   1.515   1.296  0.1568 -1.4024 -1.6890
 9709SOL     OW29504   0.329   4.137   2.681 -0.3718  0.1224 -0.8472
 9709SOL    HW129505   0.304   4.228   2.699 -1.6236 -0.1178 -1.3037
 9709SOL    HW229506   0.270   4.084   2.735 -1.1437 -0.4689 -2.2258
 9710SOL     OW29507   0.022   5.086   4.450 -0.1265 -0.3135 -0.1975
 9710SOL    HW129508   0.011   4.991   4.447 -0.6635 -0.2276 -1.8379
 9710SOL    HW229509  -0.068   5.121   4.452 -0.0858  0.1780 -2.8351
 9711SOL     OW29510   6.683   5.339   1.607 -0.7390  0.2312 -0.1199
 9711SOL    HW129511   6.702   5.331   1.701  0.7956 -0.7728 -0.4707
 9711SOL    HW229512   6.643   5.256   1.584 -1.5099  0.6430 -0.2821
 9712SOL     OW29513   4.330   4.321   5.246 -0.0558 -0.0545  0.3036
 9712SOL    HW129514   4.379   4.238   5.238 -0.1493 -0.0218 -0.6988
 9712SOL    HW229515   4.263   4.303   5.312 -0.4735 -0.9823 -0.3492
 9713SOL     OW29516   1.673   6.535   4.980 -0.0303  0.4731  0.0464
 9713SOL    HW129517   1.724   6.522   5.060 -1.2914 -0.6852  0.7185
 9713SOL    HW229518   1.627   6.618   4.995  0.3598  0.6707  0.1655
 9714SOL     OW29519   0.753   0.172   0.019 -0.5170 -0.1092  0.6203
 9714SOL    HW129520   0.785   0.258  -0.007 -1.2923  0.1934  0.6458
 9714SOL    HW229521   0.812   0.144   0.089  0.5268 -0.1722 -0.2676
 9715SOL     OW29522   0.346   1.516   6.150  0.4605  0.0167  0.0948
 9715SOL    HW129523   0.309   1.432   6.177 -0.0154  0.0235 -0.5202
 9715SOL    HW229524   0.441   1.500   6.149  0.3640 -0.5642 -0.1867
 9716SOL     OW29525   4.001   0.017   1.374 -0.3368  0.5785 -0.2419
 9716SOL    HW129526   3.981   0.015   1.468 -0.4744  1.0908 -0.2568
 9716SOL    HW229527   4.032   0.106   1.359  2.3228 -0.2318 -0.1325
 9717SOL     OW29528   5.388   6.701   4.945  0.1568  0.2698 -0.5857
 9717SOL    HW129529   5.467   6.752   4.927  0.1550  1.6680  2.6723
 9717SOL    HW229530   5.327   6.764   4.983 -0.7975 -1.6600  1.2828
 9718SOL     OW29531   4.141   4.691   1.103 -0.5521 -0.0353 -0.1905
 9718SOL    HW129532   4.209   4.684   1.037 -0.2016 -0.9632  0.2524
 9718SOL    HW229533   4.181   4.656   1.183 -0.9899  0.9971  0.4997
 9719SOL     OW29534   2.395   2.199   2.910  0.1608  0.1525 -0.0189
 9719SOL    HW129535   2.445   2.121   2.882 -0.8577 -0.1271 -1.1338
 9719SOL    HW229536   2.400   2.258   2.835  1.3995  1.4337  1.0278
 9720SOL     OW29537   6.159   4.394   0.380  0.0752 -0.4779  0.5415
 9720SOL    HW129538   6.213   4.472   0.366  1.4776 -1.5640 -0.3858
 9720SOL    HW229539   6.069   4.427   0.378  0.6442  1.2175  0.9451
 9721SOL     OW29540   3.169   2.882   6.826 -0.0219 -0.1012  0.0273
 9721SOL    HW129541   3.245   2.917   6.872 -0.1320  0.7960 -0.4425
 9721SOL    HW229542   3.137   2.811   6.882  0.3939  0.3680  0.8728
 9722SOL     OW29543   2.210   0.034   4.334 -0.3802 -0.1157 -0.0354
 9722SOL    HW129544   2.207   0.072   4.246 -2.6036 -0.2315 -0.0669
 9722SOL    HW229545   2.282  -0.029   4.331  1.4485  1.9036 -0.8730
 9723SOL     OW29546   1.226   3.441   1.138 -0.2688 -0.1524 -0.0790
 9723SOL    HW129547   1.259   3.352   1.128 -0.6998 -0.4507  1.0136
 9723SOL    HW229548   1.211   3.451   1.231 -0.5299  0.9677 -0.2226
 9724SOL     OW29549   3.766   3.923   1.456 -0.1778 -0.2793  0.3801
 9724SOL    HW129550   3.851   3.934   1.414 -0.6108 -1.2635 -0.8190
 9724SOL    HW229551   3.776   3.965   1.542  0.4099  2.8570 -1.0921
 9725SOL     OW29552   4.774   1.850   6.530 -0.2040 -0.2157 -0.0089
 9725SOL    HW129553   4.855   1.835   6.579 -0.1046  2.1953  0.6894
 9725SOL    HW229554   4.723   1.771   6.545  1.4236 -1.1879  0.7350
 9726SOL     OW29555   3.453   4.977   2.846 -0.5026 -0.0276 -0.1411
 9726SOL    HW129556   3.437   5.052   2.788 -2.0773  0.6146  1.0654
 9726SOL    HW229557   3.483   4.908   2.787  0.8786  1.4706 -1.3133
 9727SOL     OW29558   0.869   1.749   3.306 -0.0401 -0.1070  0.0322
 9727SOL    HW129559   0.851   1.814   3.374 -0.1161  0.2019 -0.2790
 9727SOL    HW229560   0.811   1.675   3.327 -0.4223  0.1845  0.0271
 9728SOL     OW29561   2.577   5.894   0.274 -0.0379  0.1858  0.1417
 9728SOL    HW129562   2.581   5.804   0.306 -1.5682 -0.4145 -1.1912
 9728SOL    HW229563   2.668   5.917   0.256  0.3344 -1.3444 -0.0892
 9729SOL     OW29564   1.914   6.463   3.384  0.4571  0.3014 -0.3063
 9729SOL    HW129565   1.966   6.387   3.360 -0.2817 -0.5896  0.8109
 9729SOL    HW229566   1.825   6.441   3.357  0.2391  0.7789  0.0034
 9730SOL     OW29567   3.847   2.889   5.264  0.3235 -0.2997 -0.3137
 9730SOL    HW129568   3.886   2.945   5.197 -0.8332 -0.9772 -1.5815
 9730SOL    HW229569   3.894   2.806   5.256 -0.0839 -0.5065 -0.5406
 9731SOL     OW29570   2.887   5.366   1.274  0.9564 -0.4893  0.5465
 9731SOL    HW129571   2.980   5.380   1.254  0.5706  0.3588 -0.7437
 9731SOL    HW229572   2.851   5.326   1.195 -0.3151  1.5817  0.0062
 9732SOL     OW29573   1.788   1.009   6.461 -0.1155 -0.5303  0.6162
 9732SOL    HW129574   1.799   1.082   6.400 -1.1741  0.5803  1.6872
 9732SOL    HW229575   1.873   1.002   6.505  0.7773 -1.5955 -1.2020
 9733SOL     OW29576   2.008   5.678   4.802  0.2504  0.0103  0.2829
 9733SOL    HW129577   2.102   5.694   4.816  0.5338  0.3243 -1.6552
 9733SOL    HW229578   1.966   5.758   4.834  1.1274  2.1479 -3.3688
 9734SOL     OW29579   2.693   3.533   5.533  0.3865  0.5320 -0.2271
 9734SOL    HW129580   2.701   3.555   5.440  0.3439  2.0696  0.1045
 9734SOL    HW229581   2.601   3.550   5.553  0.4419  0.3849  0.1540
 9735SOL     OW29582   0.990   5.909   5.489 -0.5689 -0.0870  0.5271
 9735SOL    HW129583   0.897   5.906   5.513 -0.9658 -0.3982 -0.9711
 9735SOL    HW229584   0.994   5.870   5.402  0.9674  0.0072  0.5265
 9736SOL     OW29585   4.712   0.686   2.460  0.0910  0.3149 -0.6482
 9736SOL    HW129586   4.779   0.636   2.507  0.0935 -0.5861 -1.5880
 9736SOL    HW229587   4.629   0.648   2.490  0.1239 -1.1745 -2.3181
 9737SOL     OW29588   6.632   1.616   6.586 -0.5055  0.2430  0.0710
 9737SOL    HW129589   6.711   1.573   6.619 -0.5616  0.8327  1.0039
 9737SOL    HW229590   6.663   1.672   6.515 -0.2945 -0.5727 -0.4936
 9738SOL     OW29591   4.656   6.443   1.123 -0.4155  0.1789 -0.0866
 9738SOL    HW129592   4.578   6.494   1.102 -1.8450 -2.0822 -0.6871
 9738SOL    HW229593   4.644   6.417   1.214  0.5033  1.2053  0.3429
 9739SOL     OW29594   2.520   2.255   2.440 -0.1262  0.0704  0.4492
 9739SOL    HW129595   2.489   2.165   2.439  1.1308 -0.3928  0.3909
 9739SOL    HW229596   2.476   2.297   2.367  0.2597 -0.8655 -0.3434
 9740SOL     OW29597   5.874   1.916   2.397 -0.1763  0.0721 -0.2573
 9740SOL    HW129598   5.940   1.985   2.395 -0.6972  0.5599 -1.1651
 9740SOL    HW229599   5.861   1.899   2.490  0.1786  0.9873 -0.0230
 9741SOL     OW29600   2.744   3.315   3.881 -0.6087  0.0990 -0.4684
 9741SOL    HW129601   2.660   3.340   3.843 -1.8503 -1.4362  1.0802
 9741SOL    HW229602   2.753   3.370   3.959 -0.0418  0.4353 -0.7642
 9742SOL     OW29603   2.618   4.167   0.579  0.3220 -0.1308 -0.4002
 9742SOL    HW129604   2.625   4.076   0.609 -1.6899 -0.5052 -0.9189
 9742SOL    HW229605   2.577   4.161   0.493  1.1451  1.2416 -0.9295
 9743SOL     OW29606   4.040   2.160   3.017 -0.6624  0.3770  0.7345
 9743SOL    HW129607   4.109   2.178   3.081  0.4608 -0.2888 -0.2528
 9743SOL    HW229608   4.044   2.234   2.956 -0.3233 -0.0220  0.2667
 9744SOL     OW29609   2.118   1.871   2.183  0.0255  0.1271  0.0250
 9744SOL    HW129610   2.074   1.868   2.098 -1.5673  0.1967  0.8181
 9744SOL    HW229611   2.076   1.942   2.230  0.3857 -0.3755  1.1507
 9745SOL     OW29612   2.687   6.835   3.381  0.2441  0.7951 -0.2071
 9745SOL    HW129613   2.614   6.816   3.439  1.0316  0.5714  0.7528
 9745SOL    HW229614   2.718   6.749   3.353  0.1097  0.8902 -0.6557
 9746SOL     OW29615   5.424   2.971   1.582  0.0004  0.1645 -0.5733
 9746SOL    HW129616   5.335   2.939   1.598  0.3864 -1.4163 -1.3210
 9746SOL    HW229617   5.437   2.958   1.488  1.8499 -2.0282 -0.1103
 9747SOL     OW29618   1.655   0.109   2.760 -0.2036 -0.2942  0.3285
 9747SOL    HW129619   1.584   0.084   2.820 -0.5630  1.4352  0.6571
 9747SOL    HW229620   1.659   0.037   2.697 -1.3791 -1.0373  1.0617
 9748SOL     OW29621   1.086   3.245   2.402  0.1348 -0.1880 -0.6640
 9748SOL    HW129622   1.058   3.208   2.486  0.6195  0.5906 -0.1445
 9748SOL    HW229623   1.030   3.321   2.389  1.8192  1.2873  0.3068
 9749SOL     OW29624   2.132   1.201   6.322 -0.0866  0.2047 -0.2924
 9749SOL    HW129625   2.124   1.130   6.386  1.1661  1.6555  1.5897
 9749SOL    HW229626   2.160   1.277   6.373 -0.2493  1.7892 -2.3983
 9750SOL     OW29627   0.166   6.659   2.447  0.3375  0.1111  0.2649
 9750SOL    HW129628   0.127   6.586   2.495  0.3468  0.3738  0.6758
 9750SOL    HW229629   0.120   6.660   2.363  0.8743 -0.8463 -0.0459
 9751SOL     OW29630   6.075   3.341   0.346  0.3864  0.2339  0.2131
 9751SOL    HW129631   6.042   3.405   0.283 -0.9254 -0.5762  0.0377
 9751SOL    HW229632   6.012   3.269   0.343  1.3039 -0.6492  1.1072
 9752SOL     OW29633   1.554   4.755   5.838  0.1194 -0.0867  0.0576
 9752SOL    HW129634   1.538   4.764   5.932  1.2446 -0.5080  0.2975
 9752SOL    HW229635   1.510   4.831   5.799 -0.9942 -0.3015  0.8361
 9753SOL     OW29636   2.785   2.675   4.921 -0.5415  0.0062  0.5572
 9753SOL    HW129637   2.789   2.768   4.899  0.8359 -0.3651 -0.9598
 9753SOL    HW229638   2.693   2.651   4.906 -0.9765  1.1543  1.2442
 9754SOL     OW29639   3.413   2.135   2.920 -0.5068  0.0788 -0.2431
 9754SOL    HW129640   3.430   2.130   3.014 -0.7369  0.0384 -0.2032
 9754SOL    HW229641   3.474   2.073   2.881 -0.6857 -0.2024 -0.0840
 9755SOL     OW29642   3.994   1.003   3.081 -0.1667 -0.5672 -0.3994
 9755SOL    HW129643   4.077   1.025   3.123 -0.2581  1.1956 -1.0802
 9755SOL    HW229644   3.948   0.948   3.145  0.5388  0.3634  0.9428
 9756SOL     OW29645   1.714   4.997   4.664  0.6270  0.6148 -0.1658
 9756SOL    HW129646   1.775   4.985   4.591 -0.9007  0.2388 -1.4399
 9756SOL    HW229647   1.628   4.983   4.626 -0.4297  3.0131  1.1544
 9757SOL     OW29648   3.304   2.021   1.230  0.3947 -0.4789 -0.0449
 9757SOL    HW129649   3.309   2.082   1.304 -0.7293 -0.6793  0.2064
 9757SOL    HW229650   3.265   2.072   1.159  0.6160 -0.5531 -0.2224
 9758SOL     OW29651   1.182   0.375   6.158  0.1776  0.0904 -0.2158
 9758SOL    HW129652   1.218   0.408   6.240  0.0455  2.6073 -1.0806
 9758SOL    HW229653   1.214   0.285   6.152  1.9814  0.5412  1.5409
 9759SOL     OW29654   2.818   2.102   3.706  0.0506  0.5237 -0.0545
 9759SOL    HW129655   2.873   2.116   3.783  0.1221  1.5781 -0.2792
 9759SOL    HW229656   2.801   2.191   3.673 -2.6602  0.3423  0.6307
 9760SOL     OW29657   5.244   5.454   6.029  0.0915  0.2916 -0.2170
 9760SOL    HW129658   5.323   5.405   6.006 -0.4848 -1.9426  2.1319
 9760SOL    HW229659   5.252   5.470   6.123 -2.0935  0.2967  0.0147
 9761SOL     OW29660   2.845   2.572   2.707 -0.3536 -0.0507 -0.0712
 9761SOL    HW129661   2.832   2.509   2.636 -0.8479 -1.5163  1.2717
 9761SOL    HW229662   2.893   2.644   2.666  0.0644 -1.2010 -1.7092
 9762SOL     OW29663   4.596   4.121   4.889  0.1290  0.4086 -0.0678
 9762SOL    HW129664   4.636   4.071   4.817 -0.8898  2.2634 -2.0345
 9762SOL    HW229665   4.671   4.159   4.935  0.8220 -1.1155  0.1235
 9763SOL     OW29666   4.860   5.276   2.591  0.1799 -0.0207  0.0633
 9763SOL    HW129667   4.861   5.370   2.570 -0.8215 -0.1718 -0.7474
 9763SOL    HW229668   4.812   5.271   2.674 -0.5258  0.1246 -0.3235
 9764SOL     OW29669   0.770   1.011   1.746 -0.1109  0.6042 -1.1398
 9764SOL    HW129670   0.784   0.923   1.713 -0.1606  0.3827 -0.5734
 9764SOL    HW229671   0.749   1.063   1.668 -0.1848  0.0975 -1.4568
 9765SOL     OW29672   3.247   5.826   2.692 -0.1243  0.0066 -0.1042
 9765SOL    HW129673   3.320   5.833   2.754  0.8687 -1.6574 -1.0009
 9765SOL    HW229674   3.249   5.908   2.644  1.0314  0.0956  0.0532
 9766SOL     OW29675   1.760   2.988   6.795  0.1532  0.5306  0.1081
 9766SOL    HW129676   1.794   2.899   6.803 -2.1160 -0.2756  1.6363
 9766SOL    HW229677   1.807   3.024   6.719  2.8547 -1.0951  0.8665
 9767SOL     OW29678   5.547   4.734   0.625 -0.2006  0.5050 -0.1632
 9767SOL    HW129679   5.611   4.729   0.554  0.4018 -1.5741  0.4780
 9767SOL    HW229680   5.586   4.796   0.687 -0.1058  1.3116 -0.9991
 9768SOL     OW29681   0.242   4.954   4.715  0.5465  0.3994 -0.2713
 9768SOL    HW129682   0.322   4.901   4.713  0.7402  0.7295 -1.4103
 9768SOL    HW229683   0.206   4.947   4.627  0.0291  1.3446 -0.1460
 9769SOL     OW29684   2.169   0.676   4.615  0.2943 -0.2026  0.5872
 9769SOL    HW129685   2.158   0.619   4.538 -1.3025 -1.2511  1.5183
 9769SOL    HW229686   2.098   0.739   4.608  0.5832  0.1502  0.8286
 9770SOL     OW29687   0.432   4.747   3.968  0.2486 -0.0395 -0.1063
 9770SOL    HW129688   0.508   4.800   3.945 -1.1180  1.9200 -0.2913
 9770SOL    HW229689   0.408   4.776   4.056 -0.0736 -0.9255  0.1157
 9771SOL     OW29690   3.454   4.456   3.276 -0.2651 -0.1624  0.1921
 9771SOL    HW129691   3.542   4.438   3.243 -0.4558  1.0190 -1.0524
 9771SOL    HW229692   3.402   4.381   3.247 -0.1786  0.3103 -1.2614
 9772SOL     OW29693   2.445   3.568   2.718  0.3658 -0.6880 -0.7599
 9772SOL    HW129694   2.450   3.473   2.722 -0.7219 -0.7533 -0.9091
 9772SOL    HW229695   2.369   3.587   2.663 -0.1697  0.2615  0.2663
 9773SOL     OW29696   4.232   5.408   0.159 -0.0376  0.4342  0.1784
 9773SOL    HW129697   4.246   5.498   0.130  0.1979  0.3865  0.1430
 9773SOL    HW229698   4.307   5.359   0.123 -0.9093 -0.0584 -1.0278
 9774SOL     OW29699   4.848   5.336   0.788  0.3695 -0.3033 -0.3258
 9774SOL    HW129700   4.771   5.290   0.823 -0.6527  1.3165 -0.3310
 9774SOL    HW229701   4.849   5.314   0.695  0.5203 -1.1497 -0.1295
 9775SOL     OW29702   2.159   0.329   3.320  0.0801  0.6591  0.1321
 9775SOL    HW129703   2.101   0.377   3.260 -0.2891  0.3732  0.2535
 9775SOL    HW229704   2.155   0.379   3.402 -2.2755 -0.8818  1.0649
 9776SOL     OW29705   2.263   5.120   3.281  0.0486  0.7184  0.4069
 9776SOL    HW129706   2.259   5.025   3.295  2.8036  0.4553 -0.0928
 9776SOL    HW229707   2.212   5.133   3.200 -0.9364 -0.2093  0.8455
 9777SOL     OW29708   0.074   5.523   6.495  0.4447 -0.0550 -0.1837
 9777SOL    HW129709   0.091   5.453   6.432  0.5847 -1.1757  1.0825
 9777SOL    HW229710  -0.015   5.509   6.524  0.2092  0.7599 -0.4710
 9778SOL     OW29711   2.703   6.688   0.106 -0.5011  0.3602  0.1729
 9778SOL    HW129712   2.714   6.774   0.066  2.5595 -0.0793 -0.2396
 9778SOL    HW229713   2.693   6.629   0.032  1.2575 -0.0154  0.1941
 9779SOL     OW29714   2.527   1.872   1.881  0.5574 -0.3136  0.6827
 9779SOL    HW129715   2.616   1.869   1.918  0.5919  1.4470  0.8153
 9779SOL    HW229716   2.471   1.889   1.957  0.4256  1.3959  0.2352
 9780SOL     OW29717   4.481   1.703   2.680 -0.0768 -0.1069 -0.4342
 9780SOL    HW129718   4.462   1.619   2.637 -0.8113  0.7906 -1.9806
 9780SOL    HW229719   4.570   1.725   2.652 -0.3484  0.2091 -1.0750
 9781SOL     OW29720   4.181   2.267   5.747 -0.5164  0.7366  0.1402
 9781SOL    HW129721   4.188   2.353   5.789  3.1842  0.5810  0.1022
 9781SOL    HW229722   4.221   2.279   5.661  2.4141 -1.4731  1.0426
 9782SOL     OW29723   1.929   4.292   4.771  0.2095  0.1139 -0.3406
 9782SOL    HW129724   1.936   4.301   4.676  0.6623  2.1649 -0.1511
 9782SOL    HW229725   1.965   4.374   4.806  0.0117 -0.5746  1.6048
 9783SOL     OW29726   2.753   1.964   2.603 -0.1660 -0.5732 -0.2570
 9783SOL    HW129727   2.790   1.965   2.692 -1.1261 -0.7851  0.1648
 9783SOL    HW229728   2.829   1.961   2.545  0.4880 -0.1178  0.5524
 9784SOL     OW29729   4.585   2.594   3.885  0.1473  0.1657 -0.0958
 9784SOL    HW129730   4.535   2.676   3.887 -1.1846 -0.6381  1.3425
 9784SOL    HW229731   4.588   2.570   3.793 -0.1053  1.4226 -0.4578
 9785SOL     OW29732   4.111   3.226   4.415 -0.0409  0.5188  0.3985
 9785SOL    HW129733   4.188   3.170   4.402 -0.0365  0.5842  0.1281
 9785SOL    HW229734   4.147   3.310   4.442  0.0125  0.6905 -0.1959
 9786SOL     OW29735   4.574   6.180   2.991 -0.3082 -0.0068  0.3898
 9786SOL    HW129736   4.488   6.215   3.016  0.2954 -0.0683  2.8181
 9786SOL    HW229737   4.577   6.093   3.032  0.5255 -0.4416 -0.5542
 9787SOL     OW29738   5.224   2.693   3.688  0.0534 -0.8594 -0.6105
 9787SOL    HW129739   5.184   2.692   3.601  1.4437  0.2295 -1.2936
 9787SOL    HW229740   5.234   2.786   3.709  0.6698 -1.1126  0.2811
 9788SOL     OW29741   2.660   5.187   3.882 -0.3166  0.4334 -0.2049
 9788SOL    HW129742   2.702   5.106   3.910 -1.1798  0.4712  1.2794
 9788SOL    HW229743   2.729   5.253   3.889 -0.3641  0.3545  1.4695
 9789SOL     OW29744   3.446   6.745   3.548 -0.1956  0.0362  0.0872
 9789SOL    HW129745   3.472   6.760   3.457  1.6948 -1.9398  0.2216
 9789SOL    HW229746   3.355   6.714   3.542 -0.1233 -0.0015 -1.1222
 9790SOL     OW29747   4.389   6.819   4.835 -0.0935 -0.0503  0.0614
 9790SOL    HW129748   4.439   6.887   4.879  0.6703 -0.4324 -0.2039
 9790SOL    HW229749   4.325   6.790   4.901  1.1718 -0.7750  1.0249
 9791SOL     OW29750   3.270   2.283   4.309  0.0046  0.1446 -0.3249
 9791SOL    HW129751   3.184   2.284   4.352 -0.4074 -1.6009 -1.0320
 9791SOL    HW229752   3.318   2.212   4.351 -0.2222 -1.2733 -2.2737
 9792SOL     OW29753   4.443   6.613   2.728 -0.0102 -0.0533 -0.0684
 9792SOL    HW129754   4.470   6.636   2.817 -1.8960  0.0957  0.4953
 9792SOL    HW229755   4.508   6.655   2.672  2.4540 -1.8433  1.2345
 9793SOL     OW29756   1.647   2.083   2.424 -0.0032  0.0317  0.1820
 9793SOL    HW129757   1.562   2.114   2.455 -1.1929 -0.7948 -2.0646
 9793SOL    HW229758   1.688   2.161   2.386 -0.5510  0.0699 -0.3492
 9794SOL     OW29759   6.522   6.509   1.368  0.2596 -0.2830 -0.2440
 9794SOL    HW129760   6.538   6.565   1.444 -1.8493  0.8004 -0.5224
 9794SOL    HW229761   6.429   6.487   1.374 -0.1658  0.4498 -2.8804
 9795SOL     OW29762   2.078   6.389   3.880  0.1367 -0.2958 -0.0836
 9795SOL    HW129763   2.171   6.395   3.858  0.6367  0.3511  2.0395
 9795SOL    HW229764   2.034   6.417   3.800  1.7569 -0.4291 -1.0765
 9796SOL     OW29765   6.761   1.569   0.283 -0.1668 -0.2289  0.0316
 9796SOL    HW129766   6.825   1.606   0.223 -2.0333  2.3238 -0.5660
 9796SOL    HW229767   6.697   1.526   0.226 -0.2630 -0.6499  0.4486
 9797SOL     OW29768   4.488   3.989   5.841 -0.0908 -0.1914 -0.1602
 9797SOL    HW129769   4.407   3.946   5.867 -0.0433  0.2203  0.7273
 9797SOL    HW229770   4.471   4.083   5.854  0.6698 -0.1276  0.5142
 9798SOL     OW29771   1.562   2.731   6.060 -0.0565 -0.2763  0.1050
 9798SOL    HW129772   1.580   2.687   5.977 -0.3014 -0.6408  0.2440
 9798SOL    HW229773   1.647   2.763   6.089 -0.3721  2.5498 -1.7788
 9799SOL     OW29774   2.576   1.072   5.659 -0.6821 -0.3581  0.1015
 9799SOL    HW129775   2.653   1.119   5.692 -1.1482 -0.0731  0.8232
 9799SOL    HW229776   2.563   1.104   5.570  0.1593 -0.5730 -0.1082
 9800SOL     OW29777   2.499   0.811   4.575  0.2144 -0.3373  0.1043
 9800SOL    HW129778   2.498   0.749   4.648  1.2085 -1.2048 -0.5973
 9800SOL    HW229779   2.576   0.787   4.524  1.1055  1.9686  0.2163
 9801SOL     OW29780   4.458   1.811   6.767 -0.4516  0.0940 -0.2037
 9801SOL    HW129781   4.368   1.794   6.798  0.1547 -1.0926  1.0125
 9801SOL    HW229782   4.491   1.725   6.742  0.2374  0.5776 -0.9940
 9802SOL     OW29783   0.242   0.659   6.059 -0.6432  0.1910 -0.2416
 9802SOL    HW129784   0.245   0.567   6.034 -0.3974 -0.1732  1.0653
 9802SOL    HW229785   0.151   0.674   6.084 -0.2145 -0.3728  1.8553
 9803SOL     OW29786   1.739   4.581   4.101 -0.5601 -0.2047  0.0845
 9803SOL    HW129787   1.651   4.611   4.077 -0.7722  0.8751  1.9894
 9803SOL    HW229788   1.790   4.661   4.110  0.8844 -0.8551 -1.7583
 9804SOL     OW29789   5.548   0.574   1.844 -0.2989 -0.3376  0.2357
 9804SOL    HW129790   5.605   0.517   1.895  0.8426 -0.3609 -1.0137
 9804SOL    HW229791   5.607   0.628   1.792 -1.3521 -1.3398 -2.1868
 9805SOL     OW29792   2.352   2.743   5.601 -0.4593  0.3066  0.3862
 9805SOL    HW129793   2.378   2.657   5.570  0.7626  0.8659 -0.2009
 9805SOL    HW229794   2.407   2.759   5.677 -1.5328  0.0863  1.2404
 9806SOL     OW29795   0.200   3.304   4.738 -0.0454  0.4937  0.0967
 9806SOL    HW129796   0.188   3.272   4.827  0.5111 -0.1044 -0.0343
 9806SOL    HW229797   0.144   3.382   4.732 -0.7906  0.0123  0.6788
 9807SOL     OW29798   6.443   3.725   6.073 -0.5902  0.2037  0.0934
 9807SOL    HW129799   6.526   3.677   6.077  0.3992  1.9297  1.9125
 9807SOL    HW229800   6.391   3.690   6.146 -0.1641  1.2720  0.9470
 9808SOL     OW29801   4.132   3.770   1.221 -0.1210  0.5062  0.2519
 9808SOL    HW129802   4.165   3.746   1.135 -1.0664 -0.9374  0.2631
 9808SOL    HW229803   4.198   3.829   1.256  0.7646  0.3364 -1.0567
 9809SOL     OW29804   4.627   1.196   1.145 -0.1617 -0.2605 -0.4593
 9809SOL    HW129805   4.564   1.144   1.195 -0.6063 -0.1623 -0.9040
 9809SOL    HW229806   4.573   1.247   1.084  0.1864  1.3107  0.4733
 9810SOL     OW29807   1.257   3.486   4.560  0.0119 -0.2642  0.0018
 9810SOL    HW129808   1.306   3.486   4.642  1.4416 -1.1103 -0.7951
 9810SOL    HW229809   1.319   3.450   4.496 -1.0963  0.2731 -1.4233
 9811SOL     OW29810   1.378   2.126   2.936  0.0130 -0.4261  0.7898
 9811SOL    HW129811   1.326   2.204   2.956  1.0241  0.2465  0.9071
 9811SOL    HW229812   1.317   2.066   2.894 -0.6914  0.6152  0.2831
 9812SOL     OW29813   1.844   1.813   5.834  0.3601 -0.1006  0.1081
 9812SOL    HW129814   1.758   1.836   5.870 -0.9430 -1.9753 -1.5215
 9812SOL    HW229815   1.879   1.749   5.895 -0.3555 -0.8231 -0.2115
 9813SOL     OW29816   5.220   4.565   2.894  0.1301 -0.1333  0.1266
 9813SOL    HW129817   5.253   4.552   2.806  2.5972  0.1262  0.9334
 9813SOL    HW229818   5.270   4.504   2.948 -0.8503  0.1714  1.4304
 9814SOL     OW29819   6.034   0.517   1.731 -0.4657 -0.6326  0.2234
 9814SOL    HW129820   6.069   0.436   1.766  1.3206  0.3887  0.9475
 9814SOL    HW229821   6.060   0.516   1.639  1.8177  0.1930  0.7874
 9815SOL     OW29822   6.593   0.135   1.298  0.1453 -0.1593 -0.0243
 9815SOL    HW129823   6.608   0.073   1.369  0.7383 -0.1304 -0.1169
 9815SOL    HW229824   6.499   0.132   1.283  0.0328 -0.2714  0.6640
 9816SOL     OW29825   0.948   3.785   3.686  0.1940  0.2564  0.0860
 9816SOL    HW129826   0.956   3.744   3.600 -0.1086 -1.2900  0.7640
 9816SOL    HW229827   0.977   3.718   3.748 -0.7321  0.9118  1.2807
 9817SOL     OW29828   6.130   0.953   6.051 -0.3586  0.3800  0.8999
 9817SOL    HW129829   6.112   0.865   6.084  3.0455 -1.8333 -2.2984
 9817SOL    HW229830   6.221   0.969   6.075 -0.5242  2.5273  0.3015
 9818SOL     OW29831   1.232   1.181   1.696  0.4072  0.1079 -0.2889
 9818SOL    HW129832   1.185   1.098   1.700  1.5927 -0.7867 -2.7186
 9818SOL    HW229833   1.187   1.238   1.758 -1.0027 -2.0667  0.7854
 9819SOL     OW29834   3.288   1.749   3.651  0.7178 -0.0318  0.3589
 9819SOL    HW129835   3.262   1.791   3.732 -0.6760  0.4622 -0.3150
 9819SOL    HW229836   3.231   1.787   3.584  0.3714 -1.9524 -0.5114
 9820SOL     OW29837   1.050   1.477   3.593 -0.1644  0.3804 -0.0923
 9820SOL    HW129838   1.053   1.391   3.634  0.7299  0.9655  1.1472
 9820SOL    HW229839   1.142   1.502   3.582 -0.4025  0.7576 -1.3897
 9821SOL     OW29840   2.588   1.638   0.045  0.3430  0.5509  0.0941
 9821SOL    HW129841   2.601   1.556   0.093  0.9366  0.3694 -0.3636
 9821SOL    HW229842   2.513   1.620  -0.013 -0.6967  0.9307  1.2747
 9822SOL     OW29843   3.423   2.147   0.655  0.2502 -0.1864 -0.5175
 9822SOL    HW129844   3.467   2.076   0.607 -0.3021 -1.6364  1.0275
 9822SOL    HW229845   3.458   2.143   0.743 -1.8119 -0.4052  0.3625
 9823SOL     OW29846   6.601   4.827   5.679 -0.7702  0.0290  0.3337
 9823SOL    HW129847   6.678   4.878   5.654 -0.8457  0.1159  0.2771
 9823SOL    HW229848   6.528   4.887   5.667 -0.9080 -0.2374 -0.1921
 9824SOL     OW29849   3.848   3.791   6.111 -0.8310 -0.5297 -1.0021
 9824SOL    HW129850   3.867   3.802   6.204 -0.8352  1.2935 -1.1875
 9824SOL    HW229851   3.824   3.698   6.102 -3.0201 -0.2769  1.2047
 9825SOL     OW29852   3.703   1.004   5.067 -0.4535  0.2397  0.3990
 9825SOL    HW129853   3.658   1.027   4.985  0.0747 -0.2642 -0.0367
 9825SOL    HW229854   3.763   1.077   5.082  0.2854 -0.2128 -0.2924
 9826SOL     OW29855   4.503   3.284   3.513  0.1889 -0.0151 -0.0273
 9826SOL    HW129856   4.548   3.211   3.471  0.1601  1.5060 -3.0381
 9826SOL    HW229857   4.555   3.361   3.490 -2.4640  1.4921 -1.4850
 9827SOL     OW29858   0.757   5.928   1.281  0.0438  0.1544  0.6366
 9827SOL    HW129859   0.713   5.854   1.238  0.8484 -0.5257  0.9651
 9827SOL    HW229860   0.849   5.902   1.286  0.6676  1.8390 -0.6864
 9828SOL     OW29861   2.069   2.018   0.399 -0.1086  0.2804 -0.2303
 9828SOL    HW129862   2.009   2.022   0.474  0.5808 -0.5376  0.3797
 9828SOL    HW229863   2.059   1.929   0.366  1.7511 -0.3258  0.7189
 9829SOL     OW29864   1.645   4.212   2.601 -0.2319  0.2005  0.4419
 9829SOL    HW129865   1.718   4.217   2.663 -1.1372 -1.3918  1.7220
 9829SOL    HW229866   1.651   4.124   2.564  1.0822  1.5156 -2.8758
 9830SOL     OW29867   2.539   5.965   6.517 -0.0060 -0.0949 -0.0126
 9830SOL    HW129868   2.544   5.872   6.495  0.3343 -0.6220  2.0724
 9830SOL    HW229869   2.453   5.992   6.484 -0.7987 -1.5688  0.7249
 9831SOL     OW29870   1.808   5.222   5.460  0.1852  0.0136  0.2677
 9831SOL    HW129871   1.723   5.267   5.457  0.6621  0.9194  0.2514
 9831SOL    HW229872   1.802   5.156   5.390 -0.8658 -0.6062  0.9089
 9832SOL     OW29873   5.663   1.657   2.053 -0.0084  0.2519 -1.2553
 9832SOL    HW129874   5.577   1.615   2.049  0.2105 -0.1012 -2.8215
 9832SOL    HW229875   5.672   1.683   2.145 -1.0367 -1.2538 -0.6816
 9833SOL     OW29876   1.063   1.598   5.026 -0.2565  0.0865 -0.5954
 9833SOL    HW129877   1.138   1.565   4.976 -0.2908 -0.5820 -0.2087
 9833SOL    HW229878   1.026   1.666   4.970 -0.2613 -0.6082 -1.4584
 9834SOL     OW29879   6.678   0.160   0.589  0.2115 -0.7496  0.3356
 9834SOL    HW129880   6.623   0.238   0.586  0.3991 -0.5998  0.7860
 9834SOL    HW229881   6.761   0.187   0.549  0.3599 -0.6506  0.7103
 9835SOL     OW29882   0.273   6.353   0.763 -0.0978 -0.4175 -0.0296
 9835SOL    HW129883   0.282   6.373   0.857 -3.4205 -0.9813  0.5417
 9835SOL    HW229884   0.274   6.439   0.720  0.3124 -0.0701  0.6478
 9836SOL     OW29885   3.607   1.306   6.827 -0.1045  0.1997 -0.1969
 9836SOL    HW129886   3.553   1.371   6.873 -0.3818 -0.1398 -0.0411
 9836SOL    HW229887   3.650   1.257   6.897 -0.4470 -0.2498 -0.3001
 9837SOL     OW29888   0.338   4.273   0.664  0.0241 -0.1711  0.0776
 9837SOL    HW129889   0.395   4.349   0.669  0.7551 -0.4679 -2.4229
 9837SOL    HW229890   0.263   4.303   0.613 -0.4491 -0.7093  0.4480
 9838SOL     OW29891   0.129   6.681   3.146 -0.3723  0.1134  0.5022
 9838SOL    HW129892   0.072   6.751   3.116 -0.9825 -0.7433 -0.3911
 9838SOL    HW229893   0.144   6.701   3.239 -0.0304  1.7346  0.1358
 9839SOL     OW29894   1.047   3.853   3.341  0.4997 -0.5778  0.2146
 9839SOL    HW129895   1.133   3.837   3.301  0.5390 -1.0257  0.4644
 9839SOL    HW229896   1.008   3.766   3.349  0.3417 -0.4578  0.8067
 9840SOL     OW29897   5.866   4.931   4.115 -0.2031  0.3587  0.0142
 9840SOL    HW129898   5.809   5.008   4.115 -0.8296 -0.0590  1.6240
 9840SOL    HW229899   5.872   4.905   4.023 -0.9746  1.6023 -0.4059
 9841SOL     OW29900   4.901   5.547   2.641 -0.8032 -0.3263 -0.2399
 9841SOL    HW129901   4.917   5.604   2.566 -2.0828  0.9703  0.4260
 9841SOL    HW229902   4.953   5.585   2.712 -2.2143  0.4802  0.3968
 9842SOL     OW29903   0.450   1.118   6.308  0.3074 -0.3152 -0.3564
 9842SOL    HW129904   0.487   1.059   6.373  0.3434  1.3179  1.1781
 9842SOL    HW229905   0.520   1.131   6.244  1.7400  1.0438  1.3725
 9843SOL     OW29906   6.163   2.466   4.906 -0.0024  0.8779  0.1549
 9843SOL    HW129907   6.075   2.500   4.887 -0.5099  0.0890  1.0013
 9843SOL    HW229908   6.155   2.426   4.992  1.3831  1.4023  0.5414
 9844SOL     OW29909   1.463   4.676   0.014 -0.2744 -0.6138  0.8169
 9844SOL    HW129910   1.487   4.644   0.101  3.0911  0.4877  0.4291
 9844SOL    HW229911   1.491   4.767   0.013  0.4022 -0.7725 -1.6057
 9845SOL     OW29912   6.698   0.513   4.795 -0.1780  0.4870 -0.5180
 9845SOL    HW129913   6.712   0.527   4.702  0.8412  1.3009 -0.2642
 9845SOL    HW229914   6.702   0.601   4.833 -1.1911  0.2308  0.2269
 9846SOL     OW29915   2.029   6.595   6.231  0.1257  0.3029  0.7093
 9846SOL    HW129916   2.103   6.584   6.291  2.1600  1.6717 -1.3589
 9846SOL    HW229917   2.065   6.575   6.145 -2.1511  0.3077 -0.3021
 9847SOL     OW29918   0.790   5.119   3.740  0.5354  0.8293  0.0250
 9847SOL    HW129919   0.765   5.208   3.764 -2.5906 -0.1621  0.9260
 9847SOL    HW229920   0.781   5.069   3.821 -2.9181 -1.2011 -1.4043
 9848SOL     OW29921   3.059   3.809   2.088 -0.0506  0.3754  0.1870
 9848SOL    HW129922   2.964   3.825   2.085 -0.2544 -0.0243  2.4868
 9848SOL    HW229923   3.098   3.895   2.102  0.1386  0.8120 -2.5232
 9849SOL     OW29924   1.314   6.830   0.818  0.3955 -0.1495  0.0451
 9849SOL    HW129925   1.390   6.833   0.760  0.4719  1.1048  0.1715
 9849SOL    HW229926   1.335   6.893   0.887 -1.2928  1.1942 -0.6030
 9850SOL     OW29927   1.067   4.363   6.060 -0.1088 -0.2209 -0.0424
 9850SOL    HW129928   1.112   4.446   6.074 -0.9285  0.2207  0.0605
 9850SOL    HW229929   1.041   4.336   6.148 -1.3290  0.2840 -0.2297
 9851SOL     OW29930   3.678   6.723   6.519 -0.6872 -0.2047 -0.2137
 9851SOL    HW129931   3.613   6.668   6.562 -0.7703 -1.0544 -1.3738
 9851SOL    HW229932   3.735   6.661   6.473  0.6523  0.5516  0.3671
 9852SOL     OW29933   2.483   0.919   6.072 -0.6522  0.8026 -0.3842
 9852SOL    HW129934   2.522   0.879   6.151 -3.0557 -2.5373 -0.6731
 9852SOL    HW229935   2.486   0.850   6.006 -1.9807  2.2837 -2.1036
 9853SOL     OW29936   5.719   5.792   2.364  0.4392 -0.1135 -0.2817
 9853SOL    HW129937   5.631   5.828   2.368 -0.0110 -1.2471  2.0567
 9853SOL    HW229938   5.776   5.864   2.391 -0.1315 -0.2344  1.3411
 9854SOL     OW29939   6.507   0.703   0.726  0.4818 -0.4118  0.0399
 9854SOL    HW129940   6.524   0.759   0.650 -1.2494  1.0786  0.6631
 9854SOL    HW229941   6.419   0.668   0.711 -0.0809  0.2835  1.5438
 9855SOL     OW29942   5.730   5.362   1.199  0.2409 -0.5163  0.4293
 9855SOL    HW129943   5.640   5.390   1.217 -0.4689 -1.4959 -1.3559
 9855SOL    HW229944   5.730   5.338   1.106  1.8687 -2.3072  0.8172
 9856SOL     OW29945   3.944   4.406   1.722  0.0420  0.3658 -0.5058
 9856SOL    HW129946   3.964   4.499   1.707 -0.9676  0.5530 -0.7284
 9856SOL    HW229947   3.921   4.373   1.636 -1.2392  0.3233 -0.1675
 9857SOL     OW29948   0.793   3.975   3.837 -0.1924 -0.4492 -0.1407
 9857SOL    HW129949   0.823   4.032   3.767 -3.9282  1.0455 -0.7049
 9857SOL    HW229950   0.775   3.891   3.794  0.6778 -0.6022 -0.2390
 9858SOL     OW29951   2.037   4.737   4.283 -0.3430  0.0335  0.1939
 9858SOL    HW129952   2.033   4.646   4.254  0.8535  0.2788 -0.8517
 9858SOL    HW229953   2.070   4.733   4.373 -0.7933 -0.5865  0.3310
 9859SOL     OW29954   1.199   3.707   1.143  0.2730 -0.2735  0.1278
 9859SOL    HW129955   1.287   3.742   1.133  0.5097 -0.8362  0.1934
 9859SOL    HW229956   1.210   3.612   1.138 -0.1463 -0.4231  1.4591
 9860SOL     OW29957   4.034   6.801   2.682 -0.2352 -0.2197 -0.3828
 9860SOL    HW129958   3.983   6.876   2.713  0.4950  0.3622 -0.5533
 9860SOL    HW229959   4.029   6.807   2.587 -0.0624 -0.2980 -0.3974
 9861SOL     OW29960   1.035   5.878   2.366  0.4456 -0.3328  0.1308
 9861SOL    HW129961   1.070   5.790   2.353  2.8470  0.6509 -0.7298
 9861SOL    HW229962   1.094   5.918   2.430 -0.9063  0.5316  0.8912
 9862SOL     OW29963   0.176   6.739   1.289 -0.8054  0.0546 -0.3714
 9862SOL    HW129964   0.160   6.819   1.338  0.1599 -0.6358  1.1349
 9862SOL    HW229965   0.107   6.737   1.223 -1.7124  1.3767  0.4966
 9863SOL     OW29966   6.678   0.698   5.952 -0.6708 -0.6826  0.6529
 9863SOL    HW129967   6.726   0.772   5.988  0.2016 -1.2723  0.7390
 9863SOL    HW229968   6.735   0.665   5.882 -0.4129 -2.0740  1.4823
 9864SOL     OW29969   3.281   0.003   5.883 -0.5030 -0.0594 -0.2744
 9864SOL    HW129970   3.339  -0.069   5.908  0.2001  0.2941 -0.8623
 9864SOL    HW229971   3.193  -0.035   5.888 -0.1899 -0.7747  0.0366
 9865SOL     OW29972   1.592   6.299   2.987  0.3450  0.4203 -0.1339
 9865SOL    HW129973   1.580   6.206   3.004 -0.4675  1.0283  3.5883
 9865SOL    HW229974   1.685   6.308   2.966  0.2237 -1.2905 -1.6502
 9866SOL     OW29975   6.785   0.732   0.261  0.4485 -0.1300  0.9610
 9866SOL    HW129976   6.758   0.772   0.344 -0.0199  0.4194  0.5558
 9866SOL    HW229977   6.703   0.703   0.221  0.2686  2.4500 -0.7538
 9867SOL     OW29978   5.434   5.144   1.395 -0.4790 -0.1165 -0.8088
 9867SOL    HW129979   5.484   5.210   1.347 -1.1726  0.5729 -0.6045
 9867SOL    HW229980   5.353   5.189   1.420 -1.1904 -1.2078 -1.1130
 9868SOL     OW29981   5.900   1.303   4.049 -0.0784 -0.7158 -0.1298
 9868SOL    HW129982   5.966   1.283   4.115  0.3898 -1.5284 -0.8209
 9868SOL    HW229983   5.943   1.364   3.989 -0.4652 -0.0654  0.2460
 9869SOL     OW29984   0.867   3.795   5.826 -0.3504 -0.2043 -0.7057
 9869SOL    HW129985   0.834   3.707   5.811 -0.2770 -0.2512 -0.5894
 9869SOL    HW229986   0.819   3.850   5.763  0.2371 -0.4578 -1.3910
 9870SOL     OW29987   4.707   5.882   1.229 -0.0100 -0.1235 -0.5451
 9870SOL    HW129988   4.736   5.797   1.195  1.0913  0.0066  0.0340
 9870SOL    HW229989   4.621   5.864   1.267 -0.3647 -0.6965 -1.5839
 9871SOL     OW29990   4.803   3.200   4.134  0.4289 -0.3685  0.0518
 9871SOL    HW129991   4.736   3.162   4.077  1.2613 -1.3015 -0.3487
 9871SOL    HW229992   4.781   3.169   4.222 -0.6015  0.6987  0.1806
 9872SOL     OW29993   2.789   2.835   6.309 -0.4770 -0.1276  0.3740
 9872SOL    HW129994   2.698   2.808   6.298 -0.7671  0.3763  1.4146
 9872SOL    HW229995   2.786   2.904   6.375  0.5986  0.2919  0.0114
 9873SOL     OW29996   3.691   6.352   4.230 -0.3059 -0.8360  0.2294
 9873SOL    HW129997   3.740   6.350   4.312 -1.2752  1.4287  0.9199
 9873SOL    HW229998   3.732   6.423   4.180 -1.3036 -0.5614 -0.2057
 9874SOL     OW29999   3.701   2.491   4.553  0.3320  1.0655  0.4212
 9874SOL    HW130000   3.685   2.516   4.644  2.0971  0.2789  1.0081
 9874SOL    HW230001   3.626   2.436   4.529 -2.0269  4.1991  0.1116
 9875SOL     OW30002   0.725   3.852   4.901  0.0848 -0.9153  0.5707
 9875SOL    HW130003   0.710   3.769   4.857 -1.1086  0.3210 -1.5394
 9875SOL    HW230004   0.637   3.882   4.927  0.5113 -0.4054  1.4649
 9876SOL     OW30005   6.076   5.518   5.888  0.5414  0.1812  0.3575
 9876SOL    HW130006   6.122   5.597   5.916  1.9564 -0.9723  1.4608
 9876SOL    HW230007   5.985   5.545   5.880  1.0983  2.0889 -0.0094
 9877SOL     OW30008   1.470   0.305   6.224 -0.6624 -0.2210  0.5701
 9877SOL    HW130009   1.485   0.342   6.137 -3.1273 -0.1377  0.1073
 9877SOL    HW230010   1.537   0.238   6.234 -0.0095  0.1233 -1.1691
 9878SOL     OW30011   1.073   1.809   2.410  0.0775 -0.0948 -0.8864
 9878SOL    HW130012   1.168   1.816   2.419 -0.0295  0.3679 -0.0994
 9878SOL    HW230013   1.050   1.876   2.345  0.3449 -0.6042 -1.5275
 9879SOL     OW30014   4.443   1.589   5.926 -0.2760 -0.8227  0.4750
 9879SOL    HW130015   4.529   1.629   5.943 -1.0449  0.9077  0.4682
 9879SOL    HW230016   4.451   1.553   5.837 -0.3507  1.6821 -0.6249
 9880SOL     OW30017   2.746   2.946   4.870 -0.4039 -0.2739 -0.3737
 9880SOL    HW130018   2.679   2.961   4.804 -2.0319  2.5218  1.7074
 9880SOL    HW230019   2.816   3.007   4.847 -0.7776  0.3808  0.1979
 9881SOL     OW30020   4.192   0.745   0.781  0.6788  0.9617  0.0414
 9881SOL    HW130021   4.184   0.827   0.830  1.1235  1.9954 -1.5544
 9881SOL    HW230022   4.278   0.710   0.806  0.7338  1.2744  0.2938
 9882SOL     OW30023   2.967   1.335   5.918  0.0554  0.1525 -0.0057
 9882SOL    HW130024   2.996   1.285   5.841 -1.3581 -0.5339 -0.1353
 9882SOL    HW230025   2.872   1.323   5.919 -0.2501  2.2744  0.3897
 9883SOL     OW30026   6.747   0.386   1.580  0.1793  0.5594  0.0528
 9883SOL    HW130027   6.668   0.412   1.629 -0.1502  1.2455 -0.8213
 9883SOL    HW230028   6.802   0.465   1.582  0.0454  0.6806 -0.9054
 9884SOL     OW30029   2.881   6.049   5.718  0.3517 -0.1549  0.0822
 9884SOL    HW130030   2.890   6.125   5.776  0.1323  0.1229 -0.2510
 9884SOL    HW230031   2.922   6.076   5.636 -1.0008  0.1192 -0.5189
 9885SOL     OW30032   5.421   3.148   3.001 -0.3228  0.3759  0.1618
 9885SOL    HW130033   5.391   3.067   3.043 -2.3039  0.5990 -0.7013
 9885SOL    HW230034   5.352   3.211   3.020  1.1426  1.8766  0.7353
 9886SOL     OW30035   6.578   2.408   2.672  0.4685 -0.2036 -0.1220
 9886SOL    HW130036   6.566   2.469   2.745  0.4041 -2.3096  1.7275
 9886SOL    HW230037   6.672   2.392   2.668  0.4203 -0.4808 -0.1784
 9887SOL     OW30038   1.738   4.853   5.403  0.0433 -0.4392  0.0134
 9887SOL    HW130039   1.729   4.759   5.420 -1.1775  0.0163  2.3478
 9887SOL    HW230040   1.648   4.883   5.390  0.4538  0.3778 -1.0770
 9888SOL     OW30041   2.359   0.696   2.661  0.8675  0.5546 -0.4066
 9888SOL    HW130042   2.348   0.658   2.573 -1.9872 -1.0725  0.5093
 9888SOL    HW230043   2.295   0.768   2.663 -0.1233 -0.3237  0.7418
 9889SOL     OW30044   2.330   1.359   4.366  0.4486  0.1904 -0.6291
 9889SOL    HW130045   2.387   1.305   4.311 -2.7814 -2.6015 -1.5196
 9889SOL    HW230046   2.287   1.418   4.304  0.5620  0.6497 -0.2831
 9890SOL     OW30047   2.867   0.140   3.928  0.1133  0.1577 -0.4119
 9890SOL    HW130048   2.813   0.081   3.981  0.6755  0.3524  0.3798
 9890SOL    HW230049   2.827   0.135   3.840 -1.8027  1.0376  0.3487
 9891SOL     OW30050   5.723   6.345   3.493 -0.0061 -0.1739  0.0265
 9891SOL    HW130051   5.740   6.399   3.569  0.5250  0.5622 -0.5978
 9891SOL    HW230052   5.713   6.407   3.421  0.4440 -0.8855 -0.6708
 9892SOL     OW30053   6.405   6.714   1.839 -0.0389 -0.2442  0.3786
 9892SOL    HW130054   6.325   6.749   1.799  0.3211  2.2127  1.5798
 9892SOL    HW230055   6.374   6.648   1.900 -0.9561 -0.8168 -0.6715
 9893SOL     OW30056   4.303   1.915   1.851 -0.6373  0.2319  0.3253
 9893SOL    HW130057   4.239   1.924   1.922 -0.6246 -1.1396  0.5368
 9893SOL    HW230058   4.330   1.824   1.854 -1.2044 -0.0747 -1.9348
 9894SOL     OW30059   5.281   5.092   5.463  0.2030 -0.2387 -0.0190
 9894SOL    HW130060   5.350   5.026   5.474 -0.2132 -0.3786  2.3184
 9894SOL    HW230061   5.328   5.172   5.442  0.7664 -1.0711 -2.1726
 9895SOL     OW30062   5.945   1.381   4.456  0.6029 -0.2653  0.2634
 9895SOL    HW130063   6.003   1.352   4.386 -1.1103  0.5757 -1.5918
 9895SOL    HW230064   5.956   1.476   4.459  0.4971 -0.2700  1.0035
 9896SOL     OW30065   3.906   3.413   5.126 -0.1149  0.2521  0.3236
 9896SOL    HW130066   3.930   3.348   5.060 -2.7821 -1.3876  0.7990
 9896SOL    HW230067   3.888   3.492   5.077 -0.4897 -0.4792 -0.7487
 9897SOL     OW30068   0.246   5.067   4.303 -0.2169  0.3933 -0.7035
 9897SOL    HW130069   0.233   5.119   4.223  0.6534  0.5789 -0.7289
 9897SOL    HW230070   0.162   5.074   4.349  0.0064  2.2441 -0.4751
 9898SOL     OW30071   4.653   2.731   4.609 -0.3903  0.6050 -0.0501
 9898SOL    HW130072   4.560   2.708   4.602 -0.3488  0.1588  0.7246
 9898SOL    HW230073   4.694   2.688   4.534 -0.9062  1.4020 -0.8164
 9899SOL     OW30074   6.124   4.368   6.586 -0.1930  0.1926  0.3632
 9899SOL    HW130075   6.170   4.382   6.503  1.1065 -0.0004  1.0306
 9899SOL    HW230076   6.175   4.417   6.651  0.0433 -1.3407  1.4050
 9900SOL     OW30077   6.444   2.886   6.555 -0.4333  0.1704  0.0040
 9900SOL    HW130078   6.508   2.874   6.625  0.6067  0.8657 -0.7932
 9900SOL    HW230079   6.386   2.810   6.562 -1.0063  0.7531  2.2553
 9901SOL     OW30080   4.662   0.277   5.879  0.8544 -0.3534  0.4634
 9901SOL    HW130081   4.620   0.290   5.964 -0.0338  1.9853 -0.2517
 9901SOL    HW230082   4.739   0.335   5.881  0.2260  0.5618 -0.6750
 9902SOL     OW30083   1.782   2.009   4.349 -0.6261 -0.0769 -0.5803
 9902SOL    HW130084   1.728   2.087   4.363 -1.3200 -0.4533 -1.0646
 9902SOL    HW230085   1.720   1.936   4.352 -0.1715 -0.5117 -1.2997
 9903SOL     OW30086   5.260   3.436   2.606  0.0352  0.3330  0.1989
 9903SOL    HW130087   5.277   3.342   2.594  0.9278  0.6260 -0.9457
 9903SOL    HW230088   5.181   3.452   2.555  0.6375  0.4579 -0.7081
 9904SOL     OW30089   4.121   0.058   3.902 -0.1332  0.4862  0.3402
 9904SOL    HW130090   4.128  -0.019   3.846 -0.9102 -0.4637  1.4980
 9904SOL    HW230091   4.036   0.049   3.944 -0.3629  2.1372  0.3008
 9905SOL     OW30092   3.922   2.242   5.363  0.5085 -0.0166 -0.0583
 9905SOL    HW130093   3.891   2.277   5.447  0.1120  1.1311 -0.6597
 9905SOL    HW230094   3.877   2.158   5.354 -2.3897  1.4620 -0.7776
 9906SOL     OW30095   3.318   6.730   3.849 -0.1689 -0.3613  0.0662
 9906SOL    HW130096   3.306   6.691   3.762  2.7964  2.5656 -1.8901
 9906SOL    HW230097   3.252   6.799   3.854  0.4003  0.2412 -0.4499
 9907SOL     OW30098   4.868   3.981   3.585  0.5229  0.1336  0.2185
 9907SOL    HW130099   4.904   3.898   3.617 -0.4003 -1.7343 -3.1741
 9907SOL    HW230100   4.929   4.010   3.517 -1.1692  0.1065 -1.3792
 9908SOL     OW30101   5.590   5.308   2.580 -0.0847 -0.0283  0.3250
 9908SOL    HW130102   5.532   5.349   2.516  1.9016  0.2024 -1.4300
 9908SOL    HW230103   5.570   5.214   2.574 -0.5285  0.0820  0.0301
 9909SOL     OW30104   1.223   5.830   2.046 -0.6859  0.5216 -0.2586
 9909SOL    HW130105   1.301   5.776   2.055  0.2852  2.1302  2.0833
 9909SOL    HW230106   1.151   5.771   2.066  0.1641 -0.3743  0.2625
 9910SOL     OW30107   3.656   1.827   2.369  0.8264 -0.5899  0.0168
 9910SOL    HW130108   3.614   1.743   2.349 -0.6552  0.0328  0.4271
 9910SOL    HW230109   3.637   1.882   2.293 -1.3954  0.5186  1.3061
 9911SOL     OW30110   2.766   4.158   6.804  0.4073  0.1838  0.2158
 9911SOL    HW130111   2.773   4.177   6.897  1.3703  0.2090  0.1485
 9911SOL    HW230112   2.698   4.217   6.773  0.8731  0.9929  0.6937
 9912SOL     OW30113   4.548   4.285   3.625 -0.1284 -0.1681 -0.0400
 9912SOL    HW130114   4.597   4.203   3.636 -1.1621 -0.7396  0.4706
 9912SOL    HW230115   4.555   4.305   3.532  0.7183 -0.4590 -0.0491
 9913SOL     OW30116   0.823   2.387   2.405  0.0001 -0.2375 -0.3133
 9913SOL    HW130117   0.739   2.412   2.444 -0.4914 -0.6690 -1.0699
 9913SOL    HW230118   0.801   2.357   2.317  0.5608 -3.3196  0.4975
 9914SOL     OW30119   6.454   5.505   6.604 -0.0143  0.0813 -0.1760
 9914SOL    HW130120   6.510   5.581   6.618  0.5593 -0.2100 -0.8115
 9914SOL    HW230121   6.410   5.491   6.688  0.5854  0.5445  0.2214
 9915SOL     OW30122   5.740   3.406   4.118 -0.1876  0.3062  0.0558
 9915SOL    HW130123   5.820   3.426   4.070 -0.3834  1.4369  0.1887
 9915SOL    HW230124   5.741   3.465   4.194 -1.5079  0.8855 -0.3472
 9916SOL     OW30125   3.252   0.654   4.597 -0.4772 -0.4763 -0.6213
 9916SOL    HW130126   3.297   0.732   4.628 -1.9014  0.3431 -0.5292
 9916SOL    HW230127   3.206   0.683   4.518  0.0543 -1.5834 -1.3751
 9917SOL     OW30128   0.879   2.934   3.460  0.1722 -0.7263  0.1316
 9917SOL    HW130129   0.968   2.914   3.489  0.8956  1.8517 -0.0863
 9917SOL    HW230130   0.887   2.953   3.367 -0.1196  1.7980  0.5559
 9918SOL     OW30131   4.700   2.102   3.072  0.0977  0.1007  0.1291
 9918SOL    HW130132   4.655   2.038   3.018 -2.0426  1.2360  0.4641
 9918SOL    HW230133   4.688   2.070   3.162  1.2990 -0.3561  0.1509
 9919SOL     OW30134   2.119   1.696   1.910 -0.5468 -0.1039  0.1154
 9919SOL    HW130135   2.087   1.607   1.896 -0.5888 -0.0541 -0.1020
 9919SOL    HW230136   2.160   1.693   1.996 -0.5925 -0.3214  0.1300
 9920SOL     OW30137   5.403   3.064   0.535 -0.1390  0.0801  0.5439
 9920SOL    HW130138   5.421   3.084   0.626 -1.1190  1.4108  0.4643
 9920SOL    HW230139   5.425   3.143   0.487 -0.7134 -0.2064 -0.2311
 9921SOL     OW30140   6.603   0.428   3.670 -0.3299  0.0168  0.0676
 9921SOL    HW130141   6.570   0.514   3.647 -0.3323 -0.3254 -1.2642
 9921SOL    HW230142   6.656   0.442   3.749  0.2658  1.3395 -0.5516
 9922SOL     OW30143   1.016   1.629   1.906 -0.1422 -0.1267  0.1256
 9922SOL    HW130144   1.006   1.699   1.842 -0.1965 -1.3470 -1.2677
 9922SOL    HW230145   1.077   1.664   1.971 -0.7404  1.4608 -0.1171
 9923SOL     OW30146   3.773   0.267   1.341  0.0374  0.7489 -0.0536
 9923SOL    HW130147   3.735   0.183   1.313 -0.4668  0.8868  0.2109
 9923SOL    HW230148   3.809   0.305   1.261  1.8983 -0.5424  0.1168
 9924SOL     OW30149   2.888   6.237   6.216 -0.2993 -0.3961 -0.1874
 9924SOL    HW130150   2.802   6.235   6.257 -0.3697 -0.2099 -0.3238
 9924SOL    HW230151   2.908   6.146   6.197  0.0196 -0.5486  0.8575
 9925SOL     OW30152   4.775   2.622   2.118 -0.2775  0.0478 -0.2891
 9925SOL    HW130153   4.856   2.618   2.169  0.0359 -0.1736 -0.7926
 9925SOL    HW230154   4.720   2.685   2.165 -0.0837 -0.3061  0.4395
 9926SOL     OW30155   4.742   4.129   4.626 -0.2016  0.3113  0.3359
 9926SOL    HW130156   4.651   4.129   4.596 -0.3305 -1.0143  0.6600
 9926SOL    HW230157   4.765   4.036   4.632  0.8436  0.6068  1.2514
 9927SOL     OW30158   2.127   1.080   5.556  0.2374  0.1781 -0.0350
 9927SOL    HW130159   2.204   1.028   5.533  0.6332  0.6835  0.1405
 9927SOL    HW230160   2.160   1.148   5.615 -0.0210  1.4490 -1.2952
 9928SOL     OW30161   2.678   4.508   5.105 -0.4627 -0.4772 -0.5344
 9928SOL    HW130162   2.759   4.519   5.056 -1.2070  0.3887 -1.6315
 9928SOL    HW230163   2.609   4.537   5.044 -1.4883 -0.0069  0.7986
 9929SOL     OW30164   0.788   4.423   1.869  0.8447  0.2256 -0.6556
 9929SOL    HW130165   0.846   4.361   1.824  0.8001 -0.6584  0.4537
 9929SOL    HW230166   0.762   4.377   1.949  1.3905  1.9652  0.5728
 9930SOL     OW30167   1.567   1.635   6.695 -0.1548  0.1951 -0.1676
 9930SOL    HW130168   1.542   1.565   6.755  1.2065 -0.6141 -0.5051
 9930SOL    HW230169   1.519   1.616   6.615  1.0636 -1.0679 -0.6498
 9931SOL     OW30170   3.184   3.062   6.321  0.2306  0.1206 -0.0756
 9931SOL    HW130171   3.185   3.091   6.412  1.1387  0.0624 -0.0600
 9931SOL    HW230172   3.167   3.143   6.271 -0.1285  0.1753  0.1309
 9932SOL     OW30173   2.958   2.189   1.814 -0.0823  0.0971  0.1767
 9932SOL    HW130174   2.939   2.263   1.757  0.1718 -1.3294 -1.8864
 9932SOL    HW230175   2.918   2.212   1.898 -2.4854  1.3544 -1.1894
 9933SOL     OW30176   2.934   4.992   4.327 -0.4415  0.2614 -0.1039
 9933SOL    HW130177   2.966   4.930   4.261  0.5777  0.9834 -0.3090
 9933SOL    HW230178   2.950   5.078   4.290  1.1248  0.7170  1.4804
 9934SOL     OW30179   6.368   1.427   2.707  0.0403 -0.7786  0.0922
 9934SOL    HW130180   6.406   1.365   2.769 -0.1673  0.8121  1.9093
 9934SOL    HW230181   6.444   1.468   2.664  0.2634 -0.4425  0.7973
 9935SOL     OW30182   3.168   5.478   5.138 -0.5778 -0.2546 -0.4853
 9935SOL    HW130183   3.246   5.533   5.140 -0.8170  0.0753 -0.0533
 9935SOL    HW230184   3.136   5.485   5.048 -0.5371  0.2123 -0.4666
 9936SOL     OW30185   6.263   0.187   6.644  0.1625 -0.2132  0.1474
 9936SOL    HW130186   6.327   0.256   6.661  0.3896  0.1728 -2.0788
 9936SOL    HW230187   6.311   0.120   6.597 -0.2088 -1.6954  1.7642
 9937SOL     OW30188   6.002   5.076   2.648  0.7248  0.3952 -0.7603
 9937SOL    HW130189   6.015   5.112   2.735  0.5404 -2.1378  0.3988
 9937SOL    HW230190   6.071   5.115   2.595  1.9659  0.6147  0.9552
 9938SOL     OW30191   3.154   5.317   2.045  0.4750  0.1187  0.3452
 9938SOL    HW130192   3.173   5.229   2.013  1.2918  1.3422 -3.0347
 9938SOL    HW230193   3.062   5.331   2.022  0.5925  0.4296  0.0570
 9939SOL     OW30194   5.823   2.034   4.277  0.4044 -0.5493 -0.6484
 9939SOL    HW130195   5.765   2.032   4.201 -0.3194  1.7970 -0.2205
 9939SOL    HW230196   5.771   1.994   4.347  0.3897 -1.0355 -0.9282
 9940SOL     OW30197   0.379   3.056   0.903 -0.2843  0.7060 -0.1388
 9940SOL    HW130198   0.445   3.124   0.916 -1.3003  1.4704  1.3172
 9940SOL    HW230199   0.296   3.103   0.895 -0.7647 -0.2622 -1.3199
 9941SOL     OW30200   3.966   4.422   0.776  0.3710  0.4061  0.0897
 9941SOL    HW130201   4.007   4.487   0.718 -0.3649  0.2638 -0.6111
 9941SOL    HW230202   3.891   4.389   0.726  0.6051 -0.8283  0.5338
 9942SOL     OW30203   6.532   4.483   0.085  0.2578  0.3594 -0.9975
 9942SOL    HW130204   6.575   4.544   0.025  1.8450 -0.3307 -0.6063
 9942SOL    HW230205   6.483   4.539   0.145  0.4194  1.1615 -1.6006
 9943SOL     OW30206   6.394   2.325   6.693 -0.3109 -0.0587 -0.7518
 9943SOL    HW130207   6.325   2.280   6.741 -0.6754  0.8353 -0.4128
 9943SOL    HW230208   6.473   2.310   6.745  0.1433 -2.5437 -2.0360
 9944SOL     OW30209   1.180   2.782   1.079  0.0698  0.0562 -0.1020
 9944SOL    HW130210   1.232   2.811   1.003 -1.4535  0.2550 -1.1152
 9944SOL    HW230211   1.107   2.844   1.083 -0.5614 -0.7197  0.7420
 9945SOL     OW30212   3.946   5.211   4.539  0.6238 -0.1705  0.2325
 9945SOL    HW130213   3.868   5.240   4.586 -0.6845 -1.2226 -1.1879
 9945SOL    HW230214   4.019   5.230   4.599 -0.6740  1.0383  1.5061
 9946SOL     OW30215   0.060   6.096   4.189  0.1288 -0.0514  0.3359
 9946SOL    HW130216   0.150   6.074   4.213  0.0734  0.0502  0.6377
 9946SOL    HW230217   0.057   6.082   4.094  0.3771 -0.3511  0.3687
 9947SOL     OW30218   0.300   2.522   2.869  0.1137 -0.2947 -0.7342
 9947SOL    HW130219   0.229   2.586   2.859 -0.2668 -0.7397 -0.9382
 9947SOL    HW230220   0.363   2.546   2.802  0.3158  0.3042 -0.3417
 9948SOL     OW30221   6.380   0.925   1.844 -0.0030  0.2545 -0.0568
 9948SOL    HW130222   6.358   0.866   1.772  0.4629  0.6495 -0.5379
 9948SOL    HW230223   6.297   0.941   1.889 -0.3435  0.1798 -0.6466
 9949SOL     OW30224   5.252   1.667   0.519 -0.6722  0.4640 -0.2762
 9949SOL    HW130225   5.327   1.727   0.522  1.0545 -1.4531 -2.0278
 9949SOL    HW230226   5.206   1.692   0.438 -0.1193 -0.3211 -0.8485
 9950SOL     OW30227   1.263   4.625   6.658 -0.6384  0.6642 -0.0197
 9950SOL    HW130228   1.327   4.652   6.724 -1.9977 -0.1888  1.7631
 9950SOL    HW230229   1.234   4.707   6.618 -0.8740  1.4116  1.5717
 9951SOL     OW30230   3.455   6.316   4.778 -0.0498  0.0669  0.6088
 9951SOL    HW130231   3.507   6.245   4.741 -0.6569 -1.2557  2.1647
 9951SOL    HW230232   3.484   6.395   4.731  0.0756 -1.2911 -1.7421
 9952SOL     OW30233   0.838   0.141   2.760 -0.3969  0.1386  0.2077
 9952SOL    HW130234   0.774   0.203   2.726  0.4291 -0.1565 -2.0121
 9952SOL    HW230235   0.923   0.177   2.733  0.1570 -1.3472 -0.0830
 9953SOL     OW30236   0.295   0.192   6.393  0.3569 -0.2989  0.2735
 9953SOL    HW130237   0.256   0.221   6.310 -0.9844 -0.5044  0.8116
 9953SOL    HW230238   0.288   0.097   6.391  1.2217 -0.3705  0.2100
 9954SOL     OW30239   0.879   1.390   0.386  0.0661 -0.3570  0.0279
 9954SOL    HW130240   0.926   1.316   0.348 -0.7402 -0.9607  0.1698
 9954SOL    HW230241   0.842   1.355   0.468  0.8685  0.6118  0.8258
 9955SOL     OW30242   0.230   4.840   0.990  0.1447  0.0890  0.0798
 9955SOL    HW130243   0.190   4.847   1.076  0.7254  2.2139  0.2428
 9955SOL    HW230244   0.304   4.901   0.993  0.7527 -0.5052 -1.6133
 9956SOL     OW30245   5.300   0.108   3.124 -0.5482 -0.0313  0.2766
 9956SOL    HW130246   5.363   0.176   3.150  0.8933 -0.6563 -1.4107
 9956SOL    HW230247   5.352   0.029   3.115 -1.4284 -0.4241 -1.8601
 9957SOL     OW30248   1.586   1.936   0.556  0.3604  0.2360  0.3063
 9957SOL    HW130249   1.634   2.016   0.576  1.3106 -0.2672  0.1412
 9957SOL    HW230250   1.495   1.956   0.576  0.8167  0.8074  1.9945
 9958SOL     OW30251   6.784   0.167   4.238  0.2606 -0.1705 -0.5595
 9958SOL    HW130252   6.817   0.243   4.286  0.0003 -0.7048  0.5044
 9958SOL    HW230253   6.863   0.118   4.214  0.3320 -0.8712  1.0045
 9959SOL     OW30254   4.046   5.030   4.907  0.1167  0.1169  0.2650
 9959SOL    HW130255   4.127   4.999   4.947 -0.6801  1.6161  3.3418
 9959SOL    HW230256   3.977   5.000   4.967 -1.5930 -0.3725 -1.8027
 9960SOL     OW30257   4.249   2.517   0.813 -0.5041  0.3346 -0.1010
 9960SOL    HW130258   4.206   2.602   0.805 -0.6236  0.1851 -1.2115
 9960SOL    HW230259   4.239   2.493   0.905 -0.5070  1.4959  0.2140
 9961SOL     OW30260   3.718   1.292   6.575  0.2621 -0.0374  0.0189
 9961SOL    HW130261   3.799   1.341   6.565 -0.1079  0.5711 -0.0506
 9961SOL    HW230262   3.687   1.314   6.663  1.2585 -1.9445  0.9097
 9962SOL     OW30263   6.822   0.888   3.278 -0.7258  0.0687 -0.3144
 9962SOL    HW130264   6.862   0.808   3.244 -2.5164  0.0922 -2.7425
 9962SOL    HW230265   6.895   0.937   3.315  1.0617 -1.0332 -2.1357
 9963SOL     OW30266   3.975   4.382   6.212 -0.1004  0.0514  0.7238
 9963SOL    HW130267   3.884   4.405   6.193 -0.4315 -0.8980  1.1388
 9963SOL    HW230268   3.982   4.388   6.307  0.3438  0.3489  0.6788
 9964SOL     OW30269   0.954   4.368   5.320  0.2370  0.1922  0.0028
 9964SOL    HW130270   0.957   4.363   5.224  0.6149  0.6291 -0.0106
 9964SOL    HW230271   0.905   4.290   5.346 -0.1016  0.2092 -0.5605
 9965SOL     OW30272   5.222   4.500   1.771  0.0636  0.1438 -0.0329
 9965SOL    HW130273   5.165   4.449   1.714 -1.2879  0.8910  0.6039
 9965SOL    HW230274   5.285   4.437   1.805 -0.6113 -0.7804 -0.4551
 9966SOL     OW30275   1.310   2.416   4.358 -0.1710 -0.3969 -0.1462
 9966SOL    HW130276   1.251   2.487   4.332  0.7295  0.0236 -1.0823
 9966SOL    HW230277   1.396   2.457   4.365  0.2523 -1.2750 -0.1013
 9967SOL     OW30278   3.406   0.089   5.450  0.0374  0.2341  0.4338
 9967SOL    HW130279   3.481   0.148   5.439 -1.7689  2.5098 -0.4410
 9967SOL    HW230280   3.366   0.085   5.364 -1.1932 -0.4770  1.0140
 9968SOL     OW30281   1.759   1.587   0.956  0.6176  0.3470 -0.0581
 9968SOL    HW130282   1.679   1.579   1.009  1.0643 -0.1338  0.5543
 9968SOL    HW230283   1.815   1.647   1.006  1.5574 -1.0989  0.6829
 9969SOL     OW30284   2.683   1.106   5.047 -0.1621  0.3950 -0.5438
 9969SOL    HW130285   2.679   1.070   5.136  0.7802  0.0308 -0.6358
 9969SOL    HW230286   2.620   1.053   4.997 -0.1673  0.1226 -0.2528
 9970SOL     OW30287   5.321   5.646   2.184 -0.0689 -0.3766  0.2021
 9970SOL    HW130288   5.273   5.656   2.102  1.0702  3.0688 -0.2123
 9970SOL    HW230289   5.413   5.653   2.158  0.2877  1.3938  1.7769
 9971SOL     OW30290   3.043   3.989   1.138 -0.2545 -0.2843  0.5316
 9971SOL    HW130291   3.083   3.921   1.084 -2.8927 -0.9489 -0.7379
 9971SOL    HW230292   3.115   4.049   1.158  0.8493  0.3519 -4.2292
 9972SOL     OW30293   4.751   4.749   5.114 -0.3117 -0.6160  0.1109
 9972SOL    HW130294   4.798   4.801   5.049 -0.4584 -2.2841 -1.3844
 9972SOL    HW230295   4.664   4.789   5.119 -1.3215 -2.1592 -2.9660
 9973SOL     OW30296   4.442   3.647   2.986 -0.3509 -0.1962  0.3327
 9973SOL    HW130297   4.534   3.669   2.970 -0.0629  0.4823  2.5895
 9973SOL    HW230298   4.440   3.551   2.987  0.4213 -0.2152  0.6727
 9974SOL     OW30299   3.998   3.028   2.570  0.2438  0.0792  0.2207
 9974SOL    HW130300   4.023   2.969   2.499  1.1285 -1.0713  1.4198
 9974SOL    HW230301   3.931   3.085   2.532  0.3888 -0.7573 -1.3942
 9975SOL     OW30302   6.432   1.294   4.125 -0.5284 -0.2472  0.1255
 9975SOL    HW130303   6.457   1.338   4.206  0.9845 -1.1910  0.2147
 9975SOL    HW230304   6.390   1.213   4.154 -1.7793  0.3235 -0.0433
 9976SOL     OW30305   0.811   1.897   3.500  0.0950 -0.2669 -0.7374
 9976SOL    HW130306   0.742   1.961   3.518 -0.8409 -1.5768  0.6076
 9976SOL    HW230307   0.865   1.896   3.579  0.3092 -0.8659 -0.8802
 9977SOL     OW30308   3.726   6.498   3.025 -0.2569 -0.6795  0.1057
 9977SOL    HW130309   3.650   6.480   3.080 -0.7029 -1.4865 -0.7325
 9977SOL    HW230310   3.743   6.414   2.981 -0.7427  0.2448 -1.9647
 9978SOL     OW30311   5.595   4.083   5.706 -0.3261 -0.3362 -0.3376
 9978SOL    HW130312   5.557   3.996   5.721  0.9228 -1.1822 -1.9298
 9978SOL    HW230313   5.520   4.142   5.716 -1.1572 -1.5204  1.0516
 9979SOL     OW30314   1.423   1.621   2.121  0.0119 -0.4079  0.1463
 9979SOL    HW130315   1.444   1.579   2.038  0.3707  0.1214 -0.0327
 9979SOL    HW230316   1.484   1.694   2.128  1.1262 -1.4247  1.6718
 9980SOL     OW30317   1.671   5.494   5.678 -0.2189  0.2557 -0.2860
 9980SOL    HW130318   1.743   5.435   5.701 -1.2687 -0.0945  2.5771
 9980SOL    HW230319   1.714   5.574   5.647  1.3554 -0.4567 -0.0156
 9981SOL     OW30320   0.040   0.606   2.443 -0.0224  0.3399 -0.5295
 9981SOL    HW130321   0.071   0.566   2.362 -0.5353 -0.8366 -0.1642
 9981SOL    HW230322  -0.055   0.606   2.435 -0.0394  1.3541 -0.4494
 9982SOL     OW30323   1.210   5.279   0.045 -0.0669 -0.1663  0.0765
 9982SOL    HW130324   1.222   5.270  -0.050  0.0867 -0.7735  0.1518
 9982SOL    HW230325   1.235   5.369   0.063 -1.0372  0.2603 -0.6044
 9983SOL     OW30326   2.988   1.071   4.284 -0.0654 -0.1333 -0.5195
 9983SOL    HW130327   2.976   1.050   4.376 -0.4625  0.2438 -0.4806
 9983SOL    HW230328   3.055   1.011   4.254  1.0129  0.6048  0.3355
 9984SOL     OW30329   3.084   6.223   3.017 -0.2867 -0.3021  0.9164
 9984SOL    HW130330   3.141   6.148   2.998 -2.3120 -1.4307 -1.5052
 9984SOL    HW230331   3.001   6.182   3.044 -0.9728  1.1307  1.0375
 9985SOL     OW30332   5.525   5.131   3.650  0.0159  0.6494  0.2924
 9985SOL    HW130333   5.450   5.157   3.596  0.6105 -0.0124 -0.8947
 9985SOL    HW230334   5.564   5.214   3.677 -0.1051  1.0157 -0.5882
 9986SOL     OW30335   6.825   5.794   4.952 -0.0225  0.3650  0.2112
 9986SOL    HW130336   6.782   5.718   4.915 -1.7210  1.2443  0.2990
 9986SOL    HW230337   6.917   5.784   4.926 -0.4165 -1.0922 -0.7613
 9987SOL     OW30338   3.155   1.975   3.203 -0.3890 -0.0558 -0.0921
 9987SOL    HW130339   3.185   1.911   3.139 -0.5209 -0.8460  0.6140
 9987SOL    HW230340   3.093   1.927   3.258 -2.3172  1.3059 -0.9924
 9988SOL     OW30341   1.193   5.965   5.796  0.0688  0.0635 -0.0839
 9988SOL    HW130342   1.189   5.878   5.757 -0.7550 -0.7343  1.6792
 9988SOL    HW230343   1.167   5.952   5.888 -0.1209  2.1701  0.2171
 9989SOL     OW30344   1.692   2.718   2.762  0.2839  0.0146  0.4776
 9989SOL    HW130345   1.682   2.623   2.770 -0.4222  0.1233  1.0526
 9989SOL    HW230346   1.722   2.746   2.849 -1.9294  0.5868  1.1210
 9990SOL     OW30347   1.831   1.525   2.598  0.1976 -0.1189 -0.0089
 9990SOL    HW130348   1.814   1.474   2.518 -1.1620 -2.1322  1.4461
 9990SOL    HW230349   1.923   1.508   2.618  0.4081 -0.0248 -0.8590
 9991SOL     OW30350   5.906   4.752   3.093  0.4769 -0.6194  0.4701
 9991SOL    HW130351   5.829   4.704   3.123  1.0367 -0.1388  2.8960
 9991SOL    HW230352   5.876   4.842   3.084  0.8204 -0.3434  1.8758
 9992SOL     OW30353   2.601   1.602   0.697  0.1358 -0.3342  0.1949
 9992SOL    HW130354   2.691   1.629   0.717 -0.5234 -0.3077  3.7504
 9992SOL    HW230355   2.608   1.556   0.613  2.7235  3.0936 -1.7423
 9993SOL     OW30356   4.202   6.825   4.597 -0.8312 -0.4002 -0.3709
 9993SOL    HW130357   4.274   6.839   4.658 -0.5715  1.1762 -0.9924
 9993SOL    HW230358   4.203   6.731   4.579  1.1801 -0.3811 -0.4941
 9994SOL     OW30359   5.675   3.119   2.877  0.0666 -0.2255 -0.6463
 9994SOL    HW130360   5.584   3.132   2.902  0.4526  1.8024 -0.1735
 9994SOL    HW230361   5.695   3.029   2.904 -1.6092 -0.5062 -0.2573
 9995SOL     OW30362   2.499   1.075   6.404  0.1724 -0.0933  0.3737
 9995SOL    HW130363   2.512   0.987   6.370  0.2084  0.8005 -2.1122
 9995SOL    HW230364   2.442   1.118   6.340 -0.0836  1.6227  1.6636
 9996SOL     OW30365   0.497   6.670   6.380  0.2566 -0.0874 -0.5372
 9996SOL    HW130366   0.520   6.582   6.410 -0.6119 -0.4219 -0.8215
 9996SOL    HW230367   0.422   6.695   6.434  1.3166  1.0502  0.4892
 9997SOL     OW30368   1.472   2.416   6.290  0.1079 -0.3273  0.1271
 9997SOL    HW130369   1.442   2.507   6.296 -1.9758 -0.9219 -0.4990
 9997SOL    HW230370   1.394   2.367   6.265  1.2313 -2.2833  0.2942
 9998SOL     OW30371   4.793   4.608   5.999 -0.1781 -0.0573 -0.4567
 9998SOL    HW130372   4.702   4.580   6.008 -0.0855 -0.0607  0.5703
 9998SOL    HW230373   4.787   4.703   5.986 -0.3071  0.0338  0.2292
 9999SOL     OW30374   1.563   5.901   0.418  0.3055  0.6703 -0.7201
 9999SOL    HW130375   1.477   5.888   0.458  0.1486  3.7360  0.2006
 9999SOL    HW230376   1.624   5.854   0.475 -0.5396  0.0630 -0.2891
10000SOL     OW30377   0.329   0.560   3.492  0.5196 -0.6331  0.3857
10000SOL    HW130378   0.283   0.476   3.493 -2.2959  0.6486 -2.6512
10000SOL    HW230379   0.419   0.538   3.468 -0.3297 -2.7771 -1.1517
10001SOL     OW30380   6.132   2.288   3.413  0.4276 -0.2499 -0.2179
10001SOL    HW130381   6.105   2.375   3.443  1.7519  1.1228 -2.6654
10001SOL    HW230382   6.063   2.260   3.354  1.0229  0.1844 -1.1495
10002SOL     OW30383   0.930   5.216   0.055 -0.1261 -0.2436  0.1716
10002SOL    HW130384   1.022   5.243   0.059  0.0046 -0.5949 -0.3523
10002SOL    HW230385   0.903   5.210   0.147  0.5213 -0.6264  0.3482
10003SOL     OW30386   0.613   1.104   6.103 -0.0435 -0.2517  0.2915
10003SOL    HW130387   0.593   1.036   6.040 -0.0986 -0.5421  0.6191
10003SOL    HW230388   0.668   1.061   6.169 -0.1050  0.0106  0.5180
10004SOL     OW30389   6.177   1.102   6.782  0.2166 -0.2804  0.7115
10004SOL    HW130390   6.147   1.019   6.818  0.7799  0.0553  2.0230
10004SOL    HW230391   6.121   1.117   6.706 -1.1335 -0.9756  1.5261
10005SOL     OW30392   4.543   5.250   5.829  0.4900 -0.0105 -0.2313
10005SOL    HW130393   4.619   5.302   5.801 -0.3240  0.6108 -1.4057
10005SOL    HW230394   4.575   5.197   5.901  1.6070  1.4583  0.4129
10006SOL     OW30395   6.451   1.248   1.547  0.3565  0.0234 -0.2853
10006SOL    HW130396   6.416   1.171   1.503  2.1112 -0.5109 -0.8272
10006SOL    HW230397   6.477   1.216   1.634  1.5855 -0.1618 -0.6996
10007SOL     OW30398   3.609   5.090   3.033  0.0691 -0.1844  0.4409
10007SOL    HW130399   3.551   5.087   3.109 -0.5512  2.2242  0.1645
10007SOL    HW230400   3.556   5.055   2.961 -0.3145  0.0191  0.6192
10008SOL     OW30401   0.467   5.515   3.103  0.5473  0.3060 -0.1475
10008SOL    HW130402   0.381   5.500   3.063  0.8120 -0.1055 -0.5667
10008SOL    HW230403   0.475   5.610   3.106  1.5050  0.4409 -3.2686
10009SOL     OW30404   3.017   0.023   0.877 -0.2452 -0.3715  0.5484
10009SOL    HW130405   2.931  -0.008   0.904 -0.5814  0.0062 -0.0595
10009SOL    HW230406   3.020   0.009   0.783  0.3179 -0.2748  0.5444
10010SOL     OW30407   6.242   4.654   5.636  0.3120 -0.1966  0.8700
10010SOL    HW130408   6.173   4.603   5.677  1.5690 -1.2289  1.7863
10010SOL    HW230409   6.197   4.731   5.601 -1.6462 -1.8647 -0.5570
10011SOL     OW30410   3.752   1.203   1.347 -0.4392  0.3341  0.1102
10011SOL    HW130411   3.748   1.127   1.289  0.5683 -1.4751  2.2391
10011SOL    HW230412   3.696   1.178   1.421 -0.8187  2.0934  0.4474
10012SOL     OW30413   6.073   6.496   4.863  0.2006  0.2135  0.4961
10012SOL    HW130414   6.159   6.459   4.881  0.0284 -0.2870  0.3051
10012SOL    HW230415   6.034   6.438   4.798 -0.2988  0.4088  0.6082
10013SOL     OW30416   3.313   2.836   5.951  0.5005  0.1745 -0.2213
10013SOL    HW130417   3.278   2.815   5.865  2.5418  0.0442 -1.0741
10013SOL    HW230418   3.341   2.752   5.987 -0.6417  0.1822  0.7464
10014SOL     OW30419   5.401   0.879   6.401 -0.1777  0.1996 -0.2818
10014SOL    HW130420   5.423   0.899   6.310 -0.8841 -2.7362 -1.2142
10014SOL    HW230421   5.321   0.930   6.417 -1.1326 -0.6591 -2.0018
10015SOL     OW30422   0.046   0.968   0.199  0.0162  0.2131 -0.6634
10015SOL    HW130423   0.016   0.989   0.110  0.1838 -2.4406 -1.4446
10015SOL    HW230424   0.013   0.879   0.214  1.5566 -0.0878  1.2100
10016SOL     OW30425   0.997   1.214   3.387 -0.5256 -0.2988 -0.3637
10016SOL    HW130426   1.085   1.178   3.379 -1.6478 -3.4768  0.1074
10016SOL    HW230427   0.992   1.247   3.476 -0.9560 -3.9957  1.1540
10017SOL     OW30428   1.600   1.262   3.770 -0.5079  0.0841 -0.4743
10017SOL    HW130429   1.621   1.320   3.696 -0.4517 -0.9826 -1.3278
10017SOL    HW230430   1.670   1.277   3.833  0.0653  0.2187 -1.1210
10018SOL     OW30431   4.512   4.615   5.648  0.4749  0.3815  0.0635
10018SOL    HW130432   4.527   4.540   5.592 -1.8524 -0.2414  0.1733
10018SOL    HW230433   4.585   4.674   5.630  1.3101 -1.0489 -1.4460
10019SOL     OW30434   4.249   1.300   2.500  0.1250  0.0816 -0.3460
10019SOL    HW130435   4.172   1.352   2.524 -0.9533 -1.4217 -0.3913
10019SOL    HW230436   4.254   1.307   2.404 -1.5979 -1.8905 -0.6619
10020SOL     OW30437   2.470   5.361   3.778 -0.2477  0.0148  0.1080
10020SOL    HW130438   2.526   5.428   3.739  0.2837  0.1500  1.0646
10020SOL    HW230439   2.531   5.293   3.807 -0.7382 -0.6517 -0.3909
10021SOL     OW30440   4.106   3.380   6.410 -0.3344  0.1837 -0.3352
10021SOL    HW130441   4.165   3.438   6.361  0.5906 -0.2666  0.2241
10021SOL    HW230442   4.044   3.440   6.451 -0.6907  0.6209 -1.4691
10022SOL     OW30443   6.036   1.755   5.231 -0.3712  0.0851 -0.2737
10022SOL    HW130444   6.055   1.752   5.324 -0.0357  2.0236 -0.2314
10022SOL    HW230445   5.973   1.684   5.217  0.2651 -0.8190  1.2328
10023SOL     OW30446   4.009   0.534   5.211  0.1193  0.6666 -0.0185
10023SOL    HW130447   3.923   0.503   5.241 -0.0263  0.3871 -0.7000
10023SOL    HW230448   4.063   0.455   5.207  0.1854  0.7258 -0.3248
10024SOL     OW30449   6.281   1.858   6.464 -0.2773 -0.3123 -0.3186
10024SOL    HW130450   6.327   1.887   6.385 -1.2065 -0.3846 -0.9042
10024SOL    HW230451   6.209   1.921   6.474  0.4054  0.2986  1.0594
10025SOL     OW30452   5.301   4.210   0.138  0.2028  0.6495  0.2181
10025SOL    HW130453   5.336   4.187   0.051  0.9264  0.5719  0.5241
10025SOL    HW230454   5.373   4.256   0.181  0.1800 -0.1634  1.1388
10026SOL     OW30455   6.487   3.715   1.569  0.1468  0.4781  0.0836
10026SOL    HW130456   6.512   3.807   1.565  0.7768  0.2703 -2.7727
10026SOL    HW230457   6.557   3.669   1.523 -0.1480 -1.4547  1.4708
10027SOL     OW30458   0.268   6.037   3.899  0.0166 -0.1347  0.3060
10027SOL    HW130459   0.177   6.055   3.921  0.1319  0.2023  0.5121
10027SOL    HW230460   0.298   6.115   3.852 -0.0133 -0.5466 -0.4235
10028SOL     OW30461   2.754   4.921   0.216  0.2196 -0.2793  0.0922
10028SOL    HW130462   2.802   4.931   0.299  0.5992 -1.3039  0.0053
10028SOL    HW230463   2.769   4.831   0.190  0.2587  0.0796 -1.2044
10029SOL     OW30464   2.631   2.959   5.100 -0.2136 -0.4547 -0.2725
10029SOL    HW130465   2.673   2.892   5.154  0.6709  1.0259  0.9770
10029SOL    HW230466   2.683   2.961   5.019  0.2036 -0.7785 -0.0164
10030SOL     OW30467   4.818   5.146   4.783  0.2766  0.1414 -0.1717
10030SOL    HW130468   4.741   5.189   4.819  0.4271 -0.2082  0.5889
10030SOL    HW230469   4.862   5.214   4.732  0.8650  1.0954  1.5465
10031SOL     OW30470   1.206   5.452   1.385 -0.0599 -0.1569  0.3173
10031SOL    HW130471   1.212   5.530   1.331 -1.0500 -0.7458 -0.6828
10031SOL    HW230472   1.282   5.399   1.361 -0.0459 -0.0371  0.0978
10032SOL     OW30473   2.302   4.428   4.672 -0.1762 -0.0305 -0.0633
10032SOL    HW130474   2.366   4.479   4.623 -0.7804 -0.2810 -1.1269
10032SOL    HW230475   2.351   4.351   4.701  0.6610  0.9571  1.2954
10033SOL     OW30476   3.124   1.938   2.626  0.2327  0.2817  0.1975
10033SOL    HW130477   3.165   2.021   2.649 -0.4930  0.4267  1.0192
10033SOL    HW230478   3.088   1.952   2.539 -0.8968  1.2187  0.7961
10034SOL     OW30479   3.653   1.499   0.389  0.5844  0.2133 -0.5105
10034SOL    HW130480   3.565   1.529   0.366  0.4953 -0.2261 -0.7356
10034SOL    HW230481   3.694   1.477   0.306  0.8281  0.1924 -0.3862
10035SOL     OW30482   5.649   0.434   2.519 -0.0848  0.1664  0.4433
10035SOL    HW130483   5.731   0.474   2.548  0.1469 -1.4776  2.3204
10035SOL    HW230484   5.612   0.396   2.599 -2.5716  0.6509 -0.4069
10036SOL     OW30485   1.954   1.654   6.047 -0.1985 -0.5939 -0.1436
10036SOL    HW130486   2.001   1.578   6.080  0.7866  0.7206  1.6928
10036SOL    HW230487   1.987   1.727   6.100 -3.0446  0.6844  0.0265
10037SOL     OW30488   2.930   5.543   6.374  0.7085 -0.0587 -0.2232
10037SOL    HW130489   2.974   5.628   6.364  1.5018 -0.4963 -0.5658
10037SOL    HW230490   2.959   5.511   6.459 -0.6643  0.6044  0.5288
10038SOL     OW30491   4.345   2.682   5.902 -0.2176 -0.0751  0.6898
10038SOL    HW130492   4.364   2.661   5.993  2.1901  1.5393  0.6673
10038SOL    HW230493   4.262   2.729   5.905 -0.2137 -0.1072  2.0456
10039SOL     OW30494   4.938   1.881   5.080 -0.1271  0.6436  0.3861
10039SOL    HW130495   4.960   1.810   5.019  0.0682 -0.1868  1.4063
10039SOL    HW230496   4.875   1.934   5.032 -0.0544 -0.0470 -0.5122
10040SOL     OW30497   2.452   3.986   6.038  0.5723 -0.0086  0.1437
10040SOL    HW130498   2.406   3.908   6.069 -2.8182 -0.0445 -4.0176
10040SOL    HW230499   2.420   4.057   6.094 -2.9095 -0.4764 -0.9753
10041SOL     OW30500   5.380   5.005   1.060 -0.3976  0.1127  0.1334
10041SOL    HW130501   5.377   5.094   1.023  0.4859  0.3494  0.5855
10041SOL    HW230502   5.316   5.007   1.132 -1.5767 -0.1252 -0.8881
10042SOL     OW30503   0.362   5.522   4.580 -0.2236 -0.2237 -0.6285
10042SOL    HW130504   0.397   5.565   4.502 -1.5431  1.4240 -0.3575
10042SOL    HW230505   0.367   5.428   4.559  1.9179  0.0318 -1.5870
10043SOL     OW30506   0.768   3.063   4.142  0.2658  0.4784 -0.6278
10043SOL    HW130507   0.848   3.015   4.119  0.9786  1.2517  0.1734
10043SOL    HW230508   0.780   3.087   4.234 -0.6752  1.0321 -0.6359
10044SOL     OW30509   4.004   0.874   6.553 -0.4302 -0.0756  0.0613
10044SOL    HW130510   4.000   0.959   6.595  0.0640  0.4328 -0.8909
10044SOL    HW230511   4.061   0.821   6.610  0.8310  0.8208 -0.3113
10045SOL     OW30512   0.638   3.673   3.904  0.6131 -0.3061  0.0027
10045SOL    HW130513   0.616   3.604   3.842 -1.3931 -0.9919  1.3509
10045SOL    HW230514   0.569   3.738   3.893  1.4014  0.5555  0.0903
10046SOL     OW30515   5.944   1.415   2.656 -0.1009  0.6196 -0.2843
10046SOL    HW130516   5.905   1.438   2.572 -1.7794  0.8556  0.5182
10046SOL    HW230517   6.028   1.374   2.634 -1.2751 -0.9187 -2.1323
10047SOL     OW30518   5.110   2.609   2.665 -0.5264  0.8909 -0.3832
10047SOL    HW130519   5.105   2.605   2.760 -1.9213 -1.5507 -0.4792
10047SOL    HW230520   5.063   2.689   2.641 -1.1964  0.9175  0.9536
10048SOL     OW30521   4.483   5.008   1.346 -0.0263  0.3647  0.9817
10048SOL    HW130522   4.551   4.969   1.400  1.5651  2.0900  0.3254
10048SOL    HW230523   4.463   5.092   1.388 -1.1623  0.2450  0.7132
10049SOL     OW30524   4.784   3.759   6.253 -0.1428 -0.5865  1.0829
10049SOL    HW130525   4.768   3.775   6.160  1.3370  2.3821  1.2233
10049SOL    HW230526   4.819   3.670   6.257 -0.2742 -0.7851 -1.1931
10050SOL     OW30527   1.104   1.628   3.238 -0.2649 -0.0848  0.1880
10050SOL    HW130528   1.034   1.632   3.304  0.3825  0.7068  0.8541
10050SOL    HW230529   1.086   1.701   3.179 -0.3128 -0.2237  0.0289
10051SOL     OW30530   0.459   4.773   4.592 -0.4292 -0.5232  0.9947
10051SOL    HW130531   0.507   4.720   4.655  0.4253 -1.6854 -0.5673
10051SOL    HW230532   0.391   4.714   4.559 -0.6190 -0.0620  0.5495
10052SOL     OW30533   0.853   5.327   0.874 -0.2373 -0.0542 -0.0289
10052SOL    HW130534   0.886   5.329   0.784  0.7354  0.4107  0.3329
10052SOL    HW230535   0.850   5.419   0.900  1.1320 -0.2744  1.0041
10053SOL     OW30536   6.178   5.522   5.384 -0.2068 -0.0100  0.1976
10053SOL    HW130537   6.257   5.570   5.408 -0.5141  0.4382  0.3209
10053SOL    HW230538   6.146   5.566   5.305 -0.3179 -0.2035  0.1348
10054SOL     OW30539   1.689   2.173   1.913  0.1362  0.2214 -0.6602
10054SOL    HW130540   1.738   2.125   1.979 -0.8323 -1.8945 -1.3834
10054SOL    HW230541   1.630   2.108   1.875 -0.8013  1.8598 -2.1709
10055SOL     OW30542   4.885   6.203   1.613  0.0842 -0.2119  0.5590
10055SOL    HW130543   4.871   6.289   1.573 -0.6417  0.4342  2.0934
10055SOL    HW230544   4.888   6.142   1.540 -4.2590  0.4724 -0.4871
10056SOL     OW30545   6.370   5.767   2.305  0.7421  0.6168  0.0348
10056SOL    HW130546   6.293   5.731   2.261 -0.0311  1.1401  0.9201
10056SOL    HW230547   6.441   5.707   2.283 -0.1314 -0.4283  0.0191
10057SOL     OW30548   0.195   1.568   4.351  0.5275  0.2490  0.1058
10057SOL    HW130549   0.102   1.551   4.359  0.8298 -1.0364  1.1610
10057SOL    HW230550   0.200   1.651   4.303 -1.1650  0.9074  1.0019
10058SOL     OW30551   2.451   4.868   4.798 -0.1698  0.1702 -0.0045
10058SOL    HW130552   2.390   4.933   4.833  1.8755  1.8677  0.6124
10058SOL    HW230553   2.476   4.815   4.874 -0.3129 -0.0333 -0.1004
10059SOL     OW30554   5.424   5.719   0.533  0.0554  0.3428 -0.1724
10059SOL    HW130555   5.436   5.678   0.447  0.4162 -1.9500  0.8952
10059SOL    HW230556   5.482   5.795   0.531  2.7440 -1.5472 -0.8542
10060SOL     OW30557   5.797   4.720   2.558 -0.8287 -0.1292 -0.9101
10060SOL    HW130558   5.750   4.656   2.503 -0.1836 -0.8044 -0.6924
10060SOL    HW230559   5.730   4.784   2.583 -1.5416 -0.8432 -0.9481
10061SOL     OW30560   5.694   5.853   5.338  0.1980 -0.0620 -0.3735
10061SOL    HW130561   5.626   5.839   5.404 -0.6958  1.0928 -1.0007
10061SOL    HW230562   5.649   5.900   5.268  1.6926  0.8891 -0.7351
10062SOL     OW30563   4.030   0.466   1.750 -0.1752  0.2680  0.8463
10062SOL    HW130564   3.989   0.505   1.827 -0.8106 -1.6600  1.5311
10062SOL    HW230565   3.957   0.443   1.693  0.0370 -1.4995  1.2441
10063SOL     OW30566   4.771   5.836   2.908  0.6420 -0.2442 -0.3036
10063SOL    HW130567   4.714   5.859   2.981 -0.4521  0.4694 -1.3437
10063SOL    HW230568   4.829   5.768   2.943  0.8111  0.7614  1.4906
10064SOL     OW30569   1.696   6.378   3.265  0.3457 -0.2219  0.1873
10064SOL    HW130570   1.617   6.430   3.278 -1.4844 -2.6949 -0.2223
10064SOL    HW230571   1.728   6.403   3.178 -0.4075  0.2946  0.0520
10065SOL     OW30572   3.364   4.215   6.180  0.2303 -0.1464  0.3569
10065SOL    HW130573   3.418   4.293   6.181  0.1545 -0.0963  0.5626
10065SOL    HW230574   3.314   4.219   6.262 -0.8052  0.3142 -0.2743
10066SOL     OW30575   0.209   6.245   2.485  0.4009 -0.5538  0.0306
10066SOL    HW130576   0.302   6.251   2.460  0.6129  1.2082  1.0782
10066SOL    HW230577   0.209   6.260   2.579 -0.9870 -0.2394 -0.0107
10067SOL     OW30578   2.622   6.517   6.106  0.5631  0.3618  0.8668
10067SOL    HW130579   2.596   6.589   6.049  0.0508  0.6251  1.4201
10067SOL    HW230580   2.567   6.443   6.079 -0.6059  0.8404  1.8486
10068SOL     OW30581   2.291   0.780   4.832  0.0783 -0.1080 -0.1213
10068SOL    HW130582   2.265   0.730   4.754 -2.3162  1.1220 -0.2178
10068SOL    HW230583   2.275   0.720   4.905  0.2063 -0.5178 -0.4248
10069SOL     OW30584   3.146   4.360   0.278 -0.2722 -0.1064  0.2067
10069SOL    HW130585   3.177   4.280   0.236  2.1727  1.0997 -0.4378
10069SOL    HW230586   3.141   4.339   0.371 -1.1085 -1.4029 -0.1041
10070SOL     OW30587   1.385   3.081   6.597 -0.4819 -0.1738  0.4102
10070SOL    HW130588   1.309   3.132   6.569  0.9678  1.1976 -1.2043
10070SOL    HW230589   1.431   3.139   6.658 -0.3247 -0.7009  0.7965
10071SOL     OW30590   3.734   1.534   3.943  0.3782  0.3181 -0.5757
10071SOL    HW130591   3.724   1.461   3.882  0.0544 -0.9728  0.9685
10071SOL    HW230592   3.670   1.599   3.913 -0.7020 -0.8359 -0.8409
10072SOL     OW30593   0.788   6.147   0.811  0.1241  0.0389  0.3080
10072SOL    HW130594   0.801   6.160   0.905 -2.0775  0.5959  0.5852
10072SOL    HW230595   0.853   6.204   0.770 -0.4187  1.6323  1.5321
10073SOL     OW30596   4.730   6.433   3.080 -0.5131 -0.5548  0.0834
10073SOL    HW130597   4.823   6.436   3.059 -0.4907  2.8467  0.0936
10073SOL    HW230598   4.707   6.340   3.078  3.0269 -1.5796  0.8506
10074SOL     OW30599   3.731   0.126   5.662 -0.3121  0.1517  0.4534
10074SOL    HW130600   3.818   0.112   5.701 -0.1394 -0.8692 -0.2494
10074SOL    HW230601   3.697   0.204   5.706  1.2933  1.0563  0.1780
10075SOL     OW30602   0.074   3.517   1.317  0.2862  0.7354  0.1288
10075SOL    HW130603   0.059   3.579   1.246 -0.1523  1.8239  1.1438
10075SOL    HW230604   0.096   3.435   1.273  0.3552  1.4673 -1.2491
10076SOL     OW30605   6.840   0.198   3.279  0.1504 -0.3734 -0.0718
10076SOL    HW130606   6.760   0.213   3.330 -0.0868 -2.0223  0.1030
10076SOL    HW230607   6.809   0.164   3.195  0.6616 -1.9157  0.3326
10077SOL     OW30608   0.434   4.650   3.299 -0.1643  0.2935  0.4197
10077SOL    HW130609   0.431   4.559   3.271  0.7949 -0.0597  1.3988
10077SOL    HW230610   0.395   4.649   3.387 -3.5089  1.4369 -0.8757
10078SOL     OW30611   5.618   6.711   2.225  0.3613 -0.3554  0.5928
10078SOL    HW130612   5.597   6.618   2.232  1.4428 -0.5957  0.8705
10078SOL    HW230613   5.597   6.734   2.135  0.0171 -0.8452  0.5419
10079SOL     OW30614   5.080   6.800   4.940 -0.1019  0.0525  0.6294
10079SOL    HW130615   5.158   6.820   4.992 -0.9530  2.7417  1.0394
10079SOL    HW230616   5.105   6.824   4.850  0.1872 -1.1234  0.3775
10080SOL     OW30617   4.324   5.827   2.079 -0.0417 -0.1894 -0.4846
10080SOL    HW130618   4.231   5.845   2.064  0.1518  0.7691 -0.6013
10080SOL    HW230619   4.367   5.844   1.995  0.2325 -0.7439 -0.4647
10081SOL     OW30620   1.431   0.951   6.785  0.0568 -0.3802 -0.5668
10081SOL    HW130621   1.381   0.903   6.720  2.1897 -0.0763 -2.5623
10081SOL    HW230622   1.518   0.962   6.746  0.7361  1.9381  1.3137
10082SOL     OW30623   1.061   5.737   6.763  0.1355 -0.0165  1.0839
10082SOL    HW130624   1.078   5.830   6.752  2.5362 -0.4108  0.9864
10082SOL    HW230625   1.064   5.701   6.675 -1.3313 -0.1310  1.0636
10083SOL     OW30626   1.806   1.481   5.349 -0.5748  0.1059 -0.8105
10083SOL    HW130627   1.827   1.558   5.297 -1.3289  1.0408  0.2090
10083SOL    HW230628   1.716   1.460   5.326 -0.6846  0.1086 -0.3972
10084SOL     OW30629   1.767   4.948   6.163  0.6724 -0.0430  0.1965
10084SOL    HW130630   1.795   5.005   6.091 -0.0157 -1.7839 -1.5580
10084SOL    HW230631   1.682   4.914   6.134  0.3310 -0.7240  1.9023
10085SOL     OW30632   5.299   6.382   5.235 -0.3900 -0.0565  0.3735
10085SOL    HW130633   5.258   6.465   5.209 -1.7951 -1.2038 -1.4016
10085SOL    HW230634   5.389   6.388   5.203 -0.3183  0.9975  0.7587
10086SOL     OW30635   6.314   1.376   3.080 -0.8002  0.1479  0.6541
10086SOL    HW130636   6.267   1.436   3.023  0.4754  0.3346 -0.2605
10086SOL    HW230637   6.274   1.387   3.166 -0.3352  2.6622  0.6331
10087SOL     OW30638   6.216   3.952   6.311 -0.3025  0.6516 -0.0679
10087SOL    HW130639   6.218   3.984   6.401  2.6413  1.2369 -0.2593
10087SOL    HW230640   6.194   4.030   6.259 -0.6410  0.6158  0.0148
10088SOL     OW30641   2.849   3.877   4.921  0.0635 -0.5890 -0.0703
10088SOL    HW130642   2.780   3.848   4.981 -0.1637 -0.1691 -0.1280
10088SOL    HW230643   2.892   3.796   4.895 -0.9923 -0.9613 -0.7381
10089SOL     OW30644   6.464   2.418   5.994 -0.7498 -0.1952 -0.0023
10089SOL    HW130645   6.504   2.353   6.051  0.5951 -0.1517 -0.8444
10089SOL    HW230646   6.406   2.368   5.936 -0.6230 -0.4858  0.1210
10090SOL     OW30647   6.711   1.111   0.960  0.6217 -0.1009  0.3942
10090SOL    HW130648   6.640   1.168   0.933  0.2324 -0.4015  0.7629
10090SOL    HW230649   6.675   1.022   0.953  0.8467 -0.2395  0.8934
10091SOL     OW30650   6.412   3.425   3.439 -0.1157 -0.6229 -0.3413
10091SOL    HW130651   6.350   3.363   3.399 -1.6602 -0.2397  1.3424
10091SOL    HW230652   6.487   3.371   3.462 -0.9115 -1.6550 -0.0519
10092SOL     OW30653   1.821   1.724   2.280 -0.6519  0.0437  0.2016
10092SOL    HW130654   1.900   1.672   2.292  0.2866  1.0150 -1.3496
10092SOL    HW230655   1.750   1.669   2.312  0.4358 -1.6270 -0.1731
10093SOL     OW30656   2.514   4.174   4.512  0.2397  0.0240  0.0439
10093SOL    HW130657   2.515   4.163   4.417 -1.3684  0.2213 -0.0330
10093SOL    HW230658   2.445   4.115   4.542  0.2985  0.4354  1.0185
10094SOL     OW30659   0.079   1.784   6.059  0.0663 -0.0866  0.1355
10094SOL    HW130660   0.059   1.859   6.116 -0.3632  0.0175 -0.1428
10094SOL    HW230661   0.109   1.824   5.977 -0.8167 -0.1983 -0.2510
10095SOL     OW30662   2.157   3.475   6.764 -0.0447 -0.1535 -0.0068
10095SOL    HW130663   2.206   3.557   6.755 -1.2774  0.6776  0.6389
10095SOL    HW230664   2.076   3.499   6.808 -0.6286 -1.6598 -0.1759
10096SOL     OW30665   1.982   3.766   0.740  0.2719 -0.0910  0.4299
10096SOL    HW130666   1.907   3.713   0.766  0.6315 -1.0963 -0.5079
10096SOL    HW230667   2.039   3.766   0.817  0.3912 -1.3182  0.3638
10097SOL     OW30668   1.502   6.716   2.227  0.1045  0.0760  0.2418
10097SOL    HW130669   1.420   6.717   2.178 -1.3019 -1.7351  2.3375
10097SOL    HW230670   1.560   6.659   2.177  0.2605  1.6122 -1.4153
10098SOL     OW30671   0.281   2.583   5.417 -0.2740 -0.1620  0.0373
10098SOL    HW130672   0.239   2.626   5.342  0.9113  1.7464  0.3880
10098SOL    HW230673   0.375   2.588   5.398  0.0019 -0.4057  1.2461
10099SOL     OW30674   1.687   0.330   4.128 -0.2130  0.1185 -0.4179
10099SOL    HW130675   1.651   0.347   4.215  2.0773  1.8763  0.2912
10099SOL    HW230676   1.777   0.362   4.133  1.3139 -3.3714 -2.2381
10100SOL     OW30677   6.182   1.685   0.091  0.1182  0.0415 -0.2119
10100SOL    HW130678   6.212   1.773   0.068 -1.8039  0.6436 -0.6256
10100SOL    HW230679   6.143   1.651   0.010 -0.7644 -0.4789  0.4078
10101SOL     OW30680   1.463   6.530   3.267 -0.0585 -0.3342 -0.1942
10101SOL    HW130681   1.398   6.551   3.334  0.1976  1.1623 -0.3951
10101SOL    HW230682   1.449   6.596   3.199  0.9333 -0.6921 -0.7559
10102SOL     OW30683   4.940   5.383   4.645 -0.1802 -0.2053  0.5471
10102SOL    HW130684   5.033   5.406   4.648  0.5685 -2.7768  0.3305
10102SOL    HW230685   4.924   5.359   4.554 -0.3085 -2.1944  1.0364
10103SOL     OW30686   2.200   5.384   1.633  0.6506  0.3013 -0.1265
10103SOL    HW130687   2.243   5.462   1.599  0.0472  1.2039  1.1111
10103SOL    HW230688   2.111   5.413   1.654 -0.4131 -1.3483 -1.9887
10104SOL     OW30689   5.069   3.201   6.620 -0.3676 -0.3554 -0.3511
10104SOL    HW130690   5.068   3.106   6.629 -0.5951 -0.2546  0.9967
10104SOL    HW230691   5.073   3.233   6.711 -1.9371  0.9313 -0.6893
10105SOL     OW30692   4.057   5.679   6.238  0.0099  0.1621 -0.2306
10105SOL    HW130693   4.084   5.759   6.283 -1.6500 -0.6036  2.3050
10105SOL    HW230694   4.112   5.611   6.275  0.7962 -0.0642 -1.7354
10106SOL     OW30695   6.225   1.392   3.743 -0.2756 -0.1605 -0.1977
10106SOL    HW130696   6.313   1.380   3.706 -0.1978  0.7989 -0.3383
10106SOL    HW230697   6.241   1.427   3.830 -0.4525 -2.6335  0.9127
10107SOL     OW30698   0.212   6.503   0.454 -0.3509 -0.2053 -0.1958
10107SOL    HW130699   0.219   6.592   0.488  0.0211 -0.7643  1.2489
10107SOL    HW230700   0.300   6.466   0.465 -0.4981 -0.7525 -0.8019
10108SOL     OW30701   1.325   1.560   2.870  0.3360  0.3721 -0.0837
10108SOL    HW130702   1.271   1.505   2.927 -1.9063  1.4182 -1.0756
10108SOL    HW230703   1.339   1.507   2.792 -0.4372  0.5600 -0.3649
10109SOL     OW30704   0.556   0.219   1.552  0.2363 -0.0803  0.6103
10109SOL    HW130705   0.621   0.273   1.507  0.0394  0.7444  1.2785
10109SOL    HW230706   0.547   0.141   1.497  0.5469  0.5541 -0.3662
10110SOL     OW30707   2.234   0.331   4.889 -0.0567  0.2390  0.0208
10110SOL    HW130708   2.328   0.341   4.901  0.5307 -1.7932 -2.3197
10110SOL    HW230709   2.218   0.358   4.799 -1.6795  0.1281  0.2449
10111SOL     OW30710   5.142   6.725   1.251 -0.2363  0.2464  0.0584
10111SOL    HW130711   5.222   6.771   1.278  1.1795 -1.5974 -0.7132
10111SOL    HW230712   5.159   6.634   1.274 -1.6345 -0.3627 -1.1964
10112SOL     OW30713   1.323   0.706   6.674  0.2123 -0.0020  0.2816
10112SOL    HW130714   1.281   0.620   6.668  1.6009 -0.9001  2.2990
10112SOL    HW230715   1.415   0.686   6.693  0.1492  1.8834  3.1509
10113SOL     OW30716   0.960   6.226   3.183 -0.3261  0.2267 -0.6198
10113SOL    HW130717   0.938   6.140   3.219 -1.0020  0.7753  0.3615
10113SOL    HW230718   1.022   6.263   3.246  0.0474  0.4192 -1.0931
10114SOL     OW30719   1.026   6.715   5.775 -0.4134  0.1256 -0.4230
10114SOL    HW130720   1.045   6.622   5.762 -2.5885 -0.1108 -2.4907
10114SOL    HW230721   0.945   6.717   5.826 -0.9197  0.8563 -1.2349
10115SOL     OW30722   2.499   5.163   4.675  0.1149 -0.2138  0.3561
10115SOL    HW130723   2.488   5.256   4.657  2.0374  0.1709  0.9179
10115SOL    HW230724   2.421   5.139   4.726 -0.2293  1.1702  0.5241
10116SOL     OW30725   0.220   2.826   2.790  0.6825  0.1862  0.0640
10116SOL    HW130726   0.213   2.913   2.749 -2.2533 -0.0687 -0.1867
10116SOL    HW230727   0.160   2.771   2.740  1.0223 -1.5189  1.4350
10117SOL     OW30728   2.090   5.602   1.063  0.1694 -0.6163  0.6717
10117SOL    HW130729   2.088   5.630   0.971  0.2280  0.6608  1.0442
10117SOL    HW230730   2.170   5.550   1.070  1.1058  0.7348  0.3841
10118SOL     OW30731   3.094   2.844   4.009 -0.7287 -0.0205 -0.0408
10118SOL    HW130732   3.078   2.801   4.093 -1.3843 -0.7470 -0.5264
10118SOL    HW230733   3.036   2.920   4.010 -1.1759 -0.3541 -0.0721
10119SOL     OW30734   1.486   3.623   2.930  0.1522  0.7369 -0.5044
10119SOL    HW130735   1.479   3.707   2.884  0.4859  0.8987 -0.2652
10119SOL    HW230736   1.458   3.558   2.866 -2.3104  1.2198 -0.0172
10120SOL     OW30737   0.187   4.777   2.374 -0.0804  0.0867 -0.0810
10120SOL    HW130738   0.197   4.779   2.469 -1.9725 -0.9914  0.1822
10120SOL    HW230739   0.110   4.723   2.359  0.8848 -0.7922 -2.2940
10121SOL     OW30740   1.863   6.216   6.553  0.2801 -0.4661 -0.0435
10121SOL    HW130741   1.828   6.241   6.638  0.1243 -0.3072 -0.1518
10121SOL    HW230742   1.815   6.137   6.528  1.7412 -1.7045  0.9249
10122SOL     OW30743   3.585   4.417   4.332  0.2325 -0.5191 -0.6249
10122SOL    HW130744   3.599   4.324   4.347 -1.9638 -1.0481 -1.4310
10122SOL    HW230745   3.670   4.450   4.301  0.9995 -2.2612 -0.4683
10123SOL     OW30746   2.076   4.391   2.196  0.0314 -0.2013 -0.4402
10123SOL    HW130747   1.989   4.353   2.215 -0.0079  0.5665  1.1266
10123SOL    HW230748   2.138   4.323   2.224 -0.0454 -0.5188 -1.0184
10124SOL     OW30749   5.417   2.651   0.031 -0.0795 -0.0464  0.0162
10124SOL    HW130750   5.481   2.612  -0.028 -0.1733 -0.3375  0.1077
10124SOL    HW230751   5.359   2.579   0.055  1.4591 -0.5847  2.4841
10125SOL     OW30752   2.032   2.896   5.573  0.4577  0.0619 -0.0004
10125SOL    HW130753   1.983   2.974   5.547 -2.0621 -1.2000  0.5554
10125SOL    HW230754   2.035   2.901   5.669  1.6223  0.1978 -0.0346
10126SOL     OW30755   4.399   4.106   4.625 -0.1828  0.2961 -0.3214
10126SOL    HW130756   4.304   4.093   4.614 -0.2527  0.7060 -0.2251
10126SOL    HW230757   4.406   4.168   4.697  0.1596  0.3452 -0.3979
10127SOL     OW30758   3.130   0.133   3.863 -0.1824 -0.1836 -0.8800
10127SOL    HW130759   3.191   0.182   3.919  0.0792 -0.6214 -0.7752
10127SOL    HW230760   3.045   0.142   3.907  0.2791 -1.8050  0.4636
10128SOL     OW30761   1.863   6.511   1.429 -0.5241  0.0543  0.3541
10128SOL    HW130762   1.842   6.444   1.364  1.7220 -0.2412 -0.1653
10128SOL    HW230763   1.847   6.594   1.384 -0.1136 -0.1560 -0.2003
10129SOL     OW30764   2.361   0.446   0.652 -0.4346 -0.3228  0.2957
10129SOL    HW130765   2.279   0.493   0.663 -1.2176 -1.7909  0.8935
10129SOL    HW230766   2.389   0.425   0.741  0.7028  0.3057  0.1112
10130SOL     OW30767   0.261   6.615   5.477 -0.0550 -0.2383  0.4480
10130SOL    HW130768   0.287   6.551   5.411 -1.8346  0.1692 -0.6788
10130SOL    HW230769   0.335   6.676   5.480  0.0160 -0.1966 -1.2404
10131SOL     OW30770   6.001   2.692   2.777 -0.3718 -0.4415  0.8936
10131SOL    HW130771   5.997   2.780   2.741  0.2927 -0.8258 -0.1749
10131SOL    HW230772   5.939   2.642   2.724  0.2443 -0.9020  0.5945
10132SOL     OW30773   6.439   6.396   5.231  0.0587  0.5003 -0.4543
10132SOL    HW130774   6.474   6.329   5.171  3.2625  0.2144  1.5172
10132SOL    HW230775   6.347   6.372   5.242  0.4747 -2.0741 -1.7756
10133SOL     OW30776   0.560   2.283   2.821  0.3306 -0.2081  0.8344
10133SOL    HW130777   0.598   2.232   2.749 -0.7017  0.8438 -0.4823
10133SOL    HW230778   0.487   2.229   2.852  0.6166 -0.5444  0.9311
10134SOL     OW30779   5.528   4.134   0.660 -0.4971  0.0546 -0.4605
10134SOL    HW130780   5.600   4.158   0.720 -0.9640 -0.3211  0.2686
10134SOL    HW230781   5.475   4.072   0.710 -1.9146  1.1125 -0.5906
10135SOL     OW30782   0.567   5.590   4.754 -0.6807  0.4906 -0.2682
10135SOL    HW130783   0.488   5.603   4.807  0.2397  1.8082  0.8662
10135SOL    HW230784   0.534   5.573   4.666 -2.2557 -1.0064  0.5519
10136SOL     OW30785   4.762   2.456   5.748  0.4342  0.5321 -0.4280
10136SOL    HW130786   4.822   2.400   5.700 -0.5024 -0.7090 -0.1957
10136SOL    HW230787   4.730   2.519   5.684  1.0548  0.4330 -0.8343
10137SOL     OW30788   0.321   4.795   3.072 -0.2189  0.3732  0.5637
10137SOL    HW130789   0.338   4.717   3.018  2.5120  1.1701  0.1014
10137SOL    HW230790   0.374   4.780   3.151  0.6357  1.8842  0.3077
10138SOL     OW30791   3.924   3.181   5.491 -0.2718 -0.0090  0.1955
10138SOL    HW130792   3.884   3.178   5.578 -0.3131 -0.9348  0.1509
10138SOL    HW230793   3.951   3.091   5.473 -1.3609 -0.0870 -1.2577
10139SOL     OW30794   5.046   5.241   5.461 -0.2040  0.0599 -0.5486
10139SOL    HW130795   5.070   5.311   5.400  0.3452  0.3186 -0.0387
10139SOL    HW230796   5.112   5.173   5.447  0.4944  0.5229  0.4307
10140SOL     OW30797   2.402   1.235   1.601  0.0607 -0.7762  0.0998
10140SOL    HW130798   2.331   1.276   1.551 -1.7178 -0.9974  2.2853
10140SOL    HW230799   2.408   1.287   1.681  2.5139 -0.6894 -0.0598
10141SOL     OW30800   1.516   2.904   1.655 -0.1510  0.3905  0.1862
10141SOL    HW130801   1.573   2.969   1.696 -1.7750  1.3709  0.9853
10141SOL    HW230802   1.502   2.839   1.724 -0.0036  0.1560 -0.0067
10142SOL     OW30803   2.181   5.204   6.523  0.4511  0.1018  0.2123
10142SOL    HW130804   2.202   5.291   6.489  1.2489 -0.4231 -0.7153
10142SOL    HW230805   2.131   5.162   6.453  0.8364 -0.4903  0.2835
10143SOL     OW30806   3.238   0.944   4.202 -0.2344  0.5603  0.5312
10143SOL    HW130807   3.309   0.899   4.247  0.4264  1.2037  0.1494
10143SOL    HW230808   3.275   0.967   4.117  0.0416  3.2852  1.2935
10144SOL     OW30809   4.990   1.372   2.838 -0.4315 -0.5783  0.1852
10144SOL    HW130810   5.032   1.318   2.905 -1.2715 -0.3129  0.9486
10144SOL    HW230811   5.046   1.363   2.761 -0.0536 -1.7912  0.5801
10145SOL     OW30812   4.556   3.936   6.243 -0.3199  0.3725 -0.1083
10145SOL    HW130813   4.549   3.886   6.162 -1.8726 -0.3109  0.4095
10145SOL    HW230814   4.527   4.024   6.219  0.6992  0.5813 -0.6203
10146SOL     OW30815   6.603   4.924   1.607 -0.3320  0.3050 -0.1596
10146SOL    HW130816   6.605   4.849   1.548  0.3046 -1.3484  1.8400
10146SOL    HW230817   6.513   4.926   1.640  0.1817 -1.0527  1.4724
10147SOL     OW30818   3.935   4.725   2.328 -0.3971  0.1019  0.1177
10147SOL    HW130819   3.894   4.799   2.282  0.5401 -0.5290 -1.8344
10147SOL    HW230820   4.013   4.705   2.276 -1.1111 -2.8614  0.0139
10148SOL     OW30821   4.422   2.573   2.650  0.2544  0.4095  0.4178
10148SOL    HW130822   4.384   2.506   2.707  1.4535 -1.6683 -1.0521
10148SOL    HW230823   4.437   2.648   2.707 -1.0627 -0.6018  2.1866
10149SOL     OW30824   1.172   1.616   1.357 -0.0834  0.3229  0.3659
10149SOL    HW130825   1.162   1.534   1.406  1.6595  0.3816  0.8768
10149SOL    HW230826   1.112   1.677   1.399 -0.5218 -0.3605  0.7476
10150SOL     OW30827   0.413   4.016   1.866 -0.2782  0.7169  0.1093
10150SOL    HW130828   0.487   3.986   1.813 -0.8893 -1.1290  0.2197
10150SOL    HW230829   0.442   4.006   1.957 -1.0647 -1.3957  0.2041
10151SOL     OW30830   6.183   1.678   2.458  0.3702 -0.6118  0.1100
10151SOL    HW130831   6.173   1.674   2.553 -0.9896 -2.6383 -0.0589
10151SOL    HW230832   6.098   1.708   2.426  1.2345  1.4200 -0.4618
10152SOL     OW30833   2.348   2.186   5.134 -0.2909 -0.3141  0.2898
10152SOL    HW130834   2.278   2.196   5.070  0.3362  0.2512 -0.3331
10152SOL    HW230835   2.428   2.186   5.081  0.1963 -0.6059  1.0144
10153SOL     OW30836   5.039   0.202   1.269  0.4011 -0.0460 -0.0042
10153SOL    HW130837   4.970   0.235   1.326  0.4156  0.1327 -0.0892
10153SOL    HW230838   5.104   0.165   1.329 -0.1023 -0.8697  0.0417
10154SOL     OW30839   6.069   4.165   2.727 -0.0288  0.2825  0.3291
10154SOL    HW130840   6.144   4.217   2.698 -0.2263  1.1195  1.2878
10154SOL    HW230841   6.103   4.113   2.800  0.1287 -0.8592 -0.5262
10155SOL     OW30842   2.877   5.449   5.558  0.0641  0.3181  0.0742
10155SOL    HW130843   2.965   5.435   5.521  0.3155  3.0481 -0.5972
10155SOL    HW230844   2.821   5.464   5.482 -0.5782  0.4924  0.5743
10156SOL     OW30845   6.585   6.108   1.224 -0.3240  0.3584  0.7225
10156SOL    HW130846   6.535   6.173   1.175 -0.9286 -0.6091  0.0144
10156SOL    HW230847   6.673   6.146   1.232 -0.3971  0.8363 -0.5295
10157SOL     OW30848   0.370   1.187   1.556 -0.1541 -0.3024 -0.1484
10157SOL    HW130849   0.434   1.179   1.486  0.9571  1.1156  0.6693
10157SOL    HW230850   0.363   1.098   1.592  2.1460 -0.3110  0.4035
10158SOL     OW30851   5.057   5.889   3.132 -0.4588 -0.0754 -0.3521
10158SOL    HW130852   5.036   5.952   3.063 -2.0874  1.5549  1.4953
10158SOL    HW230853   4.973   5.874   3.176  0.7073 -0.1050  1.9910
10159SOL     OW30854   6.593   2.537   6.597  0.1631 -0.3812 -0.1357
10159SOL    HW130855   6.511   2.490   6.611 -0.0374 -0.2643 -0.8417
10159SOL    HW230856   6.584   2.618   6.647 -0.2508 -0.2681 -0.3891
10160SOL     OW30857   6.434   3.538   5.858 -0.0376 -0.1168  0.1566
10160SOL    HW130858   6.432   3.596   5.783 -0.6348 -0.5329 -0.1591
10160SOL    HW230859   6.410   3.593   5.932  1.8778  0.6139  0.2891
10161SOL     OW30860   6.340   4.782   1.925  0.1200 -0.1680  0.1218
10161SOL    HW130861   6.292   4.783   2.008  2.5930 -0.9722  1.6883
10161SOL    HW230862   6.366   4.690   1.914  1.6124  0.2792 -0.3895
10162SOL     OW30863   6.546   2.911   4.351  0.0939  0.0143  0.0332
10162SOL    HW130864   6.474   2.953   4.304 -0.3857  1.7163  2.1192
10162SOL    HW230865   6.516   2.822   4.368 -0.7390  0.1465 -0.6978
10163SOL     OW30866   1.699   3.071   4.315 -0.0503  0.1544 -0.4240
10163SOL    HW130867   1.668   3.058   4.226 -2.1761  0.6724  0.1900
10163SOL    HW230868   1.747   3.154   4.312 -1.1840  0.8100 -0.8593
10164SOL     OW30869   5.331   3.708   0.867 -0.2366 -0.4659  0.2890
10164SOL    HW130870   5.385   3.630   0.855 -0.0765 -0.1982 -0.8881
10164SOL    HW230871   5.284   3.692   0.948  1.1634 -0.9738  1.0449
10165SOL     OW30872   3.290   6.196   2.270  0.0162  0.3464 -0.0581
10165SOL    HW130873   3.237   6.131   2.224 -1.1074  1.2145 -0.0295
10165SOL    HW230874   3.377   6.189   2.230 -0.4890 -0.1115 -1.1106
10166SOL     OW30875   6.691   2.917   0.519  0.3454  0.3216  0.4425
10166SOL    HW130876   6.607   2.929   0.562  0.2773  1.9337 -0.0674
10166SOL    HW230877   6.701   2.995   0.464  1.8495 -0.1790 -0.0436
10167SOL     OW30878   2.323   3.760   6.110 -0.1344  0.4802 -0.8099
10167SOL    HW130879   2.228   3.774   6.103 -0.2259  0.2918 -0.0172
10167SOL    HW230880   2.336   3.672   6.074 -0.3804  0.1503 -0.0967
10168SOL     OW30881   1.992   4.744   5.158 -0.8202 -0.3318 -0.3763
10168SOL    HW130882   1.964   4.681   5.225 -0.7435  0.0086 -0.0227
10168SOL    HW230883   1.921   4.807   5.153 -0.1257  0.5520  0.5475
10169SOL     OW30884   4.561   0.081   0.486 -0.0434 -0.5263 -0.6607
10169SOL    HW130885   4.653   0.063   0.464  0.4041 -0.1200  0.8009
10169SOL    HW230886   4.529  -0.001   0.523  0.2792 -0.1259  0.5326
10170SOL     OW30887   5.020   4.234   1.856  0.1397 -0.2898  0.5940
10170SOL    HW130888   5.073   4.170   1.808  1.4998  1.1979  0.0296
10170SOL    HW230889   5.070   4.252   1.935  0.3935  0.9594  0.1683
10171SOL     OW30890   4.953   5.317   4.381 -0.6920 -0.1015 -0.5904
10171SOL    HW130891   4.878   5.260   4.395 -0.7868 -0.1989 -1.4458
10171SOL    HW230892   5.021   5.258   4.348 -0.9260  0.3324 -1.9014
10172SOL     OW30893   1.335   1.967   6.353  0.0730 -0.5545 -0.5521
10172SOL    HW130894   1.277   2.010   6.290 -0.7012 -1.8098 -0.7300
10172SOL    HW230895   1.282   1.897   6.391  0.5817  0.0637  1.4031
10173SOL     OW30896   6.095   2.635   1.242  0.4650 -0.3108 -0.5244
10173SOL    HW130897   6.009   2.671   1.259  0.1628 -0.7287 -1.1011
10173SOL    HW230898   6.102   2.633   1.146  0.5881 -1.4661 -0.5097
10174SOL     OW30899   1.630   1.152   0.930 -0.4315 -0.0525  0.4330
10174SOL    HW130900   1.710   1.203   0.944 -0.1925 -0.1807 -0.3731
10174SOL    HW230901   1.591   1.144   1.017 -0.0486  0.8035  0.7005
10175SOL     OW30902   0.951   0.960   5.010  0.1034  0.1686 -0.1183
10175SOL    HW130903   0.920   0.870   4.996  2.1457 -0.5371 -0.3757
10175SOL    HW230904   0.961   0.996   4.922  1.6318 -0.2193 -0.1269
10176SOL     OW30905   1.551   5.388   3.380  0.0196 -0.2595 -0.0542
10176SOL    HW130906   1.644   5.412   3.377  0.1644 -0.7560  0.2769
10176SOL    HW230907   1.522   5.418   3.466 -0.6795  1.8217 -0.9698
10177SOL     OW30908   6.603   0.652   0.083  0.7798 -0.0488 -0.1249
10177SOL    HW130909   6.546   0.674   0.156  0.3700 -0.5626 -0.2837
10177SOL    HW230910   6.544   0.633   0.010  1.1884  0.6554 -0.6552
10178SOL     OW30911   3.818   4.288   1.496 -0.7391 -0.6013 -0.2225
10178SOL    HW130912   3.803   4.194   1.484  0.7537 -1.1852  1.9361
10178SOL    HW230913   3.735   4.323   1.527 -1.1695 -1.2827 -0.5920
10179SOL     OW30914   4.699   6.262   6.054 -0.5782 -0.1511  0.1088
10179SOL    HW130915   4.676   6.245   6.146 -1.5567 -0.3413 -0.1703
10179SOL    HW230916   4.795   6.267   6.055 -0.6023  0.6104  1.2719
10180SOL     OW30917   0.891   4.016   0.064 -0.1197  0.0707 -0.6604
10180SOL    HW130918   0.802   3.985   0.082  0.3118 -0.1549  1.4544
10180SOL    HW230919   0.912   4.071   0.140  1.7283 -0.3489 -0.8186
10181SOL     OW30920   6.166   3.094   5.401 -0.0949  0.1374  0.4409
10181SOL    HW130921   6.235   3.062   5.343 -0.8816 -0.0944 -0.3997
10181SOL    HW230922   6.137   3.176   5.361  0.3742  0.7614  1.3501
10182SOL     OW30923   5.891   2.248   5.226  0.2744  0.2892  0.4294
10182SOL    HW130924   5.902   2.307   5.301  0.6072 -0.3045  0.8619
10182SOL    HW230925   5.818   2.284   5.177 -0.8003 -0.0161  1.7453
10183SOL     OW30926   6.640   6.413   4.786 -0.7413  0.0650  0.0792
10183SOL    HW130927   6.595   6.489   4.823 -0.2908  0.5571 -0.3691
10183SOL    HW230928   6.569   6.362   4.746 -0.9619  0.6772 -0.3473
10184SOL     OW30929   2.881   3.432   2.297  0.5232 -0.1978 -0.3901
10184SOL    HW130930   2.846   3.513   2.335  0.9238 -0.8383  1.4936
10184SOL    HW230931   2.870   3.367   2.367  1.0215 -1.5577 -1.5370
10185SOL     OW30932   6.356   0.192   5.423 -0.4731 -0.2346 -0.3655
10185SOL    HW130933   6.396   0.165   5.506 -0.8218 -0.7333 -0.3515
10185SOL    HW230934   6.380   0.284   5.413  2.9200 -1.1077 -1.6620
10186SOL     OW30935   0.707   2.161   3.273 -0.1266 -0.1827 -0.0024
10186SOL    HW130936   0.784   2.213   3.293 -0.5038 -0.1167  1.3763
10186SOL    HW230937   0.676   2.130   3.358  0.0433 -2.6374 -0.7527
10187SOL     OW30938   3.060   1.433   1.695 -0.3499  0.2559 -0.1229
10187SOL    HW130939   3.080   1.423   1.602 -0.7038  1.5569 -0.3638
10187SOL    HW230940   3.047   1.527   1.706 -2.2238 -0.0803  0.8592
10188SOL     OW30941   3.138   3.970   3.160  0.4111 -0.0565  0.0747
10188SOL    HW130942   3.046   3.983   3.134 -0.0624 -1.9814  0.5720
10188SOL    HW230943   3.155   4.038   3.224 -0.9607 -0.1873  0.6116
10189SOL     OW30944   1.582   4.084   4.237 -0.1719 -0.1498 -0.1188
10189SOL    HW130945   1.491   4.113   4.246 -0.5059 -0.7387 -1.4200
10189SOL    HW230946   1.633   4.165   4.241 -0.8063  0.2535 -0.0690
10190SOL     OW30947   4.666   2.000   1.444 -0.0662 -0.4086 -0.2757
10190SOL    HW130948   4.674   1.924   1.386 -0.6189  0.1132 -1.0646
10190SOL    HW230949   4.626   1.966   1.524 -1.0842 -0.8125 -0.9369
10191SOL     OW30950   3.155   1.842   3.886 -0.4877 -0.0424  0.2456
10191SOL    HW130951   3.094   1.768   3.881 -0.8204  0.1487  1.3189
10191SOL    HW230952   3.164   1.860   3.979  0.1503  0.8161  0.0305
10192SOL     OW30953   2.709   2.217   5.494  0.0976  0.0784  0.2857
10192SOL    HW130954   2.699   2.197   5.401  0.0580 -0.0685  0.3211
10192SOL    HW230955   2.629   2.183   5.535  1.5549 -2.9237  0.8758
10193SOL     OW30956   3.089   3.117   2.955  0.0496  0.8093 -0.2812
10193SOL    HW130957   3.027   3.067   3.008  1.5874 -0.2002  0.6624
10193SOL    HW230958   3.135   3.172   3.018 -0.1024  1.7999 -1.0119
10194SOL     OW30959   5.192   3.833   6.272 -0.5122  0.3346 -0.5754
10194SOL    HW130960   5.166   3.743   6.293 -0.0489  0.1673 -0.6994
10194SOL    HW230961   5.235   3.865   6.351 -2.4653  1.1737  0.2185
10195SOL     OW30962   0.864   0.402   6.370  0.0255 -0.3263 -0.4854
10195SOL    HW130963   0.847   0.405   6.464 -3.4870  1.2165 -1.0014
10195SOL    HW230964   0.912   0.482   6.352  1.1059 -0.8423  0.0096
10196SOL     OW30965   1.706   5.110   5.070  0.6138  0.1334  0.3691
10196SOL    HW130966   1.749   5.069   5.146 -0.4912  0.9044  1.4406
10196SOL    HW230967   1.625   5.146   5.105 -0.0464  0.2868 -1.2559
10197SOL     OW30968   2.906   0.830   5.413  0.1153 -0.1049 -0.0186
10197SOL    HW130969   2.858   0.777   5.476  0.6405  0.5444  0.9542
10197SOL    HW230970   2.993   0.791   5.410  0.6572  0.9658  1.0776
10198SOL     OW30971   6.452   3.980   0.425 -0.3430 -0.1550 -0.4156
10198SOL    HW130972   6.397   3.986   0.503  0.1643  0.1165 -0.0736
10198SOL    HW230973   6.542   3.979   0.458 -0.1280 -0.2899 -0.9825
10199SOL     OW30974   3.257   6.053   3.573  0.0183 -0.1559 -0.1701
10199SOL    HW130975   3.322   5.992   3.538  1.4538 -0.0865  2.0948
10199SOL    HW230976   3.235   6.110   3.500  1.5321 -1.0187 -1.3628
10200SOL     OW30977   4.020   3.474   3.527  0.0469  0.0481 -0.0860
10200SOL    HW130978   4.067   3.495   3.608  1.9988  0.0806 -1.1508
10200SOL    HW230979   3.984   3.558   3.498  1.7938  0.6499 -0.6774
10201SOL     OW30980   2.619   3.731   1.374  0.5389 -0.7158 -0.1247
10201SOL    HW130981   2.541   3.785   1.389  1.7426  1.0444  0.2134
10201SOL    HW230982   2.664   3.730   1.458  2.0556  0.3500 -0.8593
10202SOL     OW30983   3.719   6.268   3.617 -0.3764  0.3510 -0.1058
10202SOL    HW130984   3.630   6.282   3.585  0.1345  0.0754 -1.7039
10202SOL    HW230985   3.732   6.174   3.611  0.7575  0.5948 -1.9671
10203SOL     OW30986   2.008   4.037   4.443 -0.0936  0.0846  0.2853
10203SOL    HW130987   1.952   4.023   4.519 -1.2572 -2.2454 -0.8786
10203SOL    HW230988   1.968   4.111   4.397 -1.5049 -0.7242  0.1520
10204SOL     OW30989   3.832   6.551   5.487  0.0062  0.2912  0.5411
10204SOL    HW130990   3.774   6.590   5.422  0.7818  2.3493  0.9870
10204SOL    HW230991   3.785   6.475   5.519 -0.9796  0.0116 -1.4303
10205SOL     OW30992   5.435   3.348   4.086  0.0255  0.2779 -1.0123
10205SOL    HW130993   5.527   3.325   4.094 -0.1433 -0.2142 -0.4675
10205SOL    HW230994   5.417   3.403   4.162  0.0696  1.0587 -1.5534
10206SOL     OW30995   3.334   2.276   6.494  0.1070  0.3103 -0.2001
10206SOL    HW130996   3.418   2.262   6.538 -0.4759 -0.5383  0.6842
10206SOL    HW230997   3.276   2.211   6.532 -0.3028 -0.9192 -2.7229
10207SOL     OW30998   5.959   4.283   4.239  0.4704  0.4793 -0.1361
10207SOL    HW130999   5.971   4.195   4.203 -4.2913 -0.2252 -0.7171
10207SOL    HW231000   5.978   4.274   4.332  0.8945 -0.9593 -0.3383
10208SOL     OW31001   3.108   1.602   5.634  0.1358 -0.1926 -0.2191
10208SOL    HW131002   3.159   1.535   5.680  0.1569  0.0605  0.1253
10208SOL    HW231003   3.017   1.574   5.643  0.0249  0.5357  1.1005
10209SOL     OW31004   3.101   1.943   3.578 -0.2245 -0.0367 -0.0514
10209SOL    HW131005   3.148   2.017   3.618  2.0575 -0.7791 -1.1770
10209SOL    HW231006   3.032   1.984   3.526  0.2468  1.2293  0.2816
10210SOL     OW31007   6.094   4.172   4.812 -0.4964  0.0139  0.1299
10210SOL    HW131008   6.114   4.251   4.862  0.2779 -0.8650  1.2548
10210SOL    HW231009   6.001   4.156   4.829 -0.1907 -0.4078  1.5121
10211SOL     OW31010   3.506   6.734   5.614 -0.2780  0.0440  0.1170
10211SOL    HW131011   3.587   6.761   5.656 -0.8122  0.3490  0.9589
10211SOL    HW231012   3.478   6.811   5.564  0.4510 -0.3755 -0.9916
10212SOL     OW31013   0.211   3.989   6.797 -0.5558 -0.1610 -0.4998
10212SOL    HW131014   0.192   4.027   6.883  0.9313  0.4133 -0.3938
10212SOL    HW231015   0.238   4.064   6.744 -0.4011 -0.6706 -1.1418
10213SOL     OW31016   4.856   4.588   1.410 -0.2587  0.1757 -0.1562
10213SOL    HW131017   4.936   4.593   1.358 -0.9404 -1.3189 -1.4628
10213SOL    HW231018   4.862   4.505   1.456  0.3602  1.5102  2.3222
10214SOL     OW31019   2.833   3.176   4.293  0.8078 -0.3085  0.4815
10214SOL    HW131020   2.878   3.147   4.372 -1.8611 -2.3703  1.3958
10214SOL    HW231021   2.849   3.106   4.229 -0.1077 -0.5143  0.4603
10215SOL     OW31022   0.804   5.734   1.593  0.0900  0.5150  0.3987
10215SOL    HW131023   0.823   5.715   1.501  0.5287 -0.7338  0.7295
10215SOL    HW231024   0.885   5.770   1.628  0.7439 -1.3810  0.9046
10216SOL     OW31025   5.741   1.735   1.811 -0.2339 -0.1718 -0.5691
10216SOL    HW131026   5.813   1.797   1.819 -1.2696  1.1005 -0.8009
10216SOL    HW231027   5.727   1.704   1.900  0.4792 -0.3089 -0.4948
10217SOL     OW31028   5.205   5.901   4.729 -0.2685 -0.3842 -0.0796
10217SOL    HW131029   5.160   5.864   4.805 -1.8414 -0.5922 -1.0596
10217SOL    HW231030   5.181   5.842   4.657 -0.9488  1.2413 -1.2380
10218SOL     OW31031   5.197   6.415   0.329  0.1356 -0.9319 -0.2298
10218SOL    HW131032   5.198   6.394   0.423 -2.0684  0.4828  0.1882
10218SOL    HW231033   5.103   6.418   0.307  0.3846  2.9528 -1.4360
10219SOL     OW31034   6.002   1.423   3.125 -0.2792 -0.5010  0.0127
10219SOL    HW131035   5.915   1.434   3.164  0.4379  1.1927  1.2761
10219SOL    HW231036   6.040   1.350   3.173 -0.1690  0.2639  1.1436
10220SOL     OW31037   4.481   2.326   3.870 -0.0438 -0.4333 -0.7997
10220SOL    HW131038   4.420   2.324   3.944 -0.1808 -0.5829 -0.9173
10220SOL    HW231039   4.531   2.407   3.883  0.1253 -0.5991 -0.3910
10221SOL     OW31040   4.381   2.693   4.609  0.5334 -0.9477  0.3037
10221SOL    HW131041   4.401   2.607   4.646 -1.4559 -2.0016 -0.8777
10221SOL    HW231042   4.306   2.677   4.552 -1.9788  2.1372  2.4393
10222SOL     OW31043   0.685   5.748   1.089  0.2451  0.0078  0.2964
10222SOL    HW131044   0.594   5.753   1.061  0.3324 -0.9699 -0.2167
10222SOL    HW231045   0.736   5.757   1.009  0.6107  0.7278  0.6024
10223SOL     OW31046   4.253   1.293   4.084  0.5799  0.2158 -0.3212
10223SOL    HW131047   4.158   1.286   4.071  0.3757  0.7667  0.7283
10223SOL    HW231048   4.291   1.234   4.019 -0.5895 -2.2406  1.0896
10224SOL     OW31049   5.059   5.407   6.449 -0.3953  1.2979 -0.0813
10224SOL    HW131050   4.984   5.448   6.492 -0.1651  1.5965  0.0427
10224SOL    HW231051   5.066   5.320   6.489  0.2623  1.8360  1.0273
10225SOL     OW31052   0.441   6.143   0.729  0.6115 -0.2105  0.4246
10225SOL    HW131053   0.390   6.215   0.767  0.1829  0.1504 -0.7897
10225SOL    HW231054   0.490   6.107   0.803 -2.9090 -1.9307  2.1957
10226SOL     OW31055   1.461   3.111   2.576 -0.0676  0.1703  0.3215
10226SOL    HW131056   1.471   3.042   2.642 -0.2596 -0.2026 -0.0358
10226SOL    HW231057   1.392   3.080   2.518  1.0439 -0.1724 -0.8766
10227SOL     OW31058   5.055   6.698   5.525  0.4740  0.5466 -0.0476
10227SOL    HW131059   5.084   6.743   5.605 -0.6037  1.5492 -0.1968
10227SOL    HW231060   4.973   6.656   5.550 -0.0331  1.1312 -0.7052
10228SOL     OW31061   5.520   2.034   2.131  0.4245  0.4927 -0.1543
10228SOL    HW131062   5.615   2.027   2.127  0.4363  1.1270 -1.6311
10228SOL    HW231063   5.503   2.128   2.133 -0.1705  0.3786  0.3419
10229SOL     OW31064   4.860   4.487   6.695  0.1131 -0.2037  0.4815
10229SOL    HW131065   4.873   4.499   6.601  1.2718  0.1253  0.6776
10229SOL    HW231066   4.932   4.534   6.736  0.2242 -1.2335  1.5072
10230SOL     OW31067   5.350   5.227   3.463  0.2296  0.1879  0.2093
10230SOL    HW131068   5.375   5.256   3.376  0.8841 -0.2927  0.2325
10230SOL    HW231069   5.255   5.231   3.464  0.2596  1.5857 -0.0481
10231SOL     OW31070   3.824   6.146   3.288  0.0618 -0.4985  0.5091
10231SOL    HW131071   3.891   6.123   3.225 -0.0346 -0.9153  0.5547
10231SOL    HW231072   3.745   6.160   3.236 -0.1404 -1.3276  0.5708
10232SOL     OW31073   4.004   1.285   1.783  0.4020  0.5242  0.1876
10232SOL    HW131074   3.929   1.306   1.840 -1.0963  0.2264 -1.5895
10232SOL    HW231075   3.970   1.295   1.694  2.1944 -0.6477 -0.6819
10233SOL     OW31076   1.060   3.569   2.947  0.3308 -0.1485  0.4135
10233SOL    HW131077   0.965   3.578   2.952  0.3765  0.4284  0.2745
10233SOL    HW231078   1.082   3.515   3.023  0.0517  1.0584  1.3975
10234SOL     OW31079   4.399   0.846   1.973 -0.2521  0.1725 -0.5451
10234SOL    HW131080   4.428   0.775   2.030 -1.2407  2.0278  2.5642
10234SOL    HW231081   4.457   0.919   1.994 -2.2684  1.6876  0.1765
10235SOL     OW31082   1.776   6.086   0.959 -0.1633  0.1252  0.5819
10235SOL    HW131083   1.844   6.018   0.964  1.0680  1.1693 -0.8133
10235SOL    HW231084   1.698   6.039   0.932  0.5507 -0.8301  0.1016
10236SOL     OW31085   5.757   0.140   5.315 -0.0517 -0.5388 -0.2326
10236SOL    HW131086   5.804   0.220   5.336  0.1527 -0.3883 -1.2026
10236SOL    HW231087   5.803   0.071   5.362 -0.3264 -0.0737  0.7398
10237SOL     OW31088   6.318   0.755   2.921 -0.5365 -0.6670 -0.1526
10237SOL    HW131089   6.293   0.736   2.830 -0.9604 -1.2335  0.0737
10237SOL    HW231090   6.412   0.768   2.918 -0.8776  2.2477 -1.1604
10238SOL     OW31091   0.286   2.229   5.383  0.4963  0.6751  0.0153
10238SOL    HW131092   0.223   2.268   5.323  0.3723 -0.5883 -0.7217
10238SOL    HW231093   0.370   2.234   5.337  0.4261 -0.1675 -0.2248
10239SOL     OW31094   6.183   6.340   1.871  0.2502 -0.4172  0.1909
10239SOL    HW131095   6.232   6.281   1.813 -0.1620  0.2578 -0.8824
10239SOL    HW231096   6.142   6.282   1.935  2.4548 -0.9945  1.1553
10240SOL     OW31097   4.664   6.470   1.763  0.1790  0.4142 -0.3289
10240SOL    HW131098   4.741   6.476   1.707  0.4052  0.8865  0.0267
10240SOL    HW231099   4.597   6.523   1.719 -0.3724 -1.0309 -1.3068
10241SOL     OW31100   2.230   1.417   5.904 -0.2881 -0.5642  0.0095
10241SOL    HW131101   2.234   1.510   5.929 -3.0091 -0.0114 -1.1636
10241SOL    HW231102   2.163   1.380   5.962  0.3584 -1.6783  0.0657
10242SOL     OW31103   6.694   2.720   4.969 -0.1615  0.0634 -0.0359
10242SOL    HW131104   6.702   2.637   5.017 -1.7912  0.6285  1.2900
10242SOL    HW231105   6.713   2.787   5.034 -0.9345  0.8086 -0.5562
10243SOL     OW31106   5.472   5.352   3.239 -1.0436 -0.9582  0.0973
10243SOL    HW131107   5.464   5.269   3.192 -1.4924 -0.3467 -0.9528
10243SOL    HW231108   5.557   5.386   3.214 -1.3939 -0.5055 -0.5048
10244SOL     OW31109   6.468   3.977   0.133  0.0197 -0.5223 -0.1787
10244SOL    HW131110   6.451   3.961   0.226  0.6166 -1.1684 -0.1711
10244SOL    HW231111   6.548   4.030   0.133 -0.9681  1.0270 -0.2726
10245SOL     OW31112   5.872   3.944   2.374 -0.2363 -0.1811 -0.0118
10245SOL    HW131113   5.894   4.031   2.408 -0.7574 -0.8313  2.1334
10245SOL    HW231114   5.950   3.892   2.388 -0.2869 -0.3402 -0.3072
10246SOL     OW31115   6.092   1.005   4.461  0.0704  0.2202 -0.2207
10246SOL    HW131116   6.154   0.945   4.420 -0.0529 -1.0372  1.3307
10246SOL    HW231117   6.020   1.013   4.398  0.7447 -0.1318 -1.0446
10247SOL     OW31118   5.393   3.783   4.318 -0.1333  0.1296  0.1235
10247SOL    HW131119   5.431   3.847   4.258 -0.7282 -1.5570 -2.2060
10247SOL    HW231120   5.454   3.781   4.392  0.4266  2.5969 -0.1846
10248SOL     OW31121   0.396   4.731   1.250  0.1611  0.5712  0.6654
10248SOL    HW131122   0.379   4.773   1.334  1.5608  1.2908  0.6281
10248SOL    HW231123   0.310   4.707   1.217 -0.5230  1.5765  1.6394
10249SOL     OW31124   5.284   3.280   1.957 -0.7796 -0.0830 -0.6083
10249SOL    HW131125   5.211   3.229   1.921 -1.0095  0.9448 -1.6640
10249SOL    HW231126   5.307   3.341   1.887  0.4122  0.3151  0.1064
10250SOL     OW31127   4.168   1.387   6.198  0.3096 -0.5110 -0.4877
10250SOL    HW131128   4.104   1.452   6.169  0.8906  0.5779  0.5642
10250SOL    HW231129   4.115   1.310   6.222 -0.4797 -0.0844 -0.8284
10251SOL     OW31130   2.883   6.134   4.999  0.8960 -0.1458 -0.1458
10251SOL    HW131131   2.941   6.103   4.930 -1.8978 -0.6753 -2.4154
10251SOL    HW231132   2.849   6.217   4.966 -0.0452 -0.1003  0.8757
10252SOL     OW31133   3.645   3.146   1.371  0.4757 -0.1185 -0.3286
10252SOL    HW131134   3.577   3.213   1.368 -0.3120 -0.9272 -1.6065
10252SOL    HW231135   3.646   3.117   1.462  0.7688  1.5205  0.2302
10253SOL     OW31136   0.978   0.196   3.090 -0.0213 -0.0894  0.0556
10253SOL    HW131137   1.034   0.273   3.078  0.7847 -0.9087 -1.6529
10253SOL    HW231138   0.919   0.197   3.015  0.8280 -1.8044 -0.6761
10254SOL     OW31139   4.430   5.253   1.453  0.3174 -0.0268  0.2710
10254SOL    HW131140   4.336   5.240   1.439 -0.1039  3.3858 -0.9423
10254SOL    HW231141   4.447   5.212   1.538 -2.0264 -1.5790  0.0857
10255SOL     OW31142   0.161   5.631   0.051 -0.0379 -0.7659 -0.3580
10255SOL    HW131143   0.179   5.578   0.130 -1.7176  0.1223  0.6707
10255SOL    HW231144   0.072   5.606   0.025 -0.3757  0.6273 -0.5969
10256SOL     OW31145   1.535   2.170   4.135 -0.2518  0.2109 -0.1684
10256SOL    HW131146   1.587   2.199   4.210 -0.1666  0.5883 -0.3718
10256SOL    HW231147   1.582   2.202   4.058 -0.3679 -0.1266 -0.3861
10257SOL     OW31148   0.811   6.471   1.747 -0.4680 -0.7229  0.1984
10257SOL    HW131149   0.892   6.481   1.697 -0.7876  0.4606 -0.1068
10257SOL    HW231150   0.784   6.381   1.730 -0.8147 -0.2466 -2.1813
10258SOL     OW31151   4.277   1.038   6.615  0.3106  0.6581 -0.4820
10258SOL    HW131152   4.272   1.032   6.519  2.1760  2.4717 -0.7659
10258SOL    HW231153   4.356   0.989   6.638  0.9306  1.7963 -0.1154
10259SOL     OW31154   5.013   0.570   4.968 -0.1883 -0.1748 -0.1218
10259SOL    HW131155   4.981   0.548   4.881 -0.4471  1.2194 -0.4087
10259SOL    HW231156   5.010   0.488   5.017 -1.3834 -0.6958 -1.0158
10260SOL     OW31157   1.399   1.504   4.095  0.2547 -0.4237 -0.4624
10260SOL    HW131158   1.362   1.433   4.043 -0.2791  0.0714 -0.7797
10260SOL    HW231159   1.380   1.583   4.044  0.9200 -0.0640 -0.1610
10261SOL     OW31160   3.569   5.992   3.588 -0.1314  0.6313  0.0855
10261SOL    HW131161   3.568   6.030   3.676 -1.8418  0.9783 -0.0320
10261SOL    HW231162   3.591   5.900   3.601 -1.1825  0.4887  0.9923
10262SOL     OW31163   0.165   5.105   1.520  0.1708  0.8776 -0.0312
10262SOL    HW131164   0.251   5.066   1.506  0.2656  0.6126  1.1660
10262SOL    HW231165   0.182   5.183   1.572 -0.3472  0.4887  0.7563
10263SOL     OW31166   4.731   6.225   2.764  0.6527 -0.3072 -0.0342
10263SOL    HW131167   4.778   6.308   2.777  0.3784 -0.2945  1.0397
10263SOL    HW231168   4.691   6.208   2.850  0.5856 -1.4790 -0.2924
10264SOL     OW31169   5.306   4.740   1.878 -0.0260  0.0024  0.0899
10264SOL    HW131170   5.267   4.758   1.963 -2.5002  1.0866 -1.1701
10264SOL    HW231171   5.259   4.663   1.846  0.3272  0.0823 -0.6508
10265SOL     OW31172   5.973   5.278   2.246 -0.1641  0.0550 -0.4460
10265SOL    HW131173   6.055   5.256   2.292  0.3194  0.1502 -1.2393
10265SOL    HW231174   5.912   5.210   2.272  0.6454 -0.9592 -1.1110
10266SOL     OW31175   4.165   2.876   3.521 -0.8831  0.7675 -0.2584
10266SOL    HW131176   4.188   2.968   3.510 -1.9685  1.0372 -0.4136
10266SOL    HW231177   4.201   2.853   3.607  0.9520  0.8035 -0.9613
10267SOL     OW31178   4.058   1.741   5.202  0.5597 -0.1340 -0.0670
10267SOL    HW131179   4.079   1.678   5.133 -0.0737 -0.5757  0.1398
10267SOL    HW231180   4.131   1.802   5.201  1.1568 -0.8391 -0.3026
10268SOL     OW31181   5.743   6.678   0.130  0.3244  0.1902 -0.0141
10268SOL    HW131182   5.660   6.718   0.157 -0.3292 -0.9631 -0.2347
10268SOL    HW231183   5.807   6.749   0.135 -0.7444  1.1911 -0.1770
10269SOL     OW31184   6.494   5.239   5.793 -0.0789  0.9428 -0.0374
10269SOL    HW131185   6.579   5.245   5.836  0.0596  2.4031 -0.4593
10269SOL    HW231186   6.456   5.327   5.802 -1.4815  0.3564  0.0138
10270SOL     OW31187   2.596   1.199   5.423  0.2468 -0.2040 -0.3009
10270SOL    HW131188   2.669   1.261   5.428  0.8076 -0.8211 -0.7539
10270SOL    HW231189   2.554   1.219   5.340 -0.9967  1.1130  0.5940
10271SOL     OW31190   4.979   0.712   3.677 -0.1323 -0.2334 -0.2515
10271SOL    HW131191   5.056   0.674   3.719  0.5489 -0.3677 -1.5728
10271SOL    HW231192   4.994   0.807   3.679 -0.5315 -0.1775  0.5845
10272SOL     OW31193   1.517   1.864   6.112 -0.4059  0.2542 -0.0217
10272SOL    HW131194   1.605   1.898   6.125 -0.8908  2.1320 -1.2396
10272SOL    HW231195   1.462   1.918   6.168 -0.9084 -0.2559 -0.0125
10273SOL     OW31196   1.901   3.252   5.833 -0.3343 -0.8917 -0.1869
10273SOL    HW131197   1.869   3.294   5.913 -0.0160 -0.1422 -0.4453
10273SOL    HW231198   1.841   3.282   5.764 -0.0323 -0.7502 -0.3935
10274SOL     OW31199   0.488   0.990   1.962  0.0331 -0.1642  0.3728
10274SOL    HW131200   0.439   1.049   1.904 -0.4853  1.2628  2.1705
10274SOL    HW231201   0.578   0.995   1.930  0.0307  1.7816  0.5603
10275SOL     OW31202   0.144   2.888   0.106  0.3501  0.5268  0.1313
10275SOL    HW131203   0.232   2.866   0.136 -0.6894 -3.1226  0.9463
10275SOL    HW231204   0.126   2.824   0.037 -1.7421  1.0379  0.1438
10276SOL     OW31205   2.949   0.639   3.968 -0.0499 -0.1964  0.3519
10276SOL    HW131206   3.039   0.663   3.989  0.1361 -1.3427  0.9478
10276SOL    HW231207   2.897   0.715   3.993  0.6935  0.2669  0.5071
10277SOL     OW31208   3.914   0.652   5.727  0.0868  0.1860 -0.0535
10277SOL    HW131209   3.944   0.734   5.767  0.5336 -0.2583  0.5359
10277SOL    HW231210   3.944   0.583   5.786 -1.9097 -0.3150  0.4747
10278SOL     OW31211   5.561   2.951   3.828  0.0785  0.1303 -0.2049
10278SOL    HW131212   5.477   2.916   3.801  0.5428 -0.6972 -0.6365
10278SOL    HW231213   5.576   2.915   3.916  0.0930  0.0858 -0.2259
10279SOL     OW31214   2.439   5.584   1.167 -0.0554  0.2873  0.3688
10279SOL    HW131215   2.411   5.524   1.236  0.0613 -0.7741 -0.4705
10279SOL    HW231216   2.534   5.582   1.170  0.0014  2.1177  1.7164
10280SOL     OW31217   0.200   5.767   2.606  0.3382 -0.3435  0.6169
10280SOL    HW131218   0.262   5.725   2.667 -0.3580 -0.5405  1.1960
10280SOL    HW231219   0.159   5.836   2.657 -0.2467 -0.5034  0.3681
10281SOL     OW31220   2.835   3.970   2.769 -0.0600 -0.0886  0.0633
10281SOL    HW131221   2.834   4.041   2.705 -3.3780 -0.1579 -0.1305
10281SOL    HW231222   2.849   3.891   2.717 -1.7836 -0.0440 -0.5322
10282SOL     OW31223   1.326   3.881   0.304 -0.0209 -0.5317  0.1750
10282SOL    HW131224   1.270   3.934   0.360  0.0232 -0.3425  0.0403
10282SOL    HW231225   1.266   3.822   0.258  0.0016 -1.1463  0.9122
10283SOL     OW31226   5.831   6.170   0.695  0.1164 -0.1943  0.0600
10283SOL    HW131227   5.861   6.214   0.774 -0.7734 -0.2475  0.4396
10283SOL    HW231228   5.911   6.150   0.647  0.8472 -1.7197  1.7675
10284SOL     OW31229   6.492   3.420   3.729 -0.5676 -0.6092 -0.7563
10284SOL    HW131230   6.532   3.360   3.666  0.5143 -1.2609  0.4905
10284SOL    HW231231   6.536   3.401   3.811 -1.8902  0.2684  0.1984
10285SOL     OW31232   2.300   6.259   1.045 -0.4761 -0.1978 -0.2586
10285SOL    HW131233   2.326   6.186   1.102  0.4668  0.1710 -0.2087
10285SOL    HW231234   2.221   6.294   1.086  0.7194  0.6801  1.3999
10286SOL     OW31235   6.764   4.578   2.034  0.1027 -0.2224 -0.3577
10286SOL    HW131236   6.738   4.667   2.011  0.2687 -0.6627 -2.4905
10286SOL    HW231237   6.800   4.585   2.122  0.1676  1.8133 -0.5047
10287SOL     OW31238   4.947   3.987   3.121 -0.2144  0.0504 -0.2376
10287SOL    HW131239   4.876   3.936   3.158 -1.8851  2.5206  0.2354
10287SOL    HW231240   4.925   3.996   3.029 -1.2006  1.7289  0.1171
10288SOL     OW31241   5.898   0.416   4.413 -0.0057  0.5705 -0.0916
10288SOL    HW131242   5.952   0.441   4.488  0.9132  0.3739 -0.6582
10288SOL    HW231243   5.962   0.394   4.345 -0.8103 -0.2193 -0.6109
10289SOL     OW31244   2.998   0.347   5.565 -0.0289 -0.4789  0.0833
10289SOL    HW131245   3.057   0.299   5.623  0.0225 -0.2426  0.2278
10289SOL    HW231246   2.912   0.338   5.606 -0.2541 -1.5784 -0.5966
10290SOL     OW31247   0.982   4.268   2.227  0.2425 -0.4457  0.1707
10290SOL    HW131248   1.073   4.279   2.198  0.9901 -1.7152  1.8386
10290SOL    HW231249   0.972   4.173   2.238 -0.7164 -0.2045  1.6369
10291SOL     OW31250   0.718   5.398   6.793 -0.1927  0.1057 -0.2145
10291SOL    HW131251   0.783   5.346   6.840  0.8415 -0.9459 -2.6202
10291SOL    HW231252   0.760   5.418   6.709 -2.1570  1.3040 -0.9882
10292SOL     OW31253   0.163   3.506   0.410 -0.3372 -0.5405  0.6072
10292SOL    HW131254   0.176   3.437   0.344  1.5772  0.0690  0.2763
10292SOL    HW231255   0.076   3.540   0.392 -0.1929 -0.9547 -1.1016
10293SOL     OW31256   6.620   3.824   2.541 -0.5358  0.2228  0.0127
10293SOL    HW131257   6.579   3.884   2.479 -0.2777  0.1181 -0.2641
10293SOL    HW231258   6.625   3.741   2.493  2.6661  0.9114 -1.1078
10294SOL     OW31259   2.095   0.289   1.840 -0.3002  0.4425 -0.2655
10294SOL    HW131260   2.060   0.305   1.927  0.7152  1.3605 -0.0077
10294SOL    HW231261   2.097   0.375   1.798  1.5876  0.4501 -0.2689
10295SOL     OW31262   4.114   3.281   2.027  0.1856 -0.8769  0.6279
10295SOL    HW131263   4.125   3.338   2.103  1.9487  1.1426 -1.0230
10295SOL    HW231264   4.075   3.201   2.063  0.1440  0.2992  3.4853
10296SOL     OW31265   1.521   2.339   3.344 -0.0011 -0.1522  0.0222
10296SOL    HW131266   1.586   2.350   3.274 -1.2251 -0.7759 -1.2546
10296SOL    HW231267   1.530   2.248   3.371 -1.5407 -0.8084 -1.4669
10297SOL     OW31268   4.950   5.185   0.545  0.0779 -0.0566  0.4797
10297SOL    HW131269   5.039   5.183   0.510  0.3452  0.6565  1.0840
10297SOL    HW231270   4.925   5.093   0.554 -0.0932 -0.2840 -1.7660
10298SOL     OW31271   1.259   1.153   1.312  0.0305 -0.1872  0.3566
10298SOL    HW131272   1.203   1.122   1.383  2.2957 -0.9287  1.9296
10298SOL    HW231273   1.277   1.075   1.261  0.0557 -0.0475  0.1516
10299SOL     OW31274   4.864   4.983   5.599 -0.1964  0.5784  0.2897
10299SOL    HW131275   4.950   4.950   5.573  0.4452  1.0813  1.6618
10299SOL    HW231276   4.842   5.049   5.532  0.3681  0.2711 -0.2058
10300SOL     OW31277   3.894   5.584   5.155 -0.0235  0.8161  0.2288
10300SOL    HW131278   3.957   5.616   5.221  1.6088  1.2446 -1.4562
10300SOL    HW231279   3.819   5.642   5.164  1.0716  2.2889  0.2555
10301SOL     OW31280   1.110   4.199   6.725 -0.1307 -0.3175 -0.4724
10301SOL    HW131281   1.165   4.191   6.647  0.7088 -1.7887  0.2365
10301SOL    HW231282   1.024   4.224   6.691  0.3414 -0.4310 -1.8156
10302SOL     OW31283   2.969   2.898   3.119  0.6864 -0.3624  0.2012
10302SOL    HW131284   2.899   2.833   3.119 -2.5306  2.8005 -0.5605
10302SOL    HW231285   2.991   2.911   3.211  0.2814 -1.3826  0.4528
10303SOL     OW31286   6.271   2.785   0.053  0.5546 -0.7772  0.2596
10303SOL    HW131287   6.179   2.789   0.077  0.8079 -0.0688  1.1992
10303SOL    HW231288   6.274   2.726  -0.022 -1.0242  1.1810 -1.5032
10304SOL     OW31289   3.862   1.178   5.185 -0.0575 -0.7345 -0.7456
10304SOL    HW131290   3.835   1.267   5.208 -0.6763 -0.7689 -1.2934
10304SOL    HW231291   3.885   1.137   5.268  1.1766  0.2311 -0.5788
10305SOL     OW31292   0.760   4.110   1.671  0.1631 -0.1827  0.0367
10305SOL    HW131293   0.693   4.178   1.664 -0.1893 -0.4960  0.3431
10305SOL    HW231294   0.843   4.158   1.672 -0.1468  0.3939  2.4863
10306SOL     OW31295   3.139   0.796   1.158  0.0456  0.4697 -0.3934
10306SOL    HW131296   3.065   0.836   1.112  0.1463 -0.0709 -1.0416
10306SOL    HW231297   3.112   0.705   1.171 -0.2287  0.7535  1.1651
10307SOL     OW31298   5.192   1.567   2.645  0.4559 -0.6474  0.4210
10307SOL    HW131299   5.111   1.566   2.696 -0.4433 -0.5368 -0.9383
10307SOL    HW231300   5.262   1.558   2.710 -0.7063 -3.0460  1.4753
10308SOL     OW31301   5.251   3.946   0.621  0.1950 -0.5990  0.3194
10308SOL    HW131302   5.196   3.899   0.683  0.0082 -1.8512 -0.7372
10308SOL    HW231303   5.286   3.878   0.564  0.5495  0.4691 -0.7980
10309SOL     OW31304   2.088   3.536   3.379  0.1194 -0.0889 -0.7190
10309SOL    HW131305   2.182   3.550   3.394 -0.0962  0.5472  0.0864
10309SOL    HW231306   2.083   3.505   3.288  1.2215 -1.4166 -0.3612
10310SOL     OW31307   1.949   1.977   0.668  0.6319 -0.0414 -0.0763
10310SOL    HW131308   1.919   1.922   0.741  1.1717  0.9355  0.9101
10310SOL    HW231309   1.883   2.046   0.663  1.0740  0.3929  0.0806
10311SOL     OW31310   5.294   6.700   2.467 -0.1044  0.5757 -0.3148
10311SOL    HW131311   5.316   6.636   2.399 -1.3601 -1.1583  0.8541
10311SOL    HW231312   5.363   6.766   2.460  2.6099 -2.0386 -0.0676
10312SOL     OW31313   6.844   0.765   5.196 -0.0574  0.5602 -0.2317
10312SOL    HW131314   6.846   0.717   5.279 -0.1103  0.0203 -0.5357
10312SOL    HW231315   6.867   0.855   5.220  1.0091  0.1899  0.2236
10313SOL     OW31316   5.115   1.579   5.941 -0.1463  0.2639 -0.1587
10313SOL    HW131317   5.055   1.647   5.971 -0.5245  0.2184 -0.7948
10313SOL    HW231318   5.179   1.571   6.012  0.9204  2.4626 -0.7812
10314SOL     OW31319   0.345   2.641   0.382  0.2444 -0.1173 -0.4574
10314SOL    HW131320   0.300   2.704   0.438  0.2991 -0.3361 -0.1693
10314SOL    HW231321   0.280   2.573   0.365  0.3233 -0.2039 -0.4126
10315SOL     OW31322   4.740   3.677   2.956 -0.4312  0.3951 -0.6776
10315SOL    HW131323   4.830   3.671   2.988 -0.2309  1.0065 -1.1197
10315SOL    HW231324   4.746   3.728   2.876 -1.0953 -0.0668 -1.0326
10316SOL     OW31325   1.748   2.816   4.431 -0.2673 -0.2723  0.4165
10316SOL    HW131326   1.717   2.898   4.392 -0.9222 -0.5525  0.3340
10316SOL    HW231327   1.707   2.748   4.378  2.8039 -0.7266 -1.6058
10317SOL     OW31328   2.873   4.214   5.796  0.3780  0.2998 -0.2591
10317SOL    HW131329   2.852   4.241   5.707 -0.9980  1.1890  0.3014
10317SOL    HW231330   2.799   4.160   5.823  0.8922 -0.1548  0.2771
10318SOL     OW31331   6.644   6.668   1.924  0.4104  0.1579 -0.0154
10318SOL    HW131332   6.557   6.694   1.896  0.3535 -2.2317 -2.6382
10318SOL    HW231333   6.703   6.722   1.872  0.3651 -0.8009 -1.1197
10319SOL     OW31334   3.589   4.953   4.689  1.0849 -0.3303  0.0392
10319SOL    HW131335   3.600   4.994   4.603  2.2374  0.5974  0.6093
10319SOL    HW231336   3.634   5.011   4.750 -2.2955  0.7237  1.7978
10320SOL     OW31337   5.188   6.657   5.284 -0.1713 -0.0355  0.0186
10320SOL    HW131338   5.232   6.738   5.309  1.0530 -1.7712  4.3469
10320SOL    HW231339   5.129   6.637   5.357 -0.6875 -2.8545 -1.0163
10321SOL     OW31340   2.057   0.778   4.233  0.2931 -0.2194 -0.0861
10321SOL    HW131341   1.993   0.832   4.186  0.3007 -1.0752 -1.1167
10321SOL    HW231342   2.009   0.746   4.309 -0.9608 -1.8708 -1.4841
10322SOL     OW31343   0.059   6.418   4.165 -0.2570  0.8375 -0.2335
10322SOL    HW131344   0.040   6.327   4.141  2.7886 -0.2014  0.8700
10322SOL    HW231345   0.140   6.414   4.215  0.2205  4.2523 -0.4588
10323SOL     OW31346   0.591   1.958   0.863 -0.4856  0.0309 -0.4250
10323SOL    HW131347   0.532   1.883   0.863  2.3702 -2.4159  0.6683
10323SOL    HW231348   0.608   1.975   0.955  0.9018  0.3259 -0.7218
10324SOL     OW31349   0.026   4.922   2.659 -0.5754 -0.1104  0.0425
10324SOL    HW131350   0.082   4.904   2.734 -1.5537 -1.9460  0.3985
10324SOL    HW231351  -0.022   4.840   2.645 -2.1592  0.9560 -1.0952
10325SOL     OW31352   1.398   3.049   3.384  0.3529 -0.1513  0.2460
10325SOL    HW131353   1.378   3.024   3.475 -0.2656  2.0074  0.7511
10325SOL    HW231354   1.460   3.121   3.392 -0.6969  0.9331 -0.9954
10326SOL     OW31355   1.176   2.645   3.705  0.2062  0.4650 -0.3501
10326SOL    HW131356   1.201   2.634   3.613  1.2977  0.1346 -0.0404
10326SOL    HW231357   1.169   2.556   3.738 -0.1564  0.5840 -0.1103
10327SOL     OW31358   2.227   3.942   2.548  0.3795  0.2044 -1.0224
10327SOL    HW131359   2.211   3.931   2.454 -0.5673  1.4266 -1.0329
10327SOL    HW231360   2.204   3.857   2.586 -2.3427  0.5874 -1.5664
10328SOL     OW31361   0.603   5.010   3.569  0.1681 -0.4794  0.3427
10328SOL    HW131362   0.584   4.925   3.607  0.6015 -0.1541  1.3229
10328SOL    HW231363   0.642   5.060   3.640 -1.7757  1.1779  0.3451
10329SOL     OW31364   0.581   5.223   4.259 -0.1980 -0.4006  0.0591
10329SOL    HW131365   0.657   5.231   4.317  0.2659  0.7131 -0.6589
10329SOL    HW231366   0.559   5.130   4.261  1.0995 -0.7251  0.4030
10330SOL     OW31367   0.577   3.733   0.213  0.0223  0.4293  0.3047
10330SOL    HW131368   0.577   3.667   0.283 -0.4885 -0.1118 -0.1975
10330SOL    HW231369   0.595   3.684   0.133  2.6677  1.3184  0.2606
10331SOL     OW31370   2.506   6.294   2.470  0.2677  0.0527  0.4127
10331SOL    HW131371   2.484   6.362   2.534 -2.1613 -0.6678  0.4121
10331SOL    HW231372   2.469   6.214   2.506  1.0566 -0.8575 -0.7266
10332SOL     OW31373   3.367   4.480   2.769  0.1688 -0.1056 -0.6501
10332SOL    HW131374   3.347   4.399   2.721  0.3469 -1.7896  1.9065
10332SOL    HW231375   3.426   4.452   2.839 -1.2262  1.9097  1.4646
10333SOL     OW31376   6.687   5.219   0.430 -0.4738  0.5171  0.0586
10333SOL    HW131377   6.763   5.182   0.474 -1.4161  0.2287  1.5266
10333SOL    HW231378   6.680   5.308   0.465 -0.2831  0.8625 -0.7669
10334SOL     OW31379   0.640   6.365   4.774  0.2467  0.3018 -0.1307
10334SOL    HW131380   0.579   6.376   4.847 -1.5750  1.8482 -1.7820
10334SOL    HW231381   0.597   6.302   4.717  2.1139 -1.6541  0.4940
10335SOL     OW31382   6.511   1.544   1.248  0.8551 -0.1637 -0.4314
10335SOL    HW131383   6.510   1.455   1.214  0.4223  0.4903 -2.2436
10335SOL    HW231384   6.581   1.588   1.200  1.0851  0.4783  0.4596
10336SOL     OW31385   2.724   2.606   3.539  0.0598 -0.2687 -0.2893
10336SOL    HW131386   2.759   2.688   3.574 -0.9898  0.6626 -1.3390
10336SOL    HW231387   2.658   2.579   3.603  0.8429 -0.6400  0.3736
10337SOL     OW31388   1.996   6.057   2.478 -0.2144 -0.0583  0.2647
10337SOL    HW131389   2.036   6.144   2.469  0.2114 -0.1737  0.9873
10337SOL    HW231390   2.010   6.034   2.570  2.3093 -2.1939 -0.5509
10338SOL     OW31391   3.229   4.250   4.428 -0.5573  0.0902 -0.5915
10338SOL    HW131392   3.270   4.336   4.415 -0.5382  0.1154 -0.3578
10338SOL    HW231393   3.185   4.232   4.345 -0.3804  0.2297 -0.7161
10339SOL     OW31394   4.290   0.396   2.818 -0.1109 -0.6137  0.2818
10339SOL    HW131395   4.238   0.365   2.744  0.5828 -0.9025 -0.0981
10339SOL    HW231396   4.271   0.334   2.889 -0.4318 -0.6034  0.2036
10340SOL     OW31397   2.158   2.410   3.416 -0.4009 -0.1986 -0.4299
10340SOL    HW131398   2.147   2.423   3.510  0.2705  0.0287 -0.3754
10340SOL    HW231399   2.154   2.315   3.404 -0.2016 -0.2448 -0.1334
10341SOL     OW31400   5.786   2.721   2.953 -0.6409 -0.1203 -0.5339
10341SOL    HW131401   5.815   2.678   3.033  0.2200  0.4821 -0.5005
10341SOL    HW231402   5.844   2.687   2.885 -0.1999  0.6709 -0.5734
10342SOL     OW31403   2.854   0.596   0.482 -0.2112 -0.5130  0.5956
10342SOL    HW131404   2.933   0.643   0.457 -0.5611 -0.5835 -0.6927
10342SOL    HW231405   2.783   0.642   0.437 -1.0588  0.1702  2.5148
10343SOL     OW31406   0.462   1.639   5.346 -0.6737 -0.3702  0.3026
10343SOL    HW131407   0.466   1.560   5.400 -2.2198 -0.5111  0.2671
10343SOL    HW231408   0.473   1.608   5.256 -0.7074 -0.4701  0.3335
10344SOL     OW31409   3.279   3.096   5.975 -0.5324 -0.2418  0.0849
10344SOL    HW131410   3.184   3.099   5.966 -0.7967 -0.9636  2.1760
10344SOL    HW231411   3.299   3.003   5.987  0.3457  0.0009  0.5539
10345SOL     OW31412   4.005   2.114   1.860 -0.3686 -0.4120  0.2587
10345SOL    HW131413   4.012   2.102   1.765  1.5898 -2.2742  0.5694
10345SOL    HW231414   3.913   2.096   1.879 -1.2249  1.7456 -1.4519
10346SOL     OW31415   3.022   2.931   4.617  0.5785  0.0294  0.1705
10346SOL    HW131416   3.033   2.926   4.712 -2.9397  1.1676  0.7911
10346SOL    HW231417   3.073   3.008   4.591  1.3710 -0.1347  1.1630
10347SOL     OW31418   5.632   3.510   2.480  0.5614 -0.2729  0.0929
10347SOL    HW131419   5.616   3.417   2.498 -0.7632  0.3126  2.3284
10347SOL    HW231420   5.560   3.535   2.422  0.3266 -0.4197  0.3165
10348SOL     OW31421   2.970   5.234   2.569  0.2032 -0.3733  0.5330
10348SOL    HW131422   2.906   5.302   2.592  1.3998  0.9884  0.0125
10348SOL    HW231423   2.996   5.195   2.652  0.4291  0.6959  0.9731
10349SOL     OW31424   0.182   6.832   4.224  0.0312  0.5540  0.4343
10349SOL    HW131425   0.211   6.764   4.284 -2.9252 -0.9861  0.2937
10349SOL    HW231426   0.128   6.786   4.160 -1.6243  2.9356 -0.0047
10350SOL     OW31427   1.871   1.031   3.790 -0.4615 -0.5032 -0.4661
10350SOL    HW131428   1.882   1.127   3.790  0.7767 -0.6146 -0.1638
10350SOL    HW231429   1.777   1.017   3.797 -0.6837  0.6995 -0.8548
10351SOL     OW31430   5.321   1.551   4.038  0.4934 -0.4080 -0.1921
10351SOL    HW131431   5.342   1.644   4.044 -1.9882  0.1762  0.7850
10351SOL    HW231432   5.270   1.543   3.957  1.1581 -1.0513 -0.5648
10352SOL     OW31433   6.839   6.110   3.916  0.5173  0.0911 -0.0097
10352SOL    HW131434   6.783   6.053   3.863 -0.3288  0.2475  0.6929
10352SOL    HW231435   6.784   6.186   3.936  0.0043 -0.9243  2.9124
10353SOL     OW31436   5.690   3.611   0.165  0.0573 -0.0743  0.5146
10353SOL    HW131437   5.686   3.628   0.260 -0.9109  2.1396  0.1584
10353SOL    HW231438   5.621   3.547   0.149 -1.8024  1.6881  0.9978
10354SOL     OW31439   0.098   2.021   6.652 -0.2320 -0.0104 -0.3005
10354SOL    HW131440   0.105   1.926   6.647 -2.6614 -0.3510  1.2850
10354SOL    HW231441   0.025   2.043   6.594 -0.0814  0.8305 -0.1875
10355SOL     OW31442   5.621   1.847   6.070  0.0917  0.1188 -0.1842
10355SOL    HW131443   5.598   1.902   5.995  1.5743  1.5819  0.3874
10355SOL    HW231444   5.716   1.854   6.077  0.3482 -2.5296 -0.0495
10356SOL     OW31445   4.045   2.654   1.064 -0.3389  0.2821 -0.2246
10356SOL    HW131446   3.985   2.579   1.070 -1.9172  1.5459  0.3573
10356SOL    HW231447   4.001   2.716   1.006  0.4253  1.2368  0.1788
10357SOL     OW31448   2.534   4.362   4.209 -0.4002 -0.5768 -0.5252
10357SOL    HW131449   2.613   4.309   4.223 -0.5912 -0.9493 -0.8450
10357SOL    HW231450   2.532   4.421   4.284 -1.0878 -2.1323  0.7345
10358SOL     OW31451   2.120   4.596   1.207  0.3752 -0.2639  0.2994
10358SOL    HW131452   2.047   4.619   1.150  0.7386  2.5724  0.8455
10358SOL    HW231453   2.197   4.596   1.150  0.1660 -2.3610 -0.0908
10359SOL     OW31454   1.483   4.685   1.068  0.0323  0.2583 -0.2051
10359SOL    HW131455   1.470   4.612   1.007  1.3589  0.2725 -0.5437
10359SOL    HW231456   1.448   4.761   1.022  0.2624  0.1237 -0.6170
10360SOL     OW31457   0.852   3.115   4.430  0.2704 -0.2057 -0.0423
10360SOL    HW131458   0.806   3.151   4.506 -0.6508  0.6280 -0.9691
10360SOL    HW231459   0.904   3.188   4.397 -0.4311 -0.1391 -1.0344
10361SOL     OW31460   1.731   5.930   1.345 -0.0948  0.4568  0.3468
10361SOL    HW131461   1.733   5.978   1.262  0.7747 -0.2800 -0.0699
10361SOL    HW231462   1.692   5.845   1.323 -2.6434  1.2900  1.2855
10362SOL     OW31463   3.538   1.956   6.734 -0.1053 -0.0228 -0.0576
10362SOL    HW131464   3.567   2.034   6.686  1.9017 -0.5424  0.2299
10362SOL    HW231465   3.472   1.989   6.796 -1.5103  0.9270 -1.9467
10363SOL     OW31466   2.274   6.709   0.393 -0.3324 -0.2832 -0.0415
10363SOL    HW131467   2.229   6.787   0.425  0.4802 -0.0159  0.4875
10363SOL    HW231468   2.360   6.740   0.365  0.2273 -1.0703  0.7466
10364SOL     OW31469   5.909   2.704   4.182  0.0626  0.0214 -0.4001
10364SOL    HW131470   5.950   2.660   4.107 -2.3926 -0.9256 -1.2850
10364SOL    HW231471   5.895   2.634   4.246  0.8406  0.5546  0.3699
10365SOL     OW31472   3.676   3.726   6.448 -0.0810  0.1043  0.3928
10365SOL    HW131473   3.626   3.732   6.529 -0.7067 -1.2775  0.1304
10365SOL    HW231474   3.620   3.768   6.382  0.4438  1.2616  0.6475
10366SOL     OW31475   4.557   2.006   6.063  0.3109 -0.4426 -0.2042
10366SOL    HW131476   4.497   2.072   6.098  2.6883  1.8217 -0.1242
10366SOL    HW231477   4.576   1.949   6.137  0.1613  0.3028  0.4211
10367SOL     OW31478   2.729   5.485   4.983 -0.1773  0.4908  0.2740
10367SOL    HW131479   2.793   5.424   4.948 -0.0039  0.1437  1.1655
10367SOL    HW231480   2.780   5.563   5.006  0.0111  0.0441  1.4050
10368SOL     OW31481   1.748   1.765   5.011 -0.4348  0.0473  0.1876
10368SOL    HW131482   1.720   1.716   4.934 -1.0165 -0.0049  0.4308
10368SOL    HW231483   1.712   1.853   4.998 -4.4728 -1.0331  2.4711
10369SOL     OW31484   6.452   1.864   1.229 -0.2562 -0.4254 -0.0057
10369SOL    HW131485   6.377   1.894   1.280  0.3043 -0.6173  0.9535
10369SOL    HW231486   6.528   1.902   1.274  0.4098 -2.3885  0.6223
10370SOL     OW31487   4.230   3.708   4.673 -0.1448 -0.6568  0.5580
10370SOL    HW131488   4.146   3.728   4.713  0.1321  1.3487  0.2426
10370SOL    HW231489   4.293   3.761   4.721  0.3593  0.9497 -1.6750
10371SOL     OW31490   2.267   3.114   2.392  0.1474  0.2240 -0.8360
10371SOL    HW131491   2.345   3.156   2.430  0.2152  2.0075 -2.7298
10371SOL    HW231492   2.277   3.021   2.412  2.2217  0.5524 -0.1069
10372SOL     OW31493   4.714   4.765   5.575  0.2853  0.4280  0.3850
10372SOL    HW131494   4.753   4.844   5.615  0.4260  0.2420  0.6188
10372SOL    HW231495   4.776   4.741   5.507 -0.7369  1.6721 -1.0502
10373SOL     OW31496   2.713   0.048   1.047  0.3684  0.1336  0.2296
10373SOL    HW131497   2.715   0.101   1.126  0.5270  1.7633 -0.8310
10373SOL    HW231498   2.621   0.045   1.021  0.4204  0.2816  0.0267
10374SOL     OW31499   2.142   1.438   2.905 -0.1620 -0.4679 -0.5952
10374SOL    HW131500   2.165   1.409   2.817  2.2672 -0.6462  0.0209
10374SOL    HW231501   2.139   1.533   2.899 -1.5213 -0.5149 -1.1525
10375SOL     OW31502   4.850   3.050   2.023 -0.1778 -0.4430  0.1813
10375SOL    HW131503   4.760   3.035   1.993 -0.4183 -0.8777  1.0919
10375SOL    HW231504   4.901   3.062   1.942 -1.5544  2.9754 -0.3534
10376SOL     OW31505   3.830   4.506   2.144  0.2245 -0.3097  0.2289
10376SOL    HW131506   3.837   4.589   2.097 -0.0923 -0.4901 -0.1436
10376SOL    HW231507   3.782   4.528   2.224 -1.8308 -0.5137 -0.8892
10377SOL     OW31508   5.868   3.057   6.336 -0.1449  0.3975  0.3410
10377SOL    HW131509   5.905   3.128   6.388  0.8773  0.5096 -0.5082
10377SOL    HW231510   5.942   2.999   6.318 -0.3482  0.6470 -1.4528
10378SOL     OW31511   2.748   6.186   5.428  0.2339  0.4257 -0.1914
10378SOL    HW131512   2.717   6.230   5.508 -0.6679  0.5105 -0.5853
10378SOL    HW231513   2.702   6.103   5.427 -0.4753  0.8229 -1.1167
10379SOL     OW31514   0.872   2.501   4.418  0.3412 -0.2536  0.4903
10379SOL    HW131515   0.941   2.517   4.482  2.7159 -0.0430 -1.9555
10379SOL    HW231516   0.843   2.589   4.392  0.4292 -0.3088  0.2067
10380SOL     OW31517   5.774   0.142   6.009  0.1380 -0.2894 -0.4779
10380SOL    HW131518   5.819   0.062   5.981  0.8142 -0.4757  1.0091
10380SOL    HW231519   5.713   0.162   5.938 -0.4502 -2.4415 -0.6551
10381SOL     OW31520   1.442   2.251   4.624  0.3886  0.2624  0.1831
10381SOL    HW131521   1.385   2.195   4.677  0.3121 -0.5350 -0.7016
10381SOL    HW231522   1.392   2.267   4.544  1.7636 -1.3517 -1.0924
10382SOL     OW31523   1.736   6.355   0.899 -0.1214  0.2351 -0.2294
10382SOL    HW131524   1.813   6.399   0.933  0.0944  1.7236 -2.4121
10382SOL    HW231525   1.751   6.262   0.917  1.5036  0.6247  0.5978
10383SOL     OW31526   4.922   6.749   2.985 -0.1916  0.2991 -0.7108
10383SOL    HW131527   4.864   6.760   3.060  0.0068 -1.1819 -0.3212
10383SOL    HW231528   4.945   6.657   2.985  0.5512  0.4553 -2.0627
10384SOL     OW31529   2.025   6.433   0.886  0.4751 -0.5795  0.2140
10384SOL    HW131530   2.071   6.374   0.826 -0.9314  0.6357 -2.2377
10384SOL    HW231531   2.092   6.490   0.921  1.1313  0.1353 -2.0371
10385SOL     OW31532   3.876   6.049   4.985 -0.2752 -0.8801  0.0309
10385SOL    HW131533   3.963   6.013   4.967  1.6748  3.1707  0.0458
10385SOL    HW231534   3.879   6.071   5.079 -1.4196 -0.8688  0.0780
10386SOL     OW31535   5.673   4.513   1.286 -0.5745  0.4438  0.8135
10386SOL    HW131536   5.712   4.541   1.369  1.6935  2.3952 -0.7735
10386SOL    HW231537   5.646   4.595   1.243  0.5338 -0.2485 -1.3622
10387SOL     OW31538   3.349   2.022   5.818  0.0949 -0.0715  0.5287
10387SOL    HW131539   3.423   2.032   5.759  0.4250 -0.6067  0.8476
10387SOL    HW231540   3.359   2.094   5.881 -0.0431  0.2665  0.1647
10388SOL     OW31541   6.239   1.191   0.668  0.7206  0.0144 -0.0041
10388SOL    HW131542   6.250   1.240   0.586 -1.1381  3.3914  1.5307
10388SOL    HW231543   6.158   1.227   0.706 -0.0486 -3.4341  2.0176
10389NA      NA31544   2.188   2.173   0.053 -0.3395  0.5949 -0.0073
10390NA      NA31545   4.096   2.841   1.286 -0.5968  0.0581  0.0501
10391NA      NA31546   3.073   5.903   5.413  0.2147  0.5249 -0.0597
10392NA      NA31547   2.477   1.543   0.873  0.3513 -0.4333  0.3438
10393NA      NA31548   3.137   0.189   0.978  0.5131 -0.6213 -0.4006
10394NA      NA31549   4.888   4.685   3.948 -0.0019 -0.1144 -0.1933
10395NA      NA31550   6.567   6.115   0.057 -0.1890  0.3176 -0.0433
10396NA      NA31551   2.845   1.876   0.338  0.5168  0.3167 -0.0323
10397NA      NA31552   0.923   0.933   3.022 -0.0300  0.0972  0.2762
10398NA      NA31553   6.596   5.496   1.472 -0.1135  0.9723  0.3467
10399NA      NA31554   1.039   6.593   2.471  0.0903 -0.6003  0.5388
10400NA      NA31555   4.661   3.839   6.421 -0.1524 -0.5524  0.4638
10401NA      NA31556   4.938   1.628   1.580  0.1398  0.1920 -0.4782
10402NA      NA31557   1.253   4.254   0.044  0.2177 -0.1419  0.3717
10403NA      NA31558   2.536   3.269   6.162  0.5187 -0.0328 -0.3786
10404NA      NA31559   1.773   0.557   3.321  0.2097  0.1266  0.0387
10405NA      NA31560   5.775   4.071   0.115 -0.1316 -0.1202  0.1988
10406NA      NA31561   2.454   0.717   3.135 -0.0502 -0.2669 -0.3968
10407NA      NA31562   5.122   0.770   1.902 -0.0886  0.3517 -0.5094
10408NA      NA31563   1.242   1.239   0.685 -0.2384  0.2100 -0.0056
10409NA      NA31564   5.781   5.602   2.203  0.1123 -0.0103  0.4305
10410NA      NA31565   0.133   4.522   6.592  0.6178  0.1819  0.0705
10411NA      NA31566   3.143   0.883   2.225 -0.2923  0.4818 -0.2181
10412NA      NA31567   3.725   0.397   3.621 -0.0802 -0.0686  0.5332
10413NA      NA31568   2.400   1.433   3.534 -0.0181 -0.4920 -0.0111
10414NA      NA31569   5.711   3.862   2.554  0.2689  0.3169  0.1202
10415NA      NA31570   5.514   4.463   4.536  0.2488 -0.2672 -0.2282
10416NA      NA31571   4.686   6.154   3.959  0.0305  0.1872 -0.2233
10417NA      NA31572   6.433   1.682   1.070 -0.2485 -0.0258 -0.0244
10418CL      CL31573   3.068   3.650   4.856  0.1920 -0.1033  0.0242
10419CL      CL31574   6.588   1.908   2.582  0.1479 -0.4356 -0.1774
10420CL      CL31575   4.610   3.780   1.423  0.2425  0.5754  0.1123
10421CL      CL31576   0.096   5.250   6.350 -0.0218 -0.0084 -0.1308
10422CL      CL31577   5.100   1.528   3.804 -0.0376  0.0345 -0.4123
10423CL      CL31578   1.451   4.727   0.338  0.4055 -0.0817  0.3009
10424CL      CL31579   1.285   5.739   1.176  0.2191  0.0206 -0.3819
10425CL      CL31580   1.303   4.338   4.014  0.6135 -0.4134 -0.4343
10426CL      CL31581   1.976   1.048   2.312  0.1157 -0.0397  0.1868
10427CL      CL31582   6.616   0.851   0.494 -0.0862  0.2951 -0.2878
10428CL      CL31583   5.366   4.443   2.643  0.2738 -0.0475 -0.0704
10429CL      CL31584   1.430   4.078   1.543 -0.4003  0.3815 -0.2703
10430CL      CL31585   2.104   0.555   6.782  0.1204 -0.1577  0.2138
10431CL      CL31586   3.853   0.044   4.053 -0.0764 -0.1318  0.1976
10432CL      CL31587   3.863   1.120   5.516  0.5945 -0.1340 -0.2454
10433CL      CL31588   3.640   2.249   0.090 -0.1466 -0.0021 -0.1865
10434CL      CL31589   6.597   0.048   4.812 -0.1855  0.0810  0.2260
10435CL      CL31590   5.107   5.793   5.014 -0.0892  0.0452  0.1590
10436CL      CL31591   1.960   0.536   3.157 -0.3453  0.2862  0.2221
10437CL      CL31592   3.742   4.393   3.220  0.1769 -0.2796 -0.1236
10438CL      CL31593   1.441   0.218   1.000 -0.2543 -0.3105 -0.1318
10439CL      CL31594   4.313   5.988   0.027  0.1919  0.0049 -0.2109
10440CL      CL31595   5.901   3.151   3.584 -0.0456 -0.1521  0.1053
10441CL      CL31596   6.215   5.152   2.416 -0.3184  0.2684  0.3695
10442CL      CL31597   5.156   2.951   1.081 -0.0724  0.1206  0.4289
10443CL      CL31598   2.724   4.811   1.081  0.5135 -0.0197 -0.1222
10444CL      CL31599   2.123   3.629   2.573 -0.0011  0.5254 -0.1036
10445CL      CL31600   1.331   1.145   3.377  0.0149  0.1590 -0.0004
10446CL      CL31601   0.998   2.511   5.416  0.1497  0.3739 -0.1110
   6.84590   6.84590   6.84590
