G3POcore-PETIM in water
43792
    1aaa     O1    1   5.153   7.395   0.276 -0.3241  0.1926 -0.3859
    1aaa     C1    2   5.207   7.528   0.255  0.1662 -0.0479 -0.8085
    1aaa     H1    3   5.316   7.537   0.259  0.2160 -0.8358 -0.2272
    1aaa     H2    4   5.172   7.595   0.335 -0.3077  0.8088 -1.6979
    1aaa     C2    5   5.163   7.343   0.407 -0.3239  0.4118 -0.3132
    1aaa     H3    6   5.150   7.423   0.481  2.4422  2.3242 -1.7118
    1aaa     H4    7   5.266   7.308   0.419 -1.2099 -2.3305  0.0525
    1aaa     C3    8   5.157   7.587   0.131  0.3153 -0.2010 -0.1806
    1aaa     H5    9   5.185   7.513   0.055 -1.0272 -0.4409 -0.4761
    1aaa     H6   10   5.214   7.679   0.115  0.0556  0.1113  0.6103
    1aaa     C4   11   5.077   7.221   0.431 -0.4194 -0.0955 -0.0423
    1aaa     H7   12   5.102   7.170   0.525  1.1632  0.7663  0.0310
    1aaa     H8   13   5.104   7.159   0.345 -1.1291  0.9418 -1.0544
    1aaa     C5   14   5.011   7.625   0.118 -0.7266  0.3183 -0.4186
    1aaa     H9   15   4.954   7.533   0.136  2.0386 -1.2729  1.0813
    1aaa    H10   16   4.987   7.693   0.201  0.8452 -0.6071  0.8687
    1aaa     C6   17   4.930   7.255   0.433 -0.5082  0.2949  0.2392
    1aaa    H11   18   4.899   7.269   0.329  0.5879 -1.0488 -0.2966
    1aaa    H12   19   4.919   7.352   0.483  0.0728  0.9461 -0.8626
    1aaa     N1   20   4.970   7.689  -0.003  0.2308  0.2890 -0.3752
    1aaa     N2   21   4.859   7.152   0.513 -0.6448 -0.2256  0.0071
    1aaa     C7   22   4.887   7.005   0.497 -0.2476  0.0244  0.2032
    1aaa    H13   23   4.842   6.975   0.402 -1.2927  2.0623 -0.0039
    1aaa    H14   24   4.996   6.988   0.491 -0.2790  0.2341 -1.1912
    1aaa     C8   25   4.719   7.194   0.528 -0.5358  0.0436  0.4223
    1aaa    H15   26   4.681   7.153   0.622 -1.6608 -1.5772 -0.6754
    1aaa    H16   27   4.711   7.302   0.544 -3.6039 -0.0400  0.0521
    1aaa     C9   28   5.029   7.826  -0.027 -0.1300  0.4069  0.1852
    1aaa    H17   29   5.127   7.809  -0.073  0.8114  0.8475  1.9525
    1aaa    H18   30   4.960   7.869  -0.101 -1.0472  1.1415  1.4439
    1aaa    C10   31   5.000   7.593  -0.114  0.0234 -0.1258 -0.0987
    1aaa    H19   32   5.108   7.603  -0.124  0.1573 -0.3299  1.0618
    1aaa    H20   33   4.974   7.491  -0.084  2.1000 -0.7362 -0.2234
    1aaa    C11   34   4.827   6.912   0.602  0.2886  0.3104 -0.9152
    1aaa    H21   35   4.863   6.950   0.698  1.2115 -3.1032  0.2213
    1aaa    H22   36   4.718   6.916   0.596  0.3168 -0.5134 -3.3446
    1aaa    C12   37   4.626   7.153   0.412 -0.6032 -0.3113 -0.0545
    1aaa    H23   38   4.692   7.131   0.327 -1.1429 -1.3670 -0.2195
    1aaa    H24   39   4.587   7.054   0.440  0.9888 -1.1666 -0.7613
    1aaa    C13   40   5.050   7.932   0.089  0.1555  0.4319  0.6691
    1aaa    H25   41   4.964   7.936   0.157  1.7406  1.8230  2.6988
    1aaa    H26   42   5.130   7.890   0.150 -0.5540 -1.0356  0.6341
    1aaa    C14   43   4.926   7.614  -0.247  0.3129  0.0983 -0.7453
    1aaa    H27   44   4.819   7.636  -0.230 -0.1655 -0.6712 -2.5156
    1aaa    H28   45   4.970   7.706  -0.287  1.6155  1.6558  3.6927
    1aaa    C15   46   4.940   7.492  -0.352 -0.5202 -0.7430 -0.1749
    1aaa    H29   47   4.886   7.512  -0.445 -1.2390 -2.2489 -0.1261
    1aaa    H30   48   5.043   7.467  -0.381  0.1924  0.3307  1.2956
    1aaa    C16   49   5.074   8.076   0.034 -0.6868  0.3396  0.5637
    1aaa    H31   50   5.064   8.143   0.120 -1.3709  2.3333 -0.9796
    1aaa    H32   51   5.174   8.077  -0.010 -1.1106  0.8884 -0.4294
    1aaa    C17   52   4.498   7.245   0.390  0.0186 -0.7161 -0.3472
    1aaa    H33   53   4.525   7.351   0.381 -1.9149 -0.0568  0.9499
    1aaa    H34   54   4.450   7.235   0.292 -2.1661  0.0810  0.5937
    1aaa    C18   55   4.869   6.764   0.588  0.5377 -0.0921  0.7300
    1aaa    H35   56   4.976   6.747   0.602  1.0834  0.6807 -1.8921
    1aaa    H36   57   4.818   6.711   0.669  1.5420  0.6995  1.9142
    2bbb     N1   58   4.538   7.116  -0.415  0.0354 -0.7487 -0.0429
    2bbb     C1   59   4.419   7.118  -0.322 -0.1467 -0.5450  0.7040
    2bbb     H1   60   4.341   7.078  -0.389  2.0227  0.3067 -2.5516
    2bbb     H2   61   4.399   7.222  -0.294  1.8289  0.3381 -0.9123
    2bbb     C2   62   4.495   7.145  -0.554 -0.1069 -0.3539  0.7642
    2bbb     H3   63   4.411   7.085  -0.591  0.7008 -1.5614  0.8101
    2bbb     H4   64   4.575   7.137  -0.628 -1.0614  0.5685 -0.3980
    2bbb     C3   65   4.652   7.198  -0.357  0.1628 -0.2417 -0.1915
    2bbb     H5   66   4.667   7.184  -0.249 -3.0570  0.8557  0.5241
    2bbb     H6   67   4.623   7.303  -0.362  0.4966 -0.2005 -1.7458
    2bbb     C4   68   4.787   7.198  -0.435  0.0929 -0.1542  0.2483
    2bbb     H7   69   4.774   7.242  -0.535  0.4369 -1.3559 -0.3361
    2bbb     H8   70   4.800   7.091  -0.456 -0.8862 -0.0795 -0.8165
    2bbb     C5   71   4.431   7.034  -0.191  0.4504  0.4224 -0.0900
    2bbb     H9   72   4.495   7.080  -0.115  0.6352 -0.2537  0.1688
    2bbb    H10   73   4.479   6.939  -0.219  1.0220  0.6959 -0.0315
    2bbb     C6   74   4.443   7.293  -0.575 -0.4793 -1.0947  0.6106
    2bbb    H11   75   4.524   7.366  -0.563 -1.7959  0.2930  1.4413
    2bbb    H12   76   4.378   7.324  -0.492 -1.7576  1.1408 -1.1076
    2bbb     C7   77   4.910   7.253  -0.363  0.2981 -0.2460  0.5851
    2bbb    H13   78   4.991   7.267  -0.437  0.2114 -0.7525  0.3948
    2bbb    H14   79   4.938   7.180  -0.287 -0.9048 -3.1066 -1.5503
    2bbb     C8   80   4.371   7.315  -0.711 -0.7378  0.2971 -0.6874
    2bbb    H15   81   4.282   7.252  -0.723 -2.3733  1.9569  1.6407
    2bbb    H16   82   4.434   7.288  -0.796  0.1655 -1.6068  0.5224
    2bbb     C9   83   4.294   6.996  -0.128  0.5372  0.3165 -0.4857
    2bbb    H17   84   4.237   6.950  -0.210  0.8513  0.1348 -0.6049
    2bbb    H18   85   4.243   7.086  -0.092 -1.4091 -0.4969 -1.0704
    2bbb     O1   86   4.885   7.377  -0.289 -0.0255 -0.0486  0.6952
    3bbb     N1   87   4.787   8.239  -0.437  0.2553  0.3454  0.8653
    3bbb     C1   88   4.666   8.152  -0.455 -0.6716  0.2733 -0.7526
    3bbb     H1   89   4.648   8.140  -0.563  0.6216  1.4578 -1.1325
    3bbb     H2   90   4.575   8.182  -0.403 -0.3270 -2.5322  1.7314
    3bbb     C2   91   4.771   8.382  -0.477 -0.4359 -0.0896  0.7355
    3bbb     H3   92   4.868   8.434  -0.480 -1.0662  1.0873 -0.2315
    3bbb     H4   93   4.704   8.433  -0.406 -1.1851  1.3081 -0.8946
    3bbb     C3   94   4.894   8.210  -0.337  0.0997  0.0200 -0.3475
    3bbb     H5   95   4.991   8.240  -0.380  1.7802 -2.2827  1.5889
    3bbb     H6   96   4.903   8.103  -0.315  3.8739  0.7280  2.6375
    3bbb     C4   97   4.877   8.292  -0.209 -1.1659 -1.0724 -0.7515
    3bbb     H7   98   4.770   8.288  -0.184 -1.4460  0.0928 -1.6770
    3bbb     H8   99   4.886   8.397  -0.238  2.2226 -0.2497  2.4393
    3bbb     C5  100   4.686   8.008  -0.400 -0.0935 -0.2424 -0.2119
    3bbb     H9  101   4.722   8.007  -0.297 -0.2224 -2.3033 -0.1472
    3bbb    H10  102   4.771   7.957  -0.447 -0.7957 -3.7146  1.9356
    3bbb     C6  103   4.714   8.405  -0.624 -0.2914 -0.0952 -0.3595
    3bbb    H11  104   4.703   8.511  -0.649 -0.9870  0.4465  1.9838
    3bbb    H12  105   4.612   8.364  -0.624  0.0698 -1.0868 -1.6183
    3bbb     C7  106   4.979   8.259  -0.099  0.2194 -1.0487 -0.1200
    3bbb    H13  107   4.975   8.329  -0.014 -0.2045 -0.5062 -0.5734
    3bbb    H14  108   5.077   8.275  -0.146 -0.0323 -1.0038 -0.6293
    3bbb     C8  109   4.802   8.323  -0.732  0.0917  0.5373 -0.1274
    3bbb    H15  110   4.872   8.254  -0.684 -1.1424 -1.3068 -0.8868
    3bbb    H16  111   4.855   8.392  -0.799 -1.7920  0.0036 -2.2938
    3bbb     C9  112   4.559   7.918  -0.417  0.2632  0.4337 -0.1131
    3bbb    H17  113   4.543   7.895  -0.523  1.6882  1.0041 -0.4781
    3bbb    H18  114   4.467   7.965  -0.380 -0.0791 -0.7149  0.5551
    3bbb     O1  115   4.965   8.114  -0.055  0.0751 -0.3442  0.2866
    4bbb     N1  116   3.978   7.278   0.717  0.0374  0.3627  0.0174
    4bbb     C1  117   3.970   7.137   0.764 -0.3070  0.1176  0.1990
    4bbb     H1  118   3.904   7.135   0.852  1.2132 -0.1196  1.3783
    4bbb     H2  119   4.068   7.108   0.803  0.8097  1.0707 -1.7724
    4bbb     C2  120   4.011   7.375   0.829  0.2247  0.8161  0.2105
    4bbb     H3  121   4.015   7.471   0.775 -0.9377  0.6756 -0.1384
    4bbb     H4  122   4.104   7.353   0.884  0.7397  0.8990 -0.6013
    4bbb     C3  123   4.058   7.306   0.596 -0.3938  0.9585  0.3967
    4bbb     H5  124   4.048   7.414   0.584 -1.3531  1.0901  2.1134
    4bbb     H6  125   4.021   7.255   0.507  1.6459 -1.7018  0.9119
    4bbb     C4  126   4.204   7.274   0.621 -0.0432  0.4417  0.0966
    4bbb     H7  127   4.218   7.172   0.660  0.3503  0.6658  0.5486
    4bbb     H8  128   4.240   7.345   0.696  1.7583 -0.3188 -0.0009
    4bbb     C5  129   3.943   7.033   0.655 -0.1161  0.3557  0.5436
    4bbb     H9  130   4.031   7.021   0.591  1.7198  0.8569  2.8263
    4bbb    H10  131   3.865   7.068   0.587  0.6193  0.9822  0.0090
    4bbb     C6  132   3.897   7.387   0.932  0.0277  0.2856  0.3333
    4bbb    H11  133   3.863   7.288   0.966  1.1218 -1.2076 -2.5328
    4bbb    H12  134   3.811   7.439   0.889 -0.3276 -1.3700 -1.0910
    4bbb     C7  135   4.282   7.283   0.485 -0.3218  0.0709 -0.0479
    4bbb    H13  136   4.287   7.390   0.464 -0.4578  0.5017  1.9365
    4bbb    H14  137   4.224   7.232   0.408 -1.5215 -0.3336  1.0942
    4bbb     C8  138   3.935   7.460   1.065 -1.0011 -0.0544 -0.0017
    4bbb    H15  139   3.991   7.549   1.033 -1.2424 -1.0703 -3.7738
    4bbb    H16  140   3.980   7.386   1.132 -3.0926  1.0149  2.7981
    4bbb     C9  141   3.923   6.892   0.716 -0.3407  0.4579 -0.0069
    4bbb    H17  142   3.908   6.822   0.633 -0.4645  3.6325 -2.8880
    4bbb    H18  143   3.829   6.888   0.772 -0.2714  1.1369  0.1629
    4bbb     O1  144   4.411   7.224   0.497  0.4352  0.3316  0.1688
    5bbb     N1  145   4.551   6.385   0.487 -0.5445  0.1180 -0.2875
    5bbb     C1  146   4.544   6.377   0.644 -0.1902  0.1118 -0.0560
    5bbb     H1  147   4.647   6.368   0.679  0.1117 -0.0755 -0.9582
    5bbb     H2  148   4.505   6.281   0.680  1.5381 -0.9262 -0.8402
    5bbb     C2  149   4.426   6.376   0.405  1.4785  0.4076  0.9094
    5bbb     H3  150   4.456   6.380   0.300  1.1830  1.7286  0.8528
    5bbb     H4  151   4.367   6.465   0.429 -2.1806 -1.2292 -1.2243
    5bbb     C3  152   4.638   6.496   0.442 -0.0405 -0.0997 -0.3728
    5bbb     H5  153   4.605   6.595   0.476  3.6189  0.4285  2.2212
    5bbb     H6  154   4.644   6.505   0.333  0.0057 -1.4569 -0.4983
    5bbb     C4  155   4.786   6.485   0.485  1.3615  0.7326  0.1604
    5bbb     H7  156   4.816   6.382   0.462 -0.0776  0.6261 -1.4959
    5bbb     H8  157   4.802   6.502   0.592 -0.0076 -2.0874  0.9202
    5bbb     C5  158   4.468   6.502   0.701 -0.7953  0.2879  0.2964
    5bbb     H9  159   4.367   6.513   0.659 -1.9967  0.1145  2.9603
    5bbb    H10  160   4.524   6.594   0.681 -2.9921  2.3527  2.7739
    5bbb     C6  161   4.349   6.251   0.432  0.2626 -0.2667 -0.2861
    5bbb    H11  162   4.318   6.265   0.536  2.0806  1.6044  0.0728
    5bbb    H12  163   4.409   6.159   0.437 -1.2013 -1.3296 -1.5193
    5bbb     C7  164   4.873   6.590   0.416 -0.4869 -0.0581  0.0231
    5bbb    H13  165   4.860   6.579   0.307 -1.0966 -0.7279  0.1520
    5bbb    H14  166   4.979   6.577   0.440  0.2138  2.1093 -1.6022
    5bbb     C8  167   4.222   6.232   0.341 -0.4689  0.3891  0.5479
    5bbb    H15  168   4.143   6.305   0.362 -0.3560  0.7166 -0.1422
    5bbb    H16  169   4.179   6.133   0.358  2.4792 -1.3230 -1.0657
    5bbb     C9  170   4.461   6.485   0.853 -0.9208  0.5120  0.3360
    5bbb    H17  171   4.566   6.470   0.882  0.1354  0.3989 -3.1142
    5bbb    H18  172   4.409   6.392   0.878 -2.3251  1.5221  1.2860
    5bbb     O1  173   4.826   6.721   0.460 -0.4510  0.0393  0.0945
    6bbb     N1  174   4.267   7.879  -0.804 -0.4424 -0.1040 -0.1283
    6bbb     C1  175   4.389   7.965  -0.799  0.2078  0.4185  0.1591
    6bbb     H1  176   4.444   7.962  -0.894 -1.4753  0.5760 -0.8609
    6bbb     H2  177   4.450   7.918  -0.720  0.5083  0.3875 -0.0889
    6bbb     C2  178   4.145   7.935  -0.871 -0.2005 -0.3421  0.7714
    6bbb     H3  179   4.112   8.026  -0.819 -2.2489 -2.2202  2.9820
    6bbb     H4  180   4.063   7.862  -0.874 -2.7183  2.3007 -2.7201
    6bbb     C3  181   4.304   7.738  -0.816 -0.5601 -0.1921  0.5616
    6bbb     H5  182   4.373   7.707  -0.737 -1.7759 -2.1066  0.9341
    6bbb     H6  183   4.354   7.723  -0.912  0.5517  1.7972  0.7644
    6bbb     C4  184   4.191   7.635  -0.809  0.4760  0.0742 -0.1716
    6bbb     H7  185   4.131   7.662  -0.897  0.9703  1.1063 -0.2135
    6bbb     H8  186   4.131   7.644  -0.718  1.5275 -0.0311  0.5455
    6bbb     C5  187   4.370   8.116  -0.763  0.5927  0.1318 -0.0632
    6bbb     H9  188   4.319   8.157  -0.851 -4.4435  0.1032  2.4810
    6bbb    H10  189   4.473   8.152  -0.758  0.8155  0.0810 -2.7772
    6bbb     C6  190   4.152   7.960  -1.022 -0.0055 -0.2700 -0.0374
    6bbb    H11  191   4.215   7.886  -1.074  0.9445 -0.0738  0.8050
    6bbb    H12  192   4.204   8.054  -1.044 -1.9058  0.5537 -1.2629
    6bbb     C7  193   4.242   7.491  -0.830 -1.0910  0.5088 -0.6167
    6bbb    H13  194   4.303   7.486  -0.921 -1.5933 -0.2256 -0.9190
    6bbb    H14  195   4.151   7.431  -0.834 -3.2460  3.4731  0.4781
    6bbb     C8  196   4.007   7.971  -1.088 -0.5805 -0.5120 -0.9026
    6bbb    H15  197   3.955   7.878  -1.114 -0.2856 -0.1599 -2.9417
    6bbb    H16  198   4.018   8.021  -1.185 -0.9086  0.8375 -0.2642
    6bbb     C9  199   4.297   8.148  -0.630 -0.3653  0.1532 -0.1864
    6bbb    H17  200   4.333   8.090  -0.544  2.7076  0.2529 -1.2783
    6bbb    H18  201   4.194   8.109  -0.631  0.5531 -2.7752  2.5256
    6bbb     O1  202   4.332   7.458  -0.714 -0.4825  0.3692 -0.2416
    7bbb     N1  203   4.256   6.791   0.349  0.1520  0.2389  0.3405
    7bbb     C1  204   4.309   6.881   0.461  0.3678  0.3437 -0.1321
    7bbb     H1  205   4.224   6.919   0.518 -1.9254 -1.6266 -1.9978
    7bbb     H2  206   4.355   6.962   0.403 -0.1317  0.8041  0.1079
    7bbb     C2  207   4.148   6.701   0.387 -0.3966  0.0031  0.1831
    7bbb     H3  208   4.089   6.749   0.466  0.6531 -0.5893  1.3609
    7bbb     H4  209   4.184   6.609   0.435 -0.6451 -0.0604  0.2481
    7bbb     C3  210   4.361   6.747   0.248  0.7166 -0.0746  0.5607
    7bbb     H5  211   4.307   6.703   0.163 -0.4411 -0.4337  1.4542
    7bbb     H6  212   4.417   6.665   0.294 -1.1901 -1.3884  0.6827
    7bbb     C4  213   4.446   6.860   0.188  0.6967 -0.5137  0.5137
    7bbb     H7  214   4.520   6.811   0.123  0.7916  1.0873 -0.6528
    7bbb     H8  215   4.508   6.903   0.267  2.5655 -1.6015 -0.2988
    7bbb     C5  216   4.415   6.837   0.567  0.4822  0.1075  0.2087
    7bbb     H9  217   4.515   6.817   0.528  0.8442  0.8903  0.6987
    7bbb    H10  218   4.368   6.742   0.597 -1.3260  0.8828 -0.0359
    7bbb     C6  219   4.055   6.667   0.273  0.2597 -0.1999 -0.0856
    7bbb    H11  220   4.103   6.607   0.194 -2.6800 -0.4899 -1.8200
    7bbb    H12  221   4.000   6.751   0.231  1.2015  1.0923  1.1670
    7bbb     C7  222   4.374   6.971   0.103 -0.1243 -0.3390  0.2943
    7bbb    H13  223   4.441   7.048   0.063 -0.6481 -0.1806 -0.3000
    7bbb    H14  224   4.295   7.025   0.156 -2.2561  2.0429 -4.5909
    7bbb     C8  225   3.939   6.572   0.315 -0.0650 -0.3219 -0.1449
    7bbb    H15  226   3.905   6.592   0.417  1.5301  1.4790  0.0993
    7bbb    H16  227   3.974   6.468   0.316 -0.0271 -0.3098 -0.2381
    7bbb     C9  228   4.419   6.924   0.700  0.3708  0.7929  0.4080
    7bbb    H17  229   4.330   6.906   0.762  0.4784  2.8248  1.2242
    7bbb    H18  230   4.426   7.031   0.673  0.4523  0.5502 -0.5778
    7bbb     O1  231   4.313   6.907  -0.014  0.5447  0.1220 -0.1953
    8bbb     N1  232   4.782   7.814  -0.881 -0.2670 -0.3979  0.7570
    8bbb     C1  233   4.915   7.781  -0.832 -0.3473 -0.2031  0.3843
    8bbb     H1  234   4.991   7.828  -0.895 -1.2249 -0.5851 -0.9964
    8bbb     H2  235   4.927   7.674  -0.856 -1.4794 -0.4252  0.7240
    8bbb     C2  236   4.656   7.738  -0.840 -0.3847  0.4887  0.6601
    8bbb     H3  237   4.576   7.745  -0.915  0.0644 -0.7748  0.0179
    8bbb     H4  238   4.614   7.766  -0.743 -0.4927  0.1933  0.6990
    8bbb     C3  239   4.742   7.955  -0.883 -0.4145 -0.4547  0.0145
    8bbb     H5  240   4.706   7.979  -0.783  0.6623 -0.0311  0.3207
    8bbb     H6  241   4.662   7.957  -0.958 -1.6961  0.4694  1.3637
    8bbb     C4  242   4.853   8.062  -0.915  0.6018  0.7241  0.3238
    8bbb     H7  243   4.911   8.036  -1.005  0.7149  1.1414  0.2725
    8bbb     H8  244   4.932   8.066  -0.839  2.3991 -0.5833 -1.3629
    8bbb     C5  245   4.933   7.804  -0.684  0.4158 -0.4036  0.2739
    8bbb     H9  246   4.857   7.749  -0.627  0.8184  0.5292  1.7682
    8bbb    H10  247   4.904   7.908  -0.668 -0.4870 -0.7198  0.7407
    8bbb     C6  248   4.682   7.583  -0.852 -0.2535  0.0159  0.0597
    8bbb    H11  249   4.592   7.528  -0.821 -0.5340  0.4726  0.0613
    8bbb    H12  250   4.752   7.552  -0.773 -1.6221  0.6379  1.5607
    8bbb     C7  251   4.778   8.194  -0.932 -0.6380  0.4986 -0.6954
    8bbb    H13  252   4.700   8.181  -1.009 -0.2287  0.5528 -1.1212
    8bbb    H14  253   4.842   8.272  -0.974  0.0678  0.8831  1.0259
    8bbb     C8  254   4.720   7.539  -0.998 -0.3502  0.5586 -0.2519
    8bbb    H15  255   4.789   7.610  -1.044 -1.6931  0.6894 -2.1812
    8bbb    H16  256   4.631   7.538  -1.062 -2.0778 -0.0093  2.0197
    8bbb     C9  257   5.080   7.774  -0.636  0.2798 -0.0417 -0.4080
    8bbb    H17  258   5.147   7.830  -0.703 -0.0522  0.2711 -0.4832
    8bbb    H18  259   5.102   7.667  -0.647 -0.6711 -0.2376 -0.4662
    8bbb     O1  260   4.717   8.240  -0.813  0.2752 -0.0622  0.1764
    9bbb     N1  261   4.508   7.508   0.003  0.3790 -0.4372 -0.7292
    9bbb     C1  262   4.486   7.558   0.141 -0.8304  0.9041  0.1088
    9bbb     H1  263   4.553   7.637   0.177  1.2528 -0.0019 -1.5379
    9bbb     H2  264   4.516   7.474   0.205  2.8363  2.3416  0.5341
    9bbb     C2  265   4.642   7.443  -0.005 -0.3660  0.0136 -0.9474
    9bbb     H3  266   4.715   7.508   0.044 -1.8403  1.4125 -0.5029
    9bbb     H4  267   4.679   7.435  -0.108  0.8768  2.3772 -0.7444
    9bbb     C3  268   4.510   7.616  -0.096 -0.1397 -0.1732  0.0001
    9bbb     H5  269   4.584   7.692  -0.073  0.2237  0.6346 -3.2539
    9bbb     H6  270   4.410   7.661  -0.103 -0.0013  0.1487  0.1155
    9bbb     C4  271   4.521   7.582  -0.247 -0.1001  0.6053 -0.2989
    9bbb     H7  272   4.464   7.493  -0.277  2.6342 -1.5666  0.4843
    9bbb     H8  273   4.620   7.543  -0.275 -0.9268 -1.9048  0.0006
    9bbb     C5  274   4.340   7.585   0.168  0.1325 -0.1968 -0.2070
    9bbb     H9  275   4.280   7.494   0.161  0.2034 -0.1403 -2.1498
    9bbb    H10  276   4.304   7.644   0.083  1.4693 -1.1830 -1.5179
    9bbb     C6  277   4.652   7.313   0.066 -0.4865  0.0849  0.7584
    9bbb    H11  278   4.563   7.251   0.046 -0.6351  0.4347  0.3370
    9bbb    H12  279   4.662   7.335   0.173  0.9649  1.3950  0.3932
    9bbb     C7  280   4.474   7.702  -0.331  0.1231  0.4065  0.0976
    9bbb    H13  281   4.379   7.749  -0.304  1.0585  2.0144  0.7541
    9bbb    H14  282   4.468   7.656  -0.431 -1.1643 -1.0794  0.8288
    9bbb     C8  283   4.776   7.239   0.019  0.7444 -0.2046  0.2250
    9bbb    H15  284   4.864   7.295   0.053  0.1807 -0.0734  1.5327
    9bbb    H16  285   4.786   7.235  -0.090 -0.3725 -0.2389  0.1099
    9bbb     C9  286   4.323   7.651   0.307  0.9256 -0.7042 -0.4683
    9bbb    H17  287   4.330   7.760   0.296 -1.4284 -0.5161 -0.5447
    9bbb    H18  288   4.401   7.612   0.374 -0.8081 -1.5007  1.1839
    9bbb     O1  289   4.581   7.806  -0.329  0.3266 -0.7356  0.1379
   10bbb     N1  290   3.423   7.531   1.036  0.8174  0.7836 -0.1161
   10bbb     C1  291   3.353   7.665   1.008 -0.6777  0.3159  1.1703
   10bbb     H1  292   3.300   7.672   0.912  1.8112  0.0873 -0.3201
   10bbb     H2  293   3.424   7.749   1.008  2.4029 -2.0874 -0.3452
   10bbb     C2  294   3.458   7.461   0.917 -0.0760  0.0847 -0.8635
   10bbb     H3  295   3.540   7.516   0.869  2.8673 -1.2124  2.2680
   10bbb     H4  296   3.366   7.459   0.857 -1.8812  1.3588  1.6350
   10bbb     C3  297   3.509   7.526   1.163  0.2086  0.6386  0.0364
   10bbb     H5  298   3.562   7.432   1.184  3.1641  2.4469  1.1979
   10bbb     H6  299   3.444   7.547   1.249 -0.5997  1.9132 -0.8516
   10bbb     C4  300   3.620   7.636   1.181 -0.1329 -0.0884  0.6842
   10bbb     H7  301   3.650   7.652   1.285  2.4685  1.8636 -0.2516
   10bbb     H8  302   3.588   7.736   1.149  0.1617  0.6479  2.5524
   10bbb     C5  303   3.256   7.709   1.116  0.9713 -0.1804 -0.3932
   10bbb     H9  304   3.307   7.713   1.214 -0.4412  2.2511  0.3465
   10bbb    H10  305   3.169   7.643   1.127  0.8051 -0.1057 -1.2278
   10bbb     C6  306   3.498   7.319   0.945 -0.3516 -0.3444 -1.0001
   10bbb    H11  307   3.414   7.278   1.002  1.3195 -0.3413  1.6386
   10bbb    H12  308   3.588   7.317   1.008  0.3888 -0.0103 -2.0237
   10bbb     C7  309   3.750   7.610   1.102 -0.0153 -0.0794  0.0591
   10bbb    H13  310   3.818   7.694   1.122  1.3667 -1.0582 -0.3480
   10bbb    H14  311   3.733   7.614   0.994  3.5166 -2.6716 -0.7645
   10bbb     C8  312   3.532   7.247   0.813 -0.0470 -0.2109 -0.0570
   10bbb    H15  313   3.599   7.163   0.836  0.7628  0.0338 -1.4090
   10bbb    H16  314   3.605   7.304   0.754 -0.2489 -0.4935 -0.5825
   10bbb     C9  315   3.198   7.857   1.098  0.4588  0.3627  0.4042
   10bbb    H17  316   3.280   7.930   1.106 -0.8676  2.0603 -0.8482
   10bbb    H18  317   3.116   7.879   1.167 -0.0601  0.9970 -0.4059
   10bbb     O1  318   3.808   7.484   1.139  0.1068  0.0120 -0.2459
   11bbb     N1  319   3.983   6.418   0.887 -0.5705  0.2721 -0.5316
   11bbb     C1  320   3.892   6.414   0.776 -0.3832 -0.5237 -0.6125
   11bbb     H1  321   3.944   6.386   0.684  2.8384 -0.2787  0.9881
   11bbb     H2  322   3.852   6.515   0.762  1.0117  0.4640  1.8821
   11bbb     C2  323   4.003   6.280   0.941 -0.0375 -0.0207 -0.0704
   11bbb     H3  324   4.074   6.236   0.870  0.3767 -2.0718  1.5239
   11bbb     H4  325   3.916   6.215   0.948 -1.6337  2.1510  1.6590
   11bbb     C3  326   4.108   6.495   0.855 -0.2405  0.0786 -0.0797
   11bbb     H5  327   4.186   6.434   0.808 -1.0599  0.7093 -2.3451
   11bbb     H6  328   4.139   6.524   0.956 -0.3699 -1.4261  0.4259
   11bbb     C4  329   4.082   6.636   0.789  0.2514  0.7526 -0.1184
   11bbb     H7  330   4.023   6.628   0.696 -2.7448 -0.4057  1.7123
   11bbb     H8  331   4.182   6.675   0.768 -0.2461  1.6896 -0.8518
   11bbb     C5  332   3.761   6.336   0.784 -0.5422 -0.0576  0.8037
   11bbb     H9  333   3.783   6.229   0.781  0.0974  0.0915 -0.1302
   11bbb    H10  334   3.696   6.362   0.699  1.1974  1.0748 -0.2494
   11bbb     C6  335   4.075   6.289   1.077 -0.4908  0.4076 -0.1713
   11bbb    H11  336   4.167   6.346   1.061  0.9423 -1.9291 -0.6274
   11bbb    H12  337   4.118   6.190   1.098  0.5878  1.0654  0.8774
   11bbb     C7  338   4.015   6.743   0.874  0.3723 -0.0709  0.0929
   11bbb    H13  339   4.067   6.753   0.970  1.8391 -0.9673 -0.5764
   11bbb    H14  340   3.910   6.715   0.886  0.0910  0.0928 -1.6972
   11bbb     C8  341   3.996   6.352   1.187 -0.0860 -0.1669 -0.0169
   11bbb    H15  342   3.907   6.296   1.219  0.8601 -0.8085  1.6349
   11bbb    H16  343   3.957   6.447   1.148  0.0301  0.2117  0.7782
   11bbb     C9  344   3.685   6.363   0.917 -0.7027  0.1988 -0.3828
   11bbb    H17  345   3.675   6.472   0.925 -0.4589  0.1752  0.3010
   11bbb    H18  346   3.738   6.315   1.000 -0.7254 -0.3262 -0.6661
   11bbb     O1  347   4.031   6.863   0.803 -0.4478 -0.1524  0.1528
   12bbb     N1  348   4.362   6.467  -0.155 -0.1669  0.0199 -0.0949
   12bbb     C1  349   4.419   6.608  -0.150 -0.4180  0.1915 -0.2814
   12bbb     H1  350   4.371   6.673  -0.077  2.0656  0.5108  1.1651
   12bbb     H2  351   4.400   6.663  -0.243 -0.6144  1.8975  0.7420
   12bbb     C2  352   4.306   6.422  -0.286 -0.3907 -0.0516 -0.5312
   12bbb     H3  353   4.274   6.317  -0.283 -0.1461 -0.1123  0.4821
   12bbb     H4  354   4.386   6.429  -0.360  0.3225  0.4873  0.2680
   12bbb     C3  355   4.276   6.442  -0.037 -0.5719 -0.6227  0.2731
   12bbb     H5  356   4.192   6.513  -0.029 -1.6508 -1.7900 -0.3194
   12bbb     H6  357   4.344   6.474   0.043  0.1621  0.1788 -0.6559
   12bbb     C4  358   4.229   6.300  -0.020 -0.1129  0.1035  0.3651
   12bbb     H7  359   4.316   6.236  -0.040  0.6790  0.8348  1.3986
   12bbb     H8  360   4.165   6.288  -0.109 -1.5142 -2.1537  1.5733
   12bbb     C5  361   4.573   6.606  -0.118  0.3395 -0.5901  0.0917
   12bbb     H9  362   4.591   6.588  -0.011 -0.5365  2.0583  0.7478
   12bbb    H10  363   4.622   6.704  -0.121  0.7257 -0.7444  0.9498
   12bbb     C6  364   4.187   6.510  -0.332  0.2997  0.1334  0.6207
   12bbb    H11  365   4.218   6.596  -0.392 -2.6202 -0.1180 -1.4688
   12bbb    H12  366   4.127   6.534  -0.244  0.5454 -0.5241  0.9766
   12bbb     C7  367   4.152   6.273   0.112  0.0506 -0.4144 -0.7466
   12bbb    H13  368   4.095   6.179   0.112  1.1775 -1.1200 -1.4887
   12bbb    H14  369   4.082   6.356   0.129 -0.5591 -1.2633  1.2247
   12bbb     C8  370   4.086   6.427  -0.421  0.1999  0.2350 -0.2519
   12bbb    H15  371   4.014   6.504  -0.452  0.6855  1.6332  1.8507
   12bbb    H16  372   4.046   6.345  -0.360  1.1683 -0.6806 -0.8254
   12bbb     C9  373   4.668   6.520  -0.202  0.3132  1.0954 -0.4176
   12bbb    H17  374   4.699   6.571  -0.294  2.0673 -0.8513 -0.9845
   12bbb    H18  375   4.622   6.422  -0.220 -2.2399  1.7796  1.7893
   12bbb     O1  376   4.262   6.254   0.206  0.6027 -0.3850 -0.5020
   13bbb     N1  377   4.254   6.816   1.332 -0.1556  0.4653  0.7523
   13bbb     C1  378   4.306   6.881   1.454  0.3531 -0.0052 -0.8786
   13bbb     H1  379   4.219   6.931   1.499 -1.2742 -4.6368  1.8999
   13bbb     H2  380   4.383   6.955   1.429 -0.8643  0.5318 -3.2448
   13bbb     C2  381   4.156   6.904   1.268  0.3822  0.4469 -0.1575
   13bbb     H3  382   4.075   6.908   1.342  0.0572  2.1850 -0.5785
   13bbb     H4  383   4.119   6.852   1.179  0.3131 -2.1210  1.2758
   13bbb     C3  384   4.362   6.761   1.252  0.0066  0.3461  0.3303
   13bbb     H5  385   4.430   6.694   1.305 -0.1478  1.6213  2.2361
   13bbb     H6  386   4.424   6.840   1.208 -1.2339 -0.0867 -2.4183
   13bbb     C4  387   4.320   6.680   1.133 -0.0914 -0.1009 -0.0237
   13bbb     H7  388   4.283   6.755   1.062  2.5000  1.8338  0.5077
   13bbb     H8  389   4.250   6.598   1.153  0.0509 -0.4950 -1.1076
   13bbb     C5  390   4.376   6.778   1.558 -0.4706  0.8862  0.8687
   13bbb     H9  391   4.414   6.691   1.503 -0.5825  0.0487  2.0546
   13bbb    H10  392   4.297   6.733   1.620 -0.8707  0.4385  0.0505
   13bbb     C6  393   4.191   7.045   1.228  0.2885  0.2429 -0.5740
   13bbb    H11  394   4.290   7.035   1.181  0.8569  1.2692  0.3666
   13bbb    H12  395   4.207   7.107   1.318  2.2832 -1.5113  0.3741
   13bbb     C7  396   4.435   6.621   1.050 -0.0978  0.2314 -0.0790
   13bbb    H13  397   4.473   6.531   1.099  1.0598  1.3750  1.2393
   13bbb    H14  398   4.521   6.689   1.043  0.2166 -0.0309  0.9824
   13bbb     C8  399   4.094   7.112   1.122  0.3121  0.1472  0.2111
   13bbb    H15  400   4.112   7.056   1.029  0.5185  2.1578 -1.0073
   13bbb    H16  401   4.129   7.215   1.113 -2.3911  1.1992  0.8205
   13bbb     C9  402   4.472   6.854   1.651  0.5305  0.0599  0.2429
   13bbb    H17  403   4.485   6.804   1.748 -0.4469 -0.2134  0.2422
   13bbb    H18  404   4.423   6.948   1.679 -1.5037 -0.7641 -0.3706
   13bbb     O1  405   4.392   6.601   0.912  0.2715 -0.2742  0.0347
   14ccc     C1  406   3.696   8.254  -1.022  0.1854  0.0594 -0.2679
   14ccc     H1  407   3.671   8.150  -1.001 -0.1898  0.5235  1.8517
   14ccc     H2  408   3.695   8.273  -1.129 -0.1263  0.0487 -0.2695
   14ccc     C2  409   3.834   8.285  -0.964  0.3260  0.5967  0.1203
   14ccc     H3  410   3.857   8.393  -0.964 -0.0708  0.6845 -0.2444
   14ccc     H4  411   3.848   8.261  -0.858 -0.4225 -1.8361 -0.2658
   14ccc     C3  412   3.950   8.198  -1.024  0.8795  0.5782 -0.0448
   14ccc     H5  413   4.049   8.224  -0.984  0.6691  0.7798  0.3471
   14ccc     H6  414   3.962   8.216  -1.131  0.2011  0.2160 -0.1861
   14ccc     N1  415   3.582   8.332  -0.962  0.4197  0.0371 -0.3744
   14ccc     H7  416   3.491   8.293  -0.991  1.0185 -2.2073  0.4946
   14ccc     H8  417   3.585   8.304  -0.862  1.7219 -1.7516 -0.8512
   14ccc     O1  418   3.927   8.057  -1.002 -0.4791 -0.1039  0.5421
   14ccc    H17  419   3.605   8.432  -0.965  1.1740 -0.1464 -1.0138
   15ccc     C1  420   4.257   8.578  -0.542  0.5336  0.1635 -0.0889
   15ccc     H1  421   4.149   8.597  -0.544  0.3183 -0.9398  0.1529
   15ccc     H2  422   4.275   8.543  -0.644  0.6563 -1.7809  0.5567
   15ccc     C2  423   4.297   8.474  -0.434 -0.2196  0.0056 -0.4988
   15ccc     H3  424   4.405   8.486  -0.419 -0.4910  2.4531 -0.0715
   15ccc     H4  425   4.252   8.489  -0.335  3.2107 -2.8004  1.7618
   15ccc     C3  426   4.249   8.333  -0.474  0.2262  0.7908  0.2124
   15ccc     H5  427   4.143   8.340  -0.501  0.6382 -1.1421 -2.2309
   15ccc     H6  428   4.265   8.250  -0.404  2.2669  0.5545 -0.4552
   15ccc     N1  429   4.321   8.716  -0.522  0.2843 -0.1766  0.2038
   15ccc     H7  430   4.287   8.749  -0.431 -0.1317  2.5924 -0.8469
   15ccc     H8  431   4.424   8.711  -0.529  0.2131 -0.4839 -0.7124
   15ccc     O1  432   4.314   8.292  -0.600 -0.1831  0.5374  0.2803
   15ccc    H17  433   4.273   8.776  -0.592 -1.3603 -0.2933  1.1724
   16ccc     C1  434   3.593   6.647   0.071 -0.3052 -0.1857 -0.3036
   16ccc     H1  435   3.682   6.711   0.065 -2.0107  2.4318  0.7032
   16ccc     H2  436   3.541   6.687   0.158 -2.4191 -2.1811 -0.5655
   16ccc     C2  437   3.645   6.502   0.103  0.0752 -0.2548 -0.2558
   16ccc     H3  438   3.554   6.441   0.117 -0.0112 -0.5347 -1.8619
   16ccc     H4  439   3.701   6.461   0.018 -0.2747 -0.0572 -0.5874
   16ccc     C3  440   3.721   6.496   0.242  0.2582 -0.7327 -0.2838
   16ccc     H5  441   3.745   6.394   0.275 -0.3162 -0.4833  0.9412
   16ccc     H6  442   3.657   6.535   0.321  1.3849 -0.5415  0.5594
   16ccc     N1  443   3.503   6.665  -0.046  0.4480 -1.2547 -0.1266
   16ccc     H7  444   3.411   6.620  -0.036 -0.8152  1.3528  0.7269
   16ccc     H8  445   3.492   6.763  -0.075  1.5019 -0.9887  0.3298
   16ccc     O1  446   3.830   6.585   0.224 -0.4451  0.6675 -0.6533
   16ccc    H17  447   3.538   6.623  -0.134 -0.3609 -0.6843 -0.7328
   17ccc     C1  448   4.692   7.113   0.915  0.9786  0.4534 -0.0137
   17ccc     H1  449   4.741   7.058   0.835 -0.2037 -2.2081  0.9947
   17ccc     H2  450   4.753   7.096   1.004 -0.8331  1.2614  1.4392
   17ccc     C2  451   4.541   7.075   0.935  0.2034 -0.2206  0.2036
   17ccc     H3  452   4.511   7.105   1.037 -0.3684 -1.6631  0.4837
   17ccc     H4  453   4.482   7.123   0.856  1.8241  0.4358 -0.6559
   17ccc     C3  454   4.513   6.919   0.916 -0.2919  0.0129  0.1338
   17ccc     H5  455   4.409   6.900   0.948 -0.3035  1.9431  1.3900
   17ccc     H6  456   4.580   6.871   0.987 -1.1619 -1.4448  0.0197
   17ccc     N1  457   4.706   7.265   0.903  0.2555 -0.0323  0.0924
   17ccc     H7  458   4.643   7.294   0.827  0.6100 -0.5836 -0.4161
   17ccc     H8  459   4.686   7.311   0.993 -2.0764 -0.6570 -0.0514
   17ccc     O1  460   4.532   6.879   0.781 -0.3449  0.1549 -0.5940
   17ccc    H17  461   4.805   7.292   0.891 -0.5469  1.9486 -3.6836
   18ccc     C1  462   4.927   7.148  -1.044  0.0535 -0.7037  0.0241
   18ccc     H1  463   4.955   7.172  -1.146 -1.6422 -0.7266 -0.4764
   18ccc     H2  464   4.821   7.124  -1.032  0.1284 -0.4624  1.2997
   18ccc     C2  465   4.962   7.254  -0.930  0.5251  0.0837 -0.0186
   18ccc     H3  466   4.911   7.241  -0.833  0.9147  2.2161  0.5258
   18ccc     H4  467   5.070   7.260  -0.911  0.5172  1.9433 -0.4118
   18ccc     C3  468   4.924   7.400  -0.969 -0.8551  0.6298  0.5156
   18ccc     H5  469   4.980   7.419  -1.061 -1.3303 -2.0562 -0.4225
   18ccc     H6  470   4.963   7.468  -0.893  4.4885 -0.0318 -1.1926
   18ccc     N1  471   5.008   7.028  -1.011 -0.2723  0.0359  0.2218
   18ccc     H7  472   5.102   7.029  -1.054  1.0331  2.0764  2.8198
   18ccc     H8  473   5.013   7.017  -0.909 -2.0312 -1.0038  0.2259
   18ccc     O1  474   4.777   7.402  -0.993 -0.0026  0.0988  0.1671
   18ccc    H17  475   4.972   6.939  -1.047  1.0992 -0.0627 -1.0175
   19ccc     C1  476   5.328   7.979  -0.425  0.5399  0.1602 -0.4001
   19ccc     H1  477   5.366   7.894  -0.482 -0.7294 -1.6382  1.3184
   19ccc     H2  478   5.305   7.937  -0.327 -2.9858  0.7500 -0.8594
   19ccc     C2  479   5.197   8.033  -0.482  0.0527  0.2658 -0.0315
   19ccc     H3  480   5.175   8.121  -0.421  0.3495 -1.0149  2.0481
   19ccc     H4  481   5.207   8.058  -0.588 -2.2165  0.3844 -0.2661
   19ccc     C3  482   5.076   7.934  -0.454  0.3005  0.3958 -0.7555
   19ccc     H5  483   4.982   7.973  -0.494 -0.3316 -1.0874 -0.7832
   19ccc     H6  484   5.070   7.926  -0.344 -0.5284 -1.1968 -0.8851
   19ccc     N1  485   5.443   8.078  -0.415  0.0540 -0.0457  0.3417
   19ccc     H7  486   5.493   8.082  -0.325 -0.2672  0.5549  0.4999
   19ccc     H8  487   5.512   8.065  -0.489 -0.7977  0.7754 -0.6258
   19ccc     O1  488   5.095   7.805  -0.497  0.8294  0.2193 -0.2714
   19ccc    H17  489   5.392   8.167  -0.424 -2.2872 -1.3729 -0.5628
   20ccc     C1  490   5.063   6.909  -0.044  0.2599  0.0614  0.5636
   20ccc     H1  491   5.003   6.819  -0.035 -0.3703  0.5924  1.9278
   20ccc     H2  492   5.125   6.934   0.042  2.7251 -1.3245 -0.7061
   20ccc     C2  493   4.969   7.028  -0.053  0.3771 -0.2776  0.3883
   20ccc     H3  494   5.027   7.121  -0.054  1.5567 -0.9879 -0.6540
   20ccc     H4  495   4.912   7.024  -0.147 -0.4331  2.8104  0.6544
   20ccc     C3  496   4.874   7.029   0.073  0.0182 -0.2021  0.5938
   20ccc     H5  497   4.928   7.072   0.158 -1.2721 -1.7339  2.2730
   20ccc     H6  498   4.858   6.924   0.102 -1.4217 -0.4480 -0.9687
   20ccc     N1  499   5.173   6.890  -0.151 -0.1391  0.2774  0.1252
   20ccc     H7  500   5.257   6.948  -0.138 -0.6246  0.6628  1.8309
   20ccc     H8  501   5.200   6.790  -0.150  0.0230  0.3173 -0.1247
   20ccc     O1  502   4.754   7.101   0.060  0.3884  0.2631  0.1734
   20ccc    H17  503   5.146   6.903  -0.249 -0.7688  0.2167  0.2886
   21ccc     C1  504   3.953   7.774   0.384  0.1305 -0.1066  0.4630
   21ccc     H1  505   3.845   7.765   0.379  0.2156 -1.8487  0.9855
   21ccc     H2  506   3.990   7.727   0.292 -0.7672 -1.3781  0.7253
   21ccc     C2  507   4.010   7.694   0.506  1.1680  0.3332  0.5546
   21ccc     H3  508   3.982   7.754   0.594 -0.0183 -1.1885  1.2762
   21ccc     H4  509   3.951   7.601   0.511 -0.1724  1.1988  1.6872
   21ccc     C3  510   4.162   7.665   0.498 -0.1257 -0.9873  0.1194
   21ccc     H5  511   4.186   7.586   0.571  0.0795 -0.9604  0.0809
   21ccc     H6  512   4.218   7.755   0.524  0.2804 -1.7929  2.2405
   21ccc     N1  513   3.982   7.921   0.382 -0.2071 -1.1577  0.6278
   21ccc     H7  514   3.928   7.958   0.461 -2.5662 -0.7967 -1.0377
   21ccc     H8  515   4.078   7.948   0.408  0.3664 -0.7779 -1.6078
   21ccc     O1  516   4.191   7.620   0.360  0.0180  0.0504 -0.3550
   21ccc    H17  517   3.947   7.968   0.297 -1.8052 -1.0340  1.3169
   22ccc     C1  518   3.187   7.130   0.586  0.3095  0.5336 -0.3111
   22ccc     H1  519   3.170   7.184   0.679 -0.1054 -0.6817  0.3312
   22ccc     H2  520   3.209   7.027   0.613 -0.6997  0.3407 -0.2255
   22ccc     C2  521   3.302   7.197   0.518 -1.1075  0.0172 -0.5874
   22ccc     H3  522   3.305   7.159   0.415 -0.2414  1.2072 -1.0204
   22ccc     H4  523   3.272   7.303   0.509 -1.5284 -0.2175 -2.1876
   22ccc     C3  524   3.438   7.175   0.596  0.3282  0.1713  0.7287
   22ccc     H5  525   3.511   7.248   0.557 -2.1006  2.0476 -0.6142
   22ccc     H6  526   3.477   7.072   0.595  1.5785  0.6246  0.0069
   22ccc     N1  527   3.051   7.138   0.516  0.7140 -0.1852 -0.1423
   22ccc     H7  528   2.979   7.187   0.571  0.0080  0.0918 -1.2743
   22ccc     H8  529   3.064   7.186   0.426 -1.5428 -1.9383 -1.5072
   22ccc     O1  530   3.419   7.210   0.732 -0.2335  1.0025  0.5746
   22ccc    H17  531   3.019   7.041   0.499  3.0195 -1.3193  1.3397
   23ccc     C1  532   2.953   7.903   0.750 -0.2472  0.7384 -0.0914
   23ccc     H1  533   3.001   7.812   0.786  1.7433  1.8664  0.2466
   23ccc     H2  534   2.944   7.905   0.642  0.1215 -0.0934 -0.1421
   23ccc     C2  535   3.045   8.014   0.805 -0.2855  0.2849  0.0669
   23ccc     H3  536   3.138   8.014   0.747  1.0432  0.0345  2.0921
   23ccc     H4  537   2.995   8.110   0.785 -1.7404 -0.7913 -1.7988
   23ccc     C3  538   3.090   8.004   0.953 -0.1209 -0.3627  0.5159
   23ccc     H5  539   3.008   8.024   1.024 -0.0573  2.1003 -0.0194
   23ccc     H6  540   3.165   8.081   0.975  0.9420 -1.1435 -0.3197
   23ccc     N1  541   2.810   7.901   0.799 -0.2597  0.0951  0.4347
   23ccc     H7  542   2.802   7.888   0.901 -1.3927  1.2771  0.5187
   23ccc     H8  543   2.766   7.814   0.767 -1.0544 -0.4485  2.7823
   23ccc     O1  544   3.144   7.871   0.962 -0.5277 -0.2978  0.4347
   23ccc    H17  545   2.750   7.977   0.766 -0.0618 -0.3356 -0.9929
   24ccc     C1  546   4.079   6.275   1.592 -0.3849  0.4120  0.5330
   24ccc     H1  547   4.163   6.218   1.554  0.6702  2.0500  0.3507
   24ccc     H2  548   3.996   6.207   1.570  0.9053 -2.6863  4.0804
   24ccc     C2  549   4.093   6.414   1.534  0.3510  0.4426  0.1252
   24ccc     H3  550   4.057   6.496   1.597  3.1406  0.8364  1.3631
   24ccc     H4  551   4.197   6.438   1.510  0.9784 -1.9461  0.2173
   24ccc     C3  552   4.014   6.438   1.403  0.0104  0.0723  0.0084
   24ccc     H5  553   4.018   6.545   1.376 -0.1640 -0.1418 -0.8952
   24ccc     H6  554   3.911   6.402   1.415 -0.2485  1.1538  1.3056
   24ccc     N1  555   4.096   6.272   1.739 -0.1611 -0.2537  0.0103
   24ccc     H7  556   4.018   6.316   1.789 -1.1494 -0.6132 -1.1720
   24ccc     H8  557   4.078   6.173   1.759 -0.4795 -0.1754  0.1120
   24ccc     O1  558   4.078   6.371   1.298 -0.1982  0.2602 -0.0895
   24ccc    H17  559   4.185   6.309   1.777 -0.6691 -0.8412  1.8228
   25ccc     C1  560   3.391   6.053   0.803  0.1792  0.4199 -0.3914
   25ccc     H1  561   3.297   6.007   0.773  0.9877 -0.3087 -1.8914
   25ccc     H2  562   3.462   5.976   0.833  1.6195  1.8590  0.0213
   25ccc     C2  563   3.382   6.141   0.929 -0.5340  1.1109  0.6655
   25ccc     H3  564   3.313   6.226   0.916  0.9379  1.9713 -2.8637
   25ccc     H4  565   3.351   6.064   1.000 -1.9923  0.9462 -0.1164
   25ccc     C3  566   3.517   6.202   0.985 -0.0053 -0.5656  0.0744
   25ccc     H5  567   3.597   6.126   0.988 -1.0754 -1.6965  0.8973
   25ccc     H6  568   3.505   6.240   1.087  0.8676  1.5578 -0.5450
   25ccc     N1  569   3.442   6.131   0.678 -0.4661  0.6029  0.3043
   25ccc     H7  570   3.452   6.071   0.595 -0.1305  0.9528  0.0844
   25ccc     H8  571   3.373   6.206   0.663  0.7302  1.8187  0.6254
   25ccc     O1  572   3.559   6.309   0.894 -0.0785  0.0133  0.0069
   25ccc    H17  573   3.537   6.170   0.688  0.4867 -1.5519  0.2188
   26ccc     C1  574   4.271   6.297  -0.806  0.0736  0.2840 -0.2113
   26ccc     H1  575   4.339   6.368  -0.759 -0.0072  0.1925  0.0430
   26ccc     H2  576   4.212   6.338  -0.888 -0.9949 -4.1807 -1.9762
   26ccc     C2  577   4.174   6.215  -0.716 -0.8828  0.3877  0.5593
   26ccc     H3  578   4.132   6.132  -0.773  2.2784  0.2104 -1.8152
   26ccc     H4  579   4.239   6.166  -0.642 -0.3220  2.0451  1.2354
   26ccc     C3  580   4.076   6.302  -0.630 -0.1970 -0.1896 -0.1543
   26ccc     H5  581   4.009   6.230  -0.581  0.7888 -1.8964 -1.1823
   26ccc     H6  582   4.011   6.380  -0.671 -2.0672 -1.1540  0.8536
   26ccc     N1  583   4.377   6.203  -0.875  0.2752  0.5503  0.8989
   26ccc     H7  584   4.444   6.168  -0.806 -0.5409  0.0867  1.4697
   26ccc     H8  585   4.332   6.126  -0.926  0.0403  1.6568 -0.6560
   26ccc     O1  586   4.163   6.370  -0.532 -0.0258  0.0948  0.2658
   26ccc    H17  587   4.434   6.251  -0.947  0.1742  0.4126  0.7269
   27ccc     C1  588   4.873   6.230  -0.050  0.0415 -0.3451  0.4404
   27ccc     H1  589   4.771   6.245  -0.015 -0.5774 -0.3301 -1.2623
   27ccc     H2  590   4.941   6.279   0.019 -0.6175  2.2983 -0.6685
   27ccc     C2  591   4.880   6.292  -0.195  0.2335  0.1810  0.3672
   27ccc     H3  592   4.964   6.258  -0.257 -0.2496 -1.7576  0.7153
   27ccc     H4  593   4.788   6.265  -0.248 -0.4510  0.3804  1.4164
   27ccc     C3  594   4.893   6.446  -0.194 -0.4755 -0.4009  0.7505
   27ccc     H5  595   4.893   6.475  -0.300 -0.3196 -2.3967  0.1703
   27ccc     H6  596   4.979   6.473  -0.132 -1.8899 -1.1443  3.1743
   27ccc     N1  597   4.895   6.081  -0.047 -0.0920  0.3459 -0.7212
   27ccc     H7  598   4.967   6.051  -0.114  0.9016 -1.4329  1.0439
   27ccc     H8  599   4.927   6.046   0.045  1.5528 -2.4129 -2.1925
   27ccc     O1  600   4.784   6.503  -0.124  0.1269  0.5015  0.0257
   27ccc    H17  601   4.809   6.026  -0.062 -0.2729  1.2547 -3.6052
   28ccc     C1  602   3.689   7.125   1.423  0.8719  0.4413  0.2041
   28ccc     H1  603   3.719   7.213   1.480  0.8459  0.8912 -0.4560
   28ccc     H2  604   3.722   7.033   1.471 -0.4813 -0.8926 -1.2624
   28ccc     C2  605   3.748   7.139   1.282  0.3828 -1.0629 -0.0572
   28ccc     H3  606   3.710   7.063   1.213 -1.3770  2.1428 -2.9327
   28ccc     H4  607   3.712   7.234   1.241 -1.8037 -0.9420  1.9182
   28ccc     C3  608   3.899   7.131   1.280 -0.0658  0.2707 -0.9101
   28ccc     H5  609   3.931   7.061   1.358 -0.8923  1.8289  0.8803
   28ccc     H6  610   3.935   7.223   1.327 -0.1776 -0.2899  0.2990
   28ccc     N1  611   3.534   7.114   1.417  0.0114 -0.2795  0.5658
   28ccc     H7  612   3.484   7.204   1.421 -2.7855 -1.5223 -2.0309
   28ccc     H8  613   3.491   7.075   1.332 -0.1829  0.9204  0.0905
   28ccc     O1  614   3.953   7.107   1.145 -0.3840  0.2670 -0.4791
   28ccc    H17  615   3.502   7.063   1.501 -0.3519 -0.5942  0.2464
   29ccc     C1  616   4.858   6.770   1.528  0.1506 -0.4898  0.3476
   29ccc     H1  617   4.952   6.767   1.473 -1.0245 -0.3410 -1.7390
   29ccc     H2  618   4.778   6.759   1.456  0.1630  1.1830  0.0399
   29ccc     C2  619   4.837   6.906   1.608  0.3698  0.2184 -0.0061
   29ccc     H3  620   4.923   6.912   1.675  0.2688 -1.9511  0.3927
   29ccc     H4  621   4.830   6.989   1.536 -0.1321  0.1824 -0.0086
   29ccc     C3  622   4.702   6.902   1.683 -0.4114 -0.0247 -0.1743
   29ccc     H5  623   4.685   6.997   1.736 -1.5464 -0.2478 -0.1115
   29ccc     H6  624   4.711   6.823   1.758  2.0281 -0.9764 -1.3612
   29ccc     N1  625   4.867   6.646   1.610  0.0625 -0.2192 -0.3796
   29ccc     H7  626   4.873   6.559   1.555  3.9645 -0.5786  0.3377
   29ccc     H8  627   4.949   6.645   1.673 -0.6683 -0.7254  0.6096
   29ccc     O1  628   4.595   6.879   1.588 -0.5436 -0.8797 -0.1295
   29ccc    H17  629   4.781   6.634   1.666  1.0931 -0.5656  1.2137
   30SOL     OW  630   6.918   3.207   4.432  0.0318 -0.8715  0.0611
   30SOL    HW1  631   6.988   3.216   4.497  1.3999 -1.5616 -1.2713
   30SOL    HW2  632   6.839   3.235   4.479  1.1147 -0.4323  1.7239
   31SOL     OW  633   0.022   2.261   2.275  0.0747  0.0183  0.5373
   31SOL    HW1  634  -0.068   2.271   2.243 -0.1011 -1.4437  0.4894
   31SOL    HW2  635   0.050   2.176   2.242  1.4509  0.4002  0.6566
   32SOL     OW  636   3.744   4.679   2.909  0.3282 -0.8128  0.0842
   32SOL    HW1  637   3.793   4.674   2.826 -0.8327 -1.0767 -0.6048
   32SOL    HW2  638   3.792   4.621   2.968  1.2527 -0.5156 -0.3557
   33SOL     OW  639   6.684   7.450   2.810  0.0815 -0.0733  0.2998
   33SOL    HW1  640   6.635   7.429   2.730 -0.4417  1.4114  0.1913
   33SOL    HW2  641   6.616   7.462   2.877  0.4143  0.2640  0.5789
   34SOL     OW  642   1.423   2.057   5.280 -0.7253 -0.0154 -0.0106
   34SOL    HW1  643   1.341   2.064   5.329 -0.4814  1.4692  0.2150
   34SOL    HW2  644   1.482   2.009   5.338 -0.8041  0.6988  0.6651
   35SOL     OW  645   0.929   3.691   2.504 -0.4677 -0.1509 -0.8526
   35SOL    HW1  646   0.924   3.621   2.570 -0.3857  1.9170  1.4687
   35SOL    HW2  647   1.022   3.712   2.499 -0.7703  1.8273  0.8109
   36SOL     OW  648   4.238   2.396   0.874  0.0243  0.0233 -0.1448
   36SOL    HW1  649   4.256   2.479   0.830 -0.0337 -0.3748 -0.9329
   36SOL    HW2  650   4.304   2.391   0.943 -0.9729  1.4860  0.9908
   37SOL     OW  651   7.170   5.891   3.845 -0.1342  0.1624  0.3606
   37SOL    HW1  652   7.251   5.854   3.879  0.3683 -0.4964 -1.4092
   37SOL    HW2  653   7.199   5.956   3.781 -1.0229  1.7249  1.4777
   38SOL     OW  654   4.059   2.229   5.919 -0.1530 -0.1589 -0.1971
   38SOL    HW1  655   4.061   2.217   6.014 -2.6433  3.0541  0.4385
   38SOL    HW2  656   4.140   2.277   5.900 -0.1818  0.1819  0.5036
   39SOL     OW  657   1.202   1.404   2.559 -0.0016 -0.0811 -0.6550
   39SOL    HW1  658   1.158   1.350   2.624  1.7522 -1.2489 -0.3575
   39SOL    HW2  659   1.136   1.468   2.532 -1.1889 -0.3952  1.2815
   40SOL     OW  660   7.205   1.066   6.081  0.0130 -0.0789  0.0479
   40SOL    HW1  661   7.275   1.006   6.055  0.6832  0.5352  0.4046
   40SOL    HW2  662   7.163   1.092   5.998  1.9354  1.6378 -0.4592
   41SOL     OW  663   6.248   1.536   2.221  0.0047  0.0340  0.0445
   41SOL    HW1  664   6.301   1.489   2.157  0.9890 -0.4599  1.1897
   41SOL    HW2  665   6.219   1.615   2.174 -0.2015 -0.8108 -1.3310
   42SOL     OW  666   6.964   5.795   3.991  0.5950 -0.0784 -0.6249
   42SOL    HW1  667   7.040   5.817   3.937  0.4227  0.2297 -0.7447
   42SOL    HW2  668   6.909   5.874   3.988  0.0956 -0.4315 -0.8403
   43SOL     OW  669   5.531   7.107   3.894 -0.3403  0.1557  0.5031
   43SOL    HW1  670   5.524   7.195   3.931 -2.3099 -0.3824  1.5075
   43SOL    HW2  671   5.479   7.051   3.952 -0.4099 -1.4130 -0.9729
   44SOL     OW  672   1.094   4.122   6.919 -0.5428  0.1213 -0.1110
   44SOL    HW1  673   1.136   4.124   6.833  1.4500  4.7056  0.6577
   44SOL    HW2  674   1.162   4.092   6.978 -0.5542  0.8968  0.3108
   45SOL     OW  675   5.164   3.782   3.886 -0.2410  0.1300 -0.0469
   45SOL    HW1  676   5.126   3.840   3.952 -1.3837 -0.2739 -0.3176
   45SOL    HW2  677   5.241   3.744   3.928  0.0972  1.2708  0.3888
   46SOL     OW  678   3.631   1.431   4.447  0.0374 -0.0509 -0.2204
   46SOL    HW1  679   3.718   1.466   4.429  0.5155 -0.0303  1.9223
   46SOL    HW2  680   3.571   1.496   4.409  0.9441  1.4654  0.8309
   47SOL     OW  681   3.012   6.307   4.211  0.3035 -0.6189  0.1379
   47SOL    HW1  682   2.959   6.299   4.291 -1.8470 -2.2563 -1.2999
   47SOL    HW2  683   2.949   6.294   4.140  2.4763 -1.4504 -1.7706
   48SOL     OW  684   7.327   4.153   6.453  0.1869 -0.4123 -0.0659
   48SOL    HW1  685   7.258   4.147   6.386  0.0723  0.5900 -0.0654
   48SOL    HW2  686   7.406   4.177   6.404 -0.2325  1.9356  0.2773
   49SOL     OW  687   1.622   1.208   3.690 -0.1732  0.7974 -0.3361
   49SOL    HW1  688   1.589   1.298   3.694  0.1743  0.9122  0.0822
   49SOL    HW2  689   1.544   1.154   3.676 -0.4808  1.1072  0.1414
   50SOL     OW  690   2.602   2.864   7.281 -0.3512 -0.2450 -0.0278
   50SOL    HW1  691   2.654   2.942   7.301 -0.2211 -0.4593  0.5047
   50SOL    HW2  692   2.539   2.893   7.215 -0.6716  0.4574  0.5695
   51SOL     OW  693   6.945   5.999   5.575  0.0376  0.0062  0.5238
   51SOL    HW1  694   6.999   5.934   5.529 -1.0802 -0.1604 -0.6160
   51SOL    HW2  695   6.896   5.949   5.639 -0.1897 -0.1483  0.2305
   52SOL     OW  696   4.603   0.641   1.149  0.5198  0.3034  0.2375
   52SOL    HW1  697   4.609   0.737   1.146 -1.3580  0.4423 -0.5995
   52SOL    HW2  698   4.669   0.611   1.087  1.0825  1.0532  0.4563
   53SOL     OW  699   0.845   6.184   1.252 -0.0386  0.1438  0.2753
   53SOL    HW1  700   0.873   6.195   1.161 -1.6246  1.1763 -0.1297
   53SOL    HW2  701   0.761   6.139   1.246  0.1508 -0.3506  1.2671
   54SOL     OW  702   4.672   5.650   6.319  0.1766  0.1327 -0.2374
   54SOL    HW1  703   4.758   5.651   6.360 -0.3560 -0.8672  0.9842
   54SOL    HW2  704   4.688   5.620   6.229  0.9942 -1.1276  0.3029
   55SOL     OW  705   6.841   4.015   0.168  0.3069 -0.2636 -0.7375
   55SOL    HW1  706   6.809   4.071   0.239  0.6430 -0.2259 -0.6143
   55SOL    HW2  707   6.762   3.991   0.119  0.0410 -0.4933 -0.2065
   56SOL     OW  708   1.952   6.495   7.398  0.6279 -0.3974  0.4234
   56SOL    HW1  709   2.003   6.516   7.476  0.1766 -0.5331  0.7518
   56SOL    HW2  710   2.004   6.429   7.352  1.7368  0.8961 -0.2690
   57SOL     OW  711   4.811   0.882   1.445 -0.6247  0.0269 -0.1262
   57SOL    HW1  712   4.735   0.903   1.499 -0.9329 -0.6621 -0.2747
   57SOL    HW2  713   4.886   0.902   1.501 -0.9144  0.6213  0.0538
   58SOL     OW  714   5.537   4.517   4.543 -0.2397  0.1860  0.1592
   58SOL    HW1  715   5.517   4.487   4.632  1.0435 -0.7943  0.1464
   58SOL    HW2  716   5.590   4.447   4.506 -1.2961  0.2768 -1.6316
   59SOL     OW  717   2.163   6.930   5.738 -0.3185 -0.4422 -0.0048
   59SOL    HW1  718   2.193   7.016   5.707 -0.5009 -0.4857 -0.3032
   59SOL    HW2  719   2.161   6.939   5.834  0.0291 -0.2354 -0.0115
   60SOL     OW  720   0.749   1.315   3.802  0.0939 -0.2278 -0.9497
   60SOL    HW1  721   0.743   1.279   3.890  1.0243  0.4697 -0.5861
   60SOL    HW2  722   0.698   1.255   3.748 -0.9586 -0.3611  0.1492
   61SOL     OW  723   5.977   2.450   3.762  0.5573 -0.1019 -0.0479
   61SOL    HW1  724   6.021   2.416   3.684 -1.0630 -2.7689  0.0788
   61SOL    HW2  725   5.898   2.493   3.727  0.5184 -0.1024  0.0406
   62SOL     OW  726   2.426   0.220   5.423  0.5354  0.2651 -0.0290
   62SOL    HW1  727   2.501   0.159   5.427  1.3281  1.0371 -1.7964
   62SOL    HW2  728   2.448   0.289   5.485  0.5391 -0.2780  0.5882
   63SOL     OW  729   7.394   1.147   5.679  0.2399 -0.1194  0.7452
   63SOL    HW1  730   7.459   1.209   5.712 -0.4282  0.2860  1.3374
   63SOL    HW2  731   7.315   1.200   5.667  0.0528 -0.5755 -0.0910
   64SOL     OW  732   2.030   1.975   0.949  0.3639 -0.5309  0.7893
   64SOL    HW1  733   2.050   2.017   0.865  0.7391 -1.5607  0.3451
   64SOL    HW2  734   1.955   2.023   0.983 -0.2971 -0.6070 -0.5235
   65SOL     OW  735   6.918   4.129   4.755 -0.4073  0.0508 -0.3357
   65SOL    HW1  736   6.832   4.172   4.757 -0.2790  0.3255  1.8422
   65SOL    HW2  737   6.899   4.041   4.722 -1.6160 -0.0194  0.4611
   66SOL     OW  738   3.433   3.461   1.836  0.3256 -0.5845 -0.6199
   66SOL    HW1  739   3.444   3.504   1.751 -1.6578 -1.3235 -1.3111
   66SOL    HW2  740   3.482   3.515   1.897 -0.8396  1.8384 -1.7048
   67SOL     OW  741   7.182   3.383   3.556  0.2760 -0.0791 -0.7383
   67SOL    HW1  742   7.145   3.465   3.523  0.1530  0.8864  1.6446
   67SOL    HW2  743   7.276   3.391   3.542  0.1087 -0.3825 -2.2217
   68SOL     OW  744   0.460   4.830   3.467  0.3129  0.2217  0.7988
   68SOL    HW1  745   0.373   4.813   3.430  1.3977  0.1259 -1.9964
   68SOL    HW2  746   0.461   4.924   3.485 -0.0961  0.3884 -0.0226
   69SOL     OW  747   3.027   2.046   1.161 -0.2621  0.0893 -0.4580
   69SOL    HW1  748   3.051   1.957   1.186 -0.6150  0.4899  1.4783
   69SOL    HW2  749   2.986   2.036   1.075  0.1986 -1.5331 -0.5313
   70SOL     OW  750   4.592   0.070   1.032 -1.0843  0.4107  0.5680
   70SOL    HW1  751   4.636   0.028   0.958  0.6543  0.0172  1.7468
   70SOL    HW2  752   4.502   0.083   1.003 -1.2979 -2.5990 -0.5002
   71SOL     OW  753   0.799   6.437   0.604  0.1513 -0.0593  0.5871
   71SOL    HW1  754   0.846   6.520   0.619 -0.1036  0.3357 -0.6588
   71SOL    HW2  755   0.843   6.399   0.528  0.5134 -1.2791  1.3873
   72SOL     OW  756   1.282   0.497   1.851  0.3714  0.1760 -0.2083
   72SOL    HW1  757   1.189   0.520   1.858  0.4178  1.2311 -2.1141
   72SOL    HW2  758   1.328   0.580   1.865  0.9936 -0.2186  0.1137
   73SOL     OW  759   5.504   6.557   5.890 -0.0385  0.3489 -0.2930
   73SOL    HW1  760   5.475   6.507   5.966  0.1321 -0.7010 -0.8944
   73SOL    HW2  761   5.426   6.603   5.860 -0.6161 -0.8530 -0.6925
   74SOL     OW  762   3.249   6.366   0.070 -0.4213 -0.0492  0.0259
   74SOL    HW1  763   3.163   6.333   0.044  0.0320 -0.9124 -0.4177
   74SOL    HW2  764   3.292   6.386  -0.013 -0.2617  0.5647  0.2551
   75SOL     OW  765   2.617   0.025   5.369 -0.6965 -0.0231  0.3014
   75SOL    HW1  766   2.596  -0.059   5.329 -0.8198  0.7879 -1.4315
   75SOL    HW2  767   2.713   0.025   5.376 -0.5600  0.3014 -1.1986
   76SOL     OW  768   5.851   1.168   4.462  0.0336  0.9369  0.2743
   76SOL    HW1  769   5.766   1.210   4.449  0.3862  1.5956  0.0802
   76SOL    HW2  770   5.911   1.216   4.405  0.3493 -0.1458 -0.3309
   77SOL     OW  771   0.826   2.654   5.987  0.6829  0.0532 -0.0401
   77SOL    HW1  772   0.769   2.641   6.063  1.6043  0.5408  0.7596
   77SOL    HW2  773   0.791   2.595   5.920 -0.0149 -0.5520  0.8383
   78SOL     OW  774   1.596   7.586   1.773  0.0018 -0.2591  0.2344
   78SOL    HW1  775   1.612   7.679   1.757 -1.5996  0.2552  1.3720
   78SOL    HW2  776   1.603   7.576   1.868 -2.2700 -0.7584  0.3973
   79SOL     OW  777   0.018   4.384   2.567 -0.2536  0.0483 -0.1836
   79SOL    HW1  778  -0.014   4.295   2.556  0.9330 -0.4674  0.3072
   79SOL    HW2  779   0.113   4.375   2.568 -0.1058  1.3667 -0.4513
   80SOL     OW  780   6.038   1.089   1.699  0.6295  0.1094 -0.0559
   80SOL    HW1  781   6.010   1.178   1.678  2.6293  0.7593 -0.2129
   80SOL    HW2  782   6.133   1.092   1.692  0.7189 -2.1713 -0.4786
   81SOL     OW  783   0.339   2.555   0.749 -0.4378 -0.0563  0.1431
   81SOL    HW1  784   0.311   2.530   0.661  1.8275 -2.1971 -0.0665
   81SOL    HW2  785   0.425   2.595   0.736 -1.4474  2.6628  1.1383
   82SOL     OW  786   0.331   4.606   5.758 -0.1357 -0.9436  0.0763
   82SOL    HW1  787   0.398   4.655   5.806 -1.3512  0.0692  0.8309
   82SOL    HW2  788   0.333   4.644   5.670 -0.2490 -0.3393  0.3238
   83SOL     OW  789   1.016   6.389   3.333  0.4893  0.4662 -0.2907
   83SOL    HW1  790   0.937   6.342   3.307  0.5372  1.4160 -2.2976
   83SOL    HW2  791   1.012   6.391   3.429 -0.5552 -1.7654 -0.2338
   84SOL     OW  792   6.500   0.042   2.055  0.0042 -0.2209  0.1128
   84SOL    HW1  793   6.418  -0.006   2.071 -0.3317  0.8542  1.8859
   84SOL    HW2  794   6.485   0.089   1.973 -1.3310  0.2893  0.6236
   85SOL     OW  795   6.618   4.590   6.765  0.2521  0.6563 -0.0249
   85SOL    HW1  796   6.667   4.523   6.716  0.4401  0.4797  0.4014
   85SOL    HW2  797   6.674   4.610   6.840 -0.0127  0.9639  0.0894
   86SOL     OW  798   4.516   0.238   4.894 -0.0700 -0.1039 -0.0006
   86SOL    HW1  799   4.544   0.175   4.961  1.5316 -0.4350 -0.9233
   86SOL    HW2  800   4.428   0.210   4.870 -0.6001 -0.0878  1.8157
   87SOL     OW  801   6.270   2.897   1.882 -1.0138  0.5967  0.8936
   87SOL    HW1  802   6.197   2.873   1.825  0.4502  2.1561 -1.7898
   87SOL    HW2  803   6.279   2.822   1.941 -3.5435 -0.4565  0.0877
   88SOL     OW  804   6.862   1.475   4.370  0.0333 -0.0830  0.1585
   88SOL    HW1  805   6.919   1.435   4.305  0.1357  0.3061  0.0067
   88SOL    HW2  806   6.902   1.560   4.389  0.1727 -0.3095  0.9545
   89SOL     OW  807   4.794   1.580   5.388  0.0924  0.0149 -0.3361
   89SOL    HW1  808   4.730   1.640   5.350  0.9781 -0.1919 -2.2310
   89SOL    HW2  809   4.879   1.618   5.367  0.7187 -2.2032 -2.2471
   90SOL     OW  810   6.275   5.676   3.727  0.1934 -0.4671 -0.2204
   90SOL    HW1  811   6.369   5.659   3.739 -0.0083 -0.3073  1.8742
   90SOL    HW2  812   6.244   5.601   3.675  1.4322 -0.5859 -0.8391
   91SOL     OW  813   6.293   0.590   5.772 -0.1518  0.0460 -0.5309
   91SOL    HW1  814   6.198   0.601   5.769 -0.0923  0.9327  0.4489
   91SOL    HW2  815   6.308   0.534   5.848  0.1967  1.1703  0.2510
   92SOL     OW  816   1.944   2.293   2.018 -0.2307 -0.3480 -0.1850
   92SOL    HW1  817   1.958   2.203   1.988 -1.8220 -0.8311  0.4074
   92SOL    HW2  818   1.901   2.336   1.944 -0.5069 -0.3981 -0.0531
   93SOL     OW  819   0.789   3.041   0.575 -0.0262  0.7186  0.4716
   93SOL    HW1  820   0.843   2.963   0.590 -0.8334  0.0436 -0.0650
   93SOL    HW2  821   0.748   3.026   0.490  0.5530  2.1782 -0.1203
   94SOL     OW  822   6.871   3.550   4.558  0.0991  0.2972  0.1933
   94SOL    HW1  823   6.915   3.498   4.626  0.5603  1.0891  0.5106
   94SOL    HW2  824   6.829   3.485   4.502  0.7874 -0.4292  0.5037
   95SOL     OW  825   0.675   4.202   4.839  0.5348  0.4040  0.3054
   95SOL    HW1  826   0.717   4.261   4.777 -0.5550  1.5663  0.6266
   95SOL    HW2  827   0.625   4.260   4.897 -2.4937 -0.8921 -0.8161
   96SOL     OW  828   5.668   1.998   1.859 -0.1442  0.3494  0.4509
   96SOL    HW1  829   5.685   2.086   1.891  0.5420  0.4268 -0.1021
   96SOL    HW2  830   5.669   2.006   1.764 -0.5079 -0.1755  0.3958
   97SOL     OW  831   2.677   1.320   1.620  0.4200  0.4615 -0.1145
   97SOL    HW1  832   2.718   1.404   1.598 -0.4295  0.6272 -1.1235
   97SOL    HW2  833   2.714   1.258   1.557 -1.2069  0.7142 -1.3729
   98SOL     OW  834   1.074   3.524   5.243 -0.3384  0.1026 -0.6404
   98SOL    HW1  835   1.103   3.452   5.300 -2.2572  1.4181  2.2302
   98SOL    HW2  836   1.033   3.480   5.169  1.6715 -1.6949 -0.7986
   99SOL     OW  837   2.143   3.094   0.448 -0.4541  0.0061  0.4711
   99SOL    HW1  838   2.134   3.146   0.527 -2.0069 -1.5153  1.3584
   99SOL    HW2  839   2.069   3.121   0.393  0.2060  0.5364 -0.1846
  100SOL     OW  840   2.476   7.458   5.209 -0.1976 -0.0729  0.0119
  100SOL    HW1  841   2.398   7.487   5.257 -0.2163 -0.2228  0.0710
  100SOL    HW2  842   2.446   7.451   5.118 -0.3794 -0.6001  0.1115
  101SOL     OW  843   5.270   6.960   3.460  0.3275 -0.0808 -0.1924
  101SOL    HW1  844   5.235   6.960   3.548  0.8058  0.4392  0.0055
  101SOL    HW2  845   5.205   7.006   3.407 -0.2496 -0.9299 -0.2397
  102SOL     OW  846   7.008   5.837   3.642 -0.4467  0.5688 -0.3144
  102SOL    HW1  847   7.065   5.864   3.570 -0.0479  0.0060 -0.2146
  102SOL    HW2  848   7.063   5.845   3.721 -0.0377 -1.2995 -0.3694
  103SOL     OW  849   3.945   4.535   2.065 -0.1941 -0.0483 -0.8486
  103SOL    HW1  850   3.998   4.566   1.992  1.2891 -1.3463 -0.3706
  103SOL    HW2  851   3.974   4.587   2.139 -0.6296  0.2323 -0.8719
  104SOL     OW  852   7.360   1.601   7.267  0.0727  0.3022 -0.2287
  104SOL    HW1  853   7.361   1.588   7.362 -0.2730 -0.6533 -0.3399
  104SOL    HW2  854   7.385   1.692   7.255  0.1956  0.4162  0.7783
  105SOL     OW  855   6.697   1.548   1.162 -0.3398 -0.0377 -0.3183
  105SOL    HW1  856   6.659   1.569   1.247 -0.9918  0.6790 -0.7707
  105SOL    HW2  857   6.780   1.597   1.160 -0.2242 -0.2157 -0.0239
  106SOL     OW  858   3.201   5.581   6.556  0.3877 -0.4208  0.0138
  106SOL    HW1  859   3.221   5.611   6.467  0.3994 -1.3865 -0.3241
  106SOL    HW2  860   3.254   5.637   6.613 -0.5718  1.0571 -0.4845
  107SOL     OW  861   0.240   4.324   1.616 -0.4653 -0.2822 -0.5214
  107SOL    HW1  862   0.300   4.307   1.544 -0.5355 -0.3795 -0.5572
  107SOL    HW2  863   0.289   4.303   1.695 -0.9796 -1.9310 -0.6187
  108SOL     OW  864   2.786   4.436   6.301  0.0439 -0.1630 -0.3248
  108SOL    HW1  865   2.856   4.391   6.253 -0.8768 -0.1912 -1.6596
  108SOL    HW2  866   2.707   4.388   6.280 -0.4614  0.0959  0.8932
  109SOL     OW  867   0.694   4.995   6.969  0.2521  0.0962  0.5655
  109SOL    HW1  868   0.675   5.079   6.927 -0.1128 -0.2759 -0.0267
  109SOL    HW2  869   0.776   4.966   6.928 -0.8495 -0.9566 -0.9900
  110SOL     OW  870   6.164   2.155   3.768 -0.0553 -0.0574  0.0747
  110SOL    HW1  871   6.087   2.160   3.824  0.3988  0.2589  0.6874
  110SOL    HW2  872   6.164   2.066   3.734 -2.0109  0.5824 -1.8634
  111SOL     OW  873   2.089   3.825   1.933  0.3814  0.1365 -0.0033
  111SOL    HW1  874   2.108   3.888   2.002  3.0159  0.5084 -0.9767
  111SOL    HW2  875   2.007   3.856   1.894 -0.1048  1.0362  1.6368
  112SOL     OW  876   2.941   5.373   0.228 -0.6285  0.0159 -0.4063
  112SOL    HW1  877   2.927   5.314   0.154  0.6457  1.5589 -1.9585
  112SOL    HW2  878   2.853   5.397   0.257 -1.1511 -0.7958 -1.2665
  113SOL     OW  879   7.033   3.683   0.633 -0.0785 -0.5237  0.2208
  113SOL    HW1  880   7.024   3.778   0.632  3.1869 -0.1055  0.2187
  113SOL    HW2  881   7.017   3.657   0.542  1.6605  0.4336 -0.4173
  114SOL     OW  882   2.685   0.563   1.970 -0.1609 -0.0410  0.0619
  114SOL    HW1  883   2.618   0.508   1.929  0.5469 -1.0412  0.2307
  114SOL    HW2  884   2.768   0.530   1.935  0.2840  0.8215  0.2831
  115SOL     OW  885   3.707   5.503   4.116 -0.4708  0.3892  0.8885
  115SOL    HW1  886   3.698   5.590   4.078  1.1255  0.4140  0.5318
  115SOL    HW2  887   3.622   5.462   4.100 -0.9881  1.6046  0.3765
  116SOL     OW  888   6.620   1.695   2.451 -0.3308 -0.3000 -0.3938
  116SOL    HW1  889   6.572   1.632   2.504 -0.7396  1.1935  1.1016
  116SOL    HW2  890   6.605   1.779   2.495  0.2304  0.8338 -2.2744
  117SOL     OW  891   6.656   2.156   0.649  0.4541  0.2020 -0.2675
  117SOL    HW1  892   6.643   2.240   0.692  0.2453  0.7566 -1.3888
  117SOL    HW2  893   6.738   2.123   0.686  0.3568  0.7341  0.4328
  118SOL     OW  894   7.388   7.244   3.504 -0.1204 -0.1681 -0.1035
  118SOL    HW1  895   7.307   7.239   3.555  0.3943 -1.8231  0.6161
  118SOL    HW2  896   7.359   7.237   3.413 -0.7579 -1.4470  0.1763
  119SOL     OW  897   2.141   1.448   6.722  0.4646  0.1171  0.5453
  119SOL    HW1  898   2.139   1.533   6.678  1.1603 -0.8359 -1.4164
  119SOL    HW2  899   2.073   1.397   6.679 -0.5115 -0.1084  2.2639
  120SOL     OW  900   6.212   0.848   2.087 -0.1275  0.2673  0.2196
  120SOL    HW1  901   6.190   0.905   2.161  0.0287  2.2048 -1.1243
  120SOL    HW2  902   6.146   0.869   2.021  1.9544  1.5658 -1.5898
  121SOL     OW  903   7.373   3.959   2.971  0.1320  0.8391 -0.3595
  121SOL    HW1  904   7.425   3.878   2.974  1.8641  1.9071  0.2989
  121SOL    HW2  905   7.321   3.957   3.051  0.9090  0.8067  0.1610
  122SOL     OW  906   0.707   1.476   2.568 -0.6350 -0.1363  0.1593
  122SOL    HW1  907   0.743   1.469   2.479 -1.7775 -1.3364 -0.2425
  122SOL    HW2  908   0.686   1.569   2.579  0.1975  0.1435 -0.5406
  123SOL     OW  909   5.599   6.901   1.224  0.1661  0.6359  0.2167
  123SOL    HW1  910   5.642   6.870   1.303 -1.2668 -0.4198  0.6191
  123SOL    HW2  911   5.641   6.985   1.205  3.8535 -1.1812 -0.5952
  124SOL     OW  912   4.064   0.179   2.726 -0.1625  0.0753 -0.0962
  124SOL    HW1  913   4.112   0.219   2.654  0.1906  0.4943  0.3699
  124SOL    HW2  914   3.986   0.234   2.736  1.3685  2.0410  1.9807
  125SOL     OW  915   0.353   1.900   4.017  0.2042 -0.0874 -0.7706
  125SOL    HW1  916   0.445   1.890   4.040  1.0515  3.8798 -1.7434
  125SOL    HW2  917   0.336   1.830   3.954  2.2585 -1.4215  0.0533
  126SOL     OW  918   5.569   2.834   6.466  0.5460  0.0437 -0.8243
  126SOL    HW1  919   5.476   2.850   6.449  0.9638  0.7326 -2.6227
  126SOL    HW2  920   5.596   2.907   6.522 -0.4063 -1.2536  1.5255
  127SOL     OW  921   4.449   5.534   0.218 -0.1385 -0.2172 -0.4625
  127SOL    HW1  922   4.524   5.475   0.223  0.9672  1.1362 -0.5503
  127SOL    HW2  923   4.375   5.480   0.245  0.7311 -1.7946 -1.0621
  128SOL     OW  924   4.456   4.620   6.981 -0.1727  0.5247  0.0547
  128SOL    HW1  925   4.420   4.669   6.907 -0.6342 -0.6791 -0.5489
  128SOL    HW2  926   4.417   4.660   7.058  1.1400  2.5099 -0.2278
  129SOL     OW  927   6.894   2.475   0.051  0.0758  0.5574  0.4218
  129SOL    HW1  928   6.851   2.394   0.080 -0.0385 -0.5045 -2.3925
  129SOL    HW2  929   6.977   2.477   0.099  0.4386 -1.6901  0.0075
  130SOL     OW  930   6.098   5.150   2.707  0.0380  0.2908 -0.8205
  130SOL    HW1  931   6.131   5.069   2.668 -0.6003 -1.0197  1.1722
  130SOL    HW2  932   6.008   5.130   2.732  0.8899  0.2848  2.9145
  131SOL     OW  933   1.241   6.302   3.616  0.2111 -0.2058 -0.0435
  131SOL    HW1  934   1.308   6.291   3.684 -1.2686 -1.5235  1.2854
  131SOL    HW2  935   1.190   6.377   3.645  0.9599  0.6979 -0.9751
  132SOL     OW  936   2.623   4.080   5.434 -0.0418  0.0165 -0.1807
  132SOL    HW1  937   2.613   3.986   5.419 -0.7821 -0.0616  0.6986
  132SOL    HW2  938   2.537   4.109   5.463  0.0884  1.0404 -0.7862
  133SOL     OW  939   2.345   1.135   7.483  0.3949 -0.0799  0.2459
  133SOL    HW1  940   2.338   1.042   7.506 -2.2770 -0.7045 -2.4144
  133SOL    HW2  941   2.327   1.181   7.565  3.3776 -1.7521  2.0278
  134SOL     OW  942   0.593   4.454   2.395 -0.0357  0.5851  0.0346
  134SOL    HW1  943   0.684   4.474   2.369  0.6692 -1.0126  1.1417
  134SOL    HW2  944   0.571   4.376   2.344 -0.2718  0.1298  0.8343
  135SOL     OW  945   4.031   4.442   0.962  0.1337 -0.6953 -0.0461
  135SOL    HW1  946   4.063   4.364   1.008 -0.6081 -0.2095  1.3627
  135SOL    HW2  947   4.090   4.512   0.990  0.0749 -0.5164 -0.3640
  136SOL     OW  948   6.007   4.692   3.833 -0.4992  0.1809  0.3192
  136SOL    HW1  949   5.946   4.745   3.782  0.0949  1.0337  0.4941
  136SOL    HW2  950   6.091   4.737   3.826 -0.0201 -0.6456  0.6049
  137SOL     OW  951   1.024   2.535   0.060  0.0550 -0.0914  0.2790
  137SOL    HW1  952   1.026   2.450   0.104 -1.3630  0.0221  0.6195
  137SOL    HW2  953   1.092   2.587   0.105 -0.5501 -0.3582  1.5597
  138SOL     OW  954   6.361   3.540   5.556 -0.1627 -0.1590 -0.4779
  138SOL    HW1  955   6.349   3.460   5.505  0.1667  0.2704 -1.2429
  138SOL    HW2  956   6.445   3.528   5.599 -0.9171 -0.9835  0.8548
  139SOL     OW  957   0.630   5.969   7.599  0.0403  0.3747 -0.0704
  139SOL    HW1  958   0.609   5.907   7.530 -0.9480 -0.2314  0.7544
  139SOL    HW2  959   0.663   5.916   7.671 -0.8580  0.7797  0.6628
  140SOL     OW  960   0.391   3.903   4.242 -0.0498 -0.0941 -0.4065
  140SOL    HW1  961   0.362   3.822   4.201  1.9374 -0.1534 -1.8063
  140SOL    HW2  962   0.446   3.946   4.176 -0.0219  1.7902  0.7543
  141SOL     OW  963   5.150   1.152   3.111 -0.6573  0.0721 -0.4220
  141SOL    HW1  964   5.144   1.213   3.037 -1.2751  0.1724 -0.2939
  141SOL    HW2  965   5.059   1.140   3.139 -0.4766 -0.4033 -0.0343
  142SOL     OW  966   4.340   1.296   2.289  0.3278 -0.1287  0.1027
  142SOL    HW1  967   4.405   1.226   2.281  0.4214 -0.0089 -0.2116
  142SOL    HW2  968   4.285   1.287   2.211  1.0257  0.8312 -0.5417
  143SOL     OW  969   4.691   5.705   4.383  0.6650  0.5776  0.2900
  143SOL    HW1  970   4.626   5.635   4.391  0.4353  0.9216  1.6883
  143SOL    HW2  971   4.767   5.664   4.342 -0.3769  0.1417 -1.2995
  144SOL     OW  972   4.658   7.356   1.174  0.3798 -0.1520 -0.0249
  144SOL    HW1  973   4.586   7.320   1.225  1.3813 -1.2855  0.6544
  144SOL    HW2  974   4.702   7.417   1.234  1.7299 -1.7004  0.6473
  145SOL     OW  975   2.526   3.899   4.776  0.0264 -0.2614  0.1658
  145SOL    HW1  976   2.540   3.933   4.864 -1.0872  0.1392  0.1971
  145SOL    HW2  977   2.488   3.812   4.789  0.1930 -0.3496  0.0764
  146SOL     OW  978   0.041   4.582   1.913 -0.1675 -0.1659  0.2366
  146SOL    HW1  979   0.133   4.595   1.894 -0.4617  0.7548 -0.6385
  146SOL    HW2  980   0.019   4.652   1.975 -0.9059  1.4470 -1.7231
  147SOL     OW  981   6.317   0.138   3.963  0.3858 -0.1514  0.3099
  147SOL    HW1  982   6.248   0.074   3.945 -0.0347 -0.1410  1.7685
  147SOL    HW2  983   6.274   0.205   4.015  1.4678 -0.0905  1.1574
  148SOL     OW  984   3.069   4.352   4.524 -0.0026  0.0909 -0.5853
  148SOL    HW1  985   2.987   4.352   4.476 -0.3495 -0.1275 -0.0136
  148SOL    HW2  986   3.055   4.413   4.597 -0.1095 -0.8642  0.2239
  149SOL     OW  987   7.131   2.614   2.894 -0.2431  0.4630  0.3816
  149SOL    HW1  988   7.076   2.607   2.815 -2.3089 -1.0561  1.8444
  149SOL    HW2  989   7.219   2.597   2.862 -1.0833 -0.7118 -1.5744
  150SOL     OW  990   4.167   0.066   1.652 -0.2551  0.3811 -0.2639
  150SOL    HW1  991   4.094   0.049   1.711 -0.0442 -0.0972 -0.1304
  150SOL    HW2  992   4.244   0.070   1.710  0.0979 -1.0912 -0.5796
  151SOL     OW  993   2.064   7.411   1.183 -0.0471 -0.6180 -0.0211
  151SOL    HW1  994   1.997   7.367   1.130  0.1684  0.2701 -1.0535
  151SOL    HW2  995   2.026   7.414   1.270 -1.3909 -0.0781 -0.5962
  152SOL     OW  996   5.986   1.475   2.242 -0.2399 -0.4090 -0.0512
  152SOL    HW1  997   6.077   1.500   2.226 -0.5535  1.7304  1.1066
  152SOL    HW2  998   5.935   1.532   2.185 -0.8860 -1.0518 -0.1267
  153SOL     OW  999   5.338   1.222   0.160 -0.1234  0.3875 -0.2123
  153SOL    HW1 1000   5.401   1.151   0.159 -1.9149 -1.2845 -2.1004
  153SOL    HW2 1001   5.363   1.278   0.086  0.9774  1.5591  0.9692
  154SOL     OW 1002   6.951   6.239   7.135  0.4896  0.4924 -0.2310
  154SOL    HW1 1003   7.000   6.236   7.053  0.2164  0.7386 -0.4068
  154SOL    HW2 1004   6.941   6.332   7.154 -1.1794  0.5076 -0.9860
  155SOL     OW 1005   7.206   7.270   7.413 -0.0767 -0.3145 -0.4593
  155SOL    HW1 1006   7.162   7.186   7.432  0.0542 -0.0901  0.9606
  155SOL    HW2 1007   7.299   7.251   7.425 -0.1561  0.4814  1.9566
  156SOL     OW 1008   6.461   0.797   2.174  0.1053 -0.2094 -0.6792
  156SOL    HW1 1009   6.383   0.847   2.150  1.7843  2.8050 -0.4891
  156SOL    HW2 1010   6.489   0.836   2.257  1.8195 -1.1416 -0.7625
  157SOL     OW 1011   1.134   6.115   3.388 -0.2207  0.4637 -0.5347
  157SOL    HW1 1012   1.045   6.130   3.357 -0.5037 -0.7894 -0.4069
  157SOL    HW2 1013   1.130   6.129   3.482  0.1544  2.2026 -0.7563
  158SOL     OW 1014   0.797   2.241   2.229  0.7066  0.0329 -0.4824
  158SOL    HW1 1015   0.805   2.312   2.166  0.3951  1.2009  0.7619
  158SOL    HW2 1016   0.886   2.225   2.260  1.2585 -2.1085 -2.7880
  159SOL     OW 1017   2.255   6.079   5.852  0.3719  0.0473  0.0182
  159SOL    HW1 1018   2.240   5.987   5.872  0.5342  0.5431  2.8429
  159SOL    HW2 1019   2.173   6.108   5.810  0.2948 -1.3081 -0.8511
  160SOL     OW 1020   0.497   4.260   5.209  0.3649  0.3109 -0.2710
  160SOL    HW1 1021   0.557   4.195   5.248  0.6649  0.2011 -0.8996
  160SOL    HW2 1022   0.553   4.312   5.152  0.1555  1.2561  0.3735
  161SOL     OW 1023   7.548   5.226   1.507  0.5141  0.0268  0.0226
  161SOL    HW1 1024   7.532   5.222   1.601  1.9363 -1.1082  0.2618
  161SOL    HW2 1025   7.563   5.135   1.482  2.3742  0.5362 -0.8677
  162SOL     OW 1026   2.841   5.353   7.454  0.1663  0.2025  0.7800
  162SOL    HW1 1027   2.883   5.291   7.513 -0.1286  0.3273  1.1328
  162SOL    HW2 1028   2.911   5.413   7.428  0.0483  0.9758  2.1043
  163SOL     OW 1029   2.245   3.891   0.881 -0.3420  0.0169 -0.1273
  163SOL    HW1 1030   2.166   3.913   0.929 -0.1354 -1.2788  0.8419
  163SOL    HW2 1031   2.268   3.972   0.834 -0.3529  1.4422  2.2037
  164SOL     OW 1032   4.350   2.425   7.147  0.6761 -0.3549  0.4538
  164SOL    HW1 1033   4.274   2.479   7.169 -0.7142 -2.7944  2.1314
  164SOL    HW2 1034   4.419   2.454   7.207  0.3780  0.4274  0.4199
  165SOL     OW 1035   1.251   2.192   4.726 -0.0708  0.6493 -0.0529
  165SOL    HW1 1036   1.206   2.129   4.783  1.0948 -0.4921 -0.3271
  165SOL    HW2 1037   1.200   2.272   4.733 -0.7501  0.1267  1.5173
  166SOL     OW 1038   7.469   6.673   2.221 -0.0667  0.1502 -0.3520
  166SOL    HW1 1039   7.517   6.678   2.304 -2.3162  0.1574  1.0374
  166SOL    HW2 1040   7.403   6.742   2.228 -0.7993 -0.3620 -1.8406
  167SOL     OW 1041   7.182   1.323   4.338  0.2783 -0.1670  0.0312
  167SOL    HW1 1042   7.206   1.235   4.307  1.0010  0.0326  0.0018
  167SOL    HW2 1043   7.259   1.377   4.318  0.6014  0.0596  1.7869
  168SOL     OW 1044   0.175   1.180   0.294  0.1977  0.4699 -0.4832
  168SOL    HW1 1045   0.160   1.140   0.208  1.4777  0.4869 -0.7365
  168SOL    HW2 1046   0.172   1.274   0.277  2.2629  0.5124 -0.9117
  169SOL     OW 1047   7.080   0.360   2.849  0.1385 -0.1077  0.4865
  169SOL    HW1 1048   7.146   0.394   2.787  0.3992 -2.1979 -0.4776
  169SOL    HW2 1049   7.056   0.436   2.902  1.7169  1.2208 -0.5779
  170SOL     OW 1050   3.226   3.609   0.445  0.3919  0.7102 -0.3799
  170SOL    HW1 1051   3.213   3.697   0.481 -0.3647  0.4236  0.0744
  170SOL    HW2 1052   3.285   3.622   0.371  1.4337  1.4146  0.5322
  171SOL     OW 1053   2.897   2.529   3.533  0.5355 -0.3284 -0.1355
  171SOL    HW1 1054   2.948   2.583   3.593  0.5686 -0.3130 -0.1773
  171SOL    HW2 1055   2.926   2.439   3.551 -0.8643 -0.5436  1.2544
  172SOL     OW 1056   4.392   6.817   3.540 -0.3571  0.4447  0.0445
  172SOL    HW1 1057   4.460   6.786   3.481  0.4870 -0.3754  1.3984
  172SOL    HW2 1058   4.319   6.841   3.483  0.8792  0.8765 -1.3997
  173SOL     OW 1059   4.326   5.826   5.836 -0.5297  0.4946  0.1119
  173SOL    HW1 1060   4.290   5.901   5.883  2.1883  1.6472  0.5043
  173SOL    HW2 1061   4.289   5.832   5.748 -0.4913  2.2103  0.1916
  174SOL     OW 1062   0.069   5.625   1.037 -0.6398  0.0884  0.1570
  174SOL    HW1 1063   0.121   5.699   1.068  0.5779 -0.7494  0.1957
  174SOL    HW2 1064  -0.016   5.663   1.016 -0.8989  1.0573  2.5896
  175SOL     OW 1065   1.868   5.600   5.671 -0.2122  0.1687 -0.5835
  175SOL    HW1 1066   1.883   5.506   5.675 -2.3597 -0.2083 -0.2058
  175SOL    HW2 1067   1.822   5.614   5.588  2.2529  1.2967 -1.8627
  176SOL     OW 1068   6.257   4.597   2.073 -0.0757  0.0614 -0.4510
  176SOL    HW1 1069   6.253   4.633   1.984  0.7085  1.4274  0.0309
  176SOL    HW2 1070   6.190   4.646   2.121 -0.9907 -1.1725 -0.4330
  177SOL     OW 1071   5.063   6.831   3.062  0.3975  0.3716 -1.4001
  177SOL    HW1 1072   5.097   6.781   2.988  0.0660 -2.4051  0.2223
  177SOL    HW2 1073   5.126   6.902   3.074  2.3439 -1.1504 -2.1922
  178SOL     OW 1074   2.494   2.697   0.942  0.7768 -0.6128  0.3804
  178SOL    HW1 1075   2.419   2.637   0.940  0.9806 -0.9677  2.0918
  178SOL    HW2 1076   2.558   2.656   0.884  0.4591 -1.4347  0.5875
  179SOL     OW 1077   3.099   5.399   3.630  0.3191 -0.3887 -0.8969
  179SOL    HW1 1078   3.102   5.490   3.599  0.8733 -0.0349  0.1469
  179SOL    HW2 1079   3.187   5.365   3.613  0.6012 -0.2154  0.1941
  180SOL     OW 1080   6.938   5.415   2.128 -0.0145 -0.0925  0.3298
  180SOL    HW1 1081   7.001   5.425   2.057  0.4215  0.6555  0.8081
  180SOL    HW2 1082   6.991   5.408   2.207 -0.4994  2.1319  0.9347
  181SOL     OW 1083   4.321   1.499   2.969 -0.1494  0.3095 -0.1575
  181SOL    HW1 1084   4.412   1.525   2.986  0.0360 -1.1362  1.3122
  181SOL    HW2 1085   4.269   1.555   3.026  0.1144 -1.1798  1.6282
  182SOL     OW 1086   7.333   3.010   4.415 -0.2669  0.3612 -0.6959
  182SOL    HW1 1087   7.281   3.043   4.489 -0.3212  0.0745 -0.6065
  182SOL    HW2 1088   7.415   3.060   4.420  0.9754 -1.6758  1.3401
  183SOL     OW 1089   5.211   5.381   2.553 -0.3360 -0.3871 -0.2168
  183SOL    HW1 1090   5.279   5.445   2.573 -1.1533 -0.1623  2.1746
  183SOL    HW2 1091   5.257   5.297   2.550  0.0560 -0.2803  1.7006
  184SOL     OW 1092   6.011   2.178   7.600 -0.0724  0.2832 -0.0654
  184SOL    HW1 1093   6.025   2.267   7.566  0.9716  0.0486 -0.2775
  184SOL    HW2 1094   5.936   2.186   7.659  0.1725  1.3551  0.1116
  185SOL     OW 1095   3.544   0.927   7.210  0.2383  0.1265 -0.1046
  185SOL    HW1 1096   3.565   0.989   7.279 -2.1342  0.7454  0.1496
  185SOL    HW2 1097   3.471   0.968   7.163  0.4116 -1.2458 -1.6513
  186SOL     OW 1098   7.398   6.317   1.484  0.1877 -0.6303  0.2623
  186SOL    HW1 1099   7.423   6.266   1.407  0.8288  0.8628 -0.5589
  186SOL    HW2 1100   7.303   6.325   1.477  0.3734  0.6627 -1.1631
  187SOL     OW 1101   4.241   6.211   2.577 -0.1663  0.0095  0.3314
  187SOL    HW1 1102   4.191   6.291   2.561  0.3690  0.1865 -0.5294
  187SOL    HW2 1103   4.275   6.186   2.491  0.4532 -0.6134  0.7432
  188SOL     OW 1104   4.533   3.451   5.008 -0.2494 -0.5656  0.5684
  188SOL    HW1 1105   4.597   3.472   5.075  0.1212 -0.1337  0.0875
  188SOL    HW2 1106   4.570   3.487   4.927 -1.3153  0.0916  0.3641
  189SOL     OW 1107   5.231   6.137   2.517 -0.0164  0.3314  0.3492
  189SOL    HW1 1108   5.227   6.164   2.609 -0.1741 -1.8152  1.0230
  189SOL    HW2 1109   5.140   6.117   2.495  0.0557  0.6189 -0.2202
  190SOL     OW 1110   7.494   1.773   5.197 -0.4112  0.3795 -0.1858
  190SOL    HW1 1111   7.475   1.861   5.229 -0.5356  1.2776 -2.5130
  190SOL    HW2 1112   7.565   1.741   5.253 -2.2789  0.7373  2.5751
  191SOL     OW 1113   4.400   6.978   2.308  0.0741  0.6315  0.1390
  191SOL    HW1 1114   4.385   6.912   2.240  0.8346  0.4024  0.1865
  191SOL    HW2 1115   4.364   6.939   2.387  1.9485 -0.4542  0.5187
  192SOL     OW 1116   2.935   5.187   7.162 -0.0259 -0.1823  0.0658
  192SOL    HW1 1117   2.949   5.257   7.098 -0.1161 -0.5267 -0.3403
  192SOL    HW2 1118   3.015   5.187   7.215  0.4995 -0.5529 -0.7000
  193SOL     OW 1119   0.095   1.112   6.727  0.2505 -0.5090  0.5936
  193SOL    HW1 1120   0.035   1.051   6.684 -1.5645 -0.6362  3.0768
  193SOL    HW2 1121   0.167   1.057   6.758 -0.8457 -1.2860  1.8748
  194SOL     OW 1122   4.705   5.370   2.542  0.1723 -0.2234  0.3784
  194SOL    HW1 1123   4.726   5.456   2.507  1.4976  0.0584  1.7495
  194SOL    HW2 1124   4.781   5.316   2.521  0.1444 -0.5590  1.1029
  195SOL     OW 1125   5.993   0.888   1.905  0.4513 -0.3622  0.3578
  195SOL    HW1 1126   6.032   0.958   1.852  0.3782 -0.0635  0.6936
  195SOL    HW2 1127   5.930   0.847   1.846  0.5566 -0.2001  0.1282
  196SOL     OW 1128   6.692   7.503   1.798 -0.1743  0.1212  0.5356
  196SOL    HW1 1129   6.777   7.472   1.767 -0.7413  1.2672 -2.6145
  196SOL    HW2 1130   6.641   7.424   1.814  0.5202 -0.5878 -0.6288
  197SOL     OW 1131   6.548   6.677   5.115  0.2012 -0.0872 -0.1172
  197SOL    HW1 1132   6.558   6.761   5.159  0.8535  0.5976 -1.5105
  197SOL    HW2 1133   6.467   6.640   5.150  0.1301  0.9272  0.8126
  198SOL     OW 1134   1.983   7.425   2.538 -0.0587  0.0516  0.0677
  198SOL    HW1 1135   1.962   7.482   2.612 -0.3894  0.6152 -0.4412
  198SOL    HW2 1136   2.078   7.426   2.533 -0.0268 -0.1627  0.6156
  199SOL     OW 1137   1.962   7.158   0.232 -1.3497  0.3608 -0.2845
  199SOL    HW1 1138   1.949   7.100   0.307 -1.2592  0.4144 -0.2257
  199SOL    HW2 1139   2.057   7.158   0.218 -1.1121  1.9811  0.9388
  200SOL     OW 1140   1.875   2.881   3.438  0.1431 -0.8511 -0.5099
  200SOL    HW1 1141   1.797   2.833   3.466  1.5129 -3.0296 -0.1440
  200SOL    HW2 1142   1.945   2.849   3.495  1.0563  2.3073  0.3490
  201SOL     OW 1143   1.539   7.249   6.152 -0.1943  0.2541 -0.2244
  201SOL    HW1 1144   1.473   7.314   6.126  0.3841  1.5266  1.3029
  201SOL    HW2 1145   1.622   7.296   6.146  0.5144 -1.0854 -1.3532
  202SOL     OW 1146   3.004   3.149   2.219  0.7058  0.4246  0.2128
  202SOL    HW1 1147   2.947   3.216   2.256 -0.3501 -0.3923  0.0940
  202SOL    HW2 1148   3.082   3.151   2.275 -0.0720  0.5085  1.3241
  203SOL     OW 1149   6.853   5.834   7.088  0.5428 -0.3954  0.1455
  203SOL    HW1 1150   6.942   5.801   7.080  1.2871  1.8171 -2.3263
  203SOL    HW2 1151   6.859   5.905   7.152  0.9529  0.6688 -1.0152
  204SOL     OW 1152   0.344   1.803   1.191  0.1859 -0.3388 -0.2710
  204SOL    HW1 1153   0.274   1.753   1.148 -1.4850  0.8717  0.9369
  204SOL    HW2 1154   0.394   1.737   1.239 -0.6494 -1.1242 -0.4520
  205SOL     OW 1155   5.883   3.164   1.346  0.2511 -0.1167 -0.3043
  205SOL    HW1 1156   5.978   3.173   1.342  0.2757 -0.6720 -1.3657
  205SOL    HW2 1157   5.863   3.093   1.285 -0.8631  0.1365 -0.2592
  206SOL     OW 1158   0.575   0.608   5.085 -0.5543 -0.2497 -0.2745
  206SOL    HW1 1159   0.637   0.604   5.158 -0.6126 -1.2710 -0.2554
  206SOL    HW2 1160   0.620   0.563   5.013 -1.6740 -2.0937  0.0852
  207SOL     OW 1161   7.097   7.460   5.458 -0.4719  0.4481 -0.1055
  207SOL    HW1 1162   7.035   7.531   5.470 -1.7294 -0.5292 -0.5751
  207SOL    HW2 1163   7.049   7.381   5.485  0.6768 -0.3000 -0.1542
  208SOL     OW 1164   0.401   2.042   1.932 -0.0839  0.3788  0.3453
  208SOL    HW1 1165   0.474   2.103   1.948 -0.2935  0.6791  0.1596
  208SOL    HW2 1166   0.427   1.962   1.977  0.9437  0.0698 -0.7434
  209SOL     OW 1167   1.111   3.144   2.439  0.0001  0.1661  0.2225
  209SOL    HW1 1168   1.113   3.204   2.365 -2.1311  0.3544  0.2651
  209SOL    HW2 1169   1.167   3.071   2.413 -0.7910  0.1836 -1.6142
  210SOL     OW 1170   4.871   2.405   2.208  0.2833 -0.1454  0.5859
  210SOL    HW1 1171   4.790   2.433   2.165  1.1878  0.0349 -1.1043
  210SOL    HW2 1172   4.842   2.361   2.288 -1.4380  0.4750  0.3503
  211SOL     OW 1173   6.056   3.710   1.370 -0.0699  0.2225  0.0481
  211SOL    HW1 1174   6.064   3.651   1.445  0.0595 -0.4214 -0.4650
  211SOL    HW2 1175   6.143   3.747   1.359  0.0142 -0.0002 -0.0399
  212SOL     OW 1176   2.312   1.948   6.517  0.0774  0.2678 -0.3077
  212SOL    HW1 1177   2.268   1.896   6.449 -0.2771  0.6056 -0.3411
  212SOL    HW2 1178   2.277   1.915   6.599  0.5255 -0.1585 -0.2860
  213SOL     OW 1179   3.954   2.971   1.252 -0.0425 -0.2481 -0.2851
  213SOL    HW1 1180   3.945   2.875   1.250  0.7703 -0.3120 -0.9960
  213SOL    HW2 1181   3.958   2.997   1.160 -0.6948  0.5266 -0.1119
  214SOL     OW 1182   7.373   2.753   4.430 -0.3178  0.1236  0.0573
  214SOL    HW1 1183   7.349   2.845   4.422  0.0723  0.0762 -2.2024
  214SOL    HW2 1184   7.467   2.754   4.448  0.1036  0.1960 -1.9254
  215SOL     OW 1185   0.756   2.012   6.238 -0.3608  0.7064 -0.3956
  215SOL    HW1 1186   0.810   1.934   6.230 -1.7518 -0.2529 -0.8253
  215SOL    HW2 1187   0.797   2.076   6.180 -0.1138 -0.2631 -1.3282
  216SOL     OW 1188   3.011   5.186   4.075  0.3900 -0.5050  0.4704
  216SOL    HW1 1189   3.046   5.274   4.084  2.5174 -1.1834 -0.4893
  216SOL    HW2 1190   3.002   5.173   3.981 -0.5057 -1.0893  0.6290
  217SOL     OW 1191   6.467   0.551   2.313  0.2239  0.3841  0.2073
  217SOL    HW1 1192   6.487   0.625   2.255  2.4458 -0.7465 -0.5847
  217SOL    HW2 1193   6.541   0.546   2.373 -0.3573 -0.6033  0.8744
  218SOL     OW 1194   1.724   0.826   7.473 -0.7283  0.4751  0.6394
  218SOL    HW1 1195   1.811   0.829   7.513 -0.3664  0.0264 -0.1070
  218SOL    HW2 1196   1.734   0.771   7.396 -1.3998  1.4123 -0.1450
  219SOL     OW 1197   3.858   1.600   1.922  0.0845  0.6722 -0.2904
  219SOL    HW1 1198   3.853   1.508   1.948 -0.4537  0.6883 -0.3226
  219SOL    HW2 1199   3.913   1.601   1.844  0.6694  0.4668  0.1188
  220SOL     OW 1200   5.717   1.187   1.268 -0.3115 -0.1475  0.1047
  220SOL    HW1 1201   5.752   1.166   1.181 -0.1522 -2.2096  0.6076
  220SOL    HW2 1202   5.791   1.173   1.327 -0.4548  1.1211  0.6128
  221SOL     OW 1203   2.213   5.498   3.412 -0.1401 -0.0867  0.2588
  221SOL    HW1 1204   2.241   5.521   3.500  0.2944  1.0907 -0.1566
  221SOL    HW2 1205   2.273   5.546   3.355 -0.9506 -0.1379 -0.6695
  222SOL     OW 1206   5.844   6.506   7.493 -0.1150 -0.3482  0.6449
  222SOL    HW1 1207   5.749   6.520   7.489  0.1023  1.1020  0.0454
  222SOL    HW2 1208   5.872   6.558   7.568  0.4414  0.7731 -0.3134
  223SOL     OW 1209   1.329   3.979   2.530  0.3439  0.3121  0.3187
  223SOL    HW1 1210   1.351   4.048   2.592  0.1875 -0.3067  1.0940
  223SOL    HW2 1211   1.308   4.024   2.448  3.5946  0.9900 -0.2581
  224SOL     OW 1212   0.171   2.511   5.528 -0.0984 -0.0104  0.0033
  224SOL    HW1 1213   0.241   2.460   5.570  0.9367  0.9193 -0.5364
  224SOL    HW2 1214   0.196   2.602   5.542 -0.7515  0.3328 -0.9536
  225SOL     OW 1215   1.955   0.988   5.476 -0.3726 -0.2251 -0.4366
  225SOL    HW1 1216   2.000   1.072   5.476  2.9841 -1.8665  0.5732
  225SOL    HW2 1217   1.949   0.963   5.568 -0.5714 -1.4465 -0.7604
  226SOL     OW 1218   4.119   3.690   2.744 -0.1256  0.0321 -0.4057
  226SOL    HW1 1219   4.066   3.752   2.794  0.8165  0.8329 -0.3706
  226SOL    HW2 1220   4.099   3.604   2.782  0.1826  0.5610  0.9886
  227SOL     OW 1221   5.656   5.528   1.975 -0.0513  0.5343 -0.2065
  227SOL    HW1 1222   5.580   5.572   1.937  1.5812  2.8349 -1.0676
  227SOL    HW2 1223   5.675   5.456   1.915 -1.8403 -0.4610  0.3485
  228SOL     OW 1224   4.138   5.041   1.557  0.4452 -0.6011  0.7164
  228SOL    HW1 1225   4.210   5.062   1.617  0.6761 -1.1444  0.6341
  228SOL    HW2 1226   4.181   5.004   1.480  0.1832  0.4885  0.0251
  229SOL     OW 1227   5.419   4.578   6.704 -0.3192  0.5133 -0.1134
  229SOL    HW1 1228   5.513   4.565   6.716 -0.4154 -0.9728 -0.7796
  229SOL    HW2 1229   5.412   4.628   6.623 -0.0912  1.5203  0.4621
  230SOL     OW 1230   2.869   3.618   7.532 -0.1668 -0.3187 -0.6021
  230SOL    HW1 1231   2.942   3.640   7.474  0.5303  1.0317  0.7286
  230SOL    HW2 1232   2.791   3.635   7.479  0.4023 -2.6886 -2.3731
  231SOL     OW 1233   5.735   1.618   6.512 -0.1938 -0.4764  0.7677
  231SOL    HW1 1234   5.707   1.535   6.552  1.1410 -2.0652 -1.3708
  231SOL    HW2 1235   5.781   1.592   6.432 -0.7488  2.4030 -0.6297
  232SOL     OW 1236   6.934   2.707   3.751 -0.4103  0.2553 -0.4285
  232SOL    HW1 1237   6.911   2.793   3.717  0.6820  0.1872 -1.3766
  232SOL    HW2 1238   6.983   2.665   3.681  1.5003 -0.0801  1.0231
  233SOL     OW 1239   3.534   6.494   6.830  0.7023  0.0524  0.1975
  233SOL    HW1 1240   3.618   6.459   6.799  0.3885  0.2050 -0.8674
  233SOL    HW2 1241   3.511   6.561   6.765 -0.4759 -0.3250  0.2081
  234SOL     OW 1242   6.999   1.839   3.336  0.2706 -0.2929  0.6036
  234SOL    HW1 1243   6.963   1.903   3.274 -0.5366 -1.1821  0.1247
  234SOL    HW2 1244   7.033   1.769   3.280  2.4684  0.3447  1.0570
  235SOL     OW 1245   3.179   1.426   4.816 -0.2963 -0.4341  0.3313
  235SOL    HW1 1246   3.248   1.422   4.749 -0.4128  0.4753  0.1328
  235SOL    HW2 1247   3.110   1.478   4.775 -0.4642 -0.0591  1.0698
  236SOL     OW 1248   0.285   2.961   2.378 -0.0061 -0.0898  0.3003
  236SOL    HW1 1249   0.217   3.006   2.327 -0.6353  1.1110  2.1160
  236SOL    HW2 1250   0.367   3.004   2.350 -0.2525  0.0733 -0.1901
  237SOL     OW 1251   1.304   3.560   2.783  0.2003 -0.3690  0.4209
  237SOL    HW1 1252   1.283   3.592   2.871 -0.4046  0.7109 -0.0904
  237SOL    HW2 1253   1.359   3.483   2.798  0.0773 -0.2292  1.7406
  238SOL     OW 1254   6.005   3.416   5.037  0.2229 -0.5256  0.6516
  238SOL    HW1 1255   5.982   3.500   4.996 -1.8216 -1.0429  0.6398
  238SOL    HW2 1256   5.921   3.377   5.062  1.1404 -2.4073  1.0139
  239SOL     OW 1257   7.521   1.944   0.027  0.7849  0.0770  0.2396
  239SOL    HW1 1258   7.601   1.925   0.077  0.2956  0.7631  1.3339
  239SOL    HW2 1259   7.450   1.930   0.090 -0.0940 -1.9436 -1.1147
  240SOL     OW 1260   0.189   5.598   0.491  0.2175  0.4351  0.5140
  240SOL    HW1 1261   0.274   5.583   0.532  0.2953  2.0141  1.0171
  240SOL    HW2 1262   0.195   5.687   0.457 -1.5641  0.9521  1.4241
  241SOL     OW 1263   3.762   1.104   7.083 -0.0368  0.3552  0.7975
  241SOL    HW1 1264   3.822   1.162   7.037 -1.2933  0.6776 -0.4728
  241SOL    HW2 1265   3.818   1.057   7.145  1.2014  2.0435  1.0419
  242SOL     OW 1266   0.471   6.159   4.567 -0.3812  0.3671 -0.8848
  242SOL    HW1 1267   0.563   6.152   4.593 -0.4277 -1.0278 -1.0054
  242SOL    HW2 1268   0.425   6.182   4.648 -0.3098 -2.2706 -0.0014
  243SOL     OW 1269   3.281   6.471   3.267 -0.0711  0.0249  0.3064
  243SOL    HW1 1270   3.293   6.565   3.254 -1.2802  0.3127  1.0463
  243SOL    HW2 1271   3.358   6.443   3.316 -0.3732  0.9281  1.3349
  244SOL     OW 1272   1.996   0.059   1.353  0.3363 -0.5624  0.4853
  244SOL    HW1 1273   2.017   0.125   1.288 -1.9388 -1.9685 -1.8763
  244SOL    HW2 1274   2.079   0.018   1.374  1.4961  1.6565  0.4950
  245SOL     OW 1275   6.372   0.233   0.309 -0.5162  0.7833  0.8017
  245SOL    HW1 1276   6.443   0.191   0.358 -1.0330 -0.1706  0.7456
  245SOL    HW2 1277   6.417   0.280   0.239  0.0040 -1.5685 -0.5688
  246SOL     OW 1278   3.618   5.586   2.985 -0.1673 -0.4876 -0.2972
  246SOL    HW1 1279   3.551   5.553   2.926  0.7191  0.2511 -1.7854
  246SOL    HW2 1280   3.611   5.681   2.979  1.7719 -0.3560 -1.4850
  247SOL     OW 1281   3.832   5.961   4.115 -0.2782 -0.3818  0.0920
  247SOL    HW1 1282   3.864   5.961   4.025 -1.3173  1.1466 -0.3299
  247SOL    HW2 1283   3.755   6.018   4.112  1.2263  2.0056  2.4691
  248SOL     OW 1284   6.910   2.032   0.743  0.8141 -0.1385 -0.1361
  248SOL    HW1 1285   6.953   2.082   0.673 -0.1568 -0.7463 -1.2038
  248SOL    HW2 1286   6.969   1.957   0.758  0.8957 -0.1487 -0.4951
  249SOL     OW 1287   7.307   3.397   5.287  0.3808  0.1503 -0.2274
  249SOL    HW1 1288   7.378   3.409   5.349 -0.3859 -1.5156  1.0425
  249SOL    HW2 1289   7.350   3.365   5.207  1.2977  1.6824 -0.3914
  250SOL     OW 1290   5.757   6.600   1.808 -0.0604 -0.6873 -0.1500
  250SOL    HW1 1291   5.771   6.507   1.824  3.2667 -0.1027  1.0703
  250SOL    HW2 1292   5.672   6.618   1.847  0.4509 -2.7020  2.1478
  251SOL     OW 1293   7.279   4.530   2.506 -0.0524 -0.7418 -0.4207
  251SOL    HW1 1294   7.215   4.491   2.565  0.8778 -1.3696  0.1827
  251SOL    HW2 1295   7.266   4.484   2.423 -2.4022  1.1742 -1.2275
  252SOL     OW 1296   1.932   2.050   5.005  0.4417 -0.2852  0.4523
  252SOL    HW1 1297   2.024   2.064   5.029  0.9482  0.8476 -1.8097
  252SOL    HW2 1298   1.925   1.955   4.991  0.9326 -0.5331  1.7532
  253SOL     OW 1299   7.441   4.598   0.053 -0.2335 -0.0375 -0.5254
  253SOL    HW1 1300   7.481   4.631   0.134 -0.0381  0.1292 -0.6876
  253SOL    HW2 1301   7.349   4.622   0.060 -0.5895 -1.5674  0.4491
  254SOL     OW 1302   0.965   2.368   0.549  0.4144  0.2108 -0.0802
  254SOL    HW1 1303   0.981   2.437   0.614 -0.0197 -0.8999  1.2379
  254SOL    HW2 1304   0.871   2.354   0.551  0.4470 -0.1280 -0.6713
  255SOL     OW 1305   5.579   6.033   4.883 -0.1682 -0.1178  0.3297
  255SOL    HW1 1306   5.630   5.969   4.833 -0.3754 -0.3628  0.4278
  255SOL    HW2 1307   5.570   6.108   4.825 -0.7322 -0.5494 -0.1465
  256SOL     OW 1308   5.630   7.299   1.421 -0.4117  0.0826 -0.0528
  256SOL    HW1 1309   5.570   7.348   1.477 -0.2595 -0.2509  0.4072
  256SOL    HW2 1310   5.713   7.347   1.427 -0.2761 -0.1963  0.3579
  257SOL     OW 1311   6.789   1.582   0.074 -0.6659  0.5753 -0.8054
  257SOL    HW1 1312   6.824   1.501   0.038  0.4634  0.8341 -0.3380
  257SOL    HW2 1313   6.844   1.599   0.151 -2.8924  0.0991  0.9922
  258SOL     OW 1314   7.070   0.489   7.478 -0.0665 -0.3489 -0.2181
  258SOL    HW1 1315   7.091   0.495   7.384 -0.4730 -0.4246 -0.3162
  258SOL    HW2 1316   7.106   0.568   7.516  0.4160 -0.4873 -0.3806
  259SOL     OW 1317   5.087   5.027   4.447 -0.3708 -0.1021 -0.5229
  259SOL    HW1 1318   5.069   5.071   4.364  2.5593 -0.3420 -1.4011
  259SOL    HW2 1319   5.149   5.084   4.492 -2.3814  0.3487  1.8916
  260SOL     OW 1320   0.184   5.244   4.788  0.3620  0.3302  0.7947
  260SOL    HW1 1321   0.183   5.337   4.810  2.0003 -0.0405  2.7627
  260SOL    HW2 1322   0.168   5.200   4.871 -0.7765 -1.1801 -0.1759
  261SOL     OW 1323   4.380   6.232   6.172 -0.0673 -0.5352 -0.0685
  261SOL    HW1 1324   4.418   6.307   6.126  0.6175 -0.4524  0.5995
  261SOL    HW2 1325   4.286   6.246   6.169  0.0999  1.3070  1.5715
  262SOL     OW 1326   0.421   3.653   0.886 -0.1756  0.5191 -0.0127
  262SOL    HW1 1327   0.416   3.746   0.910  1.4756  0.4458  0.7428
  262SOL    HW2 1328   0.411   3.606   0.969  1.5576  0.1368  0.0298
  263SOL     OW 1329   4.551   6.710   6.325 -0.7073 -0.3134  0.1640
  263SOL    HW1 1330   4.467   6.749   6.350 -1.7382 -2.5599  0.4060
  263SOL    HW2 1331   4.548   6.707   6.229  0.1417  1.6654  0.0121
  264SOL     OW 1332   3.995   3.343   3.076  0.1675 -0.0021 -0.9732
  264SOL    HW1 1333   4.062   3.364   3.011 -1.4257 -0.6802 -2.9337
  264SOL    HW2 1334   4.027   3.263   3.118  1.2120  0.4338 -0.8932
  265SOL     OW 1335   5.001   1.629   6.949  0.0199  0.0401 -0.2561
  265SOL    HW1 1336   5.015   1.626   6.855  2.2615 -0.1454  0.0214
  265SOL    HW2 1337   5.038   1.714   6.976 -0.2458 -0.0696  0.4881
  266SOL     OW 1338   5.411   3.665   7.260  0.1511  0.6526  0.1808
  266SOL    HW1 1339   5.448   3.751   7.243  1.7199  0.0035  0.1791
  266SOL    HW2 1340   5.351   3.650   7.187 -0.7125  2.0334  0.5705
  267SOL     OW 1341   1.751   4.143   5.197 -0.0430 -0.1121 -0.9072
  267SOL    HW1 1342   1.836   4.102   5.210 -0.4742 -0.3831  1.8198
  267SOL    HW2 1343   1.696   4.075   5.159  0.4525 -0.5841 -0.7828
  268SOL     OW 1344   2.995   7.425   3.269  0.0313  0.4186 -0.0653
  268SOL    HW1 1345   3.035   7.377   3.196  1.4503  1.6907 -0.1597
  268SOL    HW2 1346   3.045   7.399   3.346 -1.9196 -1.4811  0.6697
  269SOL     OW 1347   7.097   1.277   3.111 -0.0728 -0.2439  0.1303
  269SOL    HW1 1348   7.085   1.355   3.056 -0.0059 -0.9053 -0.8595
  269SOL    HW2 1349   7.126   1.209   3.050 -1.7707 -1.5085  0.6425
  270SOL     OW 1350   4.789   5.193   6.619  0.0526 -0.3024 -0.0946
  270SOL    HW1 1351   4.753   5.120   6.669  0.3273 -1.7490 -1.8642
  270SOL    HW2 1352   4.883   5.191   6.638 -0.1568  0.7242  1.1800
  271SOL     OW 1353   0.005   0.110   3.797 -0.2138  0.6494  0.0101
  271SOL    HW1 1354   0.033   0.063   3.719 -2.1306 -0.1478 -0.2564
  271SOL    HW2 1355  -0.010   0.042   3.862 -2.5866  0.8542 -0.2321
  272SOL     OW 1356   0.385   5.105   3.527  0.1492 -0.5530 -0.4857
  272SOL    HW1 1357   0.330   5.151   3.464  0.1408  0.8008  0.4713
  272SOL    HW2 1358   0.468   5.151   3.524  0.0260 -0.2161  0.7543
  273SOL     OW 1359   1.024   0.229   1.831  0.2873 -0.3593 -0.1336
  273SOL    HW1 1360   1.095   0.235   1.895  1.9254 -0.7888 -1.8192
  273SOL    HW2 1361   0.983   0.144   1.848 -1.0435  0.6077  1.9665
  274SOL     OW 1362   5.508   1.072   6.826  0.3622  0.3314  0.4476
  274SOL    HW1 1363   5.443   1.111   6.767  0.5215  0.0580  0.0911
  274SOL    HW2 1364   5.592   1.089   6.784  0.4706  0.0648  0.5537
  275SOL     OW 1365   1.263   7.529   1.972  0.0838  0.1184 -0.3056
  275SOL    HW1 1366   1.290   7.618   1.949  1.7805  0.0176  1.0423
  275SOL    HW2 1367   1.169   7.535   1.988 -0.4874  0.9112 -3.4513
  276SOL     OW 1368   4.046   7.069   6.665 -0.7576  0.7404 -0.3404
  276SOL    HW1 1369   3.977   7.064   6.599  0.5139  0.9960 -1.7400
  276SOL    HW2 1370   4.124   7.095   6.617  0.3767  0.3003  1.1702
  277SOL     OW 1371   1.971   5.643   4.066  0.1295 -0.0867 -0.4465
  277SOL    HW1 1372   1.958   5.551   4.092 -0.2139  0.4364  1.3432
  277SOL    HW2 1373   2.000   5.687   4.145 -2.0372  1.8295 -0.6041
  278SOL     OW 1374   1.812   1.087   0.519 -0.0577  0.2650 -0.3907
  278SOL    HW1 1375   1.815   0.996   0.486  0.2026  0.3540 -0.6257
  278SOL    HW2 1376   1.838   1.140   0.443  0.2348  0.5012 -0.1279
  279SOL     OW 1377   0.378   5.635   6.075 -0.7617  0.1785  0.3098
  279SOL    HW1 1378   0.345   5.610   6.161 -2.2900  1.2070  0.0721
  279SOL    HW2 1379   0.299   5.646   6.022  0.1244  0.2167 -1.0412
  280SOL     OW 1380   4.306   6.649   6.856  0.0404 -0.3064  0.5361
  280SOL    HW1 1381   4.363   6.647   6.779 -0.2691 -0.3827  0.3066
  280SOL    HW2 1382   4.303   6.741   6.881  0.7102 -0.3780  0.8850
  281SOL     OW 1383   2.051   4.051   0.509 -0.6403 -0.8092  0.2957
  281SOL    HW1 1384   2.124   4.001   0.473  0.4936  0.6608  0.4359
  281SOL    HW2 1385   2.038   4.015   0.597  0.4921 -0.5787  0.5827
  282SOL     OW 1386   7.321   2.823   7.018 -0.3064 -0.2862 -0.3771
  282SOL    HW1 1387   7.301   2.873   7.097  2.5094 -0.9694  0.9241
  282SOL    HW2 1388   7.307   2.732   7.043 -1.3436 -0.4155 -1.3634
  283SOL     OW 1389   0.514   5.456   7.505  0.4125  0.0958  0.3676
  283SOL    HW1 1390   0.541   5.369   7.534  0.1253  0.2906  1.2352
  283SOL    HW2 1391   0.595   5.497   7.476  1.2374  0.8422  3.3669
  284SOL     OW 1392   0.746   0.070   0.954 -0.5002  0.1120 -0.8011
  284SOL    HW1 1393   0.809   0.091   0.885  1.0762 -0.2996  0.4538
  284SOL    HW2 1394   0.756   0.141   1.018 -0.4887 -0.5475 -0.0552
  285SOL     OW 1395   0.806   1.736   0.301  0.4025 -0.1663 -0.1005
  285SOL    HW1 1396   0.738   1.685   0.344  0.5157  1.0105  1.5397
  285SOL    HW2 1397   0.764   1.774   0.225 -1.5196  2.3978  2.0736
  286SOL     OW 1398   1.836   4.890   2.187  0.0850 -0.2409  0.3825
  286SOL    HW1 1399   1.865   4.817   2.242  3.8804  0.6403 -0.1451
  286SOL    HW2 1400   1.860   4.968   2.237 -0.1595  0.5953 -0.7837
  287SOL     OW 1401   1.697   0.782   2.350  1.3108  0.2295  0.2468
  287SOL    HW1 1402   1.707   0.848   2.419 -0.8430  0.8883 -0.0133
  287SOL    HW2 1403   1.631   0.722   2.383  0.6383  0.2478 -1.0164
  288SOL     OW 1404   2.708   4.388   5.891 -0.3610 -0.0462  0.3939
  288SOL    HW1 1405   2.767   4.323   5.853 -0.5405  0.1350 -0.1987
  288SOL    HW2 1406   2.747   4.473   5.870 -0.8008  0.0728  0.0430
  289SOL     OW 1407   6.990   0.561   0.954  0.1283 -0.1914  0.2600
  289SOL    HW1 1408   7.061   0.517   0.906  0.3968 -0.1259  0.6014
  289SOL    HW2 1409   7.018   0.652   0.960 -1.0637  0.3734 -1.6893
  290SOL     OW 1410   0.527   1.278   0.223  0.0803 -0.1424  0.0860
  290SOL    HW1 1411   0.483   1.295   0.307 -0.2883 -0.4986 -0.0332
  290SOL    HW2 1412   0.480   1.332   0.160  0.6727  0.5065  0.1889
  291SOL     OW 1413   7.096   0.734   6.150  0.1769  0.1563 -0.6856
  291SOL    HW1 1414   7.137   0.649   6.132  0.4644 -0.2102  1.3659
  291SOL    HW2 1415   7.068   0.766   6.065  0.6660 -1.6913 -1.5991
  292SOL     OW 1416   0.588   2.471   7.146 -0.0790 -0.3314  0.7600
  292SOL    HW1 1417   0.524   2.540   7.168 -0.1273 -0.5980  1.4903
  292SOL    HW2 1418   0.664   2.519   7.113 -1.1534 -0.0724 -1.4978
  293SOL     OW 1419   2.945   2.582   2.059  0.1899 -0.1335 -0.3011
  293SOL    HW1 1420   2.923   2.500   2.015 -0.4960 -0.2163  0.1820
  293SOL    HW2 1421   2.988   2.554   2.141  0.3088 -0.0002 -0.3171
  294SOL     OW 1422   5.439   6.416   6.110  0.2975  0.0963  0.0892
  294SOL    HW1 1423   5.443   6.323   6.090 -2.1739  0.0720 -0.5619
  294SOL    HW2 1424   5.436   6.420   6.206  0.6399 -0.4676  0.1264
  295SOL     OW 1425   7.112   2.709   2.000  0.3609  0.3021  1.1022
  295SOL    HW1 1426   7.099   2.804   2.002 -0.0876  0.2871 -0.2095
  295SOL    HW2 1427   7.189   2.697   1.944  0.0499 -0.1247  0.7595
  296SOL     OW 1428   7.044   3.124   6.319 -0.6671 -0.3667 -0.1230
  296SOL    HW1 1429   6.949   3.136   6.325 -0.8356 -1.5189 -0.3257
  296SOL    HW2 1430   7.064   3.147   6.229 -0.7192  0.0767 -0.0246
  297SOL     OW 1431   2.440   0.471   7.298 -0.2966  0.3333 -0.1284
  297SOL    HW1 1432   2.371   0.529   7.265 -0.5978  0.0046 -0.0796
  297SOL    HW2 1433   2.407   0.440   7.382 -0.1604  0.0505 -0.1774
  298SOL     OW 1434   5.353   2.615   7.613  0.0443  0.2425  0.6737
  298SOL    HW1 1435   5.443   2.623   7.581  0.6078  1.4080  2.3656
  298SOL    HW2 1436   5.342   2.692   7.669 -3.0330  1.8207 -1.8040
  299SOL     OW 1437   5.324   6.920   4.333 -0.3766 -0.1102  0.3819
  299SOL    HW1 1438   5.323   6.824   4.333 -1.8295 -0.1156 -0.2679
  299SOL    HW2 1439   5.389   6.943   4.399  1.1564 -1.5409 -0.5416
  300SOL     OW 1440   5.444   5.814   6.078  0.4273 -0.5712 -0.0158
  300SOL    HW1 1441   5.538   5.833   6.085  0.2752 -0.1913  1.3519
  300SOL    HW2 1442   5.408   5.887   6.027  0.3546  1.2788  2.4887
  301SOL     OW 1443   3.325   0.711   4.840  0.1315  0.0506 -0.7169
  301SOL    HW1 1444   3.247   0.765   4.849  0.1153 -0.1630  0.7128
  301SOL    HW2 1445   3.294   0.622   4.858  0.7601  0.0190  0.2812
  302SOL     OW 1446   7.201   1.439   4.776  0.1334 -0.2084  0.0942
  302SOL    HW1 1447   7.161   1.504   4.832 -0.1965 -0.2445 -0.0965
  302SOL    HW2 1448   7.131   1.376   4.757 -0.1246  0.4861 -1.3900
  303SOL     OW 1449   4.411   0.445   2.199  0.6514  0.2468  0.2080
  303SOL    HW1 1450   4.417   0.373   2.261  2.2116 -0.3861 -0.6127
  303SOL    HW2 1451   4.349   0.506   2.239  1.9705  0.1188  2.6597
  304SOL     OW 1452   4.952   2.354   0.351 -0.2661 -0.1417  0.5451
  304SOL    HW1 1453   4.979   2.436   0.309  0.0414  0.9264  2.6728
  304SOL    HW2 1454   4.858   2.364   0.365 -0.1991 -0.0416  0.9599
  305SOL     OW 1455   1.970   0.883   6.590 -0.2031  0.2806  0.7324
  305SOL    HW1 1456   2.055   0.849   6.562  0.1598  2.1453 -0.6400
  305SOL    HW2 1457   1.971   0.876   6.685  1.5834  0.4741  0.7643
  306SOL     OW 1458   0.477   3.283   6.142 -0.2799  0.0819 -0.0282
  306SOL    HW1 1459   0.525   3.333   6.208 -0.5969  1.6417 -0.9318
  306SOL    HW2 1460   0.398   3.334   6.126 -0.3726 -0.4426 -1.3605
  307SOL     OW 1461   2.167   2.406   7.083 -0.1401  0.3428 -0.2932
  307SOL    HW1 1462   2.221   2.473   7.124  0.7348 -0.6517  0.2409
  307SOL    HW2 1463   2.166   2.429   6.990 -2.1851  2.6631  0.2047
  308SOL     OW 1464   3.916   0.754   3.885 -0.0982  0.2956  0.0701
  308SOL    HW1 1465   3.993   0.767   3.831 -0.2603 -0.6740 -0.4119
  308SOL    HW2 1466   3.942   0.689   3.950  0.0342  1.3019  1.0576
  309SOL     OW 1467   0.123   4.310   1.953  0.1574  0.3492  0.8913
  309SOL    HW1 1468   0.103   4.404   1.960 -0.4348  0.1546  2.1914
  309SOL    HW2 1469   0.151   4.298   1.862 -1.4417  1.4643  0.2051
  310SOL     OW 1470   6.910   3.467   2.173 -0.3206  0.9838  0.2189
  310SOL    HW1 1471   6.872   3.546   2.210 -0.4139  1.6785 -1.2792
  310SOL    HW2 1472   6.971   3.499   2.106  0.2946 -0.1991  0.1846
  311SOL     OW 1473   4.573   7.605   4.198  0.0996  0.0552 -0.2135
  311SOL    HW1 1474   4.565   7.549   4.121 -1.5110  0.6354 -0.5179
  311SOL    HW2 1475   4.656   7.651   4.187  0.8261 -1.3120 -0.5912
  312SOL     OW 1476   0.456   7.450   0.090  0.4088  0.0197  0.2485
  312SOL    HW1 1477   0.541   7.489   0.070  0.0337  0.6601 -0.1349
  312SOL    HW2 1478   0.434   7.401   0.011  1.0550 -1.3127  0.8725
  313SOL     OW 1479   3.531   7.073   5.286  0.2376  0.2185  0.5195
  313SOL    HW1 1480   3.518   7.024   5.367 -2.7554 -0.0102 -0.0021
  313SOL    HW2 1481   3.502   7.162   5.307  0.9883  0.5720  0.1067
  314SOL     OW 1482   0.305   6.983   1.032 -0.3599 -0.4084 -0.5108
  314SOL    HW1 1483   0.308   7.076   1.057  0.6964 -0.5552 -0.0065
  314SOL    HW2 1484   0.220   6.972   0.990  0.3240  1.2955 -2.5408
  315SOL     OW 1485   3.620   4.720   5.873  0.0357  0.3767 -0.3677
  315SOL    HW1 1486   3.659   4.737   5.787 -0.1344  0.6447 -0.3935
  315SOL    HW2 1487   3.612   4.625   5.877 -1.6106  0.4182 -1.3886
  316SOL     OW 1488   4.197   3.376   4.385 -0.5302  0.5758  0.3861
  316SOL    HW1 1489   4.254   3.425   4.444 -1.4588 -0.3402  2.1287
  316SOL    HW2 1490   4.200   3.286   4.418 -0.6872 -0.0878 -1.3071
  317SOL     OW 1491   2.975   3.233   4.913 -0.0536 -0.7731 -0.3003
  317SOL    HW1 1492   2.996   3.322   4.940 -1.2162 -0.5187 -0.1642
  317SOL    HW2 1493   3.020   3.221   4.829 -1.5272  0.6912 -1.3592
  318SOL     OW 1494   5.515   1.204   6.282 -0.2533 -0.0567  0.2320
  318SOL    HW1 1495   5.503   1.113   6.310  1.7261  0.2384  2.3165
  318SOL    HW2 1496   5.608   1.211   6.261 -0.7748  0.9911 -2.1200
  319SOL     OW 1497   4.894   4.262   4.251  1.2024  0.7333  0.1116
  319SOL    HW1 1498   4.938   4.327   4.196 -0.9890  1.6521 -0.6931
  319SOL    HW2 1499   4.936   4.270   4.337  1.5145  2.6929 -0.1774
  320SOL     OW 1500   3.672   5.648   7.064 -0.4750 -0.3557  0.3154
  320SOL    HW1 1501   3.722   5.703   7.005 -0.2663 -1.5187 -0.6260
  320SOL    HW2 1502   3.682   5.559   7.029  0.3327 -1.2198  2.5407
  321SOL     OW 1503   4.985   6.103   2.905  0.5271 -0.2875  0.1539
  321SOL    HW1 1504   5.032   6.157   2.968  1.0021 -0.6164  0.0879
  321SOL    HW2 1505   4.904   6.079   2.950 -0.1634  1.3068 -0.1971
  322SOL     OW 1506   1.657   3.690   2.135 -0.0834 -0.4138  0.2673
  322SOL    HW1 1507   1.590   3.736   2.187  0.3137  0.9552 -0.3976
  322SOL    HW2 1508   1.722   3.663   2.200  0.5916  1.6022  0.4966
  323SOL     OW 1509   3.125   0.643   1.850 -0.4827  0.1173  0.2171
  323SOL    HW1 1510   3.164   0.711   1.904  3.4642 -1.6554 -0.0379
  323SOL    HW2 1511   3.059   0.602   1.907 -0.1702  1.6322  1.7396
  324SOL     OW 1512   1.339   2.800   4.207 -0.3732  0.1229 -0.0189
  324SOL    HW1 1513   1.352   2.826   4.116 -2.2743 -2.0458 -1.0075
  324SOL    HW2 1514   1.362   2.707   4.209  1.2476  0.4758  2.1558
  325SOL     OW 1515   3.492   3.151   6.947  0.1096 -0.0483  0.0810
  325SOL    HW1 1516   3.518   3.064   6.916 -1.1184 -0.3960 -0.0279
  325SOL    HW2 1517   3.529   3.158   7.035  2.2579  0.3000 -0.7782
  326SOL     OW 1518   0.133   3.743   4.856 -0.5216 -0.0944  0.2050
  326SOL    HW1 1519   0.073   3.757   4.929  0.1442 -2.0977  1.2189
  326SOL    HW2 1520   0.203   3.688   4.893  1.5948  1.5496 -1.1068
  327SOL     OW 1521   3.784   1.361   5.344 -0.0500  0.2734 -0.5873
  327SOL    HW1 1522   3.865   1.316   5.318 -0.6301 -2.0134  1.2654
  327SOL    HW2 1523   3.741   1.381   5.261  1.6326  0.0705 -1.5668
  328SOL     OW 1524   0.187   6.335   0.827  0.3993  0.0875  0.1397
  328SOL    HW1 1525   0.168   6.426   0.852 -1.1993  0.1311 -1.0316
  328SOL    HW2 1526   0.134   6.321   0.749  1.9036 -1.3523 -0.6791
  329SOL     OW 1527   0.385   4.525   3.278 -0.7027  0.3840  0.2975
  329SOL    HW1 1528   0.448   4.475   3.226  0.4828 -2.6017  4.1591
  329SOL    HW2 1529   0.437   4.594   3.320 -0.9381  0.6303  0.1901
  330SOL     OW 1530   2.362   1.875   2.291 -0.1868 -0.7038 -0.5127
  330SOL    HW1 1531   2.448   1.835   2.277  0.1786 -0.7457  1.5950
  330SOL    HW2 1532   2.369   1.921   2.374 -1.9179  0.1589 -0.7816
  331SOL     OW 1533   5.575   2.437   0.325 -0.9109  0.4073 -0.1431
  331SOL    HW1 1534   5.487   2.416   0.356 -0.7812  0.6233  0.3759
  331SOL    HW2 1535   5.577   2.533   0.322 -0.5350  0.4128  0.2994
  332SOL     OW 1536   5.275   6.749   0.457  0.6011  0.2305  0.1520
  332SOL    HW1 1537   5.348   6.758   0.519  1.4203  0.1501 -0.7684
  332SOL    HW2 1538   5.251   6.657   0.462  0.0858  0.3941  0.9590
  333SOL     OW 1539   1.286   0.698   4.464 -0.1936  0.2008  0.6700
  333SOL    HW1 1540   1.225   0.632   4.497 -0.3673  0.3818  0.7108
  333SOL    HW2 1541   1.357   0.698   4.529  0.2471 -0.5729  0.2128
  334SOL     OW 1542   5.736   5.217   4.819  0.3153  0.3011  0.0425
  334SOL    HW1 1543   5.752   5.222   4.725 -0.5445  1.4499 -0.0595
  334SOL    HW2 1544   5.820   5.240   4.859  0.9096 -0.9640 -0.4109
  335SOL     OW 1545   2.520   1.060   1.152 -0.4571 -0.1134  0.5751
  335SOL    HW1 1546   2.496   1.104   1.071  0.3892 -0.0814  0.3382
  335SOL    HW2 1547   2.465   1.102   1.219 -1.1956 -0.1797  0.0209
  336SOL     OW 1548   4.090   3.516   1.744  1.0507 -0.1954  0.0690
  336SOL    HW1 1549   4.001   3.541   1.766  0.9580 -1.1481  0.8391
  336SOL    HW2 1550   4.145   3.566   1.804  0.9254 -0.9655  0.8431
  337SOL     OW 1551   2.783   2.192   5.304 -0.8718 -0.2380  0.2447
  337SOL    HW1 1552   2.710   2.147   5.346 -1.1109  0.1265  0.2167
  337SOL    HW2 1553   2.820   2.126   5.245 -0.8439 -0.5905  0.6500
  338SOL     OW 1554   7.148   1.686   1.867 -0.2645 -0.3945  0.1283
  338SOL    HW1 1555   7.192   1.650   1.944 -0.8581  0.0307  0.6762
  338SOL    HW2 1556   7.220   1.715   1.810  0.1945 -1.5845  0.0891
  339SOL     OW 1557   4.485   0.484   6.488  0.0327 -0.0267  0.3551
  339SOL    HW1 1558   4.460   0.391   6.491 -0.6600  0.1574  3.7953
  339SOL    HW2 1559   4.578   0.484   6.510 -0.4264  0.1351  2.5101
  340SOL     OW 1560   0.301   6.476   5.686 -0.4983  0.3133 -0.5868
  340SOL    HW1 1561   0.221   6.476   5.633 -0.8656  1.6358 -0.0749
  340SOL    HW2 1562   0.271   6.502   5.773  0.5675  1.3047 -0.5081
  341SOL     OW 1563   3.983   5.607   5.915  0.0877 -0.7514 -0.0623
  341SOL    HW1 1564   4.010   5.581   6.003  2.1792  0.0785 -0.3999
  341SOL    HW2 1565   3.910   5.549   5.894  0.4393 -1.8964  1.6736
  342SOL     OW 1566   3.721   4.080   5.460 -0.1682  0.7050  0.8728
  342SOL    HW1 1567   3.657   4.052   5.395 -1.7146  1.2868  2.0725
  342SOL    HW2 1568   3.671   4.086   5.542  0.7257  3.9000  1.3303
  343SOL     OW 1569   2.335   2.598   6.408 -0.3023 -0.5033 -0.3713
  343SOL    HW1 1570   2.379   2.517   6.380  0.0436 -0.5726  0.3534
  343SOL    HW2 1571   2.350   2.659   6.336 -1.6952 -1.4687 -1.5395
  344SOL     OW 1572   2.867   4.206   7.066 -0.0365  0.3114  0.2311
  344SOL    HW1 1573   2.815   4.213   6.985 -0.8758 -1.5188  0.5640
  344SOL    HW2 1574   2.935   4.143   7.045  1.1928  1.5612  0.2819
  345SOL     OW 1575   0.491   3.749   6.124 -0.7385  0.5235  0.4991
  345SOL    HW1 1576   0.580   3.784   6.111 -0.8615  0.7553  0.2721
  345SOL    HW2 1577   0.489   3.723   6.216  0.8781 -3.1881 -0.3326
  346SOL     OW 1578   3.712   6.379   2.691 -0.2002 -0.0958 -0.5312
  346SOL    HW1 1579   3.731   6.405   2.601 -0.1899  1.5117 -0.0902
  346SOL    HW2 1580   3.624   6.411   2.708  0.0427  0.2056  0.2271
  347SOL     OW 1581   4.293   5.291   7.620 -0.5493 -0.2151 -0.3071
  347SOL    HW1 1582   4.226   5.345   7.579 -0.2036  1.0457  0.7014
  347SOL    HW2 1583   4.268   5.201   7.599 -2.0926  0.2594 -0.6272
  348SOL     OW 1584   3.880   2.433   7.126 -0.1099  0.1218  0.2116
  348SOL    HW1 1585   3.821   2.441   7.051  0.8637  1.4748 -0.4674
  348SOL    HW2 1586   3.851   2.501   7.187 -0.4162 -0.4649  0.7370
  349SOL     OW 1587   3.155   3.769   4.490  0.6786 -0.9261  0.3092
  349SOL    HW1 1588   3.136   3.768   4.584  1.6780 -0.6605  0.5319
  349SOL    HW2 1589   3.176   3.860   4.471  2.6113 -1.3163  0.3179
  350SOL     OW 1590   4.309   2.769   2.193 -0.6662  0.1250 -0.1707
  350SOL    HW1 1591   4.237   2.822   2.225 -0.4064 -0.0637  0.7487
  350SOL    HW2 1592   4.366   2.756   2.269  0.7253  0.8887 -1.0341
  351SOL     OW 1593   7.243   2.182   2.433  0.1732  0.3179 -0.2385
  351SOL    HW1 1594   7.241   2.214   2.343 -0.3871 -0.9643 -0.7075
  351SOL    HW2 1595   7.297   2.104   2.429 -1.5831 -0.9727  0.0762
  352SOL     OW 1596   0.770   3.273   4.092  0.4292 -0.1639  0.0899
  352SOL    HW1 1597   0.783   3.363   4.060 -1.0782 -0.3075 -1.0148
  352SOL    HW2 1598   0.724   3.229   4.021 -0.8918 -1.1791  1.5061
  353SOL     OW 1599   3.650   6.363   7.412 -0.4011  0.3319  0.1806
  353SOL    HW1 1600   3.635   6.350   7.318  0.2168  1.9771 -0.1845
  353SOL    HW2 1601   3.597   6.296   7.454 -2.8684  1.2589 -1.2580
  354SOL     OW 1602   4.648   5.537   1.322  0.2220 -0.0379 -0.9689
  354SOL    HW1 1603   4.689   5.470   1.377 -0.6202 -0.7609 -1.2004
  354SOL    HW2 1604   4.718   5.599   1.303  0.7736 -0.3192  0.0769
  355SOL     OW 1605   0.454   1.014   4.474 -0.5876  0.3781 -1.1773
  355SOL    HW1 1606   0.428   1.062   4.395 -2.0736  0.1963 -0.8197
  355SOL    HW2 1607   0.386   1.036   4.538  0.4560  0.3132 -0.0233
  356SOL     OW 1608   0.155   5.650   4.681 -0.5136  0.5140 -0.3000
  356SOL    HW1 1609   0.161   5.600   4.763 -0.3254 -1.8271 -1.6567
  356SOL    HW2 1610   0.155   5.741   4.709  1.1491 -0.1552  2.2283
  357SOL     OW 1611   2.593   2.058   5.828  0.8439  0.3721  0.0740
  357SOL    HW1 1612   2.581   1.975   5.780 -0.0542 -1.8110  3.7088
  357SOL    HW2 1613   2.688   2.068   5.834  0.9644  0.1923 -1.2763
  358SOL     OW 1614   5.260   1.662   1.620  0.2583 -0.1302  0.0542
  358SOL    HW1 1615   5.230   1.598   1.556 -0.2002 -0.3276  0.4577
  358SOL    HW2 1616   5.246   1.619   1.705  0.2014  0.3998  0.3154
  359SOL     OW 1617   4.510   2.404   4.681  0.0951 -0.0703  0.2367
  359SOL    HW1 1618   4.592   2.406   4.631  0.2484  0.3826  0.4989
  359SOL    HW2 1619   4.443   2.388   4.615  0.3137  0.3409 -0.0906
  360SOL     OW 1620   3.526   0.413   3.460 -0.4645 -0.3122  0.0241
  360SOL    HW1 1621   3.594   0.345   3.468 -0.0019 -0.0682 -1.4914
  360SOL    HW2 1622   3.564   0.478   3.401 -0.7975  1.4300  1.6286
  361SOL     OW 1623   2.283   7.513   1.833 -0.6503  0.7044  0.4357
  361SOL    HW1 1624   2.235   7.581   1.879  0.7236  2.3114 -0.3954
  361SOL    HW2 1625   2.352   7.560   1.786 -0.7275 -1.0694 -1.6018
  362SOL     OW 1626   0.908   3.023   3.698 -0.4877  0.2477  0.4505
  362SOL    HW1 1627   0.969   2.950   3.710 -1.1910 -0.1563  1.8399
  362SOL    HW2 1628   0.941   3.091   3.757 -0.0821  0.9151 -0.5187
  363SOL     OW 1629   6.571   5.580   7.589  0.0863 -0.9988  0.8408
  363SOL    HW1 1630   6.556   5.487   7.572 -0.0299 -0.9142  0.4758
  363SOL    HW2 1631   6.483   5.618   7.592  0.1734 -0.6366 -0.5312
  364SOL     OW 1632   4.021   0.390   7.490 -0.0674 -0.4001 -0.4073
  364SOL    HW1 1633   4.034   0.324   7.558 -2.7809 -0.8071 -0.1956
  364SOL    HW2 1634   4.014   0.473   7.538  2.9245  0.1310 -0.6466
  365SOL     OW 1635   2.573   5.415   6.172  0.0073 -0.2927  1.0432
  365SOL    HW1 1636   2.500   5.359   6.195 -0.0285 -0.5463  0.3273
  365SOL    HW2 1637   2.572   5.485   6.239 -2.2248  0.9372 -0.1672
  366SOL     OW 1638   2.949   1.657   2.993 -0.0764  0.4545  0.1388
  366SOL    HW1 1639   2.879   1.693   2.939 -1.7328  0.1554  1.9728
  366SOL    HW2 1640   2.942   1.562   2.982  1.2501  0.4400 -1.0209
  367SOL     OW 1641   7.420   6.057   6.280 -0.4683 -0.3467 -0.1676
  367SOL    HW1 1642   7.389   5.980   6.232  0.4029 -0.1447 -1.0835
  367SOL    HW2 1643   7.364   6.128   6.249 -0.1381 -0.2854 -0.6365
  368SOL     OW 1644   5.977   6.021   2.326  0.1675  0.0542 -0.4100
  368SOL    HW1 1645   6.040   5.960   2.288 -0.3938  0.8418 -2.7631
  368SOL    HW2 1646   6.029   6.098   2.350  0.1076  0.8717 -2.7355
  369SOL     OW 1647   6.367   1.381   1.559 -0.0399  0.0818  0.1060
  369SOL    HW1 1648   6.426   1.343   1.624 -1.1295  0.0385  1.1056
  369SOL    HW2 1649   6.334   1.462   1.599  0.8717  1.1861 -1.2664
  370SOL     OW 1650   3.300   3.246   5.285 -0.3794  0.2109 -0.1275
  370SOL    HW1 1651   3.383   3.278   5.320 -0.0458 -0.1292 -0.5952
  370SOL    HW2 1652   3.245   3.324   5.277 -0.6543  0.2470  1.6283
  371SOL     OW 1653   6.820   0.460   7.592 -0.7127  0.6049  0.3259
  371SOL    HW1 1654   6.909   0.478   7.560  0.7998 -2.2653  2.4505
  371SOL    HW2 1655   6.819   0.493   7.681 -1.3439 -0.4713  0.7364
  372SOL     OW 1656   6.845   5.584   6.269  0.0702 -0.4670 -0.1584
  372SOL    HW1 1657   6.937   5.556   6.268 -0.1606 -1.2603 -1.2075
  372SOL    HW2 1658   6.811   5.552   6.353  0.7095 -0.3238  0.1581
  373SOL     OW 1659   0.640   0.544   5.785 -0.0995  0.3810 -0.1214
  373SOL    HW1 1660   0.545   0.535   5.775 -0.0916  0.2762 -0.0987
  373SOL    HW2 1661   0.674   0.541   5.695 -0.1926  1.2666 -0.1968
  374SOL     OW 1662   5.999   5.981   3.749  0.0109 -0.2165 -0.2788
  374SOL    HW1 1663   6.006   6.074   3.769  0.5496  0.3222 -2.6772
  374SOL    HW2 1664   5.906   5.960   3.764 -0.4700  1.1293 -1.2139
  375SOL     OW 1665   0.992   4.998   4.998 -0.1295 -0.0771  0.0570
  375SOL    HW1 1666   1.007   5.069   5.059  0.1840 -0.8706  0.9351
  375SOL    HW2 1667   1.080   4.963   4.980 -0.3172 -0.5433  0.0236
  376SOL     OW 1668   0.217   5.419   6.914  0.3445  0.3134  0.2622
  376SOL    HW1 1669   0.253   5.404   7.001  0.1051  0.6439  0.4159
  376SOL    HW2 1670   0.143   5.359   6.908  0.7720 -0.2112  0.0248
  377SOL     OW 1671   0.861   2.028   3.167 -0.2981 -0.2151 -0.1544
  377SOL    HW1 1672   0.876   2.027   3.262  0.2495 -1.7050 -0.2346
  377SOL    HW2 1673   0.947   2.041   3.129 -0.2489 -1.3706 -0.4708
  378SOL     OW 1674   3.924   2.765   5.664 -0.4481  0.1274 -0.5744
  378SOL    HW1 1675   3.834   2.778   5.694 -1.5199 -2.0195 -2.5386
  378SOL    HW2 1676   3.930   2.671   5.646  2.0124  0.3121 -1.0875
  379SOL     OW 1677   0.529   5.026   3.970  0.2021  0.5551 -0.0318
  379SOL    HW1 1678   0.498   5.050   4.057 -1.3426  1.1968 -0.7117
  379SOL    HW2 1679   0.575   4.943   3.982 -1.2097 -0.0873  1.1923
  380SOL     OW 1680   0.571   4.313   2.822 -0.4193 -0.3152 -0.1937
  380SOL    HW1 1681   0.637   4.284   2.759 -1.2486 -0.7461 -0.8881
  380SOL    HW2 1682   0.595   4.268   2.903  0.3343 -0.1955 -0.3391
  381SOL     OW 1683   1.436   0.006   2.506  0.7348 -1.0319  0.5295
  381SOL    HW1 1684   1.394  -0.048   2.573 -0.2376 -2.0926 -0.8574
  381SOL    HW2 1685   1.362   0.044   2.457  1.3831  1.5734  1.4180
  382SOL     OW 1686   3.016   4.114   3.610 -0.4398 -0.3774  0.3749
  382SOL    HW1 1687   2.970   4.048   3.662 -2.1595  1.1310  0.8743
  382SOL    HW2 1688   2.956   4.134   3.538  0.2340  0.3388 -0.0049
  383SOL     OW 1689   1.871   6.204   2.248 -0.0291 -0.4072  0.4687
  383SOL    HW1 1690   1.817   6.247   2.314  0.6757  1.4026 -0.0678
  383SOL    HW2 1691   1.936   6.270   2.224 -0.9699 -0.5389 -2.8864
  384SOL     OW 1692   5.070   2.176   3.543  0.3375 -0.1611 -0.4354
  384SOL    HW1 1693   5.067   2.092   3.497  0.2535 -0.2576 -0.2557
  384SOL    HW2 1694   5.063   2.242   3.474 -0.6092 -0.3134 -0.5003
  385SOL     OW 1695   0.389   0.044   4.313 -0.0444 -0.8724  0.3294
  385SOL    HW1 1696   0.299   0.028   4.285 -0.3523 -0.6023  1.1262
  385SOL    HW2 1697   0.418   0.118   4.261  0.0775 -1.5990 -0.6599
  386SOL     OW 1698   0.065   3.945   3.988  0.5397 -0.0889 -1.0281
  386SOL    HW1 1699   0.119   3.930   3.910  1.9882 -0.1418 -0.0645
  386SOL    HW2 1700   0.032   3.858   4.011  3.6758 -0.9709  0.8401
  387SOL     OW 1701   4.994   6.380   4.335  0.4112 -0.0875 -1.0853
  387SOL    HW1 1702   5.039   6.407   4.254  2.9338 -1.9533 -0.4343
  387SOL    HW2 1703   5.047   6.417   4.405 -1.3952  0.9620 -0.1826
  388SOL     OW 1704   2.318   5.668   2.036  0.7442 -0.2009  0.4215
  388SOL    HW1 1705   2.382   5.651   2.104  0.5236 -0.1463  0.6461
  388SOL    HW2 1706   2.349   5.618   1.961  2.2852  1.6175 -0.2176
  389SOL     OW 1707   3.428   4.436   4.271 -0.1345 -0.7514 -0.3678
  389SOL    HW1 1708   3.399   4.485   4.195 -0.1170 -1.0099 -0.5434
  389SOL    HW2 1709   3.510   4.478   4.298  0.3757 -1.2677 -1.0868
  390SOL     OW 1710   7.594   4.719   3.118  0.4360 -0.0974 -0.0553
  390SOL    HW1 1711   7.549   4.697   3.200  0.8714 -1.2760 -0.1117
  390SOL    HW2 1712   7.680   4.752   3.146  0.0262  0.9477  0.0054
  391SOL     OW 1713   4.258   3.717   3.361 -0.1982  0.4885  0.1345
  391SOL    HW1 1714   4.233   3.665   3.285  0.5521 -0.1380  0.2962
  391SOL    HW2 1715   4.270   3.805   3.327 -1.2824  0.5193 -0.1873
  392SOL     OW 1716   2.887   4.357   3.496  1.2735 -0.1758 -0.1419
  392SOL    HW1 1717   2.968   4.408   3.487  1.5179 -0.6966 -1.0252
  392SOL    HW2 1718   2.821   4.410   3.449  0.8830  0.6724  1.3052
  393SOL     OW 1719   1.155   1.900   3.248 -0.1428 -0.3039  0.1042
  393SOL    HW1 1720   1.096   1.862   3.312  0.6859  0.5403  1.4158
  393SOL    HW2 1721   1.185   1.982   3.288 -0.1487  0.6177 -1.6719
  394SOL     OW 1722   7.145   7.168   3.668 -0.7544  0.5412 -0.6677
  394SOL    HW1 1723   7.126   7.075   3.655  1.0218 -0.0022  0.3472
  394SOL    HW2 1724   7.133   7.183   3.762  1.8287  0.5581 -0.2579
  395SOL     OW 1725   2.028   4.193   3.112 -0.0171 -0.7731 -0.4721
  395SOL    HW1 1726   1.950   4.245   3.091  1.0929  1.9971  1.6029
  395SOL    HW2 1727   2.087   4.206   3.038  0.1417  0.8683 -0.1101
  396SOL     OW 1728   0.075   5.876   1.163 -0.3495 -0.0068  0.0393
  396SOL    HW1 1729   0.153   5.930   1.168  0.8835 -1.4321 -2.2026
  396SOL    HW2 1730   0.073   5.830   1.247  1.1143  0.2111  0.2206
  397SOL     OW 1731   4.125   1.267   2.055 -0.2094 -0.5381 -0.1894
  397SOL    HW1 1732   4.054   1.240   1.996  0.5520  0.8027 -1.8044
  397SOL    HW2 1733   4.196   1.207   2.036 -0.1163 -0.3851 -0.3319
  398SOL     OW 1734   0.199   4.164   3.916  0.4072 -0.4050 -0.0564
  398SOL    HW1 1735   0.151   4.106   3.975 -1.1072  0.3249 -0.5430
  398SOL    HW2 1736   0.150   4.163   3.834  0.4537  1.3967 -0.1485
  399SOL     OW 1737   2.214   6.264   1.626 -0.2207 -0.3598 -0.2701
  399SOL    HW1 1738   2.130   6.220   1.641  0.0906 -0.0201  3.3004
  399SOL    HW2 1739   2.192   6.338   1.569 -2.4425 -0.0431  0.8794
  400SOL     OW 1740   3.429   6.712   1.742  0.0153  0.4462  0.4201
  400SOL    HW1 1741   3.515   6.736   1.708 -0.6865  0.4078 -1.4477
  400SOL    HW2 1742   3.429   6.616   1.742 -0.7549  0.4139 -1.5980
  401SOL     OW 1743   0.746   4.910   5.949  0.0663  0.3071  0.4996
  401SOL    HW1 1744   0.774   4.855   6.022  0.2581  0.1273  0.2924
  401SOL    HW2 1745   0.826   4.927   5.900 -0.3619 -1.3543 -0.8902
  402SOL     OW 1746   1.761   6.636   3.742  0.8305 -0.5632 -0.0486
  402SOL    HW1 1747   1.750   6.700   3.672  0.2773  0.0989  0.6293
  402SOL    HW2 1748   1.825   6.574   3.707  0.4760 -0.3205 -1.1863
  403SOL     OW 1749   3.026   0.325   3.686 -0.2120  0.2615 -0.1794
  403SOL    HW1 1750   3.108   0.278   3.697  0.2079  0.6438 -1.4359
  403SOL    HW2 1751   2.987   0.326   3.773 -0.7049 -3.1940 -0.2036
  404SOL     OW 1752   0.085   6.358   4.498 -0.4165 -0.4381 -0.0998
  404SOL    HW1 1753   0.045   6.430   4.449  1.2540 -0.0170 -0.8872
  404SOL    HW2 1754   0.171   6.390   4.524  0.1489 -1.9359  0.0118
  405SOL     OW 1755   5.292   6.271   1.895 -0.4021 -0.0854 -0.5933
  405SOL    HW1 1756   5.333   6.218   1.963 -1.2410  2.6859  2.2658
  405SOL    HW2 1757   5.259   6.207   1.831 -0.4433 -2.9196  2.0738
  406SOL     OW 1758   6.420   0.887   3.819 -0.2158 -0.3901  0.1178
  406SOL    HW1 1759   6.378   0.930   3.745 -0.1774 -0.5911 -0.0204
  406SOL    HW2 1760   6.462   0.809   3.782  0.6688  0.0477  0.1654
  407SOL     OW 1761   4.711   2.594   5.420  0.4047 -0.7935  0.0562
  407SOL    HW1 1762   4.670   2.595   5.506  0.8246 -0.7577  0.2593
  407SOL    HW2 1763   4.743   2.684   5.408  0.1082 -0.7277 -0.2540
  408SOL     OW 1764   2.306   0.670   3.950 -0.3354 -0.1694  0.3327
  408SOL    HW1 1765   2.363   0.738   3.915  0.1178 -0.1047  1.1484
  408SOL    HW2 1766   2.253   0.641   3.876 -1.3903  1.8962  0.2048
  409SOL     OW 1767   1.363   1.404   3.073 -0.2270  0.0447  0.0082
  409SOL    HW1 1768   1.338   1.496   3.064 -0.7287 -0.0381  0.4784
  409SOL    HW2 1769   1.401   1.380   2.989 -1.6852  0.2014 -0.7276
  410SOL     OW 1770   7.437   6.047   1.185 -0.0343  0.1405  0.4864
  410SOL    HW1 1771   7.482   6.102   1.249  1.6199  2.1208 -2.1532
  410SOL    HW2 1772   7.502   5.981   1.160  0.8244  1.7688 -1.8711
  411SOL     OW 1773   3.612   3.308   4.050 -0.4083 -0.3255  0.2239
  411SOL    HW1 1774   3.543   3.302   4.116 -1.4128 -1.3106 -0.8628
  411SOL    HW2 1775   3.596   3.233   3.992  0.3879  0.5465 -1.1758
  412SOL     OW 1776   3.743   7.044   3.931  0.7642  0.5718  0.5111
  412SOL    HW1 1777   3.698   7.090   3.861  0.8608 -0.7394 -0.4555
  412SOL    HW2 1778   3.780   6.966   3.889 -0.4707 -1.0825  2.2674
  413SOL     OW 1779   4.203   2.804   3.367  0.0376 -0.2219  0.1856
  413SOL    HW1 1780   4.263   2.858   3.420  0.5655 -0.2681 -0.3505
  413SOL    HW2 1781   4.180   2.731   3.424  1.7682 -1.0624 -0.1239
  414SOL     OW 1782   3.660   5.432   0.941 -0.5490  0.0867  0.1537
  414SOL    HW1 1783   3.747   5.462   0.915 -1.2461 -0.5309 -3.3264
  414SOL    HW2 1784   3.606   5.510   0.939 -0.4203  0.1998  0.7830
  415SOL     OW 1785   2.634   1.206   4.424 -0.0644  0.6440  0.5484
  415SOL    HW1 1786   2.559   1.242   4.377 -1.0717 -2.3955 -0.4184
  415SOL    HW2 1787   2.697   1.184   4.356  1.0983  1.7320  1.2236
  416SOL     OW 1788   2.185   3.946   3.886  0.4673  0.3098 -0.3331
  416SOL    HW1 1789   2.135   4.020   3.852  0.9281  1.3435  1.1386
  416SOL    HW2 1790   2.277   3.971   3.873  0.6309 -0.3373 -0.4732
  417SOL     OW 1791   6.619   4.089   2.272  0.0992  0.4182  0.2367
  417SOL    HW1 1792   6.606   4.134   2.189  0.0042 -1.2156 -0.6752
  417SOL    HW2 1793   6.572   4.006   2.263  1.1731 -0.3688  1.4235
  418SOL     OW 1794   5.363   3.194   7.330  0.3427  0.1903 -0.0599
  418SOL    HW1 1795   5.448   3.226   7.299  1.9906 -1.4079  2.4572
  418SOL    HW2 1796   5.347   3.116   7.276  0.9035  0.0131  0.0189
  419SOL     OW 1797   0.561   1.309   2.330 -0.5777 -0.0073  0.1486
  419SOL    HW1 1798   0.536   1.394   2.365 -0.2285 -0.3447  1.2764
  419SOL    HW2 1799   0.613   1.329   2.252 -1.1598  0.7768 -0.0450
  420SOL     OW 1800   3.457   6.798   5.392 -0.5669  0.2516 -0.2179
  420SOL    HW1 1801   3.387   6.799   5.327 -1.8261  1.6031  1.0679
  420SOL    HW2 1802   3.426   6.738   5.460 -0.5654  0.9512  0.4147
  421SOL     OW 1803   4.348   1.928   0.511  0.7609  0.4138 -0.3663
  421SOL    HW1 1804   4.293   1.985   0.565 -1.5028 -0.8530 -1.1909
  421SOL    HW2 1805   4.318   1.945   0.422  1.0296 -1.0330 -0.7421
  422SOL     OW 1806   6.358   1.772   0.412 -0.1732 -0.0198  0.6329
  422SOL    HW1 1807   6.397   1.841   0.466  0.5570  1.1078 -1.2350
  422SOL    HW2 1808   6.278   1.812   0.378 -0.0413 -0.2948 -0.0041
  423SOL     OW 1809   1.377   0.242   0.383 -0.8981 -0.0335 -0.7053
  423SOL    HW1 1810   1.384   0.205   0.471  1.4421 -0.5255 -1.0212
  423SOL    HW2 1811   1.348   0.170   0.328 -1.7558  0.1104 -0.4543
  424SOL     OW 1812   3.713   6.922   2.657 -0.3128  0.5077 -1.0616
  424SOL    HW1 1813   3.788   6.866   2.638 -0.6930 -0.1819 -0.5927
  424SOL    HW2 1814   3.636   6.869   2.634 -0.6723  0.9907 -1.0011
  425SOL     OW 1815   2.943   0.986   0.533  0.1116 -0.0074 -0.2252
  425SOL    HW1 1816   3.014   0.940   0.488 -0.4214 -2.4244  1.2464
  425SOL    HW2 1817   2.988   1.054   0.584  1.0937  0.0766 -1.1500
  426SOL     OW 1818   1.655   3.540   1.830  0.2305 -0.1082 -0.0173
  426SOL    HW1 1819   1.685   3.629   1.849  2.1098 -0.9911  1.4978
  426SOL    HW2 1820   1.600   3.517   1.906 -0.9166  0.0041 -0.7871
  427SOL     OW 1821   3.299   0.667   5.918  0.2618  0.1634 -0.4609
  427SOL    HW1 1822   3.293   0.638   6.009 -0.7717 -1.5544 -1.0290
  427SOL    HW2 1823   3.238   0.611   5.871  0.1680  1.5500 -2.1096
  428SOL     OW 1824   7.206   0.917   6.479 -0.3733  1.0713 -0.5269
  428SOL    HW1 1825   7.264   0.892   6.408 -1.5216  0.0216 -1.1169
  428SOL    HW2 1826   7.264   0.960   6.543  0.6011  2.5235 -2.2809
  429SOL     OW 1827   0.887   0.332   2.404 -0.2663 -0.0438  0.1300
  429SOL    HW1 1828   0.845   0.267   2.347 -1.0066 -1.1676  1.8816
  429SOL    HW2 1829   0.981   0.321   2.388 -0.4827  0.5051 -1.7223
  430SOL     OW 1830   6.414   4.329   4.425  0.2307  0.2908  0.1431
  430SOL    HW1 1831   6.392   4.403   4.368  0.3531  0.0700 -0.1965
  430SOL    HW2 1832   6.510   4.323   4.420  0.2703  0.4488  0.6047
  431SOL     OW 1833   0.039   3.447   4.395  0.3944  0.0870  0.9175
  431SOL    HW1 1834   0.129   3.479   4.384 -0.4568  2.3300  0.0021
  431SOL    HW2 1835   0.002   3.447   4.307 -0.3556 -1.4307  1.1911
  432SOL     OW 1836   3.923   4.290   3.864  0.1894  0.0339 -0.1266
  432SOL    HW1 1837   3.907   4.342   3.786  2.9184  1.3854  0.1013
  432SOL    HW2 1838   3.875   4.335   3.934 -1.0563 -0.3442 -0.7096
  433SOL     OW 1839   5.554   6.864   0.929 -0.9017 -0.2977 -0.4843
  433SOL    HW1 1840   5.591   6.947   0.900 -2.5088  1.2853  1.7361
  433SOL    HW2 1841   5.595   6.847   1.014 -1.1799 -1.4085 -0.5509
  434SOL     OW 1842   4.530   5.334   7.489  0.0845  0.3371  0.0446
  434SOL    HW1 1843   4.458   5.308   7.546  0.4287  0.1741  0.4155
  434SOL    HW2 1844   4.492   5.396   7.427  0.0371  1.8074  1.4778
  435SOL     OW 1845   0.571   2.345   5.653 -0.0820  0.1792  0.2111
  435SOL    HW1 1846   0.494   2.312   5.699  0.8540  0.3653  2.0106
  435SOL    HW2 1847   0.541   2.363   5.564 -1.2781 -3.0606 -0.1630
  436SOL     OW 1848   3.989   0.684   4.786  0.0622 -0.5350  0.2895
  436SOL    HW1 1849   3.899   0.692   4.818 -0.2548 -0.0258 -0.6866
  436SOL    HW2 1850   3.985   0.617   4.718  0.1354  0.4044 -0.6789
  437SOL     OW 1851   2.354   4.453   2.059  0.3601  0.2357 -0.5996
  437SOL    HW1 1852   2.370   4.408   1.975  1.7512  0.7837 -0.6647
  437SOL    HW2 1853   2.410   4.531   2.055  0.4788  0.2470  0.8532
  438SOL     OW 1854   4.358   1.798   3.409 -0.0516 -0.6209 -0.3368
  438SOL    HW1 1855   4.278   1.751   3.386  0.2429 -1.1764 -0.2538
  438SOL    HW2 1856   4.351   1.815   3.503 -0.4570  0.0936 -0.4879
  439SOL     OW 1857   3.401   7.136   1.947  0.3295 -0.5189  0.2974
  439SOL    HW1 1858   3.323   7.088   1.974 -0.4128  0.6082  0.1930
  439SOL    HW2 1859   3.381   7.228   1.964  0.8496 -0.0010 -1.6251
  440SOL     OW 1860   1.126   5.268   5.884 -0.7861 -0.6707  0.2841
  440SOL    HW1 1861   1.090   5.325   5.952 -1.8507 -1.2430  0.2364
  440SOL    HW2 1862   1.160   5.192   5.932  1.0147  0.1475  0.3848
  441SOL     OW 1863   3.298   4.849   6.496 -0.1151  0.4646 -0.1770
  441SOL    HW1 1864   3.250   4.873   6.576  1.2461 -0.6124  1.0307
  441SOL    HW2 1865   3.308   4.754   6.502 -0.2010  0.3303 -1.7869
  442SOL     OW 1866   5.060   5.566   6.237  0.0486  0.5264  0.2613
  442SOL    HW1 1867   5.059   5.578   6.332  0.0991  1.6846  0.1356
  442SOL    HW2 1868   5.011   5.485   6.222 -1.2660  1.1158  1.1770
  443SOL     OW 1869   1.026   0.973   7.475  0.0171 -0.6036 -0.2862
  443SOL    HW1 1870   1.040   1.020   7.393 -0.1677 -0.3992 -0.2019
  443SOL    HW2 1871   1.114   0.945   7.502  0.2641  0.6182  0.2150
  444SOL     OW 1872   5.172   6.740   0.758 -0.0495  0.8746  0.0941
  444SOL    HW1 1873   5.224   6.662   0.739 -0.0556  0.9749 -0.3279
  444SOL    HW2 1874   5.112   6.712   0.827 -0.7732  0.2016 -0.7959
  445SOL     OW 1875   4.904   5.280   3.959  0.0813 -0.0240  0.4238
  445SOL    HW1 1876   4.895   5.376   3.957  0.0781 -0.0269  0.3095
  445SOL    HW2 1877   4.822   5.249   3.996  0.2813  0.0470  0.9408
  446SOL     OW 1878   4.768   5.606   2.454  0.2430 -1.0177 -0.2342
  446SOL    HW1 1879   4.781   5.687   2.503  3.2670 -0.6935 -1.3766
  446SOL    HW2 1880   4.787   5.630   2.363 -2.1181 -2.3208 -1.1810
  447SOL     OW 1881   1.090   3.735   4.394 -0.9518 -0.0263  0.7069
  447SOL    HW1 1882   1.057   3.795   4.461 -1.5680  0.9731 -0.4800
  447SOL    HW2 1883   1.016   3.720   4.336 -0.0178  0.3142 -0.6043
  448SOL     OW 1884   2.223   3.282   6.060  0.0039 -0.0503  0.2012
  448SOL    HW1 1885   2.236   3.188   6.077  2.8235 -0.5506 -3.4767
  448SOL    HW2 1886   2.307   3.322   6.080 -1.2399  1.8594  1.9885
  449SOL     OW 1887   4.298   0.090   5.841  0.1117  0.4245  0.2775
  449SOL    HW1 1888   4.334   0.109   5.927  1.9511 -0.3482 -0.2719
  449SOL    HW2 1889   4.242   0.014   5.854  1.5374 -0.6133  0.5742
  450SOL     OW 1890   0.845   0.820   2.281  0.1625  0.1810  0.1785
  450SOL    HW1 1891   0.812   0.828   2.371 -0.8416 -0.9772 -0.0650
  450SOL    HW2 1892   0.918   0.759   2.288 -0.0693 -0.1011  0.1882
  451SOL     OW 1893   5.335   5.173   5.006 -0.0525 -0.5744  1.1713
  451SOL    HW1 1894   5.428   5.153   5.002  0.3347  1.1850 -1.4223
  451SOL    HW2 1895   5.293   5.099   4.963  0.2328 -1.0076  1.6367
  452SOL     OW 1896   3.400   1.728   2.153  0.4564  0.3442 -0.0736
  452SOL    HW1 1897   3.479   1.719   2.100 -0.3966  0.6202 -1.4657
  452SOL    HW2 1898   3.431   1.747   2.241  1.9294  0.3948 -0.5799
  453SOL     OW 1899   0.226   5.520   4.110 -0.2868 -0.5272  0.0403
  453SOL    HW1 1900   0.132   5.532   4.095  0.2871  1.1429 -3.0364
  453SOL    HW2 1901   0.251   5.594   4.166 -0.2588  1.3011 -2.2457
  454SOL     OW 1902   5.343   1.811   6.790 -0.1524  0.0845 -0.1135
  454SOL    HW1 1903   5.274   1.763   6.743  0.5012 -0.4940 -0.4889
  454SOL    HW2 1904   5.412   1.746   6.804  0.3889  0.7057  0.1222
  455SOL     OW 1905   0.274   7.107   3.480  0.4477  0.4089  0.1270
  455SOL    HW1 1906   0.181   7.095   3.462  0.5638  0.0630 -0.2631
  455SOL    HW2 1907   0.281   7.103   3.575 -0.0546  1.3488  0.2138
  456SOL     OW 1908   3.016   5.398   1.401 -0.4497  0.1411 -0.2700
  456SOL    HW1 1909   3.079   5.359   1.461 -1.7001 -0.0129  1.0034
  456SOL    HW2 1910   3.009   5.489   1.430 -0.8726  0.1278 -0.3227
  457SOL     OW 1911   3.266   7.034   4.405 -0.2659 -0.0399  0.5020
  457SOL    HW1 1912   3.198   7.081   4.357  0.0121  1.8453  1.8770
  457SOL    HW2 1913   3.324   7.102   4.439  1.2201 -1.4923  1.0043
  458SOL     OW 1914   0.337   7.336   4.769 -0.6433 -0.3602  0.5185
  458SOL    HW1 1915   0.358   7.399   4.700 -0.0585  0.7237  1.6640
  458SOL    HW2 1916   0.241   7.333   4.770 -0.6752  0.4553  0.3921
  459SOL     OW 1917   2.583   3.740   3.336 -0.0466 -0.5761  0.3564
  459SOL    HW1 1918   2.649   3.740   3.405 -0.7334 -1.4364  1.0455
  459SOL    HW2 1919   2.578   3.649   3.307  0.8395 -0.0981 -1.4606
  460SOL     OW 1920   3.374   2.822   4.975 -0.4079 -0.3578  0.1183
  460SOL    HW1 1921   3.445   2.772   4.934  0.5777  1.3370 -0.3378
  460SOL    HW2 1922   3.411   2.909   4.989 -1.9882  0.1916  1.1148
  461SOL     OW 1923   1.707   2.157   3.965 -0.3009  0.5862  0.1742
  461SOL    HW1 1924   1.683   2.173   4.056 -0.1957 -0.1747  0.3397
  461SOL    HW2 1925   1.633   2.191   3.914 -1.3151 -0.8191  0.6350
  462SOL     OW 1926   6.770   7.148   0.009  0.6602 -0.8332 -0.1310
  462SOL    HW1 1927   6.712   7.178  -0.060 -0.9936 -0.7128  1.2335
  462SOL    HW2 1928   6.832   7.221   0.022 -1.1423  0.6143  0.7736
  463SOL     OW 1929   0.645   2.198   1.931 -0.1426  0.3760  0.8929
  463SOL    HW1 1930   0.673   2.116   1.970 -1.3293  0.2256  1.4871
  463SOL    HW2 1931   0.712   2.261   1.956 -0.1246 -0.0378  1.9303
  464SOL     OW 1932   3.633   2.120   7.412  0.3006 -0.0941 -0.3705
  464SOL    HW1 1933   3.552   2.139   7.365  1.1553  1.2621 -1.4013
  464SOL    HW2 1934   3.697   2.104   7.343  1.1948  0.1825  0.3699
  465SOL     OW 1935   7.121   4.813   1.061 -0.1559 -1.2097 -0.4830
  465SOL    HW1 1936   7.047   4.784   1.114 -0.2953 -2.0174 -1.0825
  465SOL    HW2 1937   7.080   4.849   0.982  0.0137  0.7643  0.2693
  466SOL     OW 1938   5.066   5.300   5.597 -0.0897  0.5576  0.9108
  466SOL    HW1 1939   5.106   5.319   5.512 -0.8318  3.0597  1.0409
  466SOL    HW2 1940   5.118   5.349   5.660 -0.1099 -0.5331  1.8110
  467SOL     OW 1941   4.512   2.603   0.383 -0.2537 -0.2472 -0.3387
  467SOL    HW1 1942   4.466   2.566   0.459  0.7371 -0.3392  0.2389
  467SOL    HW2 1943   4.457   2.676   0.356 -2.2315 -2.0432 -1.4747
  468SOL     OW 1944   4.655   4.507   4.888 -0.5522  0.1117  0.4737
  468SOL    HW1 1945   4.625   4.496   4.798  0.1148 -1.5426  0.4062
  468SOL    HW2 1946   4.746   4.535   4.880  0.7071 -3.4747  0.4848
  469SOL     OW 1947   7.301   7.056   0.685 -0.2674  0.5678 -0.4561
  469SOL    HW1 1948   7.394   7.050   0.666  0.1111  2.0930  0.6466
  469SOL    HW2 1949   7.262   6.980   0.643  1.7007 -1.0557  0.5140
  470SOL     OW 1950   6.134   0.521   1.234 -0.5558 -0.1371 -0.2711
  470SOL    HW1 1951   6.191   0.516   1.157  0.9800 -0.5252  0.8690
  470SOL    HW2 1952   6.108   0.613   1.237 -2.7124 -0.5297 -2.6547
  471SOL     OW 1953   1.684   6.185   7.045  0.2355  0.2203  0.3360
  471SOL    HW1 1954   1.721   6.178   7.132  1.0733 -0.3250 -0.0555
  471SOL    HW2 1955   1.607   6.128   7.046 -1.4289  2.2930  1.5307
  472SOL     OW 1956   6.760   0.715   4.283  0.0150  0.2715  0.0504
  472SOL    HW1 1957   6.813   0.658   4.227  0.8506  1.4286 -0.3776
  472SOL    HW2 1958   6.691   0.748   4.225  0.5064  0.9724 -0.1487
  473SOL     OW 1959   3.984   3.048   6.888 -0.4239  0.0126  0.1604
  473SOL    HW1 1960   3.981   3.133   6.843 -0.4680  0.0182  0.1742
  473SOL    HW2 1961   4.029   3.067   6.971  0.7336 -0.2229 -0.3819
  474SOL     OW 1962   3.186   3.740   3.807 -0.0533  0.3956  0.7314
  474SOL    HW1 1963   3.180   3.818   3.863  0.9392  0.1701  1.1751
  474SOL    HW2 1964   3.166   3.667   3.866 -1.5834  0.3252  0.1850
  475SOL     OW 1965   3.673   1.801   7.149  0.1390 -0.0382  0.1645
  475SOL    HW1 1966   3.701   1.743   7.220 -2.1625 -1.8109 -0.2577
  475SOL    HW2 1967   3.722   1.770   7.073 -1.4144 -1.8929 -0.1693
  476SOL     OW 1968   6.111   3.808   3.903  0.0978  0.2345 -0.5665
  476SOL    HW1 1969   6.111   3.746   3.829 -2.0297 -0.3884 -0.1237
  476SOL    HW2 1970   6.135   3.892   3.864  0.1710 -0.3173 -1.7570
  477SOL     OW 1971   1.570   1.890   7.314  0.1880  0.3463  0.0380
  477SOL    HW1 1972   1.606   1.855   7.232  0.8017 -0.4094  0.6253
  477SOL    HW2 1973   1.524   1.816   7.354  1.0447  0.3367  1.0325
  478SOL     OW 1974   6.233   2.548   3.957 -0.0550 -0.3262  0.5440
  478SOL    HW1 1975   6.281   2.469   3.931  1.2468  0.1602  1.3431
  478SOL    HW2 1976   6.269   2.617   3.902 -2.6410 -0.5712 -1.6340
  479SOL     OW 1977   1.621   2.359   0.819 -0.0485  0.4095 -0.0276
  479SOL    HW1 1978   1.589   2.268   0.820  0.9117 -0.0804 -3.4933
  479SOL    HW2 1979   1.543   2.412   0.802  0.0241 -0.3398 -3.3351
  480SOL     OW 1980   0.413   1.020   2.065 -0.2552  0.1507  0.1996
  480SOL    HW1 1981   0.481   0.960   2.094  0.5900  1.0807  0.1850
  480SOL    HW2 1982   0.435   1.104   2.105 -0.4519  0.8742 -1.1222
  481SOL     OW 1983   4.710   5.757   1.004 -0.3318  0.0824  0.6214
  481SOL    HW1 1984   4.699   5.851   0.991  0.5237  0.0033 -0.8335
  481SOL    HW2 1985   4.624   5.720   0.986 -0.3021  0.4534 -0.3537
  482SOL     OW 1986   6.821   5.958   5.234  0.6614 -0.0411  0.2333
  482SOL    HW1 1987   6.903   5.922   5.201  0.2193 -0.4373 -0.4580
  482SOL    HW2 1988   6.795   5.898   5.304  0.6463 -0.2674  0.0343
  483SOL     OW 1989   4.881   2.610   3.546  0.0797  0.2407 -0.1883
  483SOL    HW1 1990   4.791   2.577   3.551 -0.5443  1.9289  0.5715
  483SOL    HW2 1991   4.909   2.615   3.638  0.6347  0.5413 -0.3728
  484SOL     OW 1992   6.242   6.885   1.308  0.4368  0.0227  0.5337
  484SOL    HW1 1993   6.283   6.814   1.358 -2.6406 -2.5764 -0.2910
  484SOL    HW2 1994   6.177   6.921   1.368 -1.0780 -0.9598 -0.4632
  485SOL     OW 1995   3.048   6.507   2.429  0.0872  0.2527 -0.5710
  485SOL    HW1 1996   3.013   6.501   2.518 -1.5317 -1.7487 -1.2424
  485SOL    HW2 1997   3.025   6.595   2.399  1.3452  1.2303  1.2130
  486SOL     OW 1998   5.578   7.027   0.192 -0.2230  0.9933  0.0109
  486SOL    HW1 1999   5.620   7.004   0.275 -1.0504 -0.2553  0.1141
  486SOL    HW2 2000   5.628   6.982   0.125 -0.1658  1.1761 -0.0703
  487SOL     OW 2001   5.953   7.063   4.320  0.1061 -0.0434  0.1594
  487SOL    HW1 2002   5.940   7.062   4.225 -0.8016 -0.2453  0.2710
  487SOL    HW2 2003   6.045   7.084   4.332  0.0913  0.5836 -0.7584
  488SOL     OW 2004   6.855   0.255   6.613  0.0446  0.5027 -0.1554
  488SOL    HW1 2005   6.768   0.285   6.638 -1.0180 -2.5910  0.2403
  488SOL    HW2 2006   6.881   0.313   6.541 -0.3340  4.3783  2.5107
  489SOL     OW 2007   3.437   4.040   3.004  0.3246  0.1968  0.5748
  489SOL    HW1 2008   3.407   4.115   3.055  0.7473  1.5264 -1.0273
  489SOL    HW2 2009   3.531   4.056   2.992  0.0837  0.4372 -1.3350
  490SOL     OW 2010   2.630   0.460   1.627 -0.5158 -0.0571  0.3276
  490SOL    HW1 2011   2.631   0.433   1.536 -2.3665  0.7875  0.0066
  490SOL    HW2 2012   2.543   0.436   1.658 -0.3081  0.6733  1.5494
  491SOL     OW 2013   4.271   3.462   3.469 -0.0789 -0.1519 -0.5203
  491SOL    HW1 2014   4.308   3.429   3.388  3.3477  1.4225  0.2115
  491SOL    HW2 2015   4.258   3.556   3.453 -0.6727 -0.0757  0.3230
  492SOL     OW 2016   2.140   3.901   1.323  0.2153 -0.0365 -0.6469
  492SOL    HW1 2017   2.145   3.819   1.373  0.5347  0.4800  0.1702
  492SOL    HW2 2018   2.169   3.969   1.383  0.7156  0.5899 -1.5648
  493SOL     OW 2019   6.052   2.399   0.833 -0.6792  0.3438 -0.2582
  493SOL    HW1 2020   5.981   2.459   0.856 -1.0894 -0.0693 -0.4339
  493SOL    HW2 2021   6.009   2.329   0.783  0.2326  1.5452 -2.8911
  494SOL     OW 2022   3.459   4.125   5.553 -0.1666  0.9639 -0.2788
  494SOL    HW1 2023   3.422   4.048   5.510 -2.0885  2.1443 -0.8642
  494SOL    HW2 2024   3.397   4.145   5.624  0.3864  1.8511 -0.0309
  495SOL     OW 2025   0.648   0.099   3.193  0.1549 -0.0407  0.4131
  495SOL    HW1 2026   0.672   0.034   3.127  1.5676  0.5976  0.2523
  495SOL    HW2 2027   0.638   0.048   3.273  1.0642 -0.5088  0.2521
  496SOL     OW 2028   7.607   1.738   6.942  0.0888  0.5664  0.2261
  496SOL    HW1 2029   7.698   1.747   6.915 -0.2226 -0.8017 -1.4377
  496SOL    HW2 2030   7.606   1.660   6.998  0.0060  0.8148  0.5718
  497SOL     OW 2031   5.831   4.235   4.822 -0.0838  0.2618 -0.1358
  497SOL    HW1 2032   5.927   4.230   4.818  0.0078  2.0924 -1.0099
  497SOL    HW2 2033   5.812   4.257   4.913  0.5291  2.6762 -0.5435
  498SOL     OW 2034   1.276   3.404   4.816 -0.9098  0.0364 -0.3249
  498SOL    HW1 2035   1.290   3.355   4.897 -1.6716 -0.6306 -0.5852
  498SOL    HW2 2036   1.354   3.459   4.807 -0.5836 -0.2671  0.5860
  499SOL     OW 2037   6.460   5.805   2.101  0.2527 -0.3195  0.0647
  499SOL    HW1 2038   6.463   5.736   2.034  1.5439  0.1629 -0.4133
  499SOL    HW2 2039   6.550   5.810   2.133 -0.4277 -0.9194  2.2727
  500SOL     OW 2040   6.409   5.851   2.369  0.1028 -0.0452  0.5443
  500SOL    HW1 2041   6.465   5.779   2.397 -0.5872 -0.5738  0.5928
  500SOL    HW2 2042   6.417   5.853   2.274 -0.3416 -0.5774  0.4939
  501SOL     OW 2043   3.606   1.368   1.473  0.2019 -0.1807  0.5281
  501SOL    HW1 2044   3.540   1.346   1.406 -1.2372 -0.2878  1.9225
  501SOL    HW2 2045   3.684   1.391   1.422 -0.7217 -0.5955 -1.1830
  502SOL     OW 2046   5.213   1.996   2.406 -0.1999  0.1640  0.0681
  502SOL    HW1 2047   5.263   2.074   2.429 -0.3153 -0.2348  1.8313
  502SOL    HW2 2048   5.215   1.942   2.485 -2.0122 -0.6153 -0.3629
  503SOL     OW 2049   3.443   2.112   2.995  0.3257 -0.6664 -0.1984
  503SOL    HW1 2050   3.434   2.108   2.899 -3.1046  0.4266 -0.0703
  503SOL    HW2 2051   3.486   2.196   3.011  2.2613 -1.4946 -0.7447
  504SOL     OW 2052   5.068   2.122   1.398 -0.4755  0.6427 -0.2493
  504SOL    HW1 2053   5.057   2.069   1.319 -1.8103  0.4853  0.0170
  504SOL    HW2 2054   5.073   2.057   1.469 -0.5801  0.8256 -0.0744
  505SOL     OW 2055   0.077   5.469   6.453  0.0733 -0.6279 -0.0722
  505SOL    HW1 2056   0.074   5.374   6.443  0.1930 -0.6895  0.4337
  505SOL    HW2 2057   0.141   5.483   6.523 -0.4016 -0.2135  0.2817
  506SOL     OW 2058   7.371   6.696   5.124  0.4505 -0.4369 -0.4420
  506SOL    HW1 2059   7.289   6.747   5.124 -0.3611 -1.6464  1.1985
  506SOL    HW2 2060   7.394   6.689   5.032  0.7183  3.0113 -0.7720
  507SOL     OW 2061   2.376   3.771   1.966 -0.7200  0.5382 -0.1501
  507SOL    HW1 2062   2.281   3.761   1.964 -0.7060 -0.6638  2.1056
  507SOL    HW2 2063   2.394   3.815   2.049  0.7717 -0.9666  0.3732
  508SOL     OW 2064   6.159   0.814   6.967 -0.0491 -0.1054 -0.4878
  508SOL    HW1 2065   6.182   0.721   6.956  1.0350 -0.1130  1.4172
  508SOL    HW2 2066   6.068   0.819   6.937  0.3157 -1.4736 -1.9746
  509SOL     OW 2067   1.101   7.209   1.534 -0.0479  0.1249 -0.4377
  509SOL    HW1 2068   1.051   7.137   1.572 -0.4093  1.2156  1.2665
  509SOL    HW2 2069   1.073   7.213   1.443 -0.9548 -1.0720 -0.2247
  510SOL     OW 2070   2.561   3.734   6.445  0.6165 -0.1077  0.9357
  510SOL    HW1 2071   2.600   3.656   6.485  1.4476 -1.3382 -2.0543
  510SOL    HW2 2072   2.634   3.795   6.432  0.0588  1.0354  2.7523
  511SOL     OW 2073   3.889   3.861   0.873 -0.0403  0.1956  0.2861
  511SOL    HW1 2074   3.945   3.897   0.805  1.9562  1.1780  2.3467
  511SOL    HW2 2075   3.811   3.917   0.873  1.0933  1.8090  0.5087
  512SOL     OW 2076   3.992   2.919   4.210 -0.0965 -0.5407 -0.5489
  512SOL    HW1 2077   4.049   2.969   4.269 -0.5709 -0.0222 -0.5252
  512SOL    HW2 2078   3.958   2.985   4.149 -0.6692 -0.8484 -0.5667
  513SOL     OW 2079   4.322   0.918   6.539  0.0485  0.2068 -0.4599
  513SOL    HW1 2080   4.334   0.848   6.475  0.9932  0.8510 -1.0028
  513SOL    HW2 2081   4.233   0.904   6.572 -0.1857 -0.5872 -1.3594
  514SOL     OW 2082   4.236   2.020   0.276  0.4815 -0.0380 -0.2673
  514SOL    HW1 2083   4.161   1.965   0.254  0.1766  0.0473  0.5239
  514SOL    HW2 2084   4.199   2.108   0.287  0.6455 -0.0493  0.4191
  515SOL     OW 2085   3.539   7.534   0.521 -0.0781 -0.5254  0.2706
  515SOL    HW1 2086   3.605   7.579   0.468  0.5024 -1.0174  0.5472
  515SOL    HW2 2087   3.578   7.448   0.539 -0.5776 -0.6354  0.8731
  516SOL     OW 2088   6.226   6.716   6.589  0.0132  0.5356  0.2159
  516SOL    HW1 2089   6.187   6.648   6.534  0.8419  0.5480 -0.4166
  516SOL    HW2 2090   6.187   6.703   6.675 -1.2347  0.4490 -0.3474
  517SOL     OW 2091   3.237   6.233   3.969 -0.3376 -0.5023 -0.0442
  517SOL    HW1 2092   3.302   6.222   3.900 -1.3087 -0.5752 -0.9602
  517SOL    HW2 2093   3.163   6.276   3.927 -2.8104 -4.4997 -0.2614
  518SOL     OW 2094   7.624   4.759   4.137  0.4674  0.9251 -0.3239
  518SOL    HW1 2095   7.558   4.760   4.068  0.2047  0.9528 -0.0725
  518SOL    HW2 2096   7.585   4.807   4.209 -0.0662 -0.7605  0.5720
  519SOL     OW 2097   0.382   5.338   5.287 -0.1093 -0.1784 -0.1494
  519SOL    HW1 2098   0.424   5.260   5.250  0.0642  0.0373 -0.4161
  519SOL    HW2 2099   0.301   5.306   5.325 -0.4273 -0.3687 -0.9742
  520SOL     OW 2100   2.394   0.785   2.132 -0.7347  0.0181  0.2023
  520SOL    HW1 2101   2.308   0.761   2.099 -0.8506 -0.1024  0.5928
  520SOL    HW2 2102   2.381   0.867   2.178 -0.1651  1.4308 -1.9732
  521SOL     OW 2103   3.232   5.137   0.600  0.1883  0.4033  0.0657
  521SOL    HW1 2104   3.170   5.164   0.533  0.1327 -1.6766 -0.8088
  521SOL    HW2 2105   3.311   5.112   0.552  0.0419 -1.4364  0.6908
  522SOL     OW 2106   3.158   2.787   6.934  0.1229  0.1015 -0.0492
  522SOL    HW1 2107   3.079   2.766   6.983  0.0653  1.0523  0.2882
  522SOL    HW2 2108   3.161   2.883   6.934  1.0589  0.0803 -0.4071
  523SOL     OW 2109   7.273   6.367   4.923 -0.2164 -0.0248  0.1658
  523SOL    HW1 2110   7.209   6.429   4.888 -1.6502 -1.7985 -0.5211
  523SOL    HW2 2111   7.221   6.291   4.949  1.6068 -1.5418 -0.4184
  524SOL     OW 2112   7.026   6.312   6.443  0.5334  0.1041 -0.3140
  524SOL    HW1 2113   7.044   6.222   6.415  1.5097  0.7318 -1.8009
  524SOL    HW2 2114   7.112   6.348   6.466  0.2199  0.8158 -0.2319
  525SOL     OW 2115   3.956   5.659   0.638  0.1538 -0.3562 -0.4048
  525SOL    HW1 2116   3.922   5.739   0.598  0.7940 -0.4595 -1.1850
  525SOL    HW2 2117   3.957   5.595   0.567 -1.3445 -1.3950  0.4431
  526SOL     OW 2118   3.793   3.434   5.638  0.0303 -0.7147  0.2176
  526SOL    HW1 2119   3.737   3.487   5.696  0.7287  1.2122 -0.7764
  526SOL    HW2 2120   3.869   3.412   5.692 -0.4766 -1.1142  0.7825
  527SOL     OW 2121   5.644   5.409   4.055 -0.2702 -0.1762 -0.1788
  527SOL    HW1 2122   5.666   5.316   4.048  0.9378  0.1426 -0.7943
  527SOL    HW2 2123   5.583   5.414   4.128 -2.0173 -1.7409 -1.4277
  528SOL     OW 2124   5.612   2.420   6.813  0.1271  0.4733 -0.3640
  528SOL    HW1 2125   5.563   2.488   6.858  0.9692  1.0221 -0.2689
  528SOL    HW2 2126   5.545   2.360   6.779 -0.7832  2.4932 -2.3761
  529SOL     OW 2127   5.342   1.624   3.104  0.1359  0.2809 -0.2124
  529SOL    HW1 2128   5.374   1.642   3.192  0.1554 -0.7752  0.0068
  529SOL    HW2 2129   5.418   1.635   3.048  0.2981  0.2309 -0.0018
  530SOL     OW 2130   5.596   0.173   2.576 -0.2964  0.7968  0.0388
  530SOL    HW1 2131   5.618   0.175   2.669  1.2391 -0.7755 -0.2493
  530SOL    HW2 2132   5.631   0.256   2.541  0.2805  0.8030  0.6216
  531SOL     OW 2133   3.679   6.022   3.086 -0.5375 -0.1102 -0.5905
  531SOL    HW1 2134   3.741   5.974   3.141 -0.1614  1.9321  0.8540
  531SOL    HW2 2135   3.606   5.960   3.074 -0.4516 -0.8144  1.8763
  532SOL     OW 2136   1.037   6.983   7.488  0.0711  0.1476 -0.2342
  532SOL    HW1 2137   1.037   7.039   7.565 -1.8293 -0.1548  0.0331
  532SOL    HW2 2138   1.011   6.897   7.520  0.0477 -0.1767 -1.0901
  533SOL     OW 2139   4.407   3.324   6.955  0.9971  0.2868  0.1411
  533SOL    HW1 2140   4.332   3.348   7.010 -0.4399 -1.4379 -0.9494
  533SOL    HW2 2141   4.438   3.407   6.918 -0.4092  1.0375  0.5799
  534SOL     OW 2142   7.618   2.037   6.920  0.3834 -0.2126 -0.9196
  534SOL    HW1 2143   7.644   2.005   7.006  0.7929 -0.2381 -1.0509
  534SOL    HW2 2144   7.551   2.103   6.938  0.5677 -0.1191 -0.5718
  535SOL     OW 2145   3.198   3.411   2.596  0.2124  0.1701 -0.3544
  535SOL    HW1 2146   3.253   3.336   2.620  1.3335  0.0992 -2.7953
  535SOL    HW2 2147   3.247   3.487   2.628 -0.6746 -0.0410  1.6651
  536SOL     OW 2148   2.718   4.516   1.648 -0.0286  0.0819 -0.6767
  536SOL    HW1 2149   2.746   4.486   1.734  1.7532  0.4656 -1.0743
  536SOL    HW2 2150   2.767   4.461   1.586  1.5382  2.1236 -1.4067
  537SOL     OW 2151   6.744   1.308   3.574 -0.0784  0.1193 -0.0139
  537SOL    HW1 2152   6.751   1.232   3.632  2.0949 -0.1847 -0.5768
  537SOL    HW2 2153   6.815   1.297   3.511 -1.4421  1.2094 -1.8564
  538SOL     OW 2154   7.205   4.078   3.887  0.2229 -0.6617 -0.4115
  538SOL    HW1 2155   7.115   4.074   3.855  0.2170 -0.9396 -0.3651
  538SOL    HW2 2156   7.201   4.040   3.974  0.1211  0.6855  0.1958
  539SOL     OW 2157   5.466   2.861   0.551 -0.4292  0.2419  0.0250
  539SOL    HW1 2158   5.379   2.898   0.564 -1.2161 -0.3002 -3.0122
  539SOL    HW2 2159   5.525   2.922   0.595 -2.1863  1.4116  0.8846
  540SOL     OW 2160   2.648   5.582   7.145 -0.7630  0.5627 -0.0028
  540SOL    HW1 2161   2.659   5.489   7.161 -2.1225  0.5289  0.9686
  540SOL    HW2 2162   2.581   5.609   7.208  0.5196  2.4666  0.6131
  541SOL     OW 2163   6.645   5.893   0.415 -0.3765  0.0000  0.0287
  541SOL    HW1 2164   6.633   5.977   0.460 -0.5919 -0.3432  0.6312
  541SOL    HW2 2165   6.678   5.835   0.483  0.6456 -0.1828 -0.6002
  542SOL     OW 2166   5.021   6.466   6.064 -0.2122  0.0978  0.4729
  542SOL    HW1 2167   5.091   6.482   6.000 -1.9558  1.0785 -1.3064
  542SOL    HW2 2168   5.015   6.371   6.069 -0.2338 -0.0248 -1.1313
  543SOL     OW 2169   2.053   5.144   0.775  0.3080 -0.2697  0.3626
  543SOL    HW1 2170   1.991   5.089   0.824 -1.2477 -0.9668 -2.1720
  543SOL    HW2 2171   2.086   5.087   0.705  3.6457  0.2072  1.3775
  544SOL     OW 2172   6.717   1.648   3.146  0.1108 -0.2568 -0.1438
  544SOL    HW1 2173   6.691   1.576   3.089 -0.8560 -1.1567  1.3724
  544SOL    HW2 2174   6.809   1.664   3.123 -0.1425 -0.8160 -1.6732
  545SOL     OW 2175   3.696   7.168   6.877  0.0014 -0.7301  0.4509
  545SOL    HW1 2176   3.662   7.207   6.797  1.4407 -2.8605 -1.3248
  545SOL    HW2 2177   3.622   7.169   6.938 -1.1933  0.7476 -0.9565
  546SOL     OW 2178   0.576   5.202   7.594  0.2640 -0.2103 -0.1079
  546SOL    HW1 2179   0.659   5.165   7.623  0.2211  1.4445  2.3794
  546SOL    HW2 2180   0.520   5.200   7.672 -1.1561  1.1004 -1.0325
  547SOL     OW 2181   3.825   3.158   6.656  0.1464 -0.9792  0.5485
  547SOL    HW1 2182   3.817   3.063   6.661  0.9388 -0.9900  2.0131
  547SOL    HW2 2183   3.902   3.173   6.601 -0.7699 -1.1160 -0.8512
  548SOL     OW 2184   1.592   2.213   2.023  0.3655  0.3572  0.3220
  548SOL    HW1 2185   1.578   2.258   2.106 -0.1462 -1.0155  1.0071
  548SOL    HW2 2186   1.574   2.280   1.957 -1.7713  0.7991  1.2718
  549SOL     OW 2187   6.800   3.094   5.418 -0.7466  0.0410  0.5149
  549SOL    HW1 2188   6.869   3.111   5.353 -0.8156 -1.5397  0.0016
  549SOL    HW2 2189   6.719   3.119   5.375 -0.6251  0.9229  0.7562
  550SOL     OW 2190   4.834   5.571   7.350  0.0063 -0.0110 -0.2285
  550SOL    HW1 2191   4.763   5.627   7.383  1.2039  2.0273 -0.9427
  550SOL    HW2 2192   4.901   5.575   7.418  0.1302 -0.5661 -0.3118
  551SOL     OW 2193   1.498   3.310   2.830 -0.6155 -0.6130 -0.0658
  551SOL    HW1 2194   1.473   3.270   2.747 -0.0482  0.9175 -1.0213
  551SOL    HW2 2195   1.594   3.301   2.834 -0.6038 -0.3814  0.2590
  552SOL     OW 2196   5.480   0.042   3.025  0.1713  0.2325 -0.3812
  552SOL    HW1 2197   5.475   0.004   3.113  0.9945 -1.9734 -1.2087
  552SOL    HW2 2198   5.422  -0.012   2.972  0.5968  0.7724 -1.4279
  553SOL     OW 2199   5.832   6.023   0.221 -0.6424 -0.3027  0.2682
  553SOL    HW1 2200   5.871   6.100   0.178  0.1242 -1.7614 -1.8425
  553SOL    HW2 2201   5.874   6.019   0.306 -0.3480  1.3379  0.2314
  554SOL     OW 2202   1.982   0.320   3.644  0.0673  0.8570  0.2260
  554SOL    HW1 2203   2.013   0.308   3.554 -0.0554  1.6399  0.0746
  554SOL    HW2 2204   1.891   0.348   3.634 -0.1871  0.2109  0.6228
  555SOL     OW 2205   1.972   3.253   6.220 -0.4645  0.1325 -0.7219
  555SOL    HW1 2206   2.057   3.257   6.178 -0.1405  1.9591  0.0036
  555SOL    HW2 2207   1.974   3.324   6.284 -1.6851 -1.2322  0.9312
  556SOL     OW 2208   2.336   2.216   1.988  0.4199 -0.0160 -0.1107
  556SOL    HW1 2209   2.336   2.311   1.993 -0.8403  0.1863 -2.4439
  556SOL    HW2 2210   2.424   2.190   2.018  0.3010  1.7136  1.9498
  557SOL     OW 2211   2.690   6.290   0.922  0.1133 -0.6434  0.4819
  557SOL    HW1 2212   2.722   6.286   0.832 -1.5259 -0.2246 -0.1637
  557SOL    HW2 2213   2.651   6.204   0.937 -2.7474  0.3573 -0.5197
  558SOL     OW 2214   6.050   0.262   6.379 -0.4406 -0.3891  0.6173
  558SOL    HW1 2215   6.146   0.263   6.379 -0.3744 -1.4141 -1.1856
  558SOL    HW2 2216   6.025   0.347   6.344 -0.1251 -0.6843 -0.3489
  559SOL     OW 2217   0.964   3.517   6.053 -1.0480  0.3077  0.1032
  559SOL    HW1 2218   0.868   3.517   6.049 -1.1130  0.3682  1.2707
  559SOL    HW2 2219   0.987   3.428   6.079 -0.7347  0.1119 -0.7906
  560SOL     OW 2220   4.158   6.241   3.451  0.1723 -0.2989  0.1194
  560SOL    HW1 2221   4.134   6.333   3.436 -0.0454 -0.3249  0.3007
  560SOL    HW2 2222   4.253   6.243   3.466  0.0606 -0.0078  0.8359
  561SOL     OW 2223   3.782   6.261   5.043  0.1840  0.3791 -0.4277
  561SOL    HW1 2224   3.876   6.279   5.035  0.2161  0.2376 -0.3684
  561SOL    HW2 2225   3.740   6.338   5.004  0.3127  0.8067  0.2697
  562SOL     OW 2226   0.539   1.869   7.556  0.1418  0.1306 -0.3849
  562SOL    HW1 2227   0.503   1.843   7.471 -2.6853 -2.1521  1.2908
  562SOL    HW2 2228   0.564   1.961   7.545  0.1111 -0.1443 -3.6876
  563SOL     OW 2229   0.752   3.882   5.783 -0.4439 -0.4981 -0.6462
  563SOL    HW1 2230   0.727   3.912   5.695  2.7169  0.2407 -1.4148
  563SOL    HW2 2231   0.800   3.801   5.767  1.5365  0.4597  0.1730
  564SOL     OW 2232   4.747   2.040   6.163  0.0952 -0.8274 -0.0391
  564SOL    HW1 2233   4.767   2.028   6.070 -0.7414 -1.9767 -0.0837
  564SOL    HW2 2234   4.799   2.117   6.188  1.4917 -1.3794 -1.0797
  565SOL     OW 2235   7.240   7.299   1.505  0.0143 -0.4265 -0.3165
  565SOL    HW1 2236   7.161   7.341   1.470  1.4173  0.2335 -2.9325
  565SOL    HW2 2237   7.307   7.316   1.439  2.0155 -2.1708  1.1579
  566SOL     OW 2238   1.226   1.514   4.561  0.2555 -0.1357  0.3013
  566SOL    HW1 2239   1.261   1.573   4.494 -0.0570  0.6024  0.7784
  566SOL    HW2 2240   1.155   1.468   4.516 -0.6230  1.0782  0.3713
  567SOL     OW 2241   0.228   0.217   1.276  0.4812  0.1323 -0.1763
  567SOL    HW1 2242   0.144   0.224   1.230  1.9731  0.3029 -3.1368
  567SOL    HW2 2243   0.247   0.123   1.276  0.6050  0.1573 -0.1526
  568SOL     OW 2244   3.042   0.447   5.526  0.6639  0.0968 -0.4062
  568SOL    HW1 2245   3.029   0.403   5.610  1.2588  0.7764  0.0559
  568SOL    HW2 2246   2.988   0.526   5.531 -0.2350 -0.4487 -1.1483
  569SOL     OW 2247   0.365   3.505   5.444 -0.1947 -0.2454 -0.0096
  569SOL    HW1 2248   0.386   3.570   5.377 -0.0202 -0.5129 -0.2113
  569SOL    HW2 2249   0.394   3.546   5.526 -0.1410 -0.0418 -0.1296
  570SOL     OW 2250   0.371   3.134   6.626 -0.5930  0.3436 -0.3561
  570SOL    HW1 2251   0.446   3.075   6.630  1.3005  2.5527 -0.6951
  570SOL    HW2 2252   0.361   3.165   6.716  1.3009  2.7013 -0.8494
  571SOL     OW 2253   3.822   7.132   2.216  0.3475 -0.3074 -0.0939
  571SOL    HW1 2254   3.836   7.217   2.174  0.0644 -1.0553 -1.7567
  571SOL    HW2 2255   3.907   7.089   2.213  0.4331 -0.1941  0.5299
  572SOL     OW 2256   0.222   0.527   5.520 -0.1626  0.2360  0.0584
  572SOL    HW1 2257   0.200   0.525   5.427  1.5382 -3.1631 -0.4074
  572SOL    HW2 2258   0.192   0.613   5.549  0.1175  1.8541 -3.8094
  573SOL     OW 2259   3.271   2.063   5.401 -0.4631 -0.1483 -0.2718
  573SOL    HW1 2260   3.258   1.971   5.376 -1.9160 -0.7234  2.2410
  573SOL    HW2 2261   3.197   2.083   5.458  0.5552  2.1725  0.3489
  574SOL     OW 2262   1.059   2.660   2.058 -0.5289 -0.6380  0.5385
  574SOL    HW1 2263   1.094   2.634   2.143 -0.0798 -0.1929  0.4940
  574SOL    HW2 2264   1.091   2.592   1.998 -0.6655 -0.8345  0.6870
  575SOL     OW 2265   0.661   4.511   4.024  0.1442  0.6429 -0.6199
  575SOL    HW1 2266   0.752   4.539   4.039  0.7358 -1.1755 -0.5582
  575SOL    HW2 2267   0.669   4.438   3.964 -1.2539  0.1228 -0.1958
  576SOL     OW 2268   2.615   6.584   4.040 -0.1002 -0.3038 -0.1118
  576SOL    HW1 2269   2.672   6.653   4.004 -0.5355  0.6902  1.0415
  576SOL    HW2 2270   2.640   6.577   4.132 -0.0493 -1.7378 -0.2144
  577SOL     OW 2271   2.143   5.744   2.618 -0.0603 -0.3511  0.5116
  577SOL    HW1 2272   2.168   5.818   2.562 -1.9931  1.5797  2.0338
  577SOL    HW2 2273   2.081   5.694   2.564  0.3459 -0.1867 -0.1193
  578SOL     OW 2274   3.781   0.169   5.939  0.1590 -0.0021  0.0375
  578SOL    HW1 2275   3.741   0.098   5.888 -1.0611  0.1293  0.7587
  578SOL    HW2 2276   3.832   0.219   5.876  0.5859 -1.1926 -0.5864
  579SOL     OW 2277   2.102   0.706   4.212  0.5730 -0.4948  0.4006
  579SOL    HW1 2278   2.115   0.655   4.132  0.0196 -0.0782  0.0416
  579SOL    HW2 2279   2.055   0.784   4.184 -0.6845 -0.8924  1.3146
  580SOL     OW 2280   6.036   2.786   5.572 -0.0086  0.3467  0.3787
  580SOL    HW1 2281   6.129   2.786   5.597 -0.2811  0.5883  1.4339
  580SOL    HW2 2282   6.036   2.758   5.480  1.0991  0.2542  0.3923
  581SOL     OW 2283   2.643   4.497   3.449  0.0129 -0.7424 -0.3573
  581SOL    HW1 2284   2.563   4.521   3.403  0.1233 -0.7930 -0.5796
  581SOL    HW2 2285   2.648   4.557   3.523  0.1682 -0.2380 -0.7736
  582SOL     OW 2286   3.711   0.641   6.055 -0.1014 -0.8222 -0.2006
  582SOL    HW1 2287   3.682   0.603   5.972 -0.4081 -0.4666 -0.2583
  582SOL    HW2 2288   3.781   0.701   6.031  0.7801 -1.7657 -0.0495
  583SOL     OW 2289   0.804   2.588   1.798 -0.1966 -0.2168  0.9349
  583SOL    HW1 2290   0.885   2.638   1.782 -0.1755 -0.2522  0.9303
  583SOL    HW2 2291   0.736   2.654   1.802 -0.2796 -0.2376  0.1730
  584SOL     OW 2292   2.574   3.225   3.094  0.0236  0.4295 -0.3414
  584SOL    HW1 2293   2.568   3.316   3.122  1.2905  0.5141 -0.3033
  584SOL    HW2 2294   2.554   3.175   3.173  2.1918  0.6779  0.4321
  585SOL     OW 2295   7.485   2.467   7.085 -0.1106 -0.2761 -0.0720
  585SOL    HW1 2296   7.575   2.458   7.054  0.1915 -0.9966  0.9757
  585SOL    HW2 2297   7.487   2.539   7.147 -0.4834  0.3858 -0.7978
  586SOL     OW 2298   0.464   6.431   3.929 -0.4079 -0.1553 -0.2749
  586SOL    HW1 2299   0.539   6.490   3.929 -0.3841 -0.1844  0.0182
  586SOL    HW2 2300   0.394   6.481   3.886 -0.9034  0.7559  1.5097
  587SOL     OW 2301   0.223   1.482   1.859 -0.5986  0.0966  0.0382
  587SOL    HW1 2302   0.206   1.417   1.791 -0.6577  0.2771 -0.1202
  587SOL    HW2 2303   0.176   1.450   1.936 -2.6263  1.1522 -0.6987
  588SOL     OW 2304   5.013   7.026   4.959 -0.1791 -0.0783  0.4247
  588SOL    HW1 2305   5.064   6.945   4.957 -0.0311  0.0275 -0.7770
  588SOL    HW2 2306   5.076   7.094   4.936 -0.5197  0.2564  0.4726
  589SOL     OW 2307   5.154   1.417   3.905 -0.2938  0.5060  0.1829
  589SOL    HW1 2308   5.144   1.322   3.903 -0.2772  0.5048  0.1606
  589SOL    HW2 2309   5.222   1.436   3.841 -1.4452  0.6854 -1.0234
  590SOL     OW 2310   7.005   1.085   6.787  0.3676  0.0882  1.1070
  590SOL    HW1 2311   6.952   1.032   6.728  1.0815 -0.6344  1.0971
  590SOL    HW2 2312   6.959   1.168   6.793 -0.7094 -0.4915  1.0269
  591SOL     OW 2313   6.821   0.076   0.261  0.0974  0.0086 -0.1078
  591SOL    HW1 2314   6.872   0.100   0.184  2.0845  0.5234  1.2991
  591SOL    HW2 2315   6.732   0.104   0.241  1.1627  3.1306 -0.9760
  592SOL     OW 2316   3.975   0.713   0.383  0.0982  0.9413 -0.8197
  592SOL    HW1 2317   3.886   0.733   0.411  0.6549  0.4518  1.5076
  592SOL    HW2 2318   4.025   0.792   0.405  0.6943  0.2665  0.3142
  593SOL     OW 2319   4.445   7.042   4.414  0.3567  0.3487 -0.2943
  593SOL    HW1 2320   4.500   6.972   4.378  1.0081  1.0829 -0.7709
  593SOL    HW2 2321   4.401   7.079   4.338 -0.0066  0.4400 -0.0393
  594SOL     OW 2322   1.553   0.681   1.096 -0.1404 -0.1008 -0.0729
  594SOL    HW1 2323   1.564   0.591   1.128 -1.2331 -0.5605 -0.9013
  594SOL    HW2 2324   1.630   0.727   1.127 -0.6624 -0.7367  2.3495
  595SOL     OW 2325   6.599   0.597   5.741 -0.4265 -0.5319 -0.0561
  595SOL    HW1 2326   6.506   0.589   5.724 -0.2325 -0.4875 -1.1960
  595SOL    HW2 2327   6.619   0.526   5.802 -1.0986 -0.8350 -0.1865
  596SOL     OW 2328   2.992   2.466   0.494  0.2262  0.1271 -0.7807
  596SOL    HW1 2329   2.902   2.468   0.526  0.6175 -0.7841  0.4363
  596SOL    HW2 2330   3.006   2.555   0.460 -1.4449 -0.0123 -1.9849
  597SOL     OW 2331   4.659   7.287   4.809  0.2974 -0.6099 -0.3887
  597SOL    HW1 2332   4.591   7.247   4.754 -2.1245  1.3803  0.9323
  597SOL    HW2 2333   4.674   7.373   4.769  0.6824 -0.3064  0.3915
  598SOL     OW 2334   6.607   4.701   1.243 -0.6561 -0.4609 -0.6171
  598SOL    HW1 2335   6.679   4.745   1.197 -0.3024 -2.3698 -2.0019
  598SOL    HW2 2336   6.529   4.722   1.191 -1.0556  1.0817  0.5273
  599SOL     OW 2337   2.325   5.031   2.843  0.2894  0.4361 -0.2248
  599SOL    HW1 2338   2.279   5.081   2.911 -0.3451  2.1150 -1.7915
  599SOL    HW2 2339   2.290   4.942   2.851 -0.0014  0.6575  1.4141
  600SOL     OW 2340   2.707   6.815   2.244  0.1354  0.1802 -0.2486
  600SOL    HW1 2341   2.621   6.785   2.275  0.1107  1.2358  0.8135
  600SOL    HW2 2342   2.714   6.782   2.155 -0.4662 -1.7149  0.3546
  601SOL     OW 2343   4.929   6.647   5.741  0.1306  0.5275  0.2610
  601SOL    HW1 2344   4.964   6.672   5.827 -0.1824  0.4742  0.4065
  601SOL    HW2 2345   4.926   6.551   5.744 -0.9072  0.5631  0.6083
  602SOL     OW 2346   3.836   0.110   5.663 -0.0189  0.0847  0.2271
  602SOL    HW1 2347   3.910   0.100   5.602 -0.8296  0.2742 -0.8326
  602SOL    HW2 2348   3.822   0.205   5.667 -1.1822 -0.0220 -0.8329
  603SOL     OW 2349   5.717   1.741   0.858 -0.3385  0.0210  0.6889
  603SOL    HW1 2350   5.671   1.825   0.848 -1.0289 -0.0377  2.9524
  603SOL    HW2 2351   5.748   1.740   0.948  0.8528 -1.6077  0.3178
  604SOL     OW 2352   6.775   4.923   2.773  0.0889 -0.3323 -0.1544
  604SOL    HW1 2353   6.790   4.948   2.864 -1.5969 -0.8799  0.3161
  604SOL    HW2 2354   6.860   4.934   2.731  0.4341  2.1139  0.9596
  605SOL     OW 2355   1.583   5.260   4.260  0.1141  0.2758 -0.1122
  605SOL    HW1 2356   1.676   5.266   4.239  0.0724 -1.7309 -1.1121
  605SOL    HW2 2357   1.580   5.249   4.355  0.8892  0.4284 -0.0655
  606SOL     OW 2358   2.955   4.510   0.900  0.1399  0.1475  0.3131
  606SOL    HW1 2359   2.872   4.520   0.946  0.7198 -0.0750  1.4658
  606SOL    HW2 2360   2.971   4.594   0.858 -0.6719  0.1800  0.0614
  607SOL     OW 2361   4.167   4.496   3.891 -0.1256 -0.5811 -0.2311
  607SOL    HW1 2362   4.105   4.546   3.944  1.7349  0.7406  0.8362
  607SOL    HW2 2363   4.177   4.547   3.811 -2.3465 -2.1767 -1.6200
  608SOL     OW 2364   0.669   6.596   5.125 -0.5184  0.0912 -0.2761
  608SOL    HW1 2365   0.682   6.595   5.031 -0.1451 -1.8826 -0.2540
  608SOL    HW2 2366   0.714   6.675   5.155 -0.7512  0.8089 -1.7394
  609SOL     OW 2367   7.180   6.576   6.236 -0.4875  0.3873  0.1759
  609SOL    HW1 2368   7.265   6.542   6.266 -0.4795 -1.9966 -2.2402
  609SOL    HW2 2369   7.115   6.527   6.288 -0.4574  1.3258  1.1437
  610SOL     OW 2370   3.843   1.542   0.301  0.2561  0.4234  0.4524
  610SOL    HW1 2371   3.770   1.517   0.358  0.0967 -1.0347 -0.3155
  610SOL    HW2 2372   3.807   1.609   0.243 -0.0056  0.8370  1.0843
  611SOL     OW 2373   3.528   1.776   2.380 -0.0700 -0.3079 -0.0161
  611SOL    HW1 2374   3.590   1.726   2.432 -0.2393  1.3125  1.8293
  611SOL    HW2 2375   3.483   1.832   2.443 -0.5614  1.4686 -1.8408
  612SOL     OW 2376   4.220   5.192   2.882 -0.3604 -0.0539  0.0005
  612SOL    HW1 2377   4.274   5.243   2.822  1.7784  0.8017  2.4523
  612SOL    HW2 2378   4.231   5.236   2.966 -3.0948 -1.2653  1.1019
  613SOL     OW 2379   1.240   5.487   1.963  0.0202  0.2757  0.0308
  613SOL    HW1 2380   1.336   5.487   1.958  0.2040  0.8889  2.3554
  613SOL    HW2 2381   1.218   5.579   1.976 -0.9745  0.2415 -1.2968
  614SOL     OW 2382   6.187   0.610   6.770  0.3064 -0.4106 -0.2586
  614SOL    HW1 2383   6.157   0.590   6.681  2.6631  1.9456 -1.7452
  614SOL    HW2 2384   6.263   0.553   6.783 -0.4268 -1.2247  0.5550
  615SOL     OW 2385   4.938   7.234   0.750  0.0077  0.2167 -0.2644
  615SOL    HW1 2386   5.019   7.285   0.750  0.5516 -0.6238 -0.6345
  615SOL    HW2 2387   4.922   7.213   0.658  0.0325 -0.6384 -0.0825
  616SOL     OW 2388   5.846   6.684   0.878  0.3249 -0.5341  0.3520
  616SOL    HW1 2389   5.794   6.675   0.798  2.2483 -1.2683 -0.8810
  616SOL    HW2 2390   5.842   6.597   0.918  1.7780 -1.0730 -0.5671
  617SOL     OW 2391   1.996   4.889   6.828 -0.1578  0.2427  0.3835
  617SOL    HW1 2392   1.953   4.913   6.910  1.4367 -0.0433  1.3320
  617SOL    HW2 2393   2.061   4.958   6.813  1.1290 -0.8767  0.5879
  618SOL     OW 2394   4.805   1.959   5.651  0.9165 -0.5852 -0.2194
  618SOL    HW1 2395   4.727   1.908   5.631  1.1342 -0.7635 -0.6200
  618SOL    HW2 2396   4.834   1.994   5.567  0.1936  1.0597  0.1675
  619SOL     OW 2397   2.849   0.933   5.689 -0.1018 -0.5283  0.2300
  619SOL    HW1 2398   2.787   0.996   5.724 -0.8174 -0.5786 -0.9125
  619SOL    HW2 2399   2.933   0.979   5.690 -0.2400 -0.2750  1.2775
  620SOL     OW 2400   1.872   5.900   0.272 -0.1140 -0.1665  0.0520
  620SOL    HW1 2401   1.903   5.925   0.359  0.4051  0.5962 -0.3424
  620SOL    HW2 2402   1.921   5.819   0.252 -2.5129 -2.1732  1.7311
  621SOL     OW 2403   0.440   2.356   3.744 -0.1685 -0.0467 -0.3906
  621SOL    HW1 2404   0.361   2.320   3.785 -1.0042  2.7166  0.5916
  621SOL    HW2 2405   0.512   2.310   3.788 -1.1388  0.3158  1.7036
  622SOL     OW 2406   6.260   2.136   0.439  0.6422  0.1953  0.2906
  622SOL    HW1 2407   6.315   2.214   0.428 -1.4698  1.5019 -1.9094
  622SOL    HW2 2408   6.214   2.150   0.522  1.3347  0.5596  0.6238
  623SOL     OW 2409   3.468   5.147   2.677 -0.0922  0.1453  0.0181
  623SOL    HW1 2410   3.444   5.211   2.744  0.5978  1.3267 -0.8192
  623SOL    HW2 2411   3.553   5.113   2.706 -0.0522  0.2536  0.0301
  624SOL     OW 2412   6.988   6.353   3.228 -0.8164  0.1082  0.3089
  624SOL    HW1 2413   7.003   6.305   3.146 -0.6460  0.8300 -0.0929
  624SOL    HW2 2414   6.903   6.396   3.215 -0.5500  0.6485  0.2847
  625SOL     OW 2415   2.618   2.027   1.527  0.0168 -0.6079  0.2862
  625SOL    HW1 2416   2.627   1.973   1.449  1.0410 -0.8905  0.5949
  625SOL    HW2 2417   2.566   1.974   1.587  1.9292 -1.7424  1.0048
  626SOL     OW 2418   6.571   2.479   7.415  0.2887 -0.4544 -0.1239
  626SOL    HW1 2419   6.603   2.390   7.429  0.9645 -0.0816  0.8078
  626SOL    HW2 2420   6.521   2.474   7.333  1.0371 -1.4979 -0.5451
  627SOL     OW 2421   3.983   4.915   3.676 -0.3649  0.5689 -0.2514
  627SOL    HW1 2422   4.053   4.878   3.622 -0.2922 -0.6862  0.6571
  627SOL    HW2 2423   4.025   4.985   3.725  0.0073  0.5160 -0.4938
  628SOL     OW 2424   2.352   3.192   1.173 -0.5289 -0.6526  0.6403
  628SOL    HW1 2425   2.398   3.264   1.215  0.4566 -0.8435 -0.0914
  628SOL    HW2 2426   2.373   3.116   1.226 -0.1808 -0.7038  0.4257
  629SOL     OW 2427   1.021   5.938   4.384 -0.3828 -0.3729  0.1080
  629SOL    HW1 2428   1.104   5.890   4.386  0.1510  0.5371  0.6710
  629SOL    HW2 2429   1.030   5.997   4.310  0.0290  0.6424  0.9366
  630SOL     OW 2430   2.336   4.837   1.542  0.0560  0.0977 -0.0522
  630SOL    HW1 2431   2.407   4.780   1.512  1.4222  1.1827  0.9988
  630SOL    HW2 2432   2.368   4.926   1.525 -1.1532  0.6108  0.2481
  631SOL     OW 2433   6.882   0.027   5.403  0.2222 -0.1630 -0.3486
  631SOL    HW1 2434   6.955   0.078   5.368  1.3789 -1.3381  0.2393
  631SOL    HW2 2435   6.854   0.075   5.481 -0.4839  0.9510 -1.2595
  632SOL     OW 2436   4.454   2.394   4.954  0.1214 -0.9953  0.2452
  632SOL    HW1 2437   4.529   2.443   4.988 -1.3149  1.8949 -0.4783
  632SOL    HW2 2438   4.476   2.378   4.862 -0.8977  1.7062 -0.5600
  633SOL     OW 2439   4.992   1.545   0.787 -0.3192 -0.1349  0.4927
  633SOL    HW1 2440   5.011   1.477   0.851  2.0012 -0.3529 -0.3581
  633SOL    HW2 2441   5.069   1.548   0.731 -3.0157 -1.5486 -3.7854
  634SOL     OW 2442   5.606   1.106   2.151  0.6614 -0.5555  0.0855
  634SOL    HW1 2443   5.569   1.020   2.171  0.4420 -0.5518 -0.2896
  634SOL    HW2 2444   5.677   1.117   2.214 -0.4365 -0.2489  1.3250
  635SOL     OW 2445   1.488   6.515   2.094 -0.1141 -0.2692  0.4697
  635SOL    HW1 2446   1.444   6.591   2.055 -0.3533  0.7610  2.5493
  635SOL    HW2 2447   1.514   6.461   2.020  0.0124  1.8176 -1.1089
  636SOL     OW 2448   2.309   3.790   7.323  0.3581  0.1466 -0.1670
  636SOL    HW1 2449   2.385   3.800   7.380  1.3099 -1.3218 -1.1056
  636SOL    HW2 2450   2.315   3.864   7.262  0.0121  1.0366  0.8565
  637SOL     OW 2451   5.565   0.454   5.567  0.2034  0.2711  0.1937
  637SOL    HW1 2452   5.508   0.417   5.634  1.8933 -0.5344  1.2587
  637SOL    HW2 2453   5.534   0.415   5.485 -0.0615 -1.0614  0.8912
  638SOL     OW 2454   1.160   2.774   7.370 -0.2761 -0.1021  0.2543
  638SOL    HW1 2455   1.247   2.734   7.375  0.1503  0.5227 -1.4764
  638SOL    HW2 2456   1.176   2.867   7.380 -0.8870 -0.0653  0.9758
  639SOL     OW 2457   2.270   1.715   4.933 -0.3047  0.2019  0.4343
  639SOL    HW1 2458   2.190   1.767   4.936 -0.0442  0.7401 -1.3298
  639SOL    HW2 2459   2.242   1.627   4.959 -1.9937 -0.1763 -2.3509
  640SOL     OW 2460   1.109   2.701   2.548  0.2891 -0.3378  0.3568
  640SOL    HW1 2461   1.134   2.679   2.458 -1.4540 -0.9508 -0.0302
  640SOL    HW2 2462   1.145   2.789   2.562  0.8740 -0.3667 -0.8162
  641SOL     OW 2463   2.678   3.965   2.671  0.0204 -0.0359  0.2331
  641SOL    HW1 2464   2.598   3.983   2.622  0.0123  1.0496  0.6022
  641SOL    HW2 2465   2.649   3.926   2.753 -0.2088  0.9797  0.6574
  642SOL     OW 2466   3.543   0.854   0.967  0.8055  1.2241 -0.2785
  642SOL    HW1 2467   3.637   0.838   0.972  0.4424 -1.5345 -0.7724
  642SOL    HW2 2468   3.523   0.903   1.047  2.2953 -0.4986  1.2478
  643SOL     OW 2469   3.521   5.094   6.989 -0.0853  0.1171 -0.6398
  643SOL    HW1 2470   3.459   5.074   7.059  0.6455 -2.2131 -0.5809
  643SOL    HW2 2471   3.477   5.160   6.936 -1.0124  1.3323  1.5001
  644SOL     OW 2472   5.368   4.109   3.091  0.5672 -0.0683 -0.6990
  644SOL    HW1 2473   5.427   4.147   3.157  1.3017 -0.2028 -1.2664
  644SOL    HW2 2474   5.300   4.066   3.142  2.4939 -2.4259  0.0909
  645SOL     OW 2475   6.929   1.134   7.241 -0.1946  0.3814 -0.2093
  645SOL    HW1 2476   6.957   1.135   7.150 -0.7432 -3.2341 -0.5493
  645SOL    HW2 2477   6.839   1.103   7.238 -0.2454  0.2610  1.5886
  646SOL     OW 2478   1.030   6.050   2.337  0.4892  0.5020 -0.5720
  646SOL    HW1 2479   0.961   5.986   2.321  0.1764  0.5771  0.4094
  646SOL    HW2 2480   1.110   6.006   2.309  0.1811 -0.0026 -0.6777
  647SOL     OW 2481   6.999   7.609   3.468 -0.1625  0.2592 -0.2980
  647SOL    HW1 2482   6.988   7.563   3.552 -0.8060 -1.0774 -1.0672
  647SOL    HW2 2483   7.030   7.696   3.492  0.0269 -0.2120  1.3052
  648SOL     OW 2484   5.242   5.587   2.018 -0.1358  0.2708  0.3117
  648SOL    HW1 2485   5.186   5.531   1.964 -0.1928 -0.0964  0.7518
  648SOL    HW2 2486   5.315   5.609   1.960  0.3626 -1.0164  0.4195
  649SOL     OW 2487   3.627   1.093   7.399 -0.1688 -0.1384  0.9197
  649SOL    HW1 2488   3.615   1.155   7.327 -0.8857  0.8664  1.8719
  649SOL    HW2 2489   3.646   1.148   7.475 -2.1793 -0.9416  2.0925
  650SOL     OW 2490   6.661   4.637   0.946 -0.3134 -0.0380 -0.1139
  650SOL    HW1 2491   6.723   4.702   0.914  1.5906 -0.8806  1.6987
  650SOL    HW2 2492   6.682   4.625   1.038 -1.8504 -1.8565  0.0832
  651SOL     OW 2493   2.948   7.031   3.865  0.4470  0.1185 -0.2517
  651SOL    HW1 2494   2.892   7.108   3.856 -2.2181 -1.7466 -0.9011
  651SOL    HW2 2495   2.969   7.007   3.774  1.2921  0.0977 -0.0537
  652SOL     OW 2496   6.523   3.469   4.926 -0.3199  0.3837 -0.1691
  652SOL    HW1 2497   6.504   3.549   4.878 -0.8183  0.3757  0.0017
  652SOL    HW2 2498   6.617   3.457   4.918 -0.4913 -0.0537 -1.8249
  653SOL     OW 2499   5.304   0.344   4.001  0.0923  0.3403 -0.0390
  653SOL    HW1 2500   5.261   0.430   4.004 -1.4478 -0.3135 -1.6809
  653SOL    HW2 2501   5.319   0.322   4.093 -0.6998  1.7721  0.4755
  654SOL     OW 2502   5.883   2.343   1.681  0.5278  0.2883 -0.1883
  654SOL    HW1 2503   5.792   2.335   1.711 -0.1053  2.1043 -1.4850
  654SOL    HW2 2504   5.931   2.283   1.737 -1.5644 -1.2768  0.0740
  655SOL     OW 2505   4.991   1.090   4.906 -0.7857 -0.0606 -0.4399
  655SOL    HW1 2506   4.972   1.113   4.815  0.3155 -0.4319 -0.7783
  655SOL    HW2 2507   4.989   0.994   4.907 -1.8435 -0.0460  0.1751
  656SOL     OW 2508   2.802   3.246   1.522 -0.1182 -0.3553  0.3379
  656SOL    HW1 2509   2.741   3.266   1.451 -1.5693  0.1909  1.6844
  656SOL    HW2 2510   2.794   3.319   1.583  2.7763  0.3068  0.0351
  657SOL     OW 2511   4.791   1.228   1.409 -0.0869 -0.1821 -0.3336
  657SOL    HW1 2512   4.859   1.256   1.471  0.8601 -0.1942 -1.3388
  657SOL    HW2 2513   4.717   1.203   1.465  0.3584  0.8009  0.7393
  658SOL     OW 2514   5.162   7.143   4.417  0.3155 -0.0854 -0.3805
  658SOL    HW1 2515   5.200   7.076   4.361  0.5309 -0.1578 -0.1447
  658SOL    HW2 2516   5.113   7.199   4.357  3.0488  1.6839 -1.1671
  659SOL     OW 2517   4.148   1.374   3.590  0.0305 -0.0058  0.1461
  659SOL    HW1 2518   4.189   1.334   3.514 -1.2501 -0.2372 -0.4398
  659SOL    HW2 2519   4.219   1.425   3.631  0.8852 -0.3626 -0.8435
  660SOL     OW 2520   0.765   2.578   2.962 -0.4450  0.1461  0.3335
  660SOL    HW1 2521   0.699   2.519   2.924 -0.1446 -0.0815  0.1585
  660SOL    HW2 2522   0.803   2.527   3.033 -0.1857  0.1277  0.1818
  661SOL     OW 2523   6.267   2.523   1.720  0.0469  0.3533  0.4684
  661SOL    HW1 2524   6.286   2.435   1.753  0.6910 -0.6704 -2.3440
  661SOL    HW2 2525   6.177   2.540   1.748  0.1741 -0.8534  1.7270
  662SOL     OW 2526   7.112   0.375   4.584 -0.0898  0.1011  0.3040
  662SOL    HW1 2527   7.134   0.418   4.667  1.4379 -0.9737  0.4894
  662SOL    HW2 2528   7.037   0.425   4.551 -0.0449  1.2320  1.7856
  663SOL     OW 2529   6.756   5.329   3.490 -0.1509  0.3184  0.0506
  663SOL    HW1 2530   6.769   5.419   3.521 -0.3318  0.1669  0.5826
  663SOL    HW2 2531   6.822   5.318   3.422  1.5059  0.0952  1.6024
  664SOL     OW 2532   2.840   5.177   0.041  0.2458  0.1280  0.6600
  664SOL    HW1 2533   2.900   5.102   0.042  1.1039  0.8064  1.5449
  664SOL    HW2 2534   2.755   5.139   0.064  0.6635 -0.5935  1.0751
  665SOL     OW 2535   6.539   6.349   6.665 -0.3477 -0.1169 -0.1253
  665SOL    HW1 2536   6.581   6.283   6.721 -2.8263 -0.7787  1.0985
  665SOL    HW2 2537   6.544   6.429   6.716 -0.5655 -0.2025  0.0339
  666SOL     OW 2538   3.611   0.452   1.106 -0.4887 -0.2571 -0.5250
  666SOL    HW1 2539   3.682   0.388   1.103 -0.2098  0.0668 -2.4501
  666SOL    HW2 2540   3.647   0.525   1.156  0.5897 -0.0826 -1.5084
  667SOL     OW 2541   1.693   5.312   2.382 -0.5177 -0.2303 -0.2678
  667SOL    HW1 2542   1.766   5.301   2.322  0.4090  0.9155  0.6130
  667SOL    HW2 2543   1.671   5.222   2.409 -0.9116 -0.7579 -2.2135
  668SOL     OW 2544   7.552   2.255   5.173 -0.1933 -0.6365 -0.3461
  668SOL    HW1 2545   7.478   2.306   5.205  1.6881  0.6947  2.3040
  668SOL    HW2 2546   7.572   2.292   5.087  0.1378  2.1855  0.8281
  669SOL     OW 2547   6.101   2.521   2.097  0.4071 -0.3424 -0.0543
  669SOL    HW1 2548   6.070   2.527   2.188 -2.5798 -0.0905 -0.9790
  669SOL    HW2 2549   6.098   2.427   2.077 -0.9330 -0.2259 -0.4747
  670SOL     OW 2550   5.149   7.357   5.649 -0.1558  0.6677 -0.3921
  670SOL    HW1 2551   5.080   7.300   5.615  0.3186  0.1180 -0.4593
  670SOL    HW2 2552   5.103   7.435   5.680 -0.7434  0.5823 -1.0123
  671SOL     OW 2553   0.886   0.765   6.356 -0.2001 -0.1326 -0.0823
  671SOL    HW1 2554   0.919   0.789   6.443  1.3836 -1.6973 -0.2021
  671SOL    HW2 2555   0.830   0.689   6.371  0.8310 -0.9988 -0.5019
  672SOL     OW 2556   5.158   0.630   6.780  0.2393  0.0061  0.1061
  672SOL    HW1 2557   5.200   0.544   6.777  1.5339  0.5338  1.5369
  672SOL    HW2 2558   5.137   0.651   6.689  0.3163 -1.6071 -0.3062
  673SOL     OW 2559   1.537   2.147   4.689  0.0246  0.2161  0.2294
  673SOL    HW1 2560   1.444   2.169   4.691  0.0432  0.6071 -1.5020
  673SOL    HW2 2561   1.563   2.146   4.781 -1.0105  3.0239  0.6552
  674SOL     OW 2562   1.831   4.590   3.494  0.1814  0.1669  0.1045
  674SOL    HW1 2563   1.870   4.503   3.504 -0.2125 -0.0939 -0.5559
  674SOL    HW2 2564   1.783   4.605   3.576  1.5384  0.4456  0.8897
  675SOL     OW 2565   2.272   5.275   2.393  0.1439 -0.0255 -0.6609
  675SOL    HW1 2566   2.364   5.264   2.418 -0.9398 -1.6397  3.5280
  675SOL    HW2 2567   2.230   5.193   2.421 -2.4701  0.1677 -3.5026
  676SOL     OW 2568   6.037   0.772   0.013  0.0682  0.4704 -0.6410
  676SOL    HW1 2569   6.077   0.824  -0.056  0.7529  1.5088  0.5088
  676SOL    HW2 2570   5.957   0.819   0.036  0.3687  0.6913 -0.0281
  677SOL     OW 2571   2.491   1.612   0.380 -0.7353  0.8341 -0.2433
  677SOL    HW1 2572   2.504   1.607   0.475  1.0362 -3.2237 -0.5083
  677SOL    HW2 2573   2.398   1.593   0.366 -0.9379  1.1460  0.6504
  678SOL     OW 2574   6.483   0.408   4.592  0.2565  0.1439  0.4012
  678SOL    HW1 2575   6.400   0.384   4.550 -0.2702 -0.3015  1.6675
  678SOL    HW2 2576   6.494   0.501   4.572  0.2198 -0.1332 -1.0323
  679SOL     OW 2577   3.622   7.579   3.389 -0.1498  0.0968 -0.6657
  679SOL    HW1 2578   3.535   7.552   3.359  0.2162 -2.3901  0.2736
  679SOL    HW2 2579   3.605   7.627   3.470 -0.6979  1.1494 -1.3626
  680SOL     OW 2580   6.116   5.461   7.426  0.5115  0.8221  0.3832
  680SOL    HW1 2581   6.081   5.538   7.380 -0.5289 -0.0873 -0.3872
  680SOL    HW2 2582   6.049   5.394   7.415  1.9581 -0.6007 -0.0255
  681SOL     OW 2583   2.990   2.457   2.807 -0.1172  0.9270 -0.1592
  681SOL    HW1 2584   2.926   2.528   2.802 -1.1026  0.0253 -0.6124
  681SOL    HW2 2585   3.034   2.459   2.722 -0.5381  0.6369 -0.3861
  682SOL     OW 2586   3.637   0.885   3.315 -0.4733 -0.2112  0.2089
  682SOL    HW1 2587   3.695   0.906   3.389  1.6182 -0.3118 -1.3251
  682SOL    HW2 2588   3.689   0.902   3.237 -2.1948 -1.2770 -1.2720
  683SOL     OW 2589   6.358   5.541   5.878  0.4513  0.4773  0.0500
  683SOL    HW1 2590   6.338   5.451   5.851 -0.4845  0.5856  0.3570
  683SOL    HW2 2591   6.399   5.581   5.801  1.6430 -0.4460  0.1763
  684SOL     OW 2592   2.460   3.887   4.456 -0.0498  0.8616  0.5101
  684SOL    HW1 2593   2.474   3.805   4.408 -1.8179  0.9230 -0.1779
  684SOL    HW2 2594   2.548   3.915   4.481  0.6385 -0.9112  0.2148
  685SOL     OW 2595   0.170   3.503   3.700 -0.5198  0.1062 -0.5906
  685SOL    HW1 2596   0.171   3.536   3.610 -1.0553  0.8051 -0.3459
  685SOL    HW2 2597   0.134   3.415   3.693 -1.9877  0.7029 -0.9016
  686SOL     OW 2598   4.044   3.337   3.667  0.6659  0.7540  0.0071
  686SOL    HW1 2599   3.988   3.373   3.736 -1.4679 -0.7473 -0.8100
  686SOL    HW2 2600   4.006   3.371   3.586 -0.1430 -1.5197 -0.6548
  687SOL     OW 2601   0.851   6.165   5.804 -0.2922  0.2908 -0.3054
  687SOL    HW1 2602   0.855   6.221   5.726  0.8992  2.1022  0.9711
  687SOL    HW2 2603   0.902   6.213   5.870  0.9445 -2.4188  0.8391
  688SOL     OW 2604   2.342   1.526   3.468 -0.0187  0.1526 -0.2338
  688SOL    HW1 2605   2.421   1.572   3.441 -0.1797  0.4871 -0.1391
  688SOL    HW2 2606   2.356   1.506   3.560 -1.3328  2.9977  0.6857
  689SOL     OW 2607   0.057   6.370   4.009 -0.2786  0.3047 -0.2371
  689SOL    HW1 2608   0.120   6.421   4.061 -0.7479  0.6204  0.0346
  689SOL    HW2 2609   0.010   6.317   4.074  0.1518 -0.4277 -0.5093
  690SOL     OW 2610   0.364   4.739   7.238  0.1034 -0.3793  0.5307
  690SOL    HW1 2611   0.275   4.710   7.217 -0.1622 -0.1533  1.3033
  690SOL    HW2 2612   0.406   4.662   7.276  1.0605 -1.2307 -2.0674
  691SOL     OW 2613   1.906   5.956   2.314  0.1054  0.0027 -0.0900
  691SOL    HW1 2614   1.886   6.049   2.304  0.3867  0.1649  0.7880
  691SOL    HW2 2615   1.980   5.941   2.256  0.0061  0.3087 -0.2983
  692SOL     OW 2616   7.409   1.414   1.146  0.4189 -0.4052 -0.2961
  692SOL    HW1 2617   7.454   1.380   1.069 -0.9591 -1.0150 -0.8652
  692SOL    HW2 2618   7.395   1.337   1.201 -1.9903 -0.7060 -1.2187
  693SOL     OW 2619   6.898   1.134   1.591  0.3222  0.6133 -0.2385
  693SOL    HW1 2620   6.951   1.074   1.538 -1.6658 -1.5702  0.0623
  693SOL    HW2 2621   6.887   1.211   1.536  1.5431  0.0340 -1.3662
  694SOL     OW 2622   3.349   5.124   5.097 -0.5314  0.0238 -0.1379
  694SOL    HW1 2623   3.426   5.069   5.111 -1.0108 -0.7608 -0.4682
  694SOL    HW2 2624   3.275   5.064   5.112 -1.0649  0.3310 -1.4388
  695SOL     OW 2625   7.288   5.222   0.745 -0.2114  0.8378  0.2337
  695SOL    HW1 2626   7.381   5.206   0.731 -0.3012 -1.3954  1.7431
  695SOL    HW2 2627   7.282   5.253   0.835 -0.8267  2.4322 -0.3205
  696SOL     OW 2628   4.181   3.026   0.896 -0.4607 -0.2233  0.3476
  696SOL    HW1 2629   4.220   3.097   0.844  1.2848 -0.1354  1.7129
  696SOL    HW2 2630   4.189   2.949   0.841  1.2600 -0.1093  0.3988
  697SOL     OW 2631   5.643   2.667   3.936 -0.3060 -0.3385  0.3265
  697SOL    HW1 2632   5.634   2.644   3.843 -1.0296  0.4386  0.1939
  697SOL    HW2 2633   5.737   2.682   3.947 -0.1771 -0.7060 -0.2183
  698SOL     OW 2634   3.121   4.073   5.890  0.4199 -0.3391 -0.2682
  698SOL    HW1 2635   3.167   3.996   5.922  1.9184 -0.1390 -1.8126
  698SOL    HW2 2636   3.190   4.133   5.862 -0.7150  1.3986  0.4476
  699SOL     OW 2637   1.634   4.250   0.952 -0.2468  0.8621 -0.2172
  699SOL    HW1 2638   1.699   4.321   0.959  1.2463 -0.4457 -0.1917
  699SOL    HW2 2639   1.682   4.171   0.978 -1.2167 -0.5088 -2.2979
  700SOL     OW 2640   3.021   0.015   5.024 -0.8565  0.4676  0.0745
  700SOL    HW1 2641   3.066  -0.026   5.098  0.7855  2.0125  0.0068
  700SOL    HW2 2642   2.957   0.073   5.064 -0.9887  0.2023  0.2484
  701SOL     OW 2643   6.576   6.810   0.617  0.4516 -0.0311 -0.3874
  701SOL    HW1 2644   6.588   6.860   0.536 -0.0421 -0.0939 -0.4981
  701SOL    HW2 2645   6.546   6.875   0.680 -0.6231 -0.2696 -0.6464
  702SOL     OW 2646   4.589   4.945   3.788  0.0556  0.4460 -0.2141
  702SOL    HW1 2647   4.664   5.002   3.774 -0.9058  1.2253 -2.9727
  702SOL    HW2 2648   4.543   4.983   3.863  2.1679  0.1364  1.3017
  703SOL     OW 2649   4.300   4.841   5.235 -0.3388  0.0466  0.4411
  703SOL    HW1 2650   4.313   4.753   5.268 -1.1297 -0.6652 -1.0202
  703SOL    HW2 2651   4.387   4.871   5.210 -0.1523 -0.5931  0.3085
  704SOL     OW 2652   0.784   0.727   1.072  0.4097  0.2217 -0.2549
  704SOL    HW1 2653   0.830   0.669   1.132 -0.1448  1.2384  1.2108
  704SOL    HW2 2654   0.709   0.676   1.041  0.7712 -0.3518 -0.1943
  705SOL     OW 2655   3.331   6.249   6.327 -0.5311 -0.4379  0.2737
  705SOL    HW1 2656   3.374   6.253   6.413  0.9700  1.2388 -0.4921
  705SOL    HW2 2657   3.348   6.161   6.295 -1.0080 -1.0460  1.6314
  706SOL     OW 2658   5.545   0.176   3.512 -0.3974 -0.3831  0.1029
  706SOL    HW1 2659   5.486   0.238   3.554  0.6498  0.8785 -0.2119
  706SOL    HW2 2660   5.587   0.130   3.584 -0.5265 -0.0909  0.3660
  707SOL     OW 2661   7.097   4.208   7.203  0.0590 -0.3476  0.0055
  707SOL    HW1 2662   7.145   4.190   7.122 -0.0145  0.3718 -0.2031
  707SOL    HW2 2663   7.083   4.303   7.202  0.1989 -0.3075  0.9405
  708SOL     OW 2664   6.988   6.611   0.233  0.1529 -0.1502 -0.0843
  708SOL    HW1 2665   6.943   6.611   0.317  0.8673  0.8062  0.3236
  708SOL    HW2 2666   7.000   6.519   0.211  1.2886 -0.4485  1.6091
  709SOL     OW 2667   3.521   4.382   2.897 -0.2177  0.5492  0.1653
  709SOL    HW1 2668   3.443   4.390   2.842 -1.1042 -0.2325  1.2582
  709SOL    HW2 2669   3.525   4.289   2.918  0.9604  0.5990  0.2347
  710SOL     OW 2670   2.007   0.618   3.548 -0.4849 -0.0591 -0.0063
  710SOL    HW1 2671   2.065   0.693   3.562  0.8691 -1.0523  0.0107
  710SOL    HW2 2672   2.033   0.556   3.617 -2.4353 -0.0700  0.7643
  711SOL     OW 2673   2.082   1.432   7.615 -0.0336 -0.2886  0.3831
  711SOL    HW1 2674   2.163   1.386   7.638  0.0350 -0.0844  0.5450
  711SOL    HW2 2675   2.059   1.481   7.694 -0.9861 -1.3256  0.7817
  712SOL     OW 2676   3.270   2.628   0.219  0.1442 -0.1031  0.8850
  712SOL    HW1 2677   3.188   2.656   0.261  0.7895  0.6884  1.6622
  712SOL    HW2 2678   3.333   2.696   0.241  0.9322 -0.5095 -0.0215
  713SOL     OW 2679   6.739   4.271   3.167  0.2278 -0.1917  0.7079
  713SOL    HW1 2680   6.701   4.230   3.089 -1.2565 -0.0650  1.3358
  713SOL    HW2 2681   6.664   4.293   3.222  1.1803  0.7217  1.6965
  714SOL     OW 2682   2.370   5.432   0.382  0.0588  0.1786 -0.2464
  714SOL    HW1 2683   2.289   5.391   0.349  0.3859 -0.0663 -0.7550
  714SOL    HW2 2684   2.418   5.360   0.422 -0.7596  0.6422  1.6461
  715SOL     OW 2685   5.572   2.599   6.089  0.6171 -0.5528  0.2175
  715SOL    HW1 2686   5.635   2.663   6.122  1.1443 -0.1456 -1.4786
  715SOL    HW2 2687   5.625   2.524   6.063  0.1476 -1.1236  0.8912
  716SOL     OW 2688   4.735   2.733   2.485 -0.3007 -0.6549  0.1333
  716SOL    HW1 2689   4.658   2.728   2.428  1.0325 -0.3810 -1.7961
  716SOL    HW2 2690   4.701   2.720   2.573 -2.4453 -1.3189 -0.7348
  717SOL     OW 2691   6.818   4.501   3.779  0.1537  0.3629 -0.2163
  717SOL    HW1 2692   6.844   4.536   3.694  1.4804 -0.0859 -0.0145
  717SOL    HW2 2693   6.857   4.561   3.842 -0.0584  0.1823  0.0899
  718SOL     OW 2694   6.518   5.612   4.981 -0.7029  0.1780 -0.0239
  718SOL    HW1 2695   6.515   5.699   5.022 -0.3807  0.2758 -0.2055
  718SOL    HW2 2696   6.427   5.582   4.982 -1.1737  1.3912 -1.8679
  719SOL     OW 2697   6.512   7.035   0.083 -0.0034 -0.2423  0.1589
  719SOL    HW1 2698   6.449   7.102   0.056 -2.0023 -2.0916 -0.0064
  719SOL    HW2 2699   6.595   7.082   0.091 -1.5530  2.5221  1.3801
  720SOL     OW 2700   0.840   0.261   6.627  0.3747 -0.5761 -0.2763
  720SOL    HW1 2701   0.794   0.343   6.645 -1.1246 -1.2331 -0.9204
  720SOL    HW2 2702   0.771   0.195   6.620  1.3398 -1.5086 -1.9408
  721SOL     OW 2703   5.720   5.914   6.801 -0.6518 -0.6830 -0.1309
  721SOL    HW1 2704   5.691   6.004   6.814  1.9519  0.1181  0.6943
  721SOL    HW2 2705   5.655   5.876   6.741 -0.8149  2.2634 -1.9876
  722SOL     OW 2706   5.884   6.132   5.003  0.1855  0.5550  0.4629
  722SOL    HW1 2707   5.824   6.203   4.981  0.2794  0.1729 -1.1498
  722SOL    HW2 2708   5.970   6.163   4.975  0.5194  0.5097  1.3989
  723SOL     OW 2709   0.086   0.008   4.321 -0.0674 -0.0243 -0.2080
  723SOL    HW1 2710   0.030   0.081   4.345 -0.2783  0.0263 -0.8407
  723SOL    HW2 2711   0.027  -0.067   4.317  0.3343 -0.4783  1.5721
  724SOL     OW 2712   5.396   7.312   6.066  0.2589 -0.1614  0.3768
  724SOL    HW1 2713   5.424   7.223   6.085  1.6789  0.1120 -0.3010
  724SOL    HW2 2714   5.475   7.356   6.036 -0.5957  1.0992 -0.1056
  725SOL     OW 2715   3.552   0.338   5.702  0.6266  0.5081 -0.2071
  725SOL    HW1 2716   3.480   0.392   5.670 -0.8482 -0.7842  0.7757
  725SOL    HW2 2717   3.628   0.396   5.700 -0.9230  2.7461  1.1121
  726SOL     OW 2718   0.959   3.450   1.435 -0.0447  0.0999 -0.5560
  726SOL    HW1 2719   0.948   3.528   1.490 -1.8490 -0.8112  0.4532
  726SOL    HW2 2720   0.965   3.485   1.346 -1.2580  1.4017 -0.1692
  727SOL     OW 2721   6.666   6.948   5.214 -0.1455  0.5004  0.0148
  727SOL    HW1 2722   6.584   6.988   5.184 -0.0948  0.0022 -0.8006
  727SOL    HW2 2723   6.659   6.949   5.310 -0.5245  1.6481 -0.0123
  728SOL     OW 2724   7.333   0.027   1.349 -0.1049  0.5659  0.5118
  728SOL    HW1 2725   7.355   0.049   1.259 -1.2983 -1.6029 -0.3767
  728SOL    HW2 2726   7.400  -0.037   1.376 -2.4249 -2.6102 -0.6643
  729SOL     OW 2727   0.107   3.675   0.841 -0.2106 -0.4957 -0.1837
  729SOL    HW1 2728   0.181   3.623   0.810  1.1294  1.3470 -0.2506
  729SOL    HW2 2729   0.055   3.692   0.762 -0.0411 -0.7914 -0.3608
  730SOL     OW 2730   6.917   3.849   2.419 -0.0209  0.7554  0.0186
  730SOL    HW1 2731   6.894   3.864   2.511 -1.6915  2.2231 -0.5543
  730SOL    HW2 2732   6.979   3.776   2.420  1.1668  1.7000  2.4115
  731SOL     OW 2733   2.028   0.915   6.911 -0.0181 -0.0128  0.2416
  731SOL    HW1 2734   1.950   0.913   6.967 -1.9429  0.1101 -2.2627
  731SOL    HW2 2735   2.065   0.827   6.918 -0.4547 -0.1239  1.3690
  732SOL     OW 2736   1.633   6.982   3.822  0.4691  0.5323  0.4161
  732SOL    HW1 2737   1.694   7.055   3.817  1.3537  0.0378  2.8307
  732SOL    HW2 2738   1.645   6.945   3.910 -1.3222 -1.3273 -0.0190
  733SOL     OW 2739   1.435   0.407   2.389  0.0763  0.1726 -0.4035
  733SOL    HW1 2740   1.523   0.396   2.353  1.2074  1.5401  1.7625
  733SOL    HW2 2741   1.447   0.404   2.484 -2.5719 -1.9999 -0.0038
  734SOL     OW 2742   6.426   2.434   6.358  0.1603  0.5285  0.0118
  734SOL    HW1 2743   6.432   2.492   6.282 -0.7668  1.0239  0.2992
  734SOL    HW2 2744   6.377   2.358   6.325  1.3753 -0.1204 -0.3646
  735SOL     OW 2745   7.233   7.281   2.706  0.3531 -0.3432  0.0272
  735SOL    HW1 2746   7.179   7.208   2.674  0.4252 -0.4381  0.1253
  735SOL    HW2 2747   7.171   7.337   2.753 -0.0926  0.6175 -1.5969
  736SOL     OW 2748   2.878   1.396   2.975 -0.3164  0.2837 -0.0890
  736SOL    HW1 2749   2.871   1.343   3.054  1.0332 -0.6356 -0.5476
  736SOL    HW2 2750   2.787   1.411   2.949 -0.7688  0.1939  1.3536
  737SOL     OW 2751   1.021   1.047   4.295  0.0674 -0.0636  0.0022
  737SOL    HW1 2752   1.097   0.993   4.319 -0.3065 -0.0066  1.3965
  737SOL    HW2 2753   0.951   0.984   4.280 -0.2702 -0.0100  1.2606
  738SOL     OW 2754   4.692   5.506   2.805  0.4003  0.0288  0.3427
  738SOL    HW1 2755   4.690   5.460   2.721  1.4836 -1.5551  1.1444
  738SOL    HW2 2756   4.729   5.443   2.866  1.5606  1.8328  1.5902
  739SOL     OW 2757   5.996   5.379   3.920  0.7341 -0.5048 -0.0286
  739SOL    HW1 2758   5.961   5.291   3.904 -0.8463 -0.6419  3.3165
  739SOL    HW2 2759   6.036   5.373   4.006  0.3593  2.1277  0.4001
  740SOL     OW 2760   5.724   6.598   0.654  0.1220 -0.2222  0.3692
  740SOL    HW1 2761   5.646   6.556   0.617 -0.4869  0.5628  0.7257
  740SOL    HW2 2762   5.776   6.624   0.577 -0.5491  0.3093  0.0833
  741SOL     OW 2763   4.373   6.785   4.690 -0.3367 -0.1992 -0.4713
  741SOL    HW1 2764   4.341   6.875   4.691  0.5541  0.1368  1.1684
  741SOL    HW2 2765   4.366   6.758   4.598 -1.3513  1.2510 -0.8625
  742SOL     OW 2766   1.244   5.717   7.290 -0.3184 -0.1184 -0.6989
  742SOL    HW1 2767   1.181   5.728   7.361 -0.3456  0.4471 -0.8065
  742SOL    HW2 2768   1.192   5.683   7.217 -0.3011 -0.6444 -0.4732
  743SOL     OW 2769   4.522   0.541   3.920 -0.4339  0.0427 -0.1828
  743SOL    HW1 2770   4.462   0.467   3.933  0.3094 -0.5603 -0.1140
  743SOL    HW2 2771   4.586   0.532   3.990 -0.8846  1.3274  0.4146
  744SOL     OW 2772   4.049   1.365   6.142 -0.5534  0.0867  0.0009
  744SOL    HW1 2773   4.095   1.409   6.071 -1.9104  2.7187  0.6279
  744SOL    HW2 2774   4.115   1.353   6.210 -0.0739  0.9430 -0.2957
  745SOL     OW 2775   2.442   6.736   2.304  0.1359  0.1417 -0.3867
  745SOL    HW1 2776   2.438   6.780   2.389 -0.2820  0.0815 -0.3740
  745SOL    HW2 2777   2.404   6.798   2.242  0.5962  0.2537 -0.5611
  746SOL     OW 2778   0.937   7.304   6.885 -0.9053  0.7307 -0.2033
  746SOL    HW1 2779   1.027   7.276   6.904  0.3107  3.6626 -1.1222
  746SOL    HW2 2780   0.937   7.322   6.792 -1.9852  2.2529  0.0601
  747SOL     OW 2781   0.695   1.583   5.432  0.1621  0.6868 -0.1094
  747SOL    HW1 2782   0.692   1.679   5.432 -1.6248  0.6766  1.1954
  747SOL    HW2 2783   0.614   1.556   5.388 -1.2649 -0.1427  2.7587
  748SOL     OW 2784   7.092   5.400   2.661  0.4593 -0.5578 -0.2647
  748SOL    HW1 2785   7.111   5.336   2.730  1.1883 -0.0338  0.0329
  748SOL    HW2 2786   7.177   5.421   2.623  0.3197  0.7049  0.0697
  749SOL     OW 2787   4.350   6.981   3.748  0.4304  0.1986  0.0998
  749SOL    HW1 2788   4.368   6.930   3.669  1.1541  1.2963 -0.4756
  749SOL    HW2 2789   4.320   7.065   3.716 -1.2171  0.0069  1.0397
  750SOL     OW 2790   6.668   0.805   7.469 -0.7142 -0.1651  0.9381
  750SOL    HW1 2791   6.762   0.809   7.485 -0.2269 -1.1413 -1.2259
  750SOL    HW2 2792   6.655   0.861   7.392 -1.5382 -1.6433 -0.0437
  751SOL     OW 2793   5.088   4.866   3.282  0.5822  0.6095 -0.8885
  751SOL    HW1 2794   5.015   4.927   3.274  0.2337  0.4384  0.6641
  751SOL    HW2 2795   5.104   4.836   3.192 -2.9376 -1.3108 -1.0540
  752SOL     OW 2796   6.484   5.569   0.804 -0.8503 -0.8648  0.3375
  752SOL    HW1 2797   6.480   5.626   0.881  0.5277 -2.0801  1.3386
  752SOL    HW2 2798   6.416   5.604   0.746  0.8248  2.7176  0.2567
  753SOL     OW 2799   1.645   1.788   0.969 -0.0063 -0.8719 -0.3379
  753SOL    HW1 2800   1.567   1.807   0.917  1.2394 -0.7445 -2.2303
  753SOL    HW2 2801   1.662   1.696   0.954 -0.3585 -1.1713  0.9329
  754SOL     OW 2802   3.996   3.513   1.134 -0.0362  0.0413 -1.1416
  754SOL    HW1 2803   3.904   3.531   1.116 -0.0181 -0.5883 -1.8938
  754SOL    HW2 2804   3.997   3.474   1.221 -0.7943 -2.4374 -2.1742
  755SOL     OW 2805   0.314   0.951   3.766 -0.2432 -0.5465  0.1907
  755SOL    HW1 2806   0.250   0.880   3.772 -1.5264  0.6620  1.7859
  755SOL    HW2 2807   0.399   0.909   3.777 -0.9254 -1.9080  0.4258
  756SOL     OW 2808   2.446   1.532   6.711  0.2316  0.5474 -0.0969
  756SOL    HW1 2809   2.405   1.449   6.736  0.5830  0.3121 -0.2881
  756SOL    HW2 2810   2.411   1.596   6.773  1.7143 -0.1606  1.5856
  757SOL     OW 2811   6.744   6.917   2.783 -0.2904 -0.1458  0.4244
  757SOL    HW1 2812   6.675   6.970   2.742 -0.6274 -1.2423 -0.5032
  757SOL    HW2 2813   6.745   6.836   2.731  1.1376 -0.4848  0.9467
  758SOL     OW 2814   1.201   0.341   1.626 -0.1201 -0.0801 -0.2453
  758SOL    HW1 2815   1.155   0.285   1.688 -0.4153  1.2919  0.8109
  758SOL    HW2 2816   1.282   0.366   1.672  0.6305 -0.6479 -1.2103
  759SOL     OW 2817   2.864   6.834   5.281  0.1928 -0.1220 -0.0112
  759SOL    HW1 2818   2.782   6.785   5.288  0.9614 -1.5893 -0.7324
  759SOL    HW2 2819   2.907   6.798   5.204  2.0509 -0.2278  1.0075
  760SOL     OW 2820   4.804   1.934   1.852  0.1801  0.7809  0.4249
  760SOL    HW1 2821   4.870   1.995   1.818 -1.1254  1.0647 -1.8270
  760SOL    HW2 2822   4.769   1.891   1.774 -0.6877 -1.0654  1.7572
  761SOL     OW 2823   1.638   2.509   4.667  0.1656 -0.3145  0.4396
  761SOL    HW1 2824   1.649   2.426   4.619  0.6694  0.6855 -1.2573
  761SOL    HW2 2825   1.546   2.509   4.693  0.3699 -1.8076  1.2712
  762SOL     OW 2826   0.464   1.854   4.905  0.3826  0.7307  0.3508
  762SOL    HW1 2827   0.550   1.816   4.885 -0.3293 -1.2264  0.7684
  762SOL    HW2 2828   0.467   1.874   4.998 -0.3015 -1.4540  0.9059
  763SOL     OW 2829   4.564   1.552   2.678 -0.4855  0.7986 -0.1188
  763SOL    HW1 2830   4.579   1.466   2.717 -1.0565  0.5480 -0.4427
  763SOL    HW2 2831   4.470   1.565   2.683 -0.5617  0.8150 -1.2931
  764SOL     OW 2832   6.886   0.787   4.684 -0.0622  0.1938  0.2312
  764SOL    HW1 2833   6.814   0.792   4.747 -1.0192  0.4532 -0.8386
  764SOL    HW2 2834   6.965   0.787   4.737 -0.7976  1.4588  1.3787
  765SOL     OW 2835   1.894   1.744   3.290  0.6060 -0.1243 -0.2033
  765SOL    HW1 2836   1.928   1.754   3.201  0.9584  0.5237 -0.0007
  765SOL    HW2 2837   1.861   1.831   3.313  0.2544 -0.3592  0.1968
  766SOL     OW 2838   0.167   2.841   4.635  0.0299 -0.2843 -0.5227
  766SOL    HW1 2839   0.200   2.931   4.647  1.8918 -0.9876  0.0222
  766SOL    HW2 2840   0.133   2.817   4.721  0.0522 -0.2979 -0.5176
  767SOL     OW 2841   0.597   6.016   6.252  0.2977  0.3943  0.3400
  767SOL    HW1 2842   0.531   6.023   6.184 -0.7582 -0.3344  1.2589
  767SOL    HW2 2843   0.606   5.922   6.267 -0.6134  0.5757  2.2610
  768SOL     OW 2844   0.512   5.823   7.394  0.0381  0.6326 -0.1371
  768SOL    HW1 2845   0.446   5.874   7.348 -1.3904  1.2396  2.4138
  768SOL    HW2 2846   0.538   5.755   7.331  0.9377  3.4723 -3.1209
  769SOL     OW 2847   3.726   3.759   0.367 -0.2258 -0.7417 -0.6971
  769SOL    HW1 2848   3.669   3.826   0.405  0.8790  0.4155 -0.9991
  769SOL    HW2 2849   3.694   3.676   0.403  1.1145  0.2591  3.3257
  770SOL     OW 2850   4.108   5.191   5.453  0.2501  0.3219 -0.1953
  770SOL    HW1 2851   4.108   5.098   5.474 -1.0941  0.3567  0.0821
  770SOL    HW2 2852   4.030   5.203   5.400  1.0858  1.0853 -1.2865
  771SOL     OW 2853   7.089   5.789   6.056  0.6924  0.4049 -0.5725
  771SOL    HW1 2854   7.096   5.852   6.128  1.5906  0.6029 -0.8276
  771SOL    HW2 2855   7.176   5.787   6.016  0.9098 -1.5178 -0.1269
  772SOL     OW 2856   2.818   6.502   3.408  0.2455 -0.5727 -0.3227
  772SOL    HW1 2857   2.731   6.464   3.421  0.4292 -1.1392 -0.6875
  772SOL    HW2 2858   2.803   6.596   3.405 -0.1588 -0.5722  1.0552
  773SOL     OW 2859   0.253   0.877   0.184  0.3204  0.2528  0.4153
  773SOL    HW1 2860   0.202   0.941   0.135  2.3993  1.1941 -0.6635
  773SOL    HW2 2861   0.264   0.804   0.123 -0.3112 -0.2545  0.9005
  774SOL     OW 2862   6.675   5.857   1.026 -0.0294  0.4921  0.1768
  774SOL    HW1 2863   6.714   5.885   1.110 -0.5209  0.2216  0.4960
  774SOL    HW2 2864   6.622   5.781   1.048  1.3700 -0.7855 -0.7073
  775SOL     OW 2865   5.047   4.885   5.205  0.3946  0.5485 -0.2079
  775SOL    HW1 2866   4.972   4.877   5.146  0.7635  0.3412 -0.6527
  775SOL    HW2 2867   5.034   4.817   5.270 -0.2290  1.0426  0.1962
  776SOL     OW 2868   3.041   0.852   7.543 -0.2057  0.8642 -0.5589
  776SOL    HW1 2869   3.043   0.855   7.447 -0.1491  0.0861 -0.5964
  776SOL    HW2 2870   2.991   0.928   7.569 -0.7063  0.7761 -1.2344
  777SOL     OW 2871   4.408   3.691   5.335  0.0239 -0.3804  0.2332
  777SOL    HW1 2872   4.408   3.613   5.390 -0.9360  0.7856  2.0125
  777SOL    HW2 2873   4.325   3.687   5.288 -0.2516 -0.2020  0.6971
  778SOL     OW 2874   7.579   2.440   6.310 -0.2947  0.4346 -0.2052
  778SOL    HW1 2875   7.523   2.366   6.328  0.4499  0.2581  1.6028
  778SOL    HW2 2876   7.538   2.514   6.355  0.5439  0.4376  0.5952
  779SOL     OW 2877   5.166   0.929   5.239 -0.2620  0.5418  0.3678
  779SOL    HW1 2878   5.159   0.852   5.183  1.9145  0.9750 -0.6315
  779SOL    HW2 2879   5.156   1.003   5.179  1.7872  1.0095  0.5122
  780SOL     OW 2880   7.235   7.371   5.952 -0.1618 -0.2490  0.0865
  780SOL    HW1 2881   7.314   7.417   5.981  0.6497 -2.1402  1.0499
  780SOL    HW2 2882   7.226   7.298   6.014 -4.1574  1.3043  1.6168
  781SOL     OW 2883   6.349   0.353   2.127 -0.1793  0.1366 -0.0811
  781SOL    HW1 2884   6.435   0.368   2.167 -0.5869 -1.5631  1.5723
  781SOL    HW2 2885   6.305   0.438   2.135  0.8610  0.6632  0.2980
  782SOL     OW 2886   4.640   5.373   0.275 -0.3662 -0.0952  0.1566
  782SOL    HW1 2887   4.613   5.292   0.319 -0.6140  0.3983  0.9234
  782SOL    HW2 2888   4.735   5.374   0.284 -0.3955 -0.1138  0.4776
  783SOL     OW 2889   0.073   2.682   2.956  0.1758  0.4892 -0.7868
  783SOL    HW1 2890   0.044   2.772   2.940 -0.8797  0.3921  0.4264
  783SOL    HW2 2891   0.007   2.646   3.014  1.2940 -0.6605 -0.1868
  784SOL     OW 2892   1.950   0.930   4.097 -0.4978 -0.0047 -0.4790
  784SOL    HW1 2893   1.893   1.001   4.126  1.3947  1.5153 -0.2878
  784SOL    HW2 2894   1.932   0.921   4.003 -0.7611  0.7221 -0.5006
  785SOL     OW 2895   3.992   5.808   4.537  0.1854  0.3688 -0.0637
  785SOL    HW1 2896   4.081   5.778   4.559  1.4727  2.6269 -1.8220
  785SOL    HW2 2897   3.997   5.833   4.445 -1.5061  3.0879  0.4728
  786SOL     OW 2898   3.827   2.355   4.837  0.2347  0.5894  0.0926
  786SOL    HW1 2899   3.872   2.440   4.833  3.2613 -0.9103 -0.2454
  786SOL    HW2 2900   3.869   2.302   4.769 -0.4085 -1.7049  1.3787
  787SOL     OW 2901   5.029   4.901   7.185 -0.2299  0.3202 -0.2569
  787SOL    HW1 2902   4.985   4.818   7.199 -0.8586  0.7316  0.2549
  787SOL    HW2 2903   5.122   4.878   7.181 -0.4651 -0.5270 -1.1644
  788SOL     OW 2904   0.837   1.893   0.550  0.1459 -0.5003 -0.0039
  788SOL    HW1 2905   0.859   1.872   0.460  0.8582 -0.4652  0.1598
  788SOL    HW2 2906   0.745   1.921   0.546  0.0571 -0.8629 -0.6525
  789SOL     OW 2907   7.539   2.915   6.545 -0.0727  1.0757  0.5231
  789SOL    HW1 2908   7.589   2.859   6.605 -0.1954 -0.9366 -1.1505
  789SOL    HW2 2909   7.605   2.971   6.504  0.3272  0.8535  0.8604
  790SOL     OW 2910   7.463   1.589   0.608  0.1855 -0.6637  0.2100
  790SOL    HW1 2911   7.418   1.528   0.550 -3.1032  1.2940  0.5027
  790SOL    HW2 2912   7.511   1.647   0.549 -1.0173 -0.2925 -0.4338
  791SOL     OW 2913   4.581   1.833   5.557  0.3923 -0.1621  0.0293
  791SOL    HW1 2914   4.491   1.864   5.547 -0.0231 -1.2928  0.1725
  791SOL    HW2 2915   4.604   1.797   5.471 -0.6236 -3.2256  0.9128
  792SOL     OW 2916   5.585   2.244   2.153 -0.7104  0.1449  0.3847
  792SOL    HW1 2917   5.510   2.286   2.193 -1.1985 -2.0361  1.9463
  792SOL    HW2 2918   5.565   2.150   2.155  1.6649 -0.4544  0.0852
  793SOL     OW 2919   0.183   2.686   2.424  0.9711 -0.3156  0.2854
  793SOL    HW1 2920   0.274   2.668   2.399  0.9676  1.2268 -0.9958
  793SOL    HW2 2921   0.132   2.661   2.347  0.1200 -2.2525  1.3935
  794SOL     OW 2922   7.092   0.208   7.361  0.3175 -0.2246  0.4447
  794SOL    HW1 2923   7.126   0.123   7.336  0.5149 -0.4671  1.4937
  794SOL    HW2 2924   7.046   0.240   7.283 -0.2933 -1.5570  0.2379
  795SOL     OW 2925   6.170   4.773   0.169 -0.2455  0.3269 -0.4367
  795SOL    HW1 2926   6.095   4.755   0.112 -1.2843 -0.6780  1.1887
  795SOL    HW2 2927   6.173   4.700   0.230  1.0260  1.2046  0.6158
  796SOL     OW 2928   5.075   6.687   1.790 -0.4354  0.1953  0.1296
  796SOL    HW1 2929   5.158   6.642   1.806  0.2331  1.5368  0.5917
  796SOL    HW2 2930   5.077   6.762   1.849 -1.9480  0.3031  0.0689
  797SOL     OW 2931   1.402   2.204   0.284 -0.0926 -0.2435 -0.4116
  797SOL    HW1 2932   1.373   2.135   0.225 -1.1415 -1.1714  1.0970
  797SOL    HW2 2933   1.449   2.159   0.354 -0.7718  0.5408  0.5964
  798SOL     OW 2934   0.083   3.167   7.013  0.1871 -0.1526  0.0956
  798SOL    HW1 2935   0.166   3.208   7.037 -0.3797  1.8065 -1.0271
  798SOL    HW2 2936   0.096   3.074   7.030  2.4765  0.1413  0.2667
  799SOL     OW 2937   1.119   0.058   3.543 -0.3506 -0.2320 -0.0581
  799SOL    HW1 2938   1.084   0.073   3.631  1.0313 -3.0391  1.1156
  799SOL    HW2 2939   1.050   0.013   3.496 -0.0738 -1.3952  0.6212
  800SOL     OW 2940   3.869   6.714   2.063  0.1068  0.3969 -0.3636
  800SOL    HW1 2941   3.883   6.626   2.028  0.9185 -0.0477  0.9952
  800SOL    HW2 2942   3.792   6.747   2.016 -0.0003 -0.8937 -1.1427
  801SOL     OW 2943   4.466   4.049   7.279  0.5923  0.2904  0.3479
  801SOL    HW1 2944   4.457   4.145   7.275 -0.2862  0.2568  1.1597
  801SOL    HW2 2945   4.532   4.034   7.347  0.6080  0.3252  0.3402
  802SOL     OW 2946   1.447   1.849   5.948 -0.1834  0.1858 -0.7638
  802SOL    HW1 2947   1.380   1.885   5.889 -1.4740  0.5040  0.8358
  802SOL    HW2 2948   1.493   1.926   5.981  0.7595 -0.0125 -1.5556
  803SOL     OW 2949   3.729   4.572   1.132  0.5395 -0.7597  0.4185
  803SOL    HW1 2950   3.772   4.652   1.105  1.9813 -2.0337 -1.3107
  803SOL    HW2 2951   3.791   4.530   1.191  1.5114 -2.2820 -1.5555
  804SOL     OW 2952   5.733   6.221   6.689  0.1938 -0.6167 -0.0264
  804SOL    HW1 2953   5.785   6.261   6.758 -1.8763  1.5597  0.3878
  804SOL    HW2 2954   5.797   6.192   6.624  2.2834 -3.2218  2.9071
  805SOL     OW 2955   7.511   2.255   1.792 -0.1395 -0.1395 -0.9137
  805SOL    HW1 2956   7.458   2.180   1.821 -0.2401  0.6115  1.0365
  805SOL    HW2 2957   7.593   2.217   1.762 -0.8610 -1.1485 -1.6712
  806SOL     OW 2958   4.127   3.235   0.654  0.0985 -0.0750  0.2871
  806SOL    HW1 2959   4.060   3.303   0.647 -0.8755 -1.1061 -0.6932
  806SOL    HW2 2960   4.187   3.255   0.582  0.6799  0.6361  0.9473
  807SOL     OW 2961   1.447   7.286   4.890 -0.0934  0.8857  0.7166
  807SOL    HW1 2962   1.488   7.360   4.845  0.7134  0.7907  1.2687
  807SOL    HW2 2963   1.473   7.297   4.982 -0.7443  0.4343  0.9613
  808SOL     OW 2964   2.965   6.882   7.338 -0.0918  0.2020 -0.4035
  808SOL    HW1 2965   3.025   6.931   7.394 -0.7167 -0.5508  0.9721
  808SOL    HW2 2966   2.900   6.846   7.399 -0.7607 -0.6890 -1.6112
  809SOL     OW 2967   5.148   2.555   6.594 -0.0548 -0.4311  0.3036
  809SOL    HW1 2968   5.123   2.478   6.644 -1.8685  0.5579  1.0039
  809SOL    HW2 2969   5.234   2.533   6.557 -0.0615 -2.3551  1.3268
  810SOL     OW 2970   2.450   3.422   1.311 -0.0212  0.2959 -0.3087
  810SOL    HW1 2971   2.489   3.478   1.243  1.9364 -2.1911 -1.4119
  810SOL    HW2 2972   2.454   3.475   1.390  1.5584  1.8200 -1.3175
  811SOL     OW 2973   6.847   2.416   7.076  0.0861 -0.0150 -0.2230
  811SOL    HW1 2974   6.840   2.321   7.079  0.1721 -0.0764 -1.5093
  811SOL    HW2 2975   6.757   2.447   7.066  0.0501  0.0538  0.2705
  812SOL     OW 2976   2.984   5.835   2.182  0.2328  0.2062  0.4087
  812SOL    HW1 2977   3.070   5.874   2.167  0.3518 -0.1072  0.2568
  812SOL    HW2 2978   2.930   5.907   2.215  0.9925  0.0329  2.1492
  813SOL     OW 2979   7.052   7.146   1.920  0.1963  0.4893  0.3698
  813SOL    HW1 2980   7.105   7.212   1.875 -1.1386  1.7733  0.5971
  813SOL    HW2 2981   7.113   7.104   1.981  1.3615  0.6513 -0.6630
  814SOL     OW 2982   4.267   6.885   6.013  0.4025 -0.0057  0.0911
  814SOL    HW1 2983   4.189   6.832   6.032  0.8570 -0.6423  0.2163
  814SOL    HW2 2984   4.240   6.943   5.942 -0.1194 -0.3824 -0.0237
  815SOL     OW 2985   2.772   2.153   1.311  0.3202  0.2699 -0.9102
  815SOL    HW1 2986   2.704   2.217   1.333  0.1158 -0.4387  0.6748
  815SOL    HW2 2987   2.737   2.070   1.343  2.6950  0.1585  1.7557
  816SOL     OW 2988   6.311   1.011   6.844  0.0633 -0.2295 -0.0664
  816SOL    HW1 2989   6.259   0.947   6.892 -1.4020  1.7645  1.2213
  816SOL    HW2 2990   6.400   0.977   6.846 -0.1135 -0.8462  3.2096
  817SOL     OW 2991   5.175   5.509   1.276  0.3992  0.0883  0.1811
  817SOL    HW1 2992   5.141   5.425   1.245  0.1561 -0.0521  0.7971
  817SOL    HW2 2993   5.187   5.562   1.197  0.8106 -0.6166 -0.2375
  818SOL     OW 2994   4.717   2.421   4.520 -0.3934 -0.0929  0.1502
  818SOL    HW1 2995   4.711   2.409   4.425 -0.6663  0.0823  0.1449
  818SOL    HW2 2996   4.807   2.452   4.534 -0.9953  2.0202 -0.2965
  819SOL     OW 2997   7.202   5.487   4.917  0.0965  0.2582  0.7428
  819SOL    HW1 2998   7.265   5.449   4.856 -0.6734  0.0899  0.0286
  819SOL    HW2 2999   7.201   5.426   4.991 -0.0216 -0.3292  0.2710
  820SOL     OW 3000   5.108   5.551   4.134  0.1162  0.3210  0.4838
  820SOL    HW1 3001   5.188   5.596   4.161  0.2034 -0.5899  1.8464
  820SOL    HW2 3002   5.139   5.471   4.092 -0.0655  0.7266 -0.4429
  821SOL     OW 3003   0.842   4.352   0.885 -0.5586  0.4427 -0.2408
  821SOL    HW1 3004   0.901   4.327   0.957  0.7057  0.7095 -1.1643
  821SOL    HW2 3005   0.754   4.337   0.921  0.0461  0.2913  1.2594
  822SOL     OW 3006   2.485   4.664   3.174  0.5920 -0.1767  0.1624
  822SOL    HW1 3007   2.500   4.748   3.132  1.3838 -0.3007  0.1798
  822SOL    HW2 3008   2.397   4.638   3.146 -0.8704  1.9321  2.3521
  823SOL     OW 3009   5.596   1.386   0.554  0.0165 -0.3195  0.4970
  823SOL    HW1 3010   5.618   1.294   0.565 -0.5620 -0.3887  1.1948
  823SOL    HW2 3011   5.679   1.433   0.562  0.4941 -0.8496 -1.0393
  824SOL     OW 3012   2.342   6.560   1.022  0.2100  0.0283 -0.5244
  824SOL    HW1 3013   2.306   6.471   1.016 -1.2425  0.2718  2.6623
  824SOL    HW2 3014   2.436   6.546   1.036  0.2403 -0.9038 -1.4751
  825SOL     OW 3015   3.377   7.278   5.339  0.4304 -0.0099 -0.3753
  825SOL    HW1 3016   3.316   7.243   5.405  1.5021 -0.9295  0.1623
  825SOL    HW2 3017   3.334   7.357   5.306 -0.8942 -0.4541  0.2251
  826SOL     OW 3018   2.942   3.494   4.271 -0.5697  0.9373  0.3926
  826SOL    HW1 3019   2.966   3.587   4.269 -1.7796  1.2681  0.3622
  826SOL    HW2 3020   2.854   3.491   4.234 -0.8131 -0.1375  1.0028
  827SOL     OW 3021   4.499   4.488   0.363  0.2300 -0.2169 -0.2927
  827SOL    HW1 3022   4.586   4.474   0.401  0.8774 -0.4753 -1.7986
  827SOL    HW2 3023   4.516   4.523   0.275 -1.1720 -0.7170 -0.7945
  828SOL     OW 3024   6.812   3.800   5.503 -0.4984 -0.9480  0.3132
  828SOL    HW1 3025   6.885   3.842   5.457 -0.3235 -1.4342  0.1461
  828SOL    HW2 3026   6.847   3.717   5.535 -0.9339 -1.1173  0.3621
  829SOL     OW 3027   6.993   4.787   1.521  0.0028  0.5616 -0.7336
  829SOL    HW1 3028   6.956   4.792   1.433  1.7592  3.5156 -1.4517
  829SOL    HW2 3029   7.086   4.767   1.507  0.1577  0.2856  0.5210
  830SOL     OW 3030   1.842   0.994   6.172  0.6368  0.0066 -0.2279
  830SOL    HW1 3031   1.776   0.991   6.242  2.1670 -0.0649  1.2542
  830SOL    HW2 3032   1.861   0.902   6.154 -1.1681 -0.0618 -2.1995
  831SOL     OW 3033   1.330   0.782   2.450  0.1219 -0.0079  0.1148
  831SOL    HW1 3034   1.390   0.729   2.503 -0.4227 -0.5157  0.2313
  831SOL    HW2 3035   1.347   0.753   2.360 -0.0639 -0.2756  0.1635
  832SOL     OW 3036   0.468   5.274   4.710  0.0673 -0.7909  0.2674
  832SOL    HW1 3037   0.386   5.226   4.697  0.3412 -0.9568 -0.9760
  832SOL    HW2 3038   0.531   5.230   4.653  0.8023 -0.1132  0.5300
  833SOL     OW 3039   0.623   7.274   2.239  0.2951  0.2009 -0.3800
  833SOL    HW1 3040   0.616   7.331   2.162  2.1819 -0.9421 -1.4978
  833SOL    HW2 3041   0.555   7.208   2.225 -0.6774  1.1031 -0.0246
  834SOL     OW 3042   6.517   3.373   0.245 -0.5460  0.0162  0.2295
  834SOL    HW1 3043   6.594   3.322   0.271 -0.4829  0.1264  0.2613
  834SOL    HW2 3044   6.468   3.315   0.187  0.2469  0.4339 -0.8781
  835SOL     OW 3045   2.923   6.553   4.546  0.4827  0.0918 -0.5428
  835SOL    HW1 3046   2.918   6.564   4.451 -0.7436 -0.9833 -0.6386
  835SOL    HW2 3047   2.833   6.568   4.576  0.5805 -0.8715  0.2771
  836SOL     OW 3048   1.934   3.400   5.820 -0.5575  0.0633 -0.7720
  836SOL    HW1 3049   1.925   3.453   5.899 -0.3700 -1.4966  0.3358
  836SOL    HW2 3050   2.002   3.445   5.769  1.0483 -0.1354  1.0554
  837SOL     OW 3051   5.283   2.802   2.982 -0.2941 -0.3034  0.1295
  837SOL    HW1 3052   5.252   2.835   2.898 -0.1507  1.1777  0.6321
  837SOL    HW2 3053   5.225   2.728   3.001 -0.9783 -0.0266 -0.7844
  838SOL     OW 3054   2.898   5.250   1.058 -0.2565 -0.5830 -0.3264
  838SOL    HW1 3055   2.823   5.273   1.114  0.7909  1.1107  0.4621
  838SOL    HW2 3056   2.963   5.317   1.076  1.8384 -2.4844 -0.3174
  839SOL     OW 3057   5.082   6.466   6.344  0.6831  0.0842 -0.2057
  839SOL    HW1 3058   5.054   6.407   6.275 -0.4507  0.6150 -0.2263
  839SOL    HW2 3059   5.107   6.546   6.298  1.2960 -0.0494 -0.1070
  840SOL     OW 3060   5.266   1.384   5.078 -0.1261 -0.1948  0.1249
  840SOL    HW1 3061   5.194   1.321   5.073 -0.0648 -0.2023 -0.9765
  840SOL    HW2 3062   5.256   1.438   4.999  0.3609  0.5904  0.5873
  841SOL     OW 3063   5.508   1.604   6.791 -0.1088  0.1606 -0.1816
  841SOL    HW1 3064   5.501   1.513   6.762 -0.2846 -0.2369  1.0285
  841SOL    HW2 3065   5.599   1.628   6.771  0.0241 -0.3793 -0.2523
  842SOL     OW 3066   0.603   0.352   2.348 -0.2961 -0.1605 -0.8263
  842SOL    HW1 3067   0.675   0.396   2.304 -0.3540 -0.6808 -1.4604
  842SOL    HW2 3068   0.632   0.341   2.439  0.8256 -1.2198 -1.2948
  843SOL     OW 3069   1.284   1.856   1.799  0.0742  0.1105  0.0541
  843SOL    HW1 3070   1.324   1.812   1.724  0.4671  1.3433 -0.4765
  843SOL    HW2 3071   1.354   1.911   1.835 -0.9861  1.9943 -0.6466
  844SOL     OW 3072   0.304   3.275   2.178 -0.2985  0.0154  0.4241
  844SOL    HW1 3073   0.222   3.234   2.205 -0.3042  1.1666  2.3166
  844SOL    HW2 3074   0.364   3.202   2.165 -2.1148 -1.0786 -3.2813
  845SOL     OW 3075   0.700   2.893   6.375 -0.5153  0.4148 -0.2723
  845SOL    HW1 3076   0.607   2.901   6.354 -0.7731 -0.5422  0.4504
  845SOL    HW2 3077   0.703   2.886   6.470  0.1602 -0.9732 -0.3622
  846SOL     OW 3078   4.395   3.765   7.511  0.3043  0.8493  0.3371
  846SOL    HW1 3079   4.366   3.792   7.598 -1.3192 -0.3934  0.2219
  846SOL    HW2 3080   4.373   3.839   7.455  1.3588  1.6576  0.9572
  847SOL     OW 3081   2.133   6.844   7.352 -0.0822  0.1451 -0.5014
  847SOL    HW1 3082   2.083   6.838   7.270 -1.5886 -0.2448  0.4180
  847SOL    HW2 3083   2.094   6.917   7.399 -0.0175 -0.3606  0.3675
  848SOL     OW 3084   4.623   2.298   5.169 -0.0985 -0.1544  0.2828
  848SOL    HW1 3085   4.602   2.282   5.077 -0.2460 -0.7607  0.4191
  848SOL    HW2 3086   4.696   2.360   5.167 -1.2345  1.2419 -0.2267
  849SOL     OW 3087   6.262   1.282   0.037  0.6992 -0.1741 -0.1123
  849SOL    HW1 3088   6.260   1.365  -0.011  1.3098  0.9205  1.6637
  849SOL    HW2 3089   6.177   1.279   0.082 -0.7061 -2.1281 -2.6177
  850SOL     OW 3090   5.645   2.345   0.693  0.3129 -0.1480  0.4023
  850SOL    HW1 3091   5.664   2.339   0.599 -0.2463 -0.2230  0.2896
  850SOL    HW2 3092   5.556   2.381   0.697 -0.2031 -1.4179  0.8665
  851SOL     OW 3093   7.086   1.209   2.834 -0.5308  0.2268  0.3696
  851SOL    HW1 3094   7.011   1.150   2.848  0.7867 -1.8091 -0.6635
  851SOL    HW2 3095   7.125   1.178   2.752  1.8824  0.7213  1.2586
  852SOL     OW 3096   5.422   4.300   5.256  0.6384  0.3637 -0.6726
  852SOL    HW1 3097   5.503   4.248   5.256 -0.5738 -1.6174 -0.3651
  852SOL    HW2 3098   5.409   4.324   5.348  0.0701 -0.6845 -0.4655
  853SOL     OW 3099   5.310   4.981   2.152 -0.7000  0.1924 -0.2508
  853SOL    HW1 3100   5.273   5.068   2.164 -1.1756  0.1228 -1.1015
  853SOL    HW2 3101   5.241   4.921   2.181  0.4704  0.0845  2.5794
  854SOL     OW 3102   6.511   1.923   5.133 -0.1696 -0.3650  0.0540
  854SOL    HW1 3103   6.558   1.852   5.177 -0.2364 -0.4348  0.0121
  854SOL    HW2 3104   6.553   1.931   5.048  0.9715  0.7798  0.6843
  855SOL     OW 3105   4.485   6.494   3.125 -0.2181 -0.3573 -0.5127
  855SOL    HW1 3106   4.506   6.555   3.054 -0.4693 -0.1737 -0.4294
  855SOL    HW2 3107   4.553   6.426   3.119  1.2117  0.9214  0.6008
  856SOL     OW 3108   4.500   1.572   5.908  0.2326  0.4264 -0.7164
  856SOL    HW1 3109   4.537   1.658   5.925  0.1769  0.4116 -0.5166
  856SOL    HW2 3110   4.551   1.537   5.835  0.8138  0.2758 -0.2412
  857SOL     OW 3111   4.149   0.998   1.270  0.2208 -0.1450 -0.0084
  857SOL    HW1 3112   4.128   1.077   1.319  1.3147  1.8188 -2.4157
  857SOL    HW2 3113   4.244   0.989   1.280  0.2243 -0.6312 -0.4367
  858SOL     OW 3114   6.046   0.293   7.378 -0.1292  0.3345  0.1524
  858SOL    HW1 3115   6.055   0.310   7.285  0.5251  0.4389  0.2244
  858SOL    HW2 3116   6.063   0.378   7.419 -2.1204  0.6938  0.3047
  859SOL     OW 3117   6.066   5.128   1.563 -0.3409  0.0672  0.0148
  859SOL    HW1 3118   6.050   5.219   1.538 -1.0852 -0.3073 -0.9739
  859SOL    HW2 3119   6.144   5.130   1.617  0.1215  1.1932 -0.6791
  860SOL     OW 3120   1.579   6.564   7.249  0.4462 -0.5740 -0.4891
  860SOL    HW1 3121   1.561   6.654   7.277 -2.3345 -2.0406  3.2924
  860SOL    HW2 3122   1.501   6.539   7.199  1.8391 -0.5562 -2.7873
  861SOL     OW 3123   5.343   0.499   2.603 -0.4823  0.9973 -0.2971
  861SOL    HW1 3124   5.358   0.484   2.697 -1.3506  0.9883 -0.1431
  861SOL    HW2 3125   5.286   0.427   2.576  1.6344 -0.3303 -1.4033
  862SOL     OW 3126   1.576   4.650   2.783 -0.0198 -0.0321 -0.0935
  862SOL    HW1 3127   1.530   4.688   2.708 -2.7632  1.3186  2.0847
  862SOL    HW2 3128   1.634   4.720   2.813 -0.7636  0.3785  0.4441
  863SOL     OW 3129   7.232   1.268   7.218 -0.1653 -0.2150  0.1960
  863SOL    HW1 3130   7.185   1.221   7.148 -0.3265 -0.5589  0.5320
  863SOL    HW2 3131   7.165   1.320   7.261 -0.1982 -0.5369  0.5362
  864SOL     OW 3132   3.277   3.705   5.773  0.0719  0.1866  0.0700
  864SOL    HW1 3133   3.264   3.702   5.867  2.1426  1.2221  0.4450
  864SOL    HW2 3134   3.369   3.731   5.762 -0.7295  2.5116 -2.2102
  865SOL     OW 3135   0.703   4.811   4.947 -0.2569  0.3399  0.5217
  865SOL    HW1 3136   0.691   4.729   4.899  0.0106  1.5668 -1.8052
  865SOL    HW2 3137   0.798   4.818   4.959 -0.1020  1.1616 -0.9788
  866SOL     OW 3138   4.433   6.096   0.885  0.3099  0.2864  0.0906
  866SOL    HW1 3139   4.523   6.082   0.912  0.6535  0.9924 -0.6539
  866SOL    HW2 3140   4.436   6.174   0.830 -0.4832 -0.6306 -1.3231
  867SOL     OW 3141   2.583   4.945   3.357 -0.3779 -0.3212  0.1318
  867SOL    HW1 3142   2.605   4.970   3.267 -0.5810  0.8829  0.3930
  867SOL    HW2 3143   2.664   4.909   3.392 -0.1029 -0.1514 -0.3216
  868SOL     OW 3144   4.582   1.016   1.573  0.3315  0.5504 -0.3263
  868SOL    HW1 3145   4.527   1.075   1.624 -0.7043 -0.7126  0.0883
  868SOL    HW2 3146   4.589   0.937   1.627  1.7627  0.3081 -0.8111
  869SOL     OW 3147   4.211   7.575   3.615 -0.1427  0.1789 -0.1912
  869SOL    HW1 3148   4.267   7.532   3.550  1.0296  1.0087  0.2429
  869SOL    HW2 3149   4.183   7.656   3.572  1.0742  0.9923  0.5055
  870SOL     OW 3150   4.063   2.056   1.911  0.1543  0.5619  0.3115
  870SOL    HW1 3151   4.114   2.126   1.870  0.3992  0.5878  0.6540
  870SOL    HW2 3152   4.114   1.976   1.894  0.2234  0.5638  0.5051
  871SOL     OW 3153   6.357   3.902   7.125  0.3159 -0.3128  0.3755
  871SOL    HW1 3154   6.358   3.839   7.198  1.2901  0.8659  1.4426
  871SOL    HW2 3155   6.449   3.926   7.114  0.0519  0.2761 -0.5902
  872SOL     OW 3156   2.582   0.628   6.930 -0.0184  0.0587  0.3932
  872SOL    HW1 3157   2.609   0.639   7.021  0.1579 -0.3030  0.3843
  872SOL    HW2 3158   2.491   0.656   6.928  0.0697  0.3721  0.6153
  873SOL     OW 3159   0.188   7.489   2.281  0.0726  0.0747 -0.4601
  873SOL    HW1 3160   0.263   7.540   2.251  0.3320  0.0893  0.2067
  873SOL    HW2 3161   0.156   7.536   2.358  1.0277 -1.3682  0.8667
  874SOL     OW 3162   0.783   1.543   6.283  0.1815  0.2117  0.1835
  874SOL    HW1 3163   0.774   1.542   6.379  1.0375  1.8606  0.3237
  874SOL    HW2 3164   0.794   1.451   6.259  1.7973 -0.1032  1.8869
  875SOL     OW 3165   7.320   6.272   3.745 -0.1304 -0.0847 -0.1622
  875SOL    HW1 3166   7.228   6.252   3.727  0.2639 -0.3916 -2.0098
  875SOL    HW2 3167   7.352   6.313   3.664  0.8649  1.8486  1.1204
  876SOL     OW 3168   6.371   7.103   1.655  0.0904 -0.0988  0.0432
  876SOL    HW1 3169   6.410   7.135   1.574  0.2151  3.3094  1.2633
  876SOL    HW2 3170   6.282   7.078   1.631  0.2329  0.5344 -1.2266
  877SOL     OW 3171   5.899   6.250   0.545 -0.4318  0.4367  0.2791
  877SOL    HW1 3172   5.929   6.161   0.526  0.5237  0.9728 -0.8196
  877SOL    HW2 3173   5.867   6.283   0.461  1.2650  1.8802  0.1522
  878SOL     OW 3174   0.891   6.189   0.996  0.1618  0.2797  0.2723
  878SOL    HW1 3175   0.870   6.107   0.950 -0.4863 -0.7491  2.2839
  878SOL    HW2 3176   0.813   6.244   0.984 -0.4079 -0.3630  0.9079
  879SOL     OW 3177   0.498   5.902   2.376 -0.4220  0.3306 -0.1285
  879SOL    HW1 3178   0.587   5.870   2.391 -0.2035  1.4876  1.2188
  879SOL    HW2 3179   0.442   5.831   2.407  0.0583  0.8258  1.9914
  880SOL     OW 3180   4.484   0.589   3.536 -0.2877 -0.7024  0.2925
  880SOL    HW1 3181   4.552   0.629   3.591 -1.0035  0.4266  0.4049
  880SOL    HW2 3182   4.511   0.609   3.447 -0.0574 -0.9517  0.3069
  881SOL     OW 3183   0.935   2.085   0.712 -0.1330 -0.1380  0.0811
  881SOL    HW1 3184   0.931   2.161   0.655 -3.1525  0.2032  0.5650
  881SOL    HW2 3185   0.928   2.010   0.652 -0.4158  0.0977 -0.1817
  882SOL     OW 3186   4.098   4.899   6.236  0.1439  0.1816 -0.5283
  882SOL    HW1 3187   4.179   4.852   6.255 -0.4288 -0.7272 -0.2490
  882SOL    HW2 3188   4.097   4.907   6.140 -0.1936 -1.2649 -0.6797
  883SOL     OW 3189   1.360   1.479   5.240  0.3502 -0.0406 -0.2801
  883SOL    HW1 3190   1.271   1.445   5.247  0.3207 -0.2881 -1.6001
  883SOL    HW2 3191   1.412   1.405   5.211  0.4749  0.7175 -2.1379
  884SOL     OW 3192   4.089   7.559   7.572  0.3194 -0.4241  0.3619
  884SOL    HW1 3193   4.012   7.504   7.556  0.3078 -0.2399 -0.2472
  884SOL    HW2 3194   4.162   7.498   7.579  0.3133 -0.5213 -0.3536
  885SOL     OW 3195   6.263   3.115   2.289  0.1056  0.1332  0.5386
  885SOL    HW1 3196   6.214   3.047   2.336 -0.8137  0.2368 -0.2360
  885SOL    HW2 3197   6.208   3.137   2.214  1.7896 -0.3978 -0.9112
  886SOL     OW 3198   1.860   2.890   2.364 -0.3548  0.1489  0.1645
  886SOL    HW1 3199   1.855   2.935   2.280 -0.5608 -1.1755 -0.5658
  886SOL    HW2 3200   1.886   2.958   2.426  0.5957  0.9971 -1.0994
  887SOL     OW 3201   4.705   2.342   6.995 -0.8033  0.0963  0.1603
  887SOL    HW1 3202   4.616   2.334   7.030 -1.1144  0.6721 -0.4629
  887SOL    HW2 3203   4.699   2.415   6.933 -0.3931 -1.1824 -1.4444
  888SOL     OW 3204   4.090   5.002   5.783  0.3354  0.0817 -0.4243
  888SOL    HW1 3205   4.143   4.987   5.861 -1.3004 -0.6154  0.5980
  888SOL    HW2 3206   4.094   4.920   5.735 -0.3391 -0.1942 -0.0136
  889SOL     OW 3207   2.853   0.211   5.134  0.2991  0.1428 -0.5188
  889SOL    HW1 3208   2.854   0.290   5.189  1.1058  1.2415 -2.0231
  889SOL    HW2 3209   2.763   0.179   5.140  0.2846  0.3888  1.1638
  890SOL     OW 3210   1.353   3.339   4.537 -0.6737 -0.7631  0.0360
  890SOL    HW1 3211   1.422   3.313   4.475 -0.0798 -0.6840  0.6440
  890SOL    HW2 3212   1.396   3.402   4.595 -1.5004 -0.0723 -0.0854
  891SOL     OW 3213   6.007   0.863   3.836 -0.2315 -0.5237 -0.3625
  891SOL    HW1 3214   6.008   0.802   3.762 -0.3952 -0.5144 -0.3714
  891SOL    HW2 3215   6.033   0.947   3.798 -1.3358 -0.2877 -0.6068
  892SOL     OW 3216   5.588   1.103   5.231 -0.4741  0.0460  0.1472
  892SOL    HW1 3217   5.599   1.186   5.183 -0.0841 -0.0980 -0.0145
  892SOL    HW2 3218   5.642   1.040   5.183 -0.2637 -0.1538  0.6404
  893SOL     OW 3219   2.347   4.609   2.472 -0.0904 -0.0444  0.2236
  893SOL    HW1 3220   2.311   4.524   2.448  2.0164 -0.6996 -0.8508
  893SOL    HW2 3221   2.383   4.596   2.559 -1.1416  0.2361  0.7255
  894SOL     OW 3222   6.324   5.266   4.684  0.2613 -0.6452 -0.4012
  894SOL    HW1 3223   6.271   5.278   4.605  0.5064 -0.6019 -0.5599
  894SOL    HW2 3224   6.414   5.272   4.653  0.3531  0.6163  0.0744
  895SOL     OW 3225   5.989   3.972   5.833  0.2777 -0.9756  0.3909
  895SOL    HW1 3226   5.896   3.952   5.841  0.1192 -0.1904  0.5939
  895SOL    HW2 3227   5.998   4.015   5.748  0.4173 -0.8967  0.4429
  896SOL     OW 3228   2.958   7.240   3.034  0.1064 -0.1648 -0.0100
  896SOL    HW1 3229   2.883   7.253   3.093  0.0996 -0.9115  0.1571
  896SOL    HW2 3230   2.967   7.323   2.988 -1.3927 -0.3337 -0.6835
  897SOL     OW 3231   3.923   1.105   7.533 -0.4194 -0.2802  0.7885
  897SOL    HW1 3232   3.977   1.085   7.609 -0.6936 -0.1891  1.0052
  897SOL    HW2 3233   3.861   1.171   7.563  0.4902  0.9690  0.0777
  898SOL     OW 3234   0.252   0.531   3.926 -0.0700 -0.1689  1.0179
  898SOL    HW1 3235   0.304   0.519   3.846 -0.3802 -0.1883  0.8175
  898SOL    HW2 3236   0.276   0.458   3.982 -0.9646 -1.0015  0.3434
  899SOL     OW 3237   0.793   1.573   0.764 -0.6745  0.5023 -0.0457
  899SOL    HW1 3238   0.701   1.551   0.752 -0.3069 -1.1552 -0.0472
  899SOL    HW2 3239   0.835   1.490   0.785  0.7829  1.2770  0.2325
  900SOL     OW 3240   5.530   3.738   5.563 -0.5634  0.4694 -0.2615
  900SOL    HW1 3241   5.472   3.813   5.554 -1.6761 -0.3959 -0.4882
  900SOL    HW2 3242   5.526   3.694   5.478 -0.0893  0.0358 -0.0644
  901SOL     OW 3243   6.789   5.915   0.058 -0.0087 -0.1861 -0.8940
  901SOL    HW1 3244   6.761   6.007   0.055 -1.0375 -0.5032 -2.5177
  901SOL    HW2 3245   6.881   5.916   0.032  0.1844  0.4316 -0.2189
  902SOL     OW 3246   2.373   4.290   3.180  0.1662 -0.0143 -0.5527
  902SOL    HW1 3247   2.311   4.287   3.108  2.6943 -2.5368 -2.8576
  902SOL    HW2 3248   2.444   4.345   3.148 -0.1378  1.6833  1.4805
  903SOL     OW 3249   0.598   4.535   6.575  0.5419  0.1102  0.3348
  903SOL    HW1 3250   0.526   4.556   6.515 -1.1425 -3.2432  0.9444
  903SOL    HW2 3251   0.674   4.522   6.519 -0.5167 -0.9780 -0.8986
  904SOL     OW 3252   7.546   6.915   7.233 -0.0366 -0.3887  0.0758
  904SOL    HW1 3253   7.513   6.853   7.298 -2.9989  1.3732  0.4331
  904SOL    HW2 3254   7.556   6.997   7.281  1.8187 -0.0359 -0.8311
  905SOL     OW 3255   1.616   5.999   4.903 -0.1346  0.6307  0.0327
  905SOL    HW1 3256   1.586   6.037   4.986  1.6085  1.5255  0.2999
  905SOL    HW2 3257   1.537   5.987   4.852 -1.1057  1.3689  1.3085
  906SOL     OW 3258   6.634   5.375   6.993 -0.5562 -0.0365 -0.2817
  906SOL    HW1 3259   6.710   5.400   7.046  0.1980 -0.5438 -1.0832
  906SOL    HW2 3260   6.605   5.457   6.953  1.2143 -0.1839 -2.0254
  907SOL     OW 3261   3.320   0.833   2.229 -0.1434 -0.0557  0.0156
  907SOL    HW1 3262   3.293   0.790   2.310 -0.5035  1.4250  0.7111
  907SOL    HW2 3263   3.261   0.908   2.221  1.9907  1.7486  0.1770
  908SOL     OW 3264   7.258   1.801   4.742 -0.2969 -0.3964  0.2623
  908SOL    HW1 3265   7.234   1.866   4.808 -0.5337 -0.6020  0.3835
  908SOL    HW2 3266   7.190   1.808   4.675 -0.3012 -0.4885  0.2562
  909SOL     OW 3267   5.038   2.926   2.523  0.1851  0.0600 -0.2897
  909SOL    HW1 3268   4.954   2.947   2.481  0.2514  1.3509  0.2056
  909SOL    HW2 3269   5.098   2.994   2.494  0.8812 -0.4287 -0.0316
  910SOL     OW 3270   6.442   2.212   3.331  0.3483  0.0401 -0.4346
  910SOL    HW1 3271   6.458   2.120   3.353  0.5642 -0.5069 -2.5894
  910SOL    HW2 3272   6.494   2.226   3.252 -0.1511  1.8536 -0.4675
  911SOL     OW 3273   4.866   6.976   4.187 -0.1452  0.2055 -0.3243
  911SOL    HW1 3274   4.868   7.042   4.256  0.9456 -1.2701  1.1090
  911SOL    HW2 3275   4.932   7.005   4.124 -0.3882  0.9785 -0.2397
  912SOL     OW 3276   1.441   5.683   4.240 -0.2139  0.2262  0.1403
  912SOL    HW1 3277   1.437   5.779   4.234  0.3579  0.3901  1.7195
  912SOL    HW2 3278   1.532   5.665   4.264 -0.4726 -0.6565  0.5098
  913SOL     OW 3279   1.312   7.575   3.378 -0.0695  0.9411 -0.1358
  913SOL    HW1 3280   1.259   7.561   3.300  0.7946 -0.4005 -0.5188
  913SOL    HW2 3281   1.248   7.597   3.446 -1.0103  0.4975 -0.8393
  914SOL     OW 3282   3.103   0.548   6.542  0.2050  0.3335 -0.1304
  914SOL    HW1 3283   3.168   0.479   6.524  0.2095 -0.0040  1.1184
  914SOL    HW2 3284   3.056   0.517   6.619 -1.3110  0.6790 -0.8783
  915SOL     OW 3285   6.686   6.435   1.464  0.8170 -0.3314  0.2606
  915SOL    HW1 3286   6.725   6.412   1.379  0.6334  1.3937 -0.3368
  915SOL    HW2 3287   6.608   6.380   1.470 -1.0431  1.7666 -2.3031
  916SOL     OW 3288   7.053   3.561   5.775  0.1357  0.4385 -0.1900
  916SOL    HW1 3289   7.023   3.647   5.803  2.9982  1.9258 -1.3568
  916SOL    HW2 3290   7.148   3.563   5.787  0.4616 -2.0516 -1.5886
  917SOL     OW 3291   0.829   3.606   6.366  0.6591  0.0580 -0.5325
  917SOL    HW1 3292   0.868   3.519   6.365  0.6588  0.0556 -0.3785
  917SOL    HW2 3293   0.895   3.662   6.326  0.4007 -0.1175 -1.2285
  918SOL     OW 3294   1.301   5.070   1.829 -0.0726  0.1249  0.3354
  918SOL    HW1 3295   1.349   5.140   1.785  0.0874  0.2290  0.6682
  918SOL    HW2 3296   1.214   5.107   1.844 -0.0391  0.1956  0.3606
  919SOL     OW 3297   2.235   2.566   5.246 -0.2193 -0.2246  0.0959
  919SOL    HW1 3298   2.284   2.648   5.240 -2.4919  1.1644 -0.8895
  919SOL    HW2 3299   2.175   2.580   5.319  1.3416 -2.2658  1.9388
  920SOL     OW 3300   0.680   3.649   1.866 -0.5620  0.1166 -0.3784
  920SOL    HW1 3301   0.721   3.662   1.780  2.3809 -1.0822  0.7153
  920SOL    HW2 3302   0.690   3.733   1.911 -0.7640  0.2935 -0.6554
  921SOL     OW 3303   2.697   5.628   3.835  0.0156  0.7580 -0.0480
  921SOL    HW1 3304   2.728   5.637   3.926  0.8308  1.0134 -0.3423
  921SOL    HW2 3305   2.624   5.689   3.829 -1.0663 -0.3969  0.8720
  922SOL     OW 3306   7.165   4.583   3.411 -0.0223 -0.3819  0.2497
  922SOL    HW1 3307   7.077   4.546   3.405 -0.4059  0.6813 -1.1920
  922SOL    HW2 3308   7.224   4.507   3.409 -0.8694 -1.0793  0.9322
  923SOL     OW 3309   5.658   3.628   6.923 -0.1061  0.5420  0.6737
  923SOL    HW1 3310   5.571   3.612   6.958 -0.3980  0.3572 -0.1156
  923SOL    HW2 3311   5.643   3.673   6.840  0.4619 -1.0844 -0.3614
  924SOL     OW 3312   5.583   7.162   7.371  0.1574  0.3110 -0.1141
  924SOL    HW1 3313   5.555   7.253   7.361  0.0256  0.3821  0.8119
  924SOL    HW2 3314   5.670   7.168   7.411  0.4180  0.0378 -0.6283
  925SOL     OW 3315   5.871   1.031   3.174  0.1256  0.4045 -0.0342
  925SOL    HW1 3316   5.901   0.944   3.201  0.4732 -0.0699 -1.8208
  925SOL    HW2 3317   5.777   1.022   3.161  0.3099 -0.0216 -1.2229
  926SOL     OW 3318   0.117   1.919   0.160  0.1016  0.6505  0.2752
  926SOL    HW1 3319   0.163   1.901   0.242 -2.2596 -0.7903  1.3867
  926SOL    HW2 3320   0.147   2.007   0.135  1.1001  1.0228  2.5213
  927SOL     OW 3321   6.388   6.786   7.416 -0.1522  0.1536 -0.6904
  927SOL    HW1 3322   6.335   6.836   7.353 -0.5784  0.1547 -0.3382
  927SOL    HW2 3323   6.337   6.706   7.432 -0.2792  0.3711  0.0114
  928SOL     OW 3324   1.763   3.764   5.485 -0.1172  0.5272 -0.2595
  928SOL    HW1 3325   1.679   3.719   5.494  0.5478 -0.6577  0.1980
  928SOL    HW2 3326   1.796   3.772   5.574 -0.2912  2.0849 -0.3186
  929SOL     OW 3327   0.464   4.402   3.700 -0.1923 -0.1916  0.2532
  929SOL    HW1 3328   0.470   4.491   3.666 -0.2097 -0.2551  0.0815
  929SOL    HW2 3329   0.422   4.412   3.786  0.8271  0.0722  0.7277
  930SOL     OW 3330   2.218   1.990   2.088 -0.0993  0.1615  0.1704
  930SOL    HW1 3331   2.280   1.959   2.154  0.4797 -1.5132 -1.0719
  930SOL    HW2 3332   2.253   2.074   2.059  0.2727  0.3583  1.1699
  931SOL     OW 3333   5.869   5.486   4.308  0.3833 -0.1369 -0.2500
  931SOL    HW1 3334   5.778   5.477   4.278  0.1178  0.6990  0.2805
  931SOL    HW2 3335   5.879   5.579   4.325  1.0661 -0.3541  0.5878
  932SOL     OW 3336   4.294   3.069   2.119  0.2623 -0.6985  0.3426
  932SOL    HW1 3337   4.287   3.164   2.112  0.6426 -0.6798  0.2072
  932SOL    HW2 3338   4.218   3.036   2.072  0.4433 -0.4773 -0.1060
  933SOL     OW 3339   4.800   0.056   5.920  0.2607  0.3544  0.2597
  933SOL    HW1 3340   4.735   0.073   5.853 -0.1645  0.7318  0.7557
  933SOL    HW2 3341   4.753   0.007   5.988  0.4952  0.5927  0.6001
  934SOL     OW 3342   1.201   1.455   2.127  0.3808 -0.1946 -0.0636
  934SOL    HW1 3343   1.253   1.514   2.181 -0.0441  0.9677 -0.8984
  934SOL    HW2 3344   1.213   1.369   2.168  4.9814 -0.5541 -1.5809
  935SOL     OW 3345   6.571   0.187   1.397 -0.1121 -0.0360  0.0798
  935SOL    HW1 3346   6.666   0.196   1.384 -0.2758  0.3134 -0.9582
  935SOL    HW2 3347   6.555   0.224   1.484  0.8425 -1.0408  0.7110
  936SOL     OW 3348   6.298   0.068   7.461  0.5689 -0.0661 -0.4280
  936SOL    HW1 3349   6.277   0.135   7.396  1.0909 -0.0679 -0.6084
  936SOL    HW2 3350   6.244   0.090   7.536  1.6829  1.3760  0.0158
  937SOL     OW 3351   0.763   3.925   4.640 -0.2929  0.2000 -0.5967
  937SOL    HW1 3352   0.730   3.907   4.728 -1.9850 -1.9783 -1.5706
  937SOL    HW2 3353   0.703   3.991   4.604 -2.3913 -2.0389 -1.5256
  938SOL     OW 3354   3.393   4.292   1.138  0.0125  0.3140  0.1031
  938SOL    HW1 3355   3.474   4.313   1.092 -0.2829  0.7059 -0.2378
  938SOL    HW2 3356   3.391   4.196   1.139  1.1867  0.2705  1.3590
  939SOL     OW 3357   5.031   5.344   7.461 -0.0802  0.1637  0.4877
  939SOL    HW1 3358   4.938   5.369   7.459  0.1489  1.1321 -2.2038
  939SOL    HW2 3359   5.078   5.427   7.450  0.9876 -0.5893 -0.8627
  940SOL     OW 3360   4.815   4.659   4.706 -0.1542 -0.3452  0.2877
  940SOL    HW1 3361   4.829   4.754   4.705 -0.4138 -0.2859  1.4018
  940SOL    HW2 3362   4.780   4.639   4.619  2.9366  0.0747 -1.2028
  941SOL     OW 3363   4.430   5.768   3.903  0.4069  0.2505 -0.5165
  941SOL    HW1 3364   4.488   5.834   3.941  0.2900 -0.0434  0.1855
  941SOL    HW2 3365   4.485   5.689   3.896 -0.3675 -0.6210  1.9793
  942SOL     OW 3366   0.769   5.530   5.183  0.0299 -0.1144  0.3866
  942SOL    HW1 3367   0.689   5.510   5.232 -0.7817 -0.3388 -0.9946
  942SOL    HW2 3368   0.751   5.614   5.141  0.0653 -0.7094 -0.8401
  943SOL     OW 3369   6.934   0.757   1.753  0.0134 -0.8483  0.4157
  943SOL    HW1 3370   7.001   0.730   1.690 -1.2471 -3.9955  0.2693
  943SOL    HW2 3371   6.904   0.676   1.793 -2.8602  0.5536  1.3945
  944SOL     OW 3372   5.525   1.952   3.879 -1.0222 -0.4896  0.1398
  944SOL    HW1 3373   5.483   1.869   3.853 -0.1478 -0.4994 -1.3977
  944SOL    HW2 3374   5.457   2.000   3.925 -2.4420 -0.9191 -1.4123
  945SOL     OW 3375   1.519   6.337   3.011  0.5242 -0.2128  0.2779
  945SOL    HW1 3376   1.431   6.373   3.015  0.5877 -0.1364  1.5252
  945SOL    HW2 3377   1.516   6.259   3.067  0.7221 -1.4459 -1.3554
  946SOL     OW 3378   4.856   4.758   3.997  0.4060 -0.1522 -0.5674
  946SOL    HW1 3379   4.808   4.827   4.044 -0.8466 -0.3648 -1.4729
  946SOL    HW2 3380   4.873   4.692   4.063 -1.7271 -0.6552 -0.4299
  947SOL     OW 3381   6.090   6.629   3.522 -0.2455  0.1519 -0.0155
  947SOL    HW1 3382   6.003   6.649   3.558  0.0653 -2.4975  2.5902
  947SOL    HW2 3383   6.135   6.714   3.520 -2.5357  1.4376 -0.4855
  948SOL     OW 3384   3.881   4.128   4.998  0.3158 -0.0309  0.8742
  948SOL    HW1 3385   3.880   4.072   4.920  0.7316  0.9931  0.1192
  948SOL    HW2 3386   3.839   4.074   5.065 -1.2051 -0.4850 -0.3708
  949SOL     OW 3387   6.584   5.101   6.151 -0.7745  0.5850  0.1787
  949SOL    HW1 3388   6.617   5.133   6.235 -0.5435 -1.1399  0.7847
  949SOL    HW2 3389   6.536   5.175   6.115  0.5077  1.9056  1.0599
  950SOL     OW 3390   7.282   3.046   2.702  0.8577 -0.1425 -0.2740
  950SOL    HW1 3391   7.210   3.041   2.765  0.1696 -0.1168 -1.0405
  950SOL    HW2 3392   7.323   3.131   2.719  2.2306 -1.1238  1.7547
  951SOL     OW 3393   5.777   0.816   3.953  0.6319 -0.4865 -0.4399
  951SOL    HW1 3394   5.791   0.805   4.047 -0.1427 -2.0166 -0.4671
  951SOL    HW2 3395   5.863   0.839   3.918  0.4996  2.5340  0.9159
  952SOL     OW 3396   6.252   0.145   2.745 -0.1229  0.0070  0.5416
  952SOL    HW1 3397   6.183   0.095   2.701 -1.9230  2.9088 -0.1828
  952SOL    HW2 3398   6.267   0.098   2.827 -0.9465 -2.2294 -0.5077
  953SOL     OW 3399   2.524   6.603   3.345  0.4502 -0.2215 -0.3990
  953SOL    HW1 3400   2.512   6.543   3.419  1.3040  0.2300  0.1273
  953SOL    HW2 3401   2.439   6.647   3.337  0.6489  0.4925  1.0181
  954SOL     OW 3402   3.889   0.390   1.194  0.1176  0.0256  0.0796
  954SOL    HW1 3403   3.930   0.460   1.143  0.7030 -0.2951  0.1016
  954SOL    HW2 3404   3.952   0.318   1.191  0.2451  0.0599  1.4140
  955SOL     OW 3405   3.336   0.592   1.379 -0.6578 -0.1711 -0.3966
  955SOL    HW1 3406   3.305   0.612   1.467 -1.4839 -0.1932 -0.6695
  955SOL    HW2 3407   3.353   0.497   1.381  1.2102  0.1440  0.2830
  956SOL     OW 3408   1.230   4.067   1.432 -0.2142  0.3597 -0.1002
  956SOL    HW1 3409   1.218   4.033   1.344 -1.8227 -0.4981  0.4129
  956SOL    HW2 3410   1.229   4.162   1.422  0.4563  0.2761 -1.0815
  957SOL     OW 3411   7.477   6.391   2.327  0.2508 -0.7282  0.4154
  957SOL    HW1 3412   7.423   6.376   2.404  0.8341 -1.8238  0.6307
  957SOL    HW2 3413   7.449   6.476   2.294 -0.8563 -0.7980  1.1295
  958SOL     OW 3414   6.964   1.450   3.403 -0.5314  0.0037 -0.0288
  958SOL    HW1 3415   6.978   1.506   3.479  0.4296  0.2722 -0.3830
  958SOL    HW2 3416   7.053   1.426   3.375 -0.7984  0.8608 -1.7713
  959SOL     OW 3417   5.798   1.179   0.999  0.1236 -0.2477  0.8745
  959SOL    HW1 3418   5.790   1.259   0.948  0.4459  0.3558  1.7374
  959SOL    HW2 3419   5.740   1.117   0.956 -0.0078  0.4003  0.0952
  960SOL     OW 3420   3.043   7.527   3.538  0.2777  0.2983 -0.3975
  960SOL    HW1 3421   3.100   7.520   3.615  0.7668  0.5235 -0.7351
  960SOL    HW2 3422   2.983   7.452   3.546  0.3713  0.2790  0.1605
  961SOL     OW 3423   5.316   4.503   3.199 -0.1566 -0.3874  0.0532
  961SOL    HW1 3424   5.364   4.551   3.132 -1.3845 -1.6891 -1.8526
  961SOL    HW2 3425   5.240   4.466   3.153 -1.6048 -0.5171  2.3834
  962SOL     OW 3426   3.567   0.997   4.253 -0.5382  0.4463  0.2004
  962SOL    HW1 3427   3.605   0.921   4.208 -0.3105 -1.6993  3.6069
  962SOL    HW2 3428   3.642   1.052   4.273 -0.3602  0.3598 -0.2148
  963SOL     OW 3429   7.295   1.623   5.432 -0.0052 -0.0109  0.8935
  963SOL    HW1 3430   7.232   1.621   5.504 -0.2372 -0.1783  0.6849
  963SOL    HW2 3431   7.371   1.670   5.468 -0.4122  0.5663  1.0119
  964SOL     OW 3432   5.355   5.599   2.605  0.1400 -0.4133  0.1623
  964SOL    HW1 3433   5.448   5.623   2.595  0.0141 -0.2362 -0.7511
  964SOL    HW2 3434   5.308   5.674   2.569 -0.4483  0.4350  2.5251
  965SOL     OW 3435   0.020   2.493   0.303  0.0364  0.2745  0.5491
  965SOL    HW1 3436  -0.049   2.558   0.315 -0.3963 -0.1469  0.3701
  965SOL    HW2 3437   0.101   2.541   0.318 -0.2046  1.1601 -0.7534
  966SOL     OW 3438   5.427   1.013   2.488 -0.3684 -0.3223 -0.4791
  966SOL    HW1 3439   5.509   1.060   2.501 -0.5869 -0.1901  0.5562
  966SOL    HW2 3440   5.365   1.056   2.548 -1.3584 -0.0405 -1.6452
  967SOL     OW 3441   6.297   1.607   6.988 -0.2875 -0.1912 -0.2398
  967SOL    HW1 3442   6.336   1.684   6.946  1.7968  0.4311  2.4798
  967SOL    HW2 3443   6.213   1.638   7.022 -0.7913  0.0160 -1.6253
  968SOL     OW 3444   0.135   4.065   3.357 -0.6382  0.1941  0.3180
  968SOL    HW1 3445   0.166   4.153   3.335 -1.0566  0.4106  0.5764
  968SOL    HW2 3446   0.092   4.034   3.277  0.8233 -0.3865 -0.2746
  969SOL     OW 3447   4.045   1.487   7.050 -0.5323 -0.2053  0.1270
  969SOL    HW1 3448   4.125   1.536   7.029  1.2808 -1.8096  2.7499
  969SOL    HW2 3449   3.992   1.549   7.102  0.6010 -0.1856  1.3009
  970SOL     OW 3450   2.862   4.386   2.125 -0.3292 -0.5017 -0.0909
  970SOL    HW1 3451   2.915   4.328   2.179  0.7652  1.3035  0.8907
  970SOL    HW2 3452   2.792   4.416   2.184  1.7838  2.7550  1.0682
  971SOL     OW 3453   3.601   3.244   2.732 -0.1626  0.1318 -0.4071
  971SOL    HW1 3454   3.558   3.186   2.795  0.1644  0.0537 -0.2508
  971SOL    HW2 3455   3.605   3.329   2.777  0.1036  0.0670 -0.3040
  972SOL     OW 3456   6.495   3.105   3.357 -0.1942  0.8256  0.0349
  972SOL    HW1 3457   6.422   3.148   3.403 -0.4068  1.2146 -0.6465
  972SOL    HW2 3458   6.561   3.173   3.350  0.2741  0.4459  0.7295
  973SOL     OW 3459   1.060   6.958   5.037 -0.0452  0.0152 -0.4414
  973SOL    HW1 3460   1.000   6.923   5.103 -1.7637  0.4694 -1.6834
  973SOL    HW2 3461   1.146   6.957   5.080 -0.6787 -1.9484  0.9220
  974SOL     OW 3462   6.133   2.353   1.485 -0.7294  0.4696 -0.3488
  974SOL    HW1 3463   6.197   2.382   1.549  0.6355  0.6226 -1.7170
  974SOL    HW2 3464   6.048   2.370   1.526  0.0752 -0.0193  1.6386
  975SOL     OW 3465   2.674   5.877   5.014 -0.1194  0.0014 -0.5570
  975SOL    HW1 3466   2.596   5.840   5.056 -0.7944 -0.6001 -2.2544
  975SOL    HW2 3467   2.714   5.803   4.968  2.0321  0.0826  1.0360
  976SOL     OW 3468   4.169   4.813   4.098 -0.1677 -0.1065 -0.5371
  976SOL    HW1 3469   4.139   4.861   4.021  0.8291 -0.5549 -1.2281
  976SOL    HW2 3470   4.245   4.763   4.067 -0.7392 -1.5658  0.3285
  977SOL     OW 3471   2.435   4.141   4.379  0.2031  0.3515 -0.1888
  977SOL    HW1 3472   2.455   4.062   4.429 -1.1866  1.3727  2.1336
  977SOL    HW2 3473   2.357   4.118   4.328  1.5285 -0.6416 -1.8789
  978SOL     OW 3474   1.076   4.249   3.784  0.1223  0.1841 -0.0909
  978SOL    HW1 3475   1.022   4.257   3.706 -2.3042 -0.9169  1.3544
  978SOL    HW2 3476   1.024   4.196   3.844  2.6880 -0.6503  1.5899
  979SOL     OW 3477   5.092   2.923   0.343 -0.2271  0.0907  0.2842
  979SOL    HW1 3478   5.062   2.842   0.385 -0.7933 -0.4095 -1.0212
  979SOL    HW2 3479   5.018   2.949   0.288 -1.3100  3.1799  2.8973
  980SOL     OW 3480   6.101   5.283   7.101 -0.0676 -0.3551  0.2852
  980SOL    HW1 3481   6.185   5.314   7.134  0.3930 -0.8609 -0.4047
  980SOL    HW2 3482   6.077   5.346   7.034 -0.3761 -0.0590  0.6685
  981SOL     OW 3483   3.303   6.840   1.954 -0.0367 -0.1218  0.2629
  981SOL    HW1 3484   3.353   6.800   2.026 -0.3576 -0.3209  0.3766
  981SOL    HW2 3485   3.328   6.789   1.877 -0.0215 -0.1871  0.3101
  982SOL     OW 3486   7.433   0.815   3.051  0.3935 -0.0571  0.8395
  982SOL    HW1 3487   7.484   0.735   3.038 -0.0923 -0.1267 -0.7996
  982SOL    HW2 3488   7.466   0.877   2.986 -0.5727  0.4009  0.7569
  983SOL     OW 3489   4.710   0.209   0.266  0.0982  0.0872  0.3279
  983SOL    HW1 3490   4.622   0.225   0.300  0.3806  1.4416  0.5042
  983SOL    HW2 3491   4.718   0.269   0.191  0.4613 -0.8792 -0.4326
  984SOL     OW 3492   5.511   7.029   2.398 -0.3593 -0.3966  0.0387
  984SOL    HW1 3493   5.580   6.963   2.405 -0.4033 -0.5016 -0.4995
  984SOL    HW2 3494   5.556   7.112   2.416 -0.3014 -0.5677  0.7067
  985SOL     OW 3495   1.103   2.466   1.870 -0.4290 -0.2429  0.1564
  985SOL    HW1 3496   1.099   2.538   1.808  1.2054  0.1653  0.4804
  985SOL    HW2 3497   1.055   2.395   1.828  1.1876 -0.2063 -1.8973
  986SOL     OW 3498   0.687   3.896   2.556 -0.4225  0.0080 -0.1515
  986SOL    HW1 3499   0.714   3.870   2.644  2.3945 -2.7244 -1.6010
  986SOL    HW2 3500   0.618   3.834   2.532 -1.3178  0.8645  0.1351
  987SOL     OW 3501   7.246   5.425   6.789  0.4059  0.3727  0.1785
  987SOL    HW1 3502   7.291   5.435   6.873  0.9150  1.8299 -0.2269
  987SOL    HW2 3503   7.154   5.444   6.808  0.6375  1.4341  0.2869
  988SOL     OW 3504   1.545   0.123   3.286 -0.1086 -0.5457 -0.5242
  988SOL    HW1 3505   1.466   0.073   3.308 -0.3826 -0.1169 -0.5226
  988SOL    HW2 3506   1.547   0.194   3.349 -0.8028  0.5964 -1.7301
  989SOL     OW 3507   1.771   1.522   3.733 -0.0603 -0.0657 -0.2053
  989SOL    HW1 3508   1.743   1.533   3.824  0.5811  1.8302 -0.2060
  989SOL    HW2 3509   1.692   1.492   3.687 -0.2594 -1.5707  1.0377
  990SOL     OW 3510   6.717   0.855   1.567 -0.6805 -0.5536  0.4493
  990SOL    HW1 3511   6.661   0.780   1.588  0.1213 -1.2387  0.2230
  990SOL    HW2 3512   6.784   0.854   1.636 -0.0623 -0.6941 -0.1413
  991SOL     OW 3513   4.360   5.864   4.280 -0.0366 -0.2403  0.4076
  991SOL    HW1 3514   4.362   5.772   4.306  0.4139 -0.0088  1.2546
  991SOL    HW2 3515   4.309   5.866   4.199 -0.5083 -1.1647  0.6683
  992SOL     OW 3516   6.160   3.856   5.495  0.2325 -0.2610  0.4322
  992SOL    HW1 3517   6.183   3.767   5.467  0.2788 -0.3602  0.7884
  992SOL    HW2 3518   6.221   3.876   5.566  1.0800  0.5554 -0.4988
  993SOL     OW 3519   3.420   5.439   1.308  0.3234  0.1505  0.2633
  993SOL    HW1 3520   3.447   5.356   1.347  0.9181  0.3755  0.3364
  993SOL    HW2 3521   3.450   5.506   1.370 -0.5583  0.4025  0.4376
  994SOL     OW 3522   6.800   3.848   3.679  0.0296 -0.7398 -0.7482
  994SOL    HW1 3523   6.869   3.783   3.692  0.1287 -0.1563  2.7365
  994SOL    HW2 3524   6.719   3.801   3.695  0.1355 -0.0726  2.5863
  995SOL     OW 3525   5.413   5.936   4.118 -0.3862  0.5636 -0.1116
  995SOL    HW1 3526   5.382   5.865   4.174  1.6547 -0.0327  0.3753
  995SOL    HW2 3527   5.413   5.899   4.030  0.9739 -0.2112  0.1803
  996SOL     OW 3528   3.820   2.869   6.744  0.1218 -0.0241 -0.2631
  996SOL    HW1 3529   3.873   2.915   6.809 -1.4035  0.3991  0.7359
  996SOL    HW2 3530   3.745   2.926   6.729 -1.3073 -1.6819  0.2485
  997SOL     OW 3531   1.605   3.103   3.931  0.1734 -0.2514 -0.4725
  997SOL    HW1 3532   1.629   3.091   4.023 -1.0540  1.3096  0.1011
  997SOL    HW2 3533   1.681   3.146   3.892  1.8352 -3.3656 -0.9323
  998SOL     OW 3534   2.776   4.790   3.867  0.0057  0.0291  0.2141
  998SOL    HW1 3535   2.861   4.791   3.824  0.5092 -0.5292  1.1525
  998SOL    HW2 3536   2.771   4.873   3.913  1.4789 -1.1731  2.7635
  999SOL     OW 3537   1.095   1.012   1.774 -0.7513  0.4266 -0.1968
  999SOL    HW1 3538   1.013   0.970   1.799 -0.8212  0.2915 -0.6482
  999SOL    HW2 3539   1.134   1.040   1.857 -1.6224  1.1777 -0.0360
 1000SOL     OW 3540   1.705   0.805   2.946 -0.0420 -0.2984 -0.3636
 1000SOL    HW1 3541   1.777   0.800   3.010 -0.6284 -1.0723  0.2496
 1000SOL    HW2 3542   1.642   0.740   2.976 -0.9145  0.2312 -1.0130
 1001SOL     OW 3543   1.037   5.185   5.187 -0.9684 -0.4934 -0.9535
 1001SOL    HW1 3544   1.005   5.253   5.246  0.4870 -0.6065  0.0359
 1001SOL    HW2 3545   1.111   5.146   5.234  0.8707  0.0229 -3.2302
 1002SOL     OW 3546   7.362   1.679   0.863 -0.2726  0.1474  0.1272
 1002SOL    HW1 3547   7.400   1.767   0.858  0.0592  0.0068  0.1743
 1002SOL    HW2 3548   7.379   1.640   0.777 -0.9828  0.3557 -0.1154
 1003SOL     OW 3549   1.043   4.674   6.486 -0.4438  0.7021  0.0862
 1003SOL    HW1 3550   1.059   4.684   6.580  1.1066  1.8604 -0.2674
 1003SOL    HW2 3551   0.977   4.741   6.466 -2.0448 -0.6489  0.6076
 1004SOL     OW 3552   0.727   0.040   1.386  0.5568  0.8561 -0.0738
 1004SOL    HW1 3553   0.796   0.002   1.332 -1.2298  1.0501 -2.6825
 1004SOL    HW2 3554   0.763   0.124   1.414  1.0543  1.4654 -2.3196
 1005SOL     OW 3555   5.037   6.209   6.165 -0.2260 -0.3913 -0.9005
 1005SOL    HW1 3556   5.122   6.169   6.182 -0.0561 -0.5878 -2.1368
 1005SOL    HW2 3557   4.976   6.162   6.222  0.7078  0.8251  1.2276
 1006SOL     OW 3558   3.026   3.401   7.161 -0.0137 -0.0163  0.2681
 1006SOL    HW1 3559   3.111   3.412   7.117 -0.9129  2.2619 -1.0723
 1006SOL    HW2 3560   3.023   3.472   7.225 -0.6038 -0.5637  0.8544
 1007SOL     OW 3561   4.856   3.518   0.769 -0.1010  0.5552 -0.1437
 1007SOL    HW1 3562   4.794   3.539   0.699  0.5115 -1.9620 -1.5586
 1007SOL    HW2 3563   4.941   3.510   0.725  0.3323 -0.9646  0.8607
 1008SOL     OW 3564   3.966   3.991   3.806  0.4228  0.0166 -0.0195
 1008SOL    HW1 3565   3.976   4.084   3.827  1.2737  0.2044 -1.1721
 1008SOL    HW2 3566   3.901   3.989   3.735  0.6419 -0.2344 -0.2155
 1009SOL     OW 3567   0.558   7.524   3.374 -0.8908 -0.2119  0.2009
 1009SOL    HW1 3568   0.508   7.461   3.426 -0.0790 -1.5300 -0.5625
 1009SOL    HW2 3569   0.640   7.535   3.421 -2.1286  2.7012  1.9796
 1010SOL     OW 3570   3.269   1.013   6.581  0.3386 -0.2374  0.2370
 1010SOL    HW1 3571   3.185   1.055   6.599 -0.3044 -1.1592 -0.4659
 1010SOL    HW2 3572   3.324   1.083   6.547 -0.4808  0.1868 -0.2495
 1011SOL     OW 3573   4.230   1.422   4.544  0.0938 -0.1631  0.7843
 1011SOL    HW1 3574   4.262   1.491   4.602  1.5168 -1.9756  2.3277
 1011SOL    HW2 3575   4.276   1.437   4.462  3.4169 -1.2773  2.2175
 1012SOL     OW 3576   6.010   6.606   4.317 -0.2801 -0.2119 -0.5064
 1012SOL    HW1 3577   6.066   6.605   4.395  0.0829  1.0196 -0.7294
 1012SOL    HW2 3578   5.930   6.562   4.345 -0.6783  1.3435  0.9745
 1013SOL     OW 3579   5.967   1.066   6.434  0.0532  0.6673  0.1041
 1013SOL    HW1 3580   6.057   1.036   6.420 -0.9977 -2.0040 -1.6981
 1013SOL    HW2 3581   5.954   1.060   6.528  0.8230 -2.0754  0.1106
 1014SOL     OW 3582   3.270   0.683   1.607  0.4609  0.0363  0.1259
 1014SOL    HW1 3583   3.216   0.740   1.551  0.4669  0.7982  0.8843
 1014SOL    HW2 3584   3.221   0.678   1.689 -0.7543 -2.9826 -0.6483
 1015SOL     OW 3585   0.368   0.690   1.678 -0.2776 -0.5234 -0.4796
 1015SOL    HW1 3586   0.354   0.734   1.594  0.0461 -0.0830 -0.3102
 1015SOL    HW2 3587   0.463   0.673   1.680 -0.2081 -0.1081 -0.0038
 1016SOL     OW 3588   0.710   7.420   4.612  0.0715 -0.2106  0.1324
 1016SOL    HW1 3589   0.614   7.420   4.606 -0.0728 -1.6321  1.7484
 1016SOL    HW2 3590   0.730   7.497   4.666 -0.1175  0.3706 -0.6193
 1017SOL     OW 3591   0.041   5.498   5.111 -0.2878 -0.5144  0.3586
 1017SOL    HW1 3592   0.026   5.414   5.068  0.1887 -1.1067  1.3042
 1017SOL    HW2 3593   0.016   5.483   5.202 -0.2554  0.3911  0.5249
 1018SOL     OW 3594   4.632   3.700   3.820 -0.0472 -0.5044  0.3848
 1018SOL    HW1 3595   4.620   3.606   3.835  1.5072 -0.9920 -1.1187
 1018SOL    HW2 3596   4.565   3.722   3.755 -0.5000 -0.5311  0.8361
 1019SOL     OW 3597   4.945   3.207   1.788 -0.5177 -0.4191  0.6080
 1019SOL    HW1 3598   5.036   3.207   1.759 -0.0383  2.1275  1.8046
 1019SOL    HW2 3599   4.951   3.209   1.884 -1.7735  0.8601  0.6943
 1020SOL     OW 3600   2.751   7.068   1.066 -0.5400 -0.5017 -0.0887
 1020SOL    HW1 3601   2.701   7.011   1.008 -1.9224  1.5412 -1.0128
 1020SOL    HW2 3602   2.838   7.070   1.027 -0.0634 -2.8448  0.6471
 1021SOL     OW 3603   1.329   6.484   0.968 -0.0911  0.2819 -0.3015
 1021SOL    HW1 3604   1.340   6.415   1.034  0.2092 -0.0128 -0.6480
 1021SOL    HW2 3605   1.369   6.447   0.889 -1.3848  0.2028 -0.9391
 1022SOL     OW 3606   6.392   1.831   7.413 -0.3512 -0.0453 -0.0507
 1022SOL    HW1 3607   6.418   1.923   7.404 -0.3559  0.0421  0.7766
 1022SOL    HW2 3608   6.452   1.784   7.355 -0.8443  0.5455 -1.0859
 1023SOL     OW 3609   3.115   0.541   2.834  0.1551 -1.0451 -0.1565
 1023SOL    HW1 3610   3.128   0.466   2.893  0.0216 -2.5086 -1.8973
 1023SOL    HW2 3611   3.199   0.588   2.837  1.0567 -2.5504 -0.7414
 1024SOL     OW 3612   5.915   1.742   5.127  0.2149 -0.3684 -0.4189
 1024SOL    HW1 3613   5.920   1.739   5.223  2.1670 -2.3681 -0.5126
 1024SOL    HW2 3614   6.004   1.722   5.098 -0.2039  0.7741 -2.6795
 1025SOL     OW 3615   2.279   1.188   3.949  0.5359  0.1432 -0.0928
 1025SOL    HW1 3616   2.229   1.267   3.928 -0.7842 -0.6577 -0.0514
 1025SOL    HW2 3617   2.343   1.181   3.878  2.3801  2.6086  1.2090
 1026SOL     OW 3618   3.475   0.079   4.955 -0.0823  0.1901  0.3633
 1026SOL    HW1 3619   3.568   0.064   4.971 -0.0617 -1.4280 -0.9447
 1026SOL    HW2 3620   3.434  -0.007   4.967 -1.1946  0.5863 -0.3545
 1027SOL     OW 3621   1.229   6.329   3.156  0.2611 -0.2667  0.0919
 1027SOL    HW1 3622   1.238   6.237   3.130  0.8476 -0.9065  2.3299
 1027SOL    HW2 3623   1.153   6.330   3.214  0.2874  0.6615  0.1287
 1028SOL     OW 3624   6.848   3.517   0.742  0.1721 -0.3250 -0.2952
 1028SOL    HW1 3625   6.869   3.435   0.698 -2.1718 -0.9151 -0.4915
 1028SOL    HW2 3626   6.899   3.583   0.697  2.5134 -1.6949  0.2003
 1029SOL     OW 3627   6.543   0.888   2.409  0.5503 -0.4108  0.3973
 1029SOL    HW1 3628   6.586   0.967   2.379  0.9944 -0.1487  1.6830
 1029SOL    HW2 3629   6.613   0.832   2.443  0.0984 -0.7851  0.7457
 1030SOL     OW 3630   1.883   3.841   4.518 -0.2009  0.0992 -0.2415
 1030SOL    HW1 3631   1.852   3.759   4.556  0.0958  0.2378  0.3037
 1030SOL    HW2 3632   1.807   3.878   4.474 -0.2630 -0.6152 -0.7556
 1031SOL     OW 3633   5.877   1.529   1.217  0.1216  0.0602 -0.0753
 1031SOL    HW1 3634   5.866   1.551   1.310 -0.5387  0.5658 -0.2641
 1031SOL    HW2 3635   5.929   1.449   1.217 -0.1291 -0.1107  0.7446
 1032SOL     OW 3636   1.714   3.945   6.313  0.3139 -0.2908  0.1628
 1032SOL    HW1 3637   1.641   3.904   6.360  1.6543 -1.4570  1.3117
 1032SOL    HW2 3638   1.774   3.972   6.383  0.2409  2.2176 -0.6547
 1033SOL     OW 3639   2.886   4.120   6.353 -0.1085 -0.1860 -0.3392
 1033SOL    HW1 3640   2.898   4.197   6.409  0.3612 -0.8095  0.4197
 1033SOL    HW2 3641   2.882   4.157   6.264 -2.5422  0.9853  0.1743
 1034SOL     OW 3642   6.889   6.092   4.942 -0.0811 -0.1233 -0.1915
 1034SOL    HW1 3643   6.852   6.109   4.855  0.7123  0.3615 -0.4424
 1034SOL    HW2 3644   6.840   6.017   4.974 -2.0181  1.1092 -0.0738
 1035SOL     OW 3645   5.992   1.985   4.728 -0.4739  0.1767 -0.0368
 1035SOL    HW1 3646   6.060   1.926   4.696 -0.1060 -0.1313  1.2915
 1035SOL    HW2 3647   5.940   1.932   4.788 -0.6148  0.9793  0.5641
 1036SOL     OW 3648   6.783   0.705   2.814  0.4279 -0.1513 -0.2806
 1036SOL    HW1 3649   6.857   0.711   2.752 -0.8200 -1.9749 -2.0842
 1036SOL    HW2 3650   6.776   0.611   2.834 -1.4014 -0.0314 -0.1874
 1037SOL     OW 3651   7.555   4.662   0.281  0.3719  0.4935 -0.8697
 1037SOL    HW1 3652   7.507   4.679   0.363 -1.7431  0.7730 -2.0890
 1037SOL    HW2 3653   7.632   4.718   0.286 -0.2681  1.3004  0.4858
 1038SOL     OW 3654   7.104   5.711   1.796  0.3973 -0.4469  0.1816
 1038SOL    HW1 3655   7.127   5.628   1.838 -1.2590  0.1449  2.4737
 1038SOL    HW2 3656   7.182   5.735   1.745  1.7128 -2.3299  1.1860
 1039SOL     OW 3657   2.526   2.531   5.837  0.2793  0.1570 -0.0868
 1039SOL    HW1 3658   2.475   2.513   5.916  1.2808 -0.8522  0.3588
 1039SOL    HW2 3659   2.617   2.523   5.865  0.7201  1.9534 -0.8546
 1040SOL     OW 3660   0.971   7.073   0.159  0.5705 -0.0606  0.1519
 1040SOL    HW1 3661   1.011   7.076   0.246  2.5861 -1.0012 -0.6969
 1040SOL    HW2 3662   1.010   7.146   0.112  2.1924 -1.6076 -1.0116
 1041SOL     OW 3663   7.105   5.281   7.324 -0.2681 -0.3922  0.4554
 1041SOL    HW1 3664   7.049   5.216   7.367 -0.6922 -1.7039 -1.8997
 1041SOL    HW2 3665   7.183   5.287   7.379 -1.2972 -0.9985  2.0426
 1042SOL     OW 3666   2.249   5.330   0.729  0.0294 -0.1471 -0.0783
 1042SOL    HW1 3667   2.306   5.261   0.695 -0.0897  0.4493 -1.5511
 1042SOL    HW2 3668   2.173   5.283   0.765  0.1505 -0.8031 -0.6655
 1043SOL     OW 3669   2.286   0.193   3.862  0.2837 -0.2198  0.2463
 1043SOL    HW1 3670   2.360   0.221   3.808 -0.3627  0.5429 -0.2611
 1043SOL    HW2 3671   2.216   0.255   3.841  0.0622  0.2036  2.1040
 1044SOL     OW 3672   4.515   2.304   2.942 -0.2133  0.0710 -0.5501
 1044SOL    HW1 3673   4.475   2.318   3.028  0.2355 -1.7044 -0.0117
 1044SOL    HW2 3674   4.454   2.344   2.880 -1.4463 -0.1939  0.4545
 1045SOL     OW 3675   5.511   5.504   6.925 -0.1835 -0.0665 -0.2198
 1045SOL    HW1 3676   5.446   5.568   6.957 -1.0979 -0.9873 -0.1849
 1045SOL    HW2 3677   5.585   5.558   6.898 -0.8145  1.0003  0.0769
 1046SOL     OW 3678   2.411   5.514   5.826  0.0845  0.4653 -0.0743
 1046SOL    HW1 3679   2.436   5.605   5.812  0.1574  0.3018 -1.1146
 1046SOL    HW2 3680   2.494   5.467   5.837  0.1572  0.2669 -1.3065
 1047SOL     OW 3681   0.278   4.581   2.626  0.3375 -0.1997  0.1544
 1047SOL    HW1 3682   0.367   4.576   2.659  0.9797  0.4091 -1.3856
 1047SOL    HW2 3683   0.275   4.664   2.578 -0.5467 -0.9755 -1.1886
 1048SOL     OW 3684   7.333   5.746   7.452 -0.1052  0.0101  0.0954
 1048SOL    HW1 3685   7.356   5.657   7.425 -1.0565 -0.0849 -0.4685
 1048SOL    HW2 3686   7.388   5.803   7.399 -0.0878 -0.2301 -0.1454
 1049SOL     OW 3687   5.356   1.482   3.720 -0.8913 -0.6617 -0.1824
 1049SOL    HW1 3688   5.363   1.400   3.670  0.9680 -0.0619 -0.9973
 1049SOL    HW2 3689   5.303   1.539   3.664  2.5927  0.6164 -2.5616
 1050SOL     OW 3690   1.635   6.568   5.909  0.2421 -0.2806  0.0651
 1050SOL    HW1 3691   1.663   6.524   5.829  1.4479 -1.4671  1.0963
 1050SOL    HW2 3692   1.702   6.546   5.974 -0.5580  0.8636  1.3491
 1051SOL     OW 3693   5.887   1.068   1.431 -0.3480  0.3325  0.0033
 1051SOL    HW1 3694   5.897   0.992   1.488  0.4264  0.4775  0.0763
 1051SOL    HW2 3695   5.977   1.095   1.412 -0.5848 -0.0390 -1.7511
 1052SOL     OW 3696   7.410   2.726   2.358  0.0860  0.0092 -0.7455
 1052SOL    HW1 3697   7.422   2.814   2.321 -0.1880  0.2063 -0.3710
 1052SOL    HW2 3698   7.315   2.717   2.368  0.0200 -0.7488 -1.7811
 1053SOL     OW 3699   7.346   1.647   2.544  0.4860  0.8091  0.0862
 1053SOL    HW1 3700   7.281   1.577   2.555 -0.9803  2.2839  1.5224
 1053SOL    HW2 3701   7.427   1.602   2.524 -0.7557 -1.1989 -0.7251
 1054SOL     OW 3702   0.128   3.818   0.190  0.1284  0.3266 -0.2452
 1054SOL    HW1 3703   0.177   3.895   0.161 -2.5491  1.9771 -0.7174
 1054SOL    HW2 3704   0.065   3.852   0.254 -0.2129 -1.7544  0.6212
 1055SOL     OW 3705   5.498   5.540   2.880  0.6386 -0.0060 -0.3605
 1055SOL    HW1 3706   5.451   5.515   2.960  0.4162 -0.5716 -0.6607
 1055SOL    HW2 3707   5.429   5.557   2.816  0.8253 -1.5025 -0.9994
 1056SOL     OW 3708   1.553   2.754   6.921  0.0318  0.4043 -0.2130
 1056SOL    HW1 3709   1.594   2.746   7.007  1.1463 -1.5808 -0.8778
 1056SOL    HW2 3710   1.602   2.824   6.877  1.6647 -0.7865 -0.3757
 1057SOL     OW 3711   2.198   7.265   6.260 -0.3267  0.5240  0.6909
 1057SOL    HW1 3712   2.106   7.241   6.268 -0.1599 -0.9941 -1.2332
 1057SOL    HW2 3713   2.198   7.337   6.196 -0.0673 -0.8343 -0.9029
 1058SOL     OW 3714   4.006   0.634   3.381  0.3592 -0.4377  0.2275
 1058SOL    HW1 3715   3.930   0.618   3.438  1.0875  1.4442  1.8397
 1058SOL    HW2 3716   4.003   0.728   3.363  2.4107 -0.2675  0.5213
 1059SOL     OW 3717   2.555   5.279   2.931  0.5045  0.3620  0.3197
 1059SOL    HW1 3718   2.556   5.261   3.025  0.9724 -2.9328 -0.2149
 1059SOL    HW2 3719   2.475   5.330   2.918 -1.5825 -2.1399  2.1112
 1060SOL     OW 3720   1.014   6.085   7.166 -0.4191  0.0784 -0.3490
 1060SOL    HW1 3721   1.058   6.163   7.200  1.2771 -1.3939  1.0564
 1060SOL    HW2 3722   0.930   6.083   7.211 -0.0761  0.5899  0.3290
 1061SOL     OW 3723   7.444   5.803   3.918  0.0826 -0.1454 -0.0209
 1061SOL    HW1 3724   7.495   5.881   3.939 -1.9426  1.3595 -0.3144
 1061SOL    HW2 3725   7.448   5.797   3.822 -0.5426  0.2024 -0.0774
 1062SOL     OW 3726   1.798   2.705   0.014  0.0570 -0.1044 -0.0736
 1062SOL    HW1 3727   1.757   2.628  -0.026  0.1611 -0.7442  0.9937
 1062SOL    HW2 3728   1.770   2.701   0.106  2.1176 -0.3240  0.6103
 1063SOL     OW 3729   3.082   3.937   1.383 -0.0462  0.4192 -0.4523
 1063SOL    HW1 3730   3.102   3.845   1.394 -3.9236 -0.6110 -0.7347
 1063SOL    HW2 3731   3.087   3.951   1.288  2.0709  1.0290 -0.3180
 1064SOL     OW 3732   1.961   4.407   2.549 -0.2566  0.1308  0.3601
 1064SOL    HW1 3733   1.896   4.428   2.483  0.9976  1.5056 -0.5065
 1064SOL    HW2 3734   1.917   4.424   2.632 -0.8399  1.6135 -0.2207
 1065SOL     OW 3735   4.473   5.227   1.021 -0.1168  0.3624  0.1571
 1065SOL    HW1 3736   4.469   5.133   1.040  0.1018  0.1768 -0.6490
 1065SOL    HW2 3737   4.394   5.244   0.971  0.5295  0.2908 -0.9386
 1066SOL     OW 3738   4.335   1.699   7.542  0.4487 -0.3678 -0.7935
 1066SOL    HW1 3739   4.281   1.688   7.463  0.6404 -2.7407 -0.6686
 1066SOL    HW2 3740   4.272   1.716   7.612  0.1412  0.0446 -1.1625
 1067SOL     OW 3741   2.230   6.142   2.206  0.5160 -0.0678  0.3197
 1067SOL    HW1 3742   2.247   6.185   2.123 -1.1493  1.3227  0.6541
 1067SOL    HW2 3743   2.172   6.070   2.184 -1.9974  1.7812  0.4958
 1068SOL     OW 3744   6.812   2.634   6.552  0.4821  0.7479  0.1433
 1068SOL    HW1 3745   6.743   2.575   6.521  0.4907  0.1497  1.2130
 1068SOL    HW2 3746   6.765   2.714   6.577  0.6666  1.9606 -3.0197
 1069SOL     OW 3747   1.566   4.639   2.308  0.5408  0.4705 -0.2997
 1069SOL    HW1 3748   1.499   4.702   2.283  0.2630  0.1589 -0.3547
 1069SOL    HW2 3749   1.526   4.589   2.380  1.0555  0.8793  0.2856
 1070SOL     OW 3750   1.045   5.849   3.609  0.6184  0.4196  0.1181
 1070SOL    HW1 3751   1.020   5.808   3.692  2.2812 -0.7457  0.0862
 1070SOL    HW2 3752   0.991   5.804   3.544  0.2424  0.4207  0.4223
 1071SOL     OW 3753   0.865   0.697   2.537 -0.1408 -0.6213  0.6622
 1071SOL    HW1 3754   0.857   0.602   2.539 -0.4363 -0.6555 -0.7042
 1071SOL    HW2 3755   0.953   0.713   2.503 -0.8664 -0.4746 -1.3028
 1072SOL     OW 3756   3.006   5.729   3.813  0.6146 -0.0688 -0.2244
 1072SOL    HW1 3757   2.939   5.662   3.825 -0.1567  0.8489  0.8069
 1072SOL    HW2 3758   3.086   5.691   3.849 -0.0318 -0.1006  1.2388
 1073SOL     OW 3759   3.508   6.084   2.793 -0.1097  0.2531 -0.0691
 1073SOL    HW1 3760   3.494   6.069   2.700 -0.2673  0.9506 -0.1636
 1073SOL    HW2 3761   3.522   6.179   2.800  2.0047 -0.0236  0.3279
 1074SOL     OW 3762   5.504   3.330   4.589  0.7343 -0.0062  0.0956
 1074SOL    HW1 3763   5.418   3.341   4.548  0.8725  0.7723  0.0161
 1074SOL    HW2 3764   5.509   3.400   4.654  0.2203 -1.6161  1.9804
 1075SOL     OW 3765   4.565   6.308   7.613  0.3219  0.1370 -0.0630
 1075SOL    HW1 3766   4.601   6.389   7.577 -0.4111  0.7756  0.6129
 1075SOL    HW2 3767   4.478   6.301   7.574  0.6416 -0.7021 -0.6556
 1076SOL     OW 3768   4.278   1.289   4.056  0.2782 -0.1719 -0.2524
 1076SOL    HW1 3769   4.323   1.291   4.140  0.3110  1.0152 -0.2802
 1076SOL    HW2 3770   4.205   1.228   4.069 -0.1489  0.5487  0.8728
 1077SOL     OW 3771   5.460   7.305   5.708 -0.1304  0.0353  0.1029
 1077SOL    HW1 3772   5.508   7.298   5.625 -2.3146 -0.4077 -1.2021
 1077SOL    HW2 3773   5.376   7.344   5.684 -1.7336 -2.1837  1.7116
 1078SOL     OW 3774   0.088   3.927   2.320 -0.3509 -0.2871  0.3484
 1078SOL    HW1 3775   0.147   3.945   2.393  2.6418 -2.6431 -1.2207
 1078SOL    HW2 3776   0.127   3.974   2.246 -0.3697 -1.9252 -0.7525
 1079SOL     OW 3777   6.378   7.471   3.277 -0.2084  0.2140 -0.1809
 1079SOL    HW1 3778   6.468   7.458   3.308 -0.0542  1.2846 -0.1143
 1079SOL    HW2 3779   6.385   7.541   3.212 -0.9538  0.0809 -0.4187
 1080SOL     OW 3780   5.592   2.680   1.092 -0.9722  0.6303  0.1149
 1080SOL    HW1 3781   5.668   2.691   1.149 -0.4180  0.3673 -0.5585
 1080SOL    HW2 3782   5.568   2.588   1.101 -1.3767  0.7734  0.5255
 1081SOL     OW 3783   1.535   6.324   6.260 -0.3417  0.2444 -0.1487
 1081SOL    HW1 3784   1.479   6.285   6.328 -0.8026  1.6028  0.2813
 1081SOL    HW2 3785   1.612   6.355   6.307  0.0214 -0.1325 -0.4884
 1082SOL     OW 3786   0.008   4.053   1.684  0.1595  0.8616 -0.5172
 1082SOL    HW1 3787   0.098   4.085   1.676  1.0580 -1.4979 -0.6736
 1082SOL    HW2 3788  -0.000   4.027   1.775 -0.3545  0.9940 -0.5240
 1083SOL     OW 3789   6.558   3.304   4.089  0.5015 -0.1603 -0.1273
 1083SOL    HW1 3790   6.628   3.367   4.103  1.9199 -1.6001 -0.3669
 1083SOL    HW2 3791   6.604   3.221   4.073 -1.2737 -1.4049  0.8809
 1084SOL     OW 3792   4.150   0.840   3.714 -0.2771 -0.1291  0.1818
 1084SOL    HW1 3793   4.215   0.884   3.659  0.4692  0.6556  1.6478
 1084SOL    HW2 3794   4.202   0.783   3.771 -0.9328 -0.0644  0.8538
 1085SOL     OW 3795   5.307   2.809   5.506  0.0396  0.4025  0.1691
 1085SOL    HW1 3796   5.335   2.722   5.534  0.1930  0.8609  1.5318
 1085SOL    HW2 3797   5.384   2.848   5.465  0.4930  0.5013  1.0845
 1086SOL     OW 3798   4.945   4.295   6.676  0.2310  0.1799 -0.1121
 1086SOL    HW1 3799   5.013   4.276   6.612 -0.3721 -0.7571 -0.4941
 1086SOL    HW2 3800   4.871   4.328   6.625  0.8509  2.6256  0.4304
 1087SOL     OW 3801   3.505   7.296   6.644  0.0687 -0.5194  0.8513
 1087SOL    HW1 3802   3.452   7.347   6.706  0.4163 -0.1273  0.8306
 1087SOL    HW2 3803   3.444   7.232   6.607 -0.7026  0.6787 -0.0408
 1088SOL     OW 3804   4.922   0.798   4.911  0.0218  0.5588 -0.4379
 1088SOL    HW1 3805   4.940   0.764   4.998  0.8014  0.5523 -0.5976
 1088SOL    HW2 3806   4.875   0.727   4.867  2.0199 -0.5343 -0.9193
 1089SOL     OW 3807   7.343   0.160   3.711  0.0104 -0.3772  0.1880
 1089SOL    HW1 3808   7.323   0.230   3.774  0.9140  0.4320 -0.4117
 1089SOL    HW2 3809   7.436   0.143   3.723  0.3847  0.3227 -1.4387
 1090SOL     OW 3810   2.800   7.191   0.357 -0.1262  0.2550  0.3746
 1090SOL    HW1 3811   2.750   7.110   0.350  0.6173 -0.0740 -1.6425
 1090SOL    HW2 3812   2.848   7.198   0.274 -1.1550  3.4062 -0.1065
 1091SOL     OW 3813   4.870   4.385   0.719 -0.3790  0.2635 -0.1249
 1091SOL    HW1 3814   4.861   4.308   0.663  0.6243  1.4340 -2.0085
 1091SOL    HW2 3815   4.941   4.435   0.679 -0.7515  1.9925  1.2701
 1092SOL     OW 3816   2.498   6.466   2.401  0.0272  0.4476  0.3266
 1092SOL    HW1 3817   2.483   6.556   2.372  0.2596  0.7122  1.0046
 1092SOL    HW2 3818   2.411   6.429   2.412 -0.1013  1.0322  1.3774
 1093SOL     OW 3819   2.298   6.724   1.725 -0.7915  0.1689  0.7694
 1093SOL    HW1 3820   2.312   6.805   1.773  1.2631  1.7471 -2.1656
 1093SOL    HW2 3821   2.385   6.698   1.696 -1.8009 -0.8575 -1.6670
 1094SOL     OW 3822   2.111   2.050   2.696  0.1508 -0.1736  0.0278
 1094SOL    HW1 3823   2.053   2.016   2.628  0.8113 -0.4531 -0.4169
 1094SOL    HW2 3824   2.065   2.125   2.733 -0.5736 -0.5124 -0.1707
 1095SOL     OW 3825   0.503   4.090   0.487  0.2909  0.3288  0.1748
 1095SOL    HW1 3826   0.560   4.021   0.454  0.4033  0.3766  0.2701
 1095SOL    HW2 3827   0.479   4.140   0.409 -0.8201 -0.5761 -0.0919
 1096SOL     OW 3828   0.069   2.051   0.596  0.6473 -0.1248 -0.4395
 1096SOL    HW1 3829   0.053   1.959   0.578 -1.8285  0.5577 -2.3375
 1096SOL    HW2 3830   0.071   2.093   0.509 -2.0571  2.0415  0.3647
 1097SOL     OW 3831   3.351   3.424   1.543  0.4335  0.7776 -0.2293
 1097SOL    HW1 3832   3.383   3.396   1.457  1.7672  0.6988  0.2601
 1097SOL    HW2 3833   3.320   3.344   1.585  0.9994  0.5916 -0.1551
 1098SOL     OW 3834   1.509   3.712   5.978  0.4915 -0.1187 -0.6424
 1098SOL    HW1 3835   1.535   3.733   5.888  0.7435 -1.2487 -0.8520
 1098SOL    HW2 3836   1.491   3.797   6.018  0.0645  0.3874 -1.8538
 1099SOL     OW 3837   1.994   4.181   6.067  0.3885  0.0620 -0.3607
 1099SOL    HW1 3838   1.959   4.221   6.146  0.9894  0.6550 -0.3805
 1099SOL    HW2 3839   2.078   4.143   6.094  1.5487  1.9689 -1.1025
 1100SOL     OW 3840   6.099   0.929   5.522 -0.4887  0.0722 -0.3155
 1100SOL    HW1 3841   6.158   0.998   5.494 -0.3577  0.5700  1.1218
 1100SOL    HW2 3842   6.118   0.916   5.614 -2.3629 -0.0098  0.1057
 1101SOL     OW 3843   7.062   1.754   4.340 -0.4599  0.0633 -0.0064
 1101SOL    HW1 3844   7.082   1.691   4.409 -0.0733  1.0678  0.8195
 1101SOL    HW2 3845   7.139   1.754   4.284  0.0196  0.6412  0.6457
 1102SOL     OW 3846   3.000   2.638   4.140 -0.2479  0.3401 -0.1753
 1102SOL    HW1 3847   2.975   2.650   4.232 -1.0463  0.8129 -0.4441
 1102SOL    HW2 3848   2.950   2.562   4.111  0.1095  0.1065 -0.1844
 1103SOL     OW 3849   5.025   5.247   2.184 -0.1059  0.3189  0.2072
 1103SOL    HW1 3850   5.039   5.325   2.237  2.1729 -0.6187  1.1169
 1103SOL    HW2 3851   5.069   5.266   2.101  0.4160  0.0541  0.4148
 1104SOL     OW 3852   0.021   5.121   6.741 -0.0940  0.3092  0.0227
 1104SOL    HW1 3853   0.114   5.134   6.721  0.2817 -1.0068  0.7685
 1104SOL    HW2 3854  -0.021   5.202   6.713  1.0241  0.3159 -1.8287
 1105SOL     OW 3855   1.094   2.757   4.366  0.0568  0.2716  0.0686
 1105SOL    HW1 3856   1.086   2.832   4.425 -1.0456 -0.2802  0.6343
 1105SOL    HW2 3857   1.176   2.774   4.319  0.4201  1.2548  0.9903
 1106SOL     OW 3858   3.202   7.316   1.178 -0.4373  0.1947 -0.3771
 1106SOL    HW1 3859   3.164   7.293   1.093 -0.2278  1.0603 -0.7178
 1106SOL    HW2 3860   3.257   7.392   1.159 -1.0751  0.9437  0.6931
 1107SOL     OW 3861   4.615   6.245   1.867 -0.3728 -0.1059 -0.2105
 1107SOL    HW1 3862   4.681   6.283   1.810  0.3215  1.5493  1.5745
 1107SOL    HW2 3863   4.640   6.153   1.876  2.7491  0.8043  1.6974
 1108SOL     OW 3864   4.587   2.809   3.218 -0.1698  0.2266  0.8845
 1108SOL    HW1 3865   4.559   2.892   3.259 -0.8533  1.0321 -1.0878
 1108SOL    HW2 3866   4.679   2.802   3.241  0.1551  2.0503  0.3481
 1109SOL     OW 3867   6.142   6.207   5.043 -0.4723  0.2714  0.1924
 1109SOL    HW1 3868   6.228   6.193   5.004 -0.9941 -1.9630 -0.2758
 1109SOL    HW2 3869   6.145   6.162   5.128 -0.4939  2.1023  1.2245
 1110SOL     OW 3870   3.134   7.094   1.371 -0.0433  0.0357  0.0947
 1110SOL    HW1 3871   3.136   7.028   1.301  1.3031 -1.1714  1.2121
 1110SOL    HW2 3872   3.163   7.175   1.329 -0.4745 -0.3689 -1.0145
 1111SOL     OW 3873   5.536   3.411   5.159 -0.0602 -0.2760  0.3274
 1111SOL    HW1 3874   5.446   3.380   5.158 -1.2846  2.8283  1.6741
 1111SOL    HW2 3875   5.535   3.489   5.103  1.7478 -0.1140  0.4689
 1112SOL     OW 3876   0.979   3.382   1.822  0.3480  0.9209  0.0633
 1112SOL    HW1 3877   0.972   3.356   1.914  0.9745 -0.5036 -0.2554
 1112SOL    HW2 3878   0.995   3.476   1.824 -0.7591  1.1133  1.3640
 1113SOL     OW 3879   0.662   1.138   7.547  0.2170  0.7083 -0.1796
 1113SOL    HW1 3880   0.609   1.112   7.622  2.6449 -0.9902  1.0873
 1113SOL    HW2 3881   0.610   1.112   7.471 -0.5101 -1.5556  0.9844
 1114SOL     OW 3882   5.941   7.137   2.993 -0.6921  0.9419 -0.0486
 1114SOL    HW1 3883   5.911   7.200   3.059 -2.0391  1.5476 -1.1747
 1114SOL    HW2 3884   5.969   7.192   2.920  0.5480  0.2710 -0.1014
 1115SOL     OW 3885   3.826   2.042   1.819 -0.2188  0.4141  0.3091
 1115SOL    HW1 3886   3.774   2.036   1.899 -0.8881 -1.1597 -0.2024
 1115SOL    HW2 3887   3.913   2.069   1.848 -0.3482 -0.5036  1.6276
 1116SOL     OW 3888   3.333   1.454   0.188  0.2886  0.5829  0.3074
 1116SOL    HW1 3889   3.241   1.431   0.202  0.4302 -0.1749  0.0157
 1116SOL    HW2 3890   3.381   1.403   0.253  0.5545  0.5353  0.0748
 1117SOL     OW 3891   0.146   2.775   5.274  0.0386 -0.5107 -0.2764
 1117SOL    HW1 3892   0.187   2.789   5.359 -1.9033  3.4084  0.2461
 1117SOL    HW2 3893   0.183   2.844   5.218 -2.2124  0.0783 -1.1337
 1118SOL     OW 3894   3.200   2.211   6.116  0.0716 -0.4994  0.4052
 1118SOL    HW1 3895   3.272   2.263   6.154  0.0993  0.2290 -0.5974
 1118SOL    HW2 3896   3.242   2.130   6.088  0.7385  0.2928 -1.0191
 1119SOL     OW 3897   3.688   5.135   3.790 -0.2107  0.3207 -0.0702
 1119SOL    HW1 3898   3.748   5.174   3.853 -0.3306  1.7369 -0.7962
 1119SOL    HW2 3899   3.667   5.049   3.827 -0.6914  1.3053  2.0924
 1120SOL     OW 3900   7.562   4.186   0.845 -0.1683  0.7601  0.5412
 1120SOL    HW1 3901   7.607   4.127   0.904 -2.1038 -1.2787  0.1000
 1120SOL    HW2 3902   7.479   4.206   0.888 -0.0297  2.3147  0.1748
 1121SOL     OW 3903   2.871   0.008   4.755 -0.3227  0.5682  0.0902
 1121SOL    HW1 3904   2.819   0.088   4.745 -0.1838  0.8066  1.1379
 1121SOL    HW2 3905   2.945   0.035   4.810 -0.0929 -0.1984  0.1607
 1122SOL     OW 3906   2.852   0.712   1.365 -0.4478  0.1224 -0.2394
 1122SOL    HW1 3907   2.801   0.659   1.303 -0.2533  0.3930 -0.6370
 1122SOL    HW2 3908   2.908   0.649   1.410 -1.3405 -0.2207  0.4151
 1123SOL     OW 3909   4.991   5.834   5.381 -0.3578  0.1192  0.4342
 1123SOL    HW1 3910   5.027   5.881   5.455 -0.5769 -0.2037  0.7491
 1123SOL    HW2 3911   4.972   5.746   5.415  0.9077 -0.5053 -0.3696
 1124SOL     OW 3912   6.128   2.935   2.450  0.2475 -0.0881  0.0351
 1124SOL    HW1 3913   6.036   2.924   2.426  0.3395 -0.0032 -0.3481
 1124SOL    HW2 3914   6.145   2.864   2.512 -0.3100  0.3975  0.7678
 1125SOL     OW 3915   7.414   5.957   6.540  0.1565 -0.3551  0.0033
 1125SOL    HW1 3916   7.429   6.025   6.474  3.2192  0.0186  0.9331
 1125SOL    HW2 3917   7.494   5.904   6.538 -1.6239 -3.2982  0.1489
 1126SOL     OW 3918   3.517   5.100   0.501 -0.0183  0.7723 -0.5838
 1126SOL    HW1 3919   3.512   5.142   0.587  0.1243  0.3661 -0.3731
 1126SOL    HW2 3920   3.504   5.171   0.438  0.3778  1.1546 -0.2371
 1127SOL     OW 3921   2.634   0.843   4.016 -0.1204 -0.0336 -0.3225
 1127SOL    HW1 3922   2.609   0.876   4.102 -1.8184  1.8974 -1.4812
 1127SOL    HW2 3923   2.706   0.782   4.034  0.5794  1.4109  2.3032
 1128SOL     OW 3924   1.967   5.188   1.754 -0.3382  0.5682 -0.4696
 1128SOL    HW1 3925   2.053   5.148   1.741 -0.5908  0.1780 -0.9819
 1128SOL    HW2 3926   1.907   5.114   1.763 -0.5400  0.8338  0.5008
 1129SOL     OW 3927   2.464   5.354   6.492  0.1084  0.6592 -0.6638
 1129SOL    HW1 3928   2.414   5.400   6.559 -1.4840 -2.3437  0.4016
 1129SOL    HW2 3929   2.406   5.350   6.416 -0.1833 -0.3918 -0.3996
 1130SOL     OW 3930   1.492   3.426   6.960 -0.6668  0.4184  0.6366
 1130SOL    HW1 3931   1.459   3.471   6.882  1.4478 -0.9601 -1.1865
 1130SOL    HW2 3932   1.573   3.473   6.981  0.0681 -0.7057  0.4352
 1131SOL     OW 3933   1.797   0.820   3.435  0.1389 -0.4286 -0.5147
 1131SOL    HW1 3934   1.797   0.904   3.482  0.6666 -0.4617 -0.4513
 1131SOL    HW2 3935   1.839   0.759   3.495  2.2612 -0.1368 -1.6088
 1132SOL     OW 3936   3.687   2.412   4.581  0.0798 -0.1093 -0.3087
 1132SOL    HW1 3937   3.725   2.413   4.669  0.1466  0.7517 -0.3408
 1132SOL    HW2 3938   3.733   2.341   4.536  0.3042 -0.3147  0.2330
 1133SOL     OW 3939   5.600   1.277   5.417  0.2342  0.1300  0.3940
 1133SOL    HW1 3940   5.599   1.211   5.347  0.5148  1.5675 -1.0179
 1133SOL    HW2 3941   5.510   1.310   5.420  0.5419  1.0438 -0.2585
 1134SOL     OW 3942   4.879   6.091   6.362 -0.1056 -0.0453  0.2204
 1134SOL    HW1 3943   4.802   6.037   6.342  0.1244 -0.0427 -0.7646
 1134SOL    HW2 3944   4.843   6.171   6.399 -0.5255 -0.3881  0.5655
 1135SOL     OW 3945   1.593   3.225   5.575  0.1740 -0.0069 -0.2951
 1135SOL    HW1 3946   1.676   3.179   5.564  0.2360  0.1494 -0.4912
 1135SOL    HW2 3947   1.613   3.298   5.634  0.1700  0.0148 -0.3206
 1136SOL     OW 3948   2.761   4.926   6.032 -0.0720  0.2721  0.5894
 1136SOL    HW1 3949   2.693   4.929   5.965  1.5327 -0.9115 -1.1965
 1136SOL    HW2 3950   2.767   4.834   6.056 -1.0428  0.7328  2.9246
 1137SOL     OW 3951   3.016   0.853   2.674 -0.2799  0.1151 -0.1057
 1137SOL    HW1 3952   2.932   0.809   2.688  0.0263  0.1814  2.2310
 1137SOL    HW2 3953   3.071   0.787   2.632 -1.7175  0.3692 -2.6299
 1138SOL     OW 3954   5.494   5.990   2.764 -0.0127 -0.0935  0.3427
 1138SOL    HW1 3955   5.523   5.936   2.837  2.8364  0.6291 -0.1268
 1138SOL    HW2 3956   5.495   6.079   2.798  0.0916  0.1147 -0.1893
 1139SOL     OW 3957   5.572   7.018   7.037 -0.6249  0.0284 -0.2543
 1139SOL    HW1 3958   5.642   7.067   7.081 -0.9052  0.8452 -0.6841
 1139SOL    HW2 3959   5.603   6.928   7.034  0.0673  0.2442  0.2440
 1140SOL     OW 3960   2.474   3.504   2.226 -0.4425  0.2360  0.6117
 1140SOL    HW1 3961   2.398   3.561   2.234 -0.0740  0.6525  1.1796
 1140SOL    HW2 3962   2.478   3.457   2.310 -0.6934 -0.5664  0.1827
 1141SOL     OW 3963   1.851   6.188   2.786 -0.3807 -0.4911  0.8172
 1141SOL    HW1 3964   1.812   6.193   2.873  1.0285 -0.0599  1.4532
 1141SOL    HW2 3965   1.862   6.279   2.759  0.0734 -0.5982  0.6174
 1142SOL     OW 3966   0.458   5.145   1.092 -0.5024  0.2000  0.2523
 1142SOL    HW1 3967   0.404   5.219   1.121 -1.2874 -0.3705  0.2680
 1142SOL    HW2 3968   0.498   5.112   1.173 -3.7011 -2.2160  1.1042
 1143SOL     OW 3969   6.419   6.284   1.244  0.5352 -0.2752  0.2225
 1143SOL    HW1 3970   6.417   6.367   1.198  1.0228 -1.7378 -2.6355
 1143SOL    HW2 3971   6.351   6.292   1.311  0.0417  2.1092 -0.4923
 1144SOL     OW 3972   4.860   6.608   3.749 -0.7097 -0.0874 -0.2126
 1144SOL    HW1 3973   4.928   6.673   3.733 -0.5480 -0.0105  0.7373
 1144SOL    HW2 3974   4.828   6.628   3.838 -0.4120 -1.5151  0.2387
 1145SOL     OW 3975   0.890   1.424   3.006 -0.0061  0.3490 -0.3245
 1145SOL    HW1 3976   0.884   1.466   2.921 -2.7613  0.0225 -0.3929
 1145SOL    HW2 3977   0.908   1.496   3.067  1.2469  0.6902 -1.0812
 1146SOL     OW 3978   1.776   6.354   5.097  0.1123  0.6173 -0.2579
 1146SOL    HW1 3979   1.777   6.446   5.124  0.6344  1.5789 -3.1876
 1146SOL    HW2 3980   1.684   6.330   5.098 -0.3069  1.9562 -1.6300
 1147SOL     OW 3981   6.005   3.488   6.611 -0.2776 -0.2470 -0.1498
 1147SOL    HW1 3982   5.957   3.559   6.568 -0.0556  0.2744  0.4483
 1147SOL    HW2 3983   6.094   3.494   6.576  0.1529  0.7811  1.0547
 1148SOL     OW 3984   0.917   2.277   4.614  0.1644  0.1728 -0.2890
 1148SOL    HW1 3985   0.970   2.197   4.606  0.2073  0.0640  0.8714
 1148SOL    HW2 3986   0.954   2.337   4.549  1.6112  0.0288  0.3506
 1149SOL     OW 3987   5.368   3.870   2.938 -0.0885 -0.1166  0.0669
 1149SOL    HW1 3988   5.328   3.934   2.997 -0.1990 -0.2193  0.1039
 1149SOL    HW2 3989   5.363   3.911   2.851 -0.1069 -0.0506  0.0991
 1150SOL     OW 3990   6.463   3.704   0.464 -0.2033 -0.0511 -0.3150
 1150SOL    HW1 3991   6.500   3.639   0.523  0.2464  1.1615  0.7892
 1150SOL    HW2 3992   6.391   3.743   0.514 -0.6369  0.1218 -1.0571
 1151SOL     OW 3993   0.488   1.230   5.398  0.2089 -0.1892  0.4154
 1151SOL    HW1 3994   0.414   1.186   5.356 -0.3399  0.1677  0.9870
 1151SOL    HW2 3995   0.562   1.216   5.338 -0.1015 -1.3398  0.2941
 1152SOL     OW 3996   0.322   6.874   1.290  0.4278  0.0590 -0.7335
 1152SOL    HW1 3997   0.382   6.800   1.286 -0.5977 -0.7944 -0.6302
 1152SOL    HW2 3998   0.335   6.920   1.207  2.0660  0.5867 -0.2283
 1153SOL     OW 3999   1.398   4.546   4.018 -0.5078  0.2609  0.3813
 1153SOL    HW1 4000   1.493   4.545   4.032 -0.3304  1.4579 -0.6098
 1153SOL    HW2 4001   1.362   4.573   4.102  0.0619  0.3997  0.5880
 1154SOL     OW 4002   7.419   6.750   5.527  0.3044  0.1689 -0.1987
 1154SOL    HW1 4003   7.367   6.685   5.574  1.6694 -1.0906 -0.3366
 1154SOL    HW2 4004   7.357   6.818   5.502 -1.6290 -2.0479 -1.8258
 1155SOL     OW 4005   0.299   6.525   4.564 -0.2953  0.6278 -0.2418
 1155SOL    HW1 4006   0.325   6.616   4.553 -1.8363  1.2862  1.2280
 1155SOL    HW2 4007   0.337   6.498   4.648  1.2943 -0.5560 -1.2800
 1156SOL     OW 4008   1.339   3.687   0.970  0.2743  0.3581 -0.0561
 1156SOL    HW1 4009   1.294   3.630   1.032 -0.5813  2.4510  1.3817
 1156SOL    HW2 4010   1.419   3.714   1.015 -0.5859  2.2849  0.4331
 1157SOL     OW 4011   1.515   1.547   5.895 -0.3029  0.0108  0.1949
 1157SOL    HW1 4012   1.509   1.517   5.805  0.1138 -1.2055  0.5520
 1157SOL    HW2 4013   1.511   1.642   5.889  0.0304 -0.0371 -1.1304
 1158SOL     OW 4014   0.066   5.023   4.636  0.0070 -0.2137  0.4895
 1158SOL    HW1 4015   0.124   5.008   4.711 -0.6321 -1.4317  0.7596
 1158SOL    HW2 4016   0.045   4.936   4.604  0.6458  0.2831 -1.4201
 1159SOL     OW 4017   5.871   1.024   2.593  0.1370 -0.2208 -0.0707
 1159SOL    HW1 4018   5.877   0.944   2.542 -1.3329 -1.1262  1.0958
 1159SOL    HW2 4019   5.830   0.997   2.675  1.5271  1.3449  1.2178
 1160SOL     OW 4020   5.031   2.907   6.195  0.5018  0.0892  0.3452
 1160SOL    HW1 4021   4.942   2.872   6.199 -0.8288  3.0961 -0.3704
 1160SOL    HW2 4022   5.032   2.976   6.261  3.0972 -1.2946  1.9290
 1161SOL     OW 4023   5.765   4.405   1.415 -0.3575 -0.2717 -0.1259
 1161SOL    HW1 4024   5.826   4.443   1.478 -0.4538 -2.1690  1.1919
 1161SOL    HW2 4025   5.679   4.414   1.457 -0.7769  0.7509 -1.1619
 1162SOL     OW 4026   5.815   0.153   3.310  0.5171  0.0641  0.5878
 1162SOL    HW1 4027   5.804   0.076   3.367  0.3210 -0.3453  0.0156
 1162SOL    HW2 4028   5.804   0.228   3.368 -0.5071 -0.3450  0.9488
 1163SOL     OW 4029   3.012   1.092   6.713  0.4054  0.0943 -0.0242
 1163SOL    HW1 4030   2.973   1.144   6.642 -0.2836 -0.2126  0.1227
 1163SOL    HW2 4031   2.979   1.133   6.793  0.9623  0.2697  0.1185
 1164SOL     OW 4032   2.042   5.550   2.335 -0.3728  0.7546  0.1010
 1164SOL    HW1 4033   2.048   5.570   2.241 -2.2897 -0.5470 -0.3753
 1164SOL    HW2 4034   2.118   5.496   2.353 -0.4992  0.1853 -0.9756
 1165SOL     OW 4035   7.412   5.503   0.720 -0.1503 -0.4117 -0.2537
 1165SOL    HW1 4036   7.443   5.579   0.670  1.1586 -1.8475 -1.7791
 1165SOL    HW2 4037   7.332   5.476   0.675  0.4696 -1.0867 -0.9914
 1166SOL     OW 4038   3.991   2.378   3.601 -0.2117 -0.2960 -0.4533
 1166SOL    HW1 4039   3.974   2.399   3.693  2.2598 -1.9773  0.5081
 1166SOL    HW2 4040   3.946   2.294   3.587 -0.6906  0.0180 -0.8618
 1167SOL     OW 4041   6.053   2.486   1.190  0.1946  0.1216  0.2396
 1167SOL    HW1 4042   6.077   2.559   1.246  0.7364 -0.6662  1.0769
 1167SOL    HW2 4043   6.136   2.440   1.173 -0.3856 -1.5103  1.5260
 1168SOL     OW 4044   5.431   0.663   4.558  0.0402  0.3450  0.4009
 1168SOL    HW1 4045   5.517   0.685   4.523 -0.0857  1.5614  0.8200
 1168SOL    HW2 4046   5.405   0.740   4.609 -2.1353  0.7946 -1.2374
 1169SOL     OW 4047   6.320   5.128   1.688 -0.0097 -0.3445 -0.5947
 1169SOL    HW1 4048   6.381   5.133   1.614  1.0559 -0.2204  0.2693
 1169SOL    HW2 4049   6.353   5.191   1.752 -1.3123  0.0605 -0.2738
 1170SOL     OW 4050   5.937   6.127   5.469  0.1800 -0.6722 -0.0159
 1170SOL    HW1 4051   5.888   6.209   5.468 -0.6164 -1.1404 -0.1586
 1170SOL    HW2 4052   5.932   6.095   5.379 -0.3160 -1.3338  0.2341
 1171SOL     OW 4053   4.294   5.664   2.605  0.0873  0.7990 -0.2929
 1171SOL    HW1 4054   4.267   5.579   2.570 -0.3888  0.0222  1.8383
 1171SOL    HW2 4055   4.218   5.720   2.592  0.3144  0.8698 -1.4773
 1172SOL     OW 4056   0.978   0.606   1.213 -0.5138 -0.5568  0.4723
 1172SOL    HW1 4057   1.050   0.664   1.237  0.0060 -0.6127 -0.8622
 1172SOL    HW2 4058   1.004   0.520   1.246  0.6219 -0.8197 -0.9908
 1173SOL     OW 4059   7.097   4.370   5.615  0.2412 -0.0034 -0.1289
 1173SOL    HW1 4060   7.183   4.391   5.650 -0.7887  0.5189  2.3044
 1173SOL    HW2 4061   7.065   4.453   5.579  1.7027 -0.7482 -3.5575
 1174SOL     OW 4062   2.371   4.074   3.666 -0.2603  0.0245  0.3497
 1174SOL    HW1 4063   2.306   4.137   3.637 -1.1366 -0.3261  1.4825
 1174SOL    HW2 4064   2.453   4.123   3.669 -0.6168  0.6727 -0.3361
 1175SOL     OW 4065   0.462   6.344   2.221 -0.0706 -0.0920 -0.1134
 1175SOL    HW1 4066   0.392   6.388   2.268 -0.4223 -0.7172 -0.0480
 1175SOL    HW2 4067   0.474   6.261   2.267  2.6978  1.1685  1.7270
 1176SOL     OW 4068   5.203   6.518   5.844 -0.0141  0.0972 -0.0310
 1176SOL    HW1 4069   5.214   6.613   5.833  0.5069 -0.0655 -0.9890
 1176SOL    HW2 4070   5.201   6.484   5.755  1.7693 -1.0092  0.3173
 1177SOL     OW 4071   1.809   5.278   7.499 -0.4427  0.0239 -0.1928
 1177SOL    HW1 4072   1.901   5.301   7.486 -0.4532  0.2093  0.0573
 1177SOL    HW2 4073   1.761   5.354   7.464 -0.5182 -0.3147 -0.8512
 1178SOL     OW 4074   1.245   7.564   7.564 -0.2478  0.4029  0.5333
 1178SOL    HW1 4075   1.337   7.541   7.555  0.1718  2.7698 -2.5410
 1178SOL    HW2 4076   1.199   7.479   7.561  1.6851 -0.6894  0.4079
 1179SOL     OW 4077   5.892   4.639   7.330  0.0258  0.3561  0.8144
 1179SOL    HW1 4078   5.900   4.691   7.250  1.6773  3.1379  2.6261
 1179SOL    HW2 4079   5.798   4.641   7.350 -0.3033  0.2722 -0.6238
 1180SOL     OW 4080   0.525   2.357   5.057  0.2385  0.0391 -0.1725
 1180SOL    HW1 4081   0.595   2.369   5.122  0.0712  1.6411 -0.2600
 1180SOL    HW2 4082   0.445   2.350   5.108 -0.1193  2.9264 -0.1552
 1181SOL     OW 4083   1.390   3.944   7.313 -0.3606 -0.4432 -0.7189
 1181SOL    HW1 4084   1.391   3.856   7.275  0.3314 -0.3883 -0.8298
 1181SOL    HW2 4085   1.468   3.948   7.368  0.5421  0.6544 -2.0037
 1182SOL     OW 4086   4.734   0.306   4.701 -0.7871 -0.9303  0.1191
 1182SOL    HW1 4087   4.747   0.254   4.622 -2.8783  1.2333 -1.8588
 1182SOL    HW2 4088   4.667   0.259   4.750 -0.8074 -1.3919 -0.3445
 1183SOL     OW 4089   0.250   0.158   6.988  0.2664  0.2849 -0.0899
 1183SOL    HW1 4090   0.161   0.129   7.004 -0.8041  3.3336  0.0470
 1183SOL    HW2 4091   0.241   0.243   6.944  3.0277  1.6949  1.7239
 1184SOL     OW 4092   1.455   6.615   4.974 -0.7799 -0.7074  1.0000
 1184SOL    HW1 4093   1.376   6.594   5.023 -2.7156 -0.1056 -1.6121
 1184SOL    HW2 4094   1.472   6.536   4.923 -0.8513 -0.1868  0.1522
 1185SOL     OW 4095   4.730   3.192   7.245 -0.2301  0.5860  0.2277
 1185SOL    HW1 4096   4.783   3.113   7.257  0.4926  1.3152  2.2612
 1185SOL    HW2 4097   4.679   3.174   7.167  3.5105  0.0942 -2.3875
 1186SOL     OW 4098   6.475   1.368   2.143  0.2335  0.3505 -0.1469
 1186SOL    HW1 4099   6.550   1.406   2.098  1.2729 -0.6878  0.6548
 1186SOL    HW2 4100   6.433   1.313   2.077  2.3783 -2.0395  0.3120
 1187SOL     OW 4101   2.390   5.653   0.220  0.6181 -0.2556 -0.5670
 1187SOL    HW1 4102   2.359   5.615   0.137  0.2421  1.1224 -1.0780
 1187SOL    HW2 4103   2.386   5.580   0.282 -0.4770 -0.9615 -1.4251
 1188SOL     OW 4104   7.103   2.240   4.290  0.2069 -0.0976  0.5793
 1188SOL    HW1 4105   7.167   2.276   4.351  0.0150  1.2011  0.0489
 1188SOL    HW2 4106   7.018   2.270   4.324 -0.0493 -0.9267  0.6960
 1189SOL     OW 4107   5.789   2.697   5.212  0.3090  0.5093  0.8491
 1189SOL    HW1 4108   5.811   2.678   5.121  2.7260 -0.1771  1.5023
 1189SOL    HW2 4109   5.696   2.716   5.210  0.0107 -0.7670 -1.5599
 1190SOL     OW 4110   0.191   5.942   5.458  0.1855  0.4553 -0.3172
 1190SOL    HW1 4111   0.163   5.859   5.495 -1.2024  0.7354 -0.6898
 1190SOL    HW2 4112   0.242   5.918   5.380 -0.2351 -0.0420 -0.4431
 1191SOL     OW 4113   3.366   0.929   6.855 -0.3283  0.5049 -0.2056
 1191SOL    HW1 4114   3.340   1.019   6.877 -2.3045  0.0942 -0.7044
 1191SOL    HW2 4115   3.337   0.917   6.765  0.9831 -0.2862 -0.5491
 1192SOL     OW 4116   2.116   2.796   4.191 -0.4452 -0.1441  0.1418
 1192SOL    HW1 4117   2.165   2.848   4.127 -1.5366 -0.5502 -1.0680
 1192SOL    HW2 4118   2.127   2.706   4.162 -1.5247 -0.2759  0.1236
 1193SOL     OW 4119   7.458   0.599   4.752 -0.0606 -0.1453 -0.0332
 1193SOL    HW1 4120   7.498   0.641   4.828  0.4089  0.1688 -0.4479
 1193SOL    HW2 4121   7.520   0.615   4.680 -1.5088  1.4665 -0.9910
 1194SOL     OW 4122   4.887   6.846   3.483 -0.2972  0.3758 -0.6034
 1194SOL    HW1 4123   4.926   6.840   3.570 -2.5309 -1.0315  0.3938
 1194SOL    HW2 4124   4.945   6.906   3.435  2.3667 -0.6944  1.0449
 1195SOL     OW 4125   1.939   7.510   3.818  0.1566 -0.2329  0.3899
 1195SOL    HW1 4126   2.008   7.456   3.779 -0.2694 -0.4789 -0.0280
 1195SOL    HW2 4127   1.861   7.492   3.765  0.2106  1.4554 -0.3235
 1196SOL     OW 4128   3.459   4.175   1.453  0.0222 -0.2522  0.4634
 1196SOL    HW1 4129   3.465   4.086   1.419 -0.2954 -0.1680  0.1809
 1196SOL    HW2 4130   3.461   4.231   1.375 -1.6792 -0.0978  0.4951
 1197SOL     OW 4131   7.018   0.427   1.634  0.4755 -0.0426 -0.4795
 1197SOL    HW1 4132   7.103   0.407   1.672 -0.8987 -0.7168  2.6181
 1197SOL    HW2 4133   7.026   0.403   1.542  3.4844 -0.4183 -0.2123
 1198SOL     OW 4134   5.908   0.467   3.933 -0.6749  0.2659 -0.0372
 1198SOL    HW1 4135   5.918   0.527   3.859  0.7595 -0.4021 -0.4270
 1198SOL    HW2 4136   5.814   0.463   3.949 -0.8192  2.6643  0.0545
 1199SOL     OW 4137   5.821   2.705   6.969 -0.1570  0.5420 -0.3790
 1199SOL    HW1 4138   5.886   2.757   6.922 -0.6081 -0.5332 -2.2984
 1199SOL    HW2 4139   5.842   2.615   6.947 -1.4698  0.0982  0.0763
 1200SOL     OW 4140   6.828   2.754   4.589  0.0709  0.0836  0.3668
 1200SOL    HW1 4141   6.843   2.712   4.674 -0.3874  2.0820  1.5257
 1200SOL    HW2 4142   6.783   2.836   4.611  0.9373  1.1980 -1.7041
 1201SOL     OW 4143   0.532   3.875   1.443  0.2951 -0.2543 -0.6353
 1201SOL    HW1 4144   0.549   3.965   1.414  2.7160 -0.4570 -0.1079
 1201SOL    HW2 4145   0.545   3.878   1.538  1.5219 -1.3496 -0.7444
 1202SOL     OW 4146   7.222   4.779   0.060  0.0518  0.2040  0.4197
 1202SOL    HW1 4147   7.189   4.867   0.079 -0.6297  0.1683 -0.5171
 1202SOL    HW2 4148   7.153   4.739   0.007 -0.7202 -1.7187  2.6697
 1203SOL     OW 4149   4.800   3.788   6.140 -0.5644  0.8257  0.1317
 1203SOL    HW1 4150   4.731   3.840   6.101  1.8840  2.4129 -2.4515
 1203SOL    HW2 4151   4.879   3.810   6.090  1.4236 -2.4892  1.4354
 1204SOL     OW 4152   0.152   4.587   4.758  0.3883 -0.1705 -0.5593
 1204SOL    HW1 4153   0.161   4.621   4.669  0.3961 -1.3569 -1.0174
 1204SOL    HW2 4154   0.068   4.540   4.758 -0.1431  0.7214  0.3677
 1205SOL     OW 4155   4.867   2.335   5.471 -0.0746 -0.0740  0.3845
 1205SOL    HW1 4156   4.815   2.415   5.469  2.9170  2.0167 -0.3359
 1205SOL    HW2 4157   4.941   2.355   5.528  1.8689 -1.4916 -1.4463
 1206SOL     OW 4158   7.301   0.081   0.854  0.1150  0.0983  0.7148
 1206SOL    HW1 4159   7.252   0.006   0.889  1.7896 -0.4182  2.0911
 1206SOL    HW2 4160   7.257   0.102   0.772 -2.1457 -0.5791  1.6602
 1207SOL     OW 4161   7.498   1.123   6.091 -0.1362 -0.4091 -0.4016
 1207SOL    HW1 4162   7.590   1.148   6.100 -0.1725 -0.4100  0.0263
 1207SOL    HW2 4163   7.458   1.155   6.172 -0.0816 -2.3409  0.4326
 1208SOL     OW 4164   6.900   0.260   5.816 -0.3479 -0.2870  0.3585
 1208SOL    HW1 4165   6.856   0.310   5.884 -0.2451 -0.6504  0.6985
 1208SOL    HW2 4166   6.927   0.179   5.860 -0.7423 -0.7519 -0.2480
 1209SOL     OW 4167   7.071   4.012   6.873  0.3156 -0.2478  0.0882
 1209SOL    HW1 4168   7.074   4.064   6.792 -0.0137  0.8375  0.7503
 1209SOL    HW2 4169   7.091   3.923   6.845 -1.2585 -0.1735 -1.4277
 1210SOL     OW 4170   4.784   5.359   7.619 -0.1929  0.1409 -0.4307
 1210SOL    HW1 4171   4.689   5.357   7.603 -0.5574 -1.5067  1.5092
 1210SOL    HW2 4172   4.796   5.428   7.684  0.2208  1.5093 -1.8986
 1211SOL     OW 4173   2.548   2.440   2.224 -0.2204 -0.2722  0.4537
 1211SOL    HW1 4174   2.613   2.392   2.173  0.6281 -1.2201  2.3467
 1211SOL    HW2 4175   2.481   2.464   2.160  1.9202  0.7142 -1.5656
 1212SOL     OW 4176   1.131   2.170   2.799 -0.1034  0.0391  0.5271
 1212SOL    HW1 4177   1.120   2.115   2.877  0.2138 -1.0823 -0.1985
 1212SOL    HW2 4178   1.054   2.227   2.799 -0.9108 -1.0199  0.8279
 1213SOL     OW 4179   1.804   6.979   0.687 -0.3668  0.3030 -0.1009
 1213SOL    HW1 4180   1.845   7.059   0.655 -2.6073  0.6309 -2.5209
 1213SOL    HW2 4181   1.728   7.009   0.737  0.3776 -0.3270  1.4747
 1214SOL     OW 4182   6.258   4.714   6.897 -0.6970  0.1249  0.4069
 1214SOL    HW1 4183   6.298   4.734   6.982  0.2899 -0.7649  0.1734
 1214SOL    HW2 4184   6.322   4.659   6.853 -1.6061 -0.2000 -0.5510
 1215SOL     OW 4185   5.008   4.988   2.290 -0.3086  0.1265 -0.4103
 1215SOL    HW1 4186   5.007   5.074   2.248 -0.3057  0.2391 -0.1848
 1215SOL    HW2 4187   5.009   4.926   2.218  0.3399  0.3249 -0.5796
 1216SOL     OW 4188   1.978   3.501   3.914  0.0089  0.2919 -0.1716
 1216SOL    HW1 4189   1.991   3.519   4.008 -0.1070  0.8534 -0.2586
 1216SOL    HW2 4190   1.909   3.563   3.888  0.9328  1.0386 -0.9149
 1217SOL     OW 4191   4.126   5.350   4.353 -0.3638  0.3253 -0.5818
 1217SOL    HW1 4192   4.069   5.360   4.429  0.3491 -4.3227  0.8358
 1217SOL    HW2 4193   4.067   5.320   4.283 -0.5300  1.5456 -0.9858
 1218SOL     OW 4194   2.553   7.580   4.397 -0.2754  0.0071  0.0206
 1218SOL    HW1 4195   2.497   7.531   4.456 -0.7080 -0.4218 -0.7397
 1218SOL    HW2 4196   2.635   7.530   4.394  0.4998  1.0712  1.7837
 1219SOL     OW 4197   4.037   2.835   0.165  0.6269  0.5891 -0.1130
 1219SOL    HW1 4198   4.046   2.789   0.082  0.6150  0.8617 -0.2657
 1219SOL    HW2 4199   4.026   2.765   0.230 -1.2786  0.4048 -0.5575
 1220SOL     OW 4200   2.775   3.941   3.951 -0.0339  0.0362  0.1164
 1220SOL    HW1 4201   2.777   3.874   3.882  0.4408 -1.5190  1.5521
 1220SOL    HW2 4202   2.777   3.890   4.032  1.5160  1.8227  1.2753
 1221SOL     OW 4203   3.529   3.391   4.563 -0.2172 -0.1776  0.0472
 1221SOL    HW1 4204   3.465   3.447   4.518  0.7952  0.8549 -0.1640
 1221SOL    HW2 4205   3.603   3.450   4.582  0.7669 -1.3868  0.0849
 1222SOL     OW 4206   2.405   6.417   3.998  0.4119  0.4347 -0.4876
 1222SOL    HW1 4207   2.480   6.476   3.999 -1.0148  2.3201 -0.4961
 1222SOL    HW2 4208   2.442   6.333   3.970  2.4515  1.3688 -0.7962
 1223SOL     OW 4209   6.970   0.647   1.287 -0.5942  0.6736 -0.6201
 1223SOL    HW1 4210   6.966   0.556   1.258 -3.4443  1.0521 -1.7271
 1223SOL    HW2 4211   7.041   0.685   1.235 -0.2627 -0.5915 -1.1421
 1224SOL     OW 4212   7.083   0.552   6.405  0.0830  0.0373 -0.4668
 1224SOL    HW1 4213   7.063   0.634   6.449  0.8911  0.0935 -0.1886
 1224SOL    HW2 4214   7.172   0.531   6.432  0.8752  0.4051 -2.6028
 1225SOL     OW 4215   6.606   3.914   0.358 -0.8798  0.5534  0.0121
 1225SOL    HW1 4216   6.599   3.878   0.270 -2.2977  0.5057  0.1288
 1225SOL    HW2 4217   6.586   3.841   0.417  1.8399  0.0912  0.5011
 1226SOL     OW 4218   5.192   6.452   6.798 -0.0824 -0.1537 -0.0098
 1226SOL    HW1 4219   5.287   6.442   6.793 -0.1518 -0.8363 -0.1727
 1226SOL    HW2 4220   5.169   6.503   6.720  0.1062 -0.3986 -0.2296
 1227SOL     OW 4221   5.546   0.013   0.634  0.0927 -0.6180 -0.0996
 1227SOL    HW1 4222   5.494   0.073   0.687  0.7806  0.9932 -1.1714
 1227SOL    HW2 4223   5.631   0.009   0.679  0.1499 -0.5408 -0.2019
 1228SOL     OW 4224   6.740   2.748   0.077 -0.8237  0.2902  0.1854
 1228SOL    HW1 4225   6.727   2.653   0.067 -0.4577  0.3710 -1.4056
 1228SOL    HW2 4226   6.748   2.761   0.171  0.5512 -1.4742  0.3823
 1229SOL     OW 4227   7.126   0.721   3.674 -0.4381  0.2130  0.4148
 1229SOL    HW1 4228   7.103   0.702   3.583 -2.4916 -0.3600  0.9982
 1229SOL    HW2 4229   7.194   0.788   3.668  2.2958 -2.4859 -1.5911
 1230SOL     OW 4230   1.901   4.112   1.634  0.6691 -0.0937 -0.6275
 1230SOL    HW1 4231   1.916   4.030   1.681  1.1364 -0.0065 -0.6193
 1230SOL    HW2 4232   1.896   4.086   1.541  1.1221 -0.0928 -0.6523
 1231SOL     OW 4233   2.182   7.470   6.092  0.0038 -0.0909  0.1974
 1231SOL    HW1 4234   2.233   7.550   6.099 -0.5523  0.1317  2.7443
 1231SOL    HW2 4235   2.095   7.498   6.064  0.7930 -0.3080 -2.7100
 1232SOL     OW 4236   1.394   5.132   6.217 -0.6848  0.0265 -0.3721
 1232SOL    HW1 4237   1.461   5.168   6.159 -0.7430 -0.3452 -0.6709
 1232SOL    HW2 4238   1.334   5.086   6.158 -0.5177 -0.7139  0.0257
 1233SOL     OW 4239   1.982   2.238   2.277 -0.6957  0.2132 -0.0023
 1233SOL    HW1 4240   1.976   2.266   2.186 -0.4903 -1.7397 -0.6492
 1233SOL    HW2 4241   2.076   2.229   2.294 -0.7729 -0.6720 -0.0119
 1234SOL     OW 4242   3.087   7.067   5.792  0.4852 -0.5638 -0.0788
 1234SOL    HW1 4243   3.036   7.017   5.856 -2.7002  1.0427 -1.1232
 1234SOL    HW2 4244   3.080   7.017   5.711  1.9855 -1.1071  0.1014
 1235SOL     OW 4245   4.263   5.654   6.246 -0.1333  0.2426  0.5781
 1235SOL    HW1 4246   4.178   5.613   6.233  0.5235 -0.7047 -1.0686
 1235SOL    HW2 4247   4.285   5.635   6.337 -1.8499  0.9052  1.1790
 1236SOL     OW 4248   4.352   5.413   0.585 -0.1781  0.0973  0.4829
 1236SOL    HW1 4249   4.273   5.377   0.546 -0.7502  2.3641 -0.6413
 1236SOL    HW2 4250   4.423   5.358   0.550 -0.9632  0.2094 -1.4263
 1237SOL     OW 4251   6.608   1.759   4.651  0.1389  0.8485 -0.2961
 1237SOL    HW1 4252   6.569   1.672   4.656 -0.7493  1.2721  0.5454
 1237SOL    HW2 4253   6.635   1.768   4.560  0.0294 -0.2169 -0.4487
 1238SOL     OW 4254   1.282   3.948   7.064  0.4978  0.7811 -0.1805
 1238SOL    HW1 4255   1.329   3.937   7.147  0.2093  0.8235 -0.0132
 1238SOL    HW2 4256   1.250   3.860   7.043  0.8910  0.6955 -0.4391
 1239SOL     OW 4257   3.057   2.614   6.765 -0.1193 -0.2340 -0.2059
 1239SOL    HW1 4258   3.095   2.676   6.827  1.1602  0.7018 -1.8449
 1239SOL    HW2 4259   2.994   2.666   6.715  1.4062  0.0031 -2.0085
 1240SOL     OW 4260   5.972   2.986   5.824 -0.0860 -0.2001 -0.7173
 1240SOL    HW1 4261   5.998   3.051   5.889 -1.2349 -0.0609 -0.3807
 1240SOL    HW2 4262   5.888   2.953   5.855 -0.6774 -0.1079 -2.1471
 1241SOL     OW 4263   5.988   4.900   0.890 -0.4190 -0.3468  0.4302
 1241SOL    HW1 4264   5.995   4.946   0.974 -0.1369  1.7952 -0.7080
 1241SOL    HW2 4265   6.024   4.961   0.826 -0.6572 -1.9181 -1.2796
 1242SOL     OW 4266   6.870   6.887   5.889  0.1664 -0.4806  0.7842
 1242SOL    HW1 4267   6.923   6.824   5.937 -0.1336  0.4851  2.4480
 1242SOL    HW2 4268   6.894   6.972   5.926 -1.1844  0.1482  0.2811
 1243SOL     OW 4269   0.220   0.681   1.208 -0.5415  0.0465 -0.4368
 1243SOL    HW1 4270   0.166   0.603   1.194 -0.9216  0.1324  0.4832
 1243SOL    HW2 4271   0.172   0.751   1.163  1.4869 -0.7661 -4.3243
 1244SOL     OW 4272   7.206   2.795   6.254  0.0407 -0.1670  0.0557
 1244SOL    HW1 4273   7.167   2.853   6.320 -0.6728 -0.1807 -0.3385
 1244SOL    HW2 4274   7.289   2.836   6.233  0.4189 -0.3146  1.1660
 1245SOL     OW 4275   6.942   3.351   3.383 -0.2259  0.8031  0.3726
 1245SOL    HW1 4276   7.007   3.307   3.437  0.8523  1.1260 -0.6166
 1245SOL    HW2 4277   6.913   3.426   3.436 -0.3252  0.2594  1.0984
 1246SOL     OW 4278   2.240   1.793   0.984  0.4941  0.2514 -0.3259
 1246SOL    HW1 4279   2.187   1.873   0.987  1.5693  0.9769  0.1464
 1246SOL    HW2 4280   2.226   1.758   0.896  1.3128  1.9059 -1.1558
 1247SOL     OW 4281   4.371   0.336   3.143  0.3968 -0.6761  0.4519
 1247SOL    HW1 4282   4.352   0.430   3.143  1.3195 -0.4774  1.3702
 1247SOL    HW2 4283   4.313   0.300   3.076 -0.0064  0.5394  0.1260
 1248SOL     OW 4284   3.096   3.151   3.610 -0.3893 -0.2325 -0.0863
 1248SOL    HW1 4285   3.117   3.172   3.700 -2.2162  0.1261  0.3041
 1248SOL    HW2 4286   3.168   3.188   3.559  0.3642  0.0839  1.1699
 1249SOL     OW 4287   1.673   5.607   3.747  0.5657 -0.2369 -0.0278
 1249SOL    HW1 4288   1.629   5.691   3.760  2.0945  0.8009 -1.2618
 1249SOL    HW2 4289   1.619   5.545   3.796 -1.2133  1.2595  0.0435
 1250SOL     OW 4290   2.922   3.887   2.979 -0.1232 -0.2385  0.6333
 1250SOL    HW1 4291   2.927   3.795   3.007 -1.0976 -0.3119  0.6175
 1250SOL    HW2 4292   2.959   3.936   3.052  2.1161 -0.7280 -0.0992
 1251SOL     OW 4293   5.405   0.215   3.795  0.2917 -0.2806 -0.0838
 1251SOL    HW1 4294   5.337   0.263   3.842  0.1304 -0.9647  0.3976
 1251SOL    HW2 4295   5.357   0.155   3.738  0.4891 -0.3360 -0.1935
 1252SOL     OW 4296   6.990   2.751   2.571 -0.4896 -0.1255 -0.0177
 1252SOL    HW1 4297   6.990   2.661   2.603  0.4883  0.4016  1.5551
 1252SOL    HW2 4298   6.917   2.793   2.616 -1.0553 -0.1478 -0.8815
 1253SOL     OW 4299   1.024   5.142   6.219  0.5252  0.4903 -0.2050
 1253SOL    HW1 4300   0.965   5.138   6.295  1.7164  1.6232  0.8401
 1253SOL    HW2 4301   1.014   5.231   6.186 -0.1130 -0.0507 -1.5209
 1254SOL     OW 4302   0.703   2.158   1.194  0.0963 -0.1958 -0.6652
 1254SOL    HW1 4303   0.798   2.163   1.189  0.3194 -1.8700  0.8982
 1254SOL    HW2 4304   0.681   2.072   1.158 -0.7850 -0.0265 -0.5640
 1255SOL     OW 4305   2.865   7.520   1.595 -0.0208 -0.0612 -0.2328
 1255SOL    HW1 4306   2.941   7.564   1.634  0.7000 -1.7812  0.4033
 1255SOL    HW2 4307   2.900   7.436   1.563 -1.3997 -0.3211 -1.1113
 1256SOL     OW 4308   4.199   6.953   5.758 -0.3230 -0.4380 -0.2465
 1256SOL    HW1 4309   4.249   6.906   5.692  1.0554 -1.6719  1.5725
 1256SOL    HW2 4310   4.112   6.963   5.719  0.1071 -2.1262 -1.7936
 1257SOL     OW 4311   4.142   5.570   3.797  0.3932  0.2330  0.5334
 1257SOL    HW1 4312   4.189   5.629   3.737 -0.1459  1.6215  1.4349
 1257SOL    HW2 4313   4.056   5.611   3.808  0.5442  0.1123  2.3961
 1258SOL     OW 4314   2.177   4.158   4.276  0.1998  0.6773 -0.3570
 1258SOL    HW1 4315   2.136   4.158   4.362  0.3479  0.0410 -0.2809
 1258SOL    HW2 4316   2.127   4.223   4.226 -2.8250 -1.9473 -1.1326
 1259SOL     OW 4317   6.777   2.530   5.201 -0.5705  0.2179 -0.0975
 1259SOL    HW1 4318   6.781   2.616   5.160 -1.3378  1.0662  1.5146
 1259SOL    HW2 4319   6.696   2.491   5.169  1.0678 -1.1374 -2.9926
 1260SOL     OW 4320   2.214   6.481   2.773  0.1439  0.5272 -0.1504
 1260SOL    HW1 4321   2.231   6.398   2.729 -2.0892  1.1967 -2.4921
 1260SOL    HW2 4322   2.151   6.460   2.842 -0.0036  0.1857 -0.3881
 1261SOL     OW 4323   6.782   0.084   3.810 -0.4617 -0.1809 -0.6168
 1261SOL    HW1 4324   6.758   0.023   3.740  1.4829 -0.2540 -1.2808
 1261SOL    HW2 4325   6.815   0.028   3.880 -0.0912  0.0171 -0.6297
 1262SOL     OW 4326   3.461   3.126   7.385  0.0959 -0.7804 -0.1207
 1262SOL    HW1 4327   3.510   3.154   7.308 -0.0128  2.2275  0.7953
 1262SOL    HW2 4328   3.370   3.129   7.359  0.0240  0.7789  0.2192
 1263SOL     OW 4329   6.551   5.230   1.550  0.3323 -0.0772  0.7831
 1263SOL    HW1 4330   6.600   5.200   1.627  0.2976 -1.3082  0.3413
 1263SOL    HW2 4331   6.615   5.275   1.496  1.5499 -3.4033 -0.7637
 1264SOL     OW 4332   7.511   3.335   1.307  0.3734  0.0667 -0.4155
 1264SOL    HW1 4333   7.603   3.341   1.282  0.4353 -0.2861 -0.2787
 1264SOL    HW2 4334   7.490   3.421   1.345  0.1901  0.7177 -1.9301
 1265SOL     OW 4335   2.338   3.410   0.441  0.0145  0.1872  0.4449
 1265SOL    HW1 4336   2.304   3.385   0.527  0.7577 -0.1686  0.6505
 1265SOL    HW2 4337   2.415   3.353   0.429 -0.4148 -0.1789 -0.7117
 1266SOL     OW 4338   3.099   4.302   6.790 -0.3661  0.3245  0.0210
 1266SOL    HW1 4339   3.086   4.209   6.807 -1.9207  0.4442 -0.3754
 1266SOL    HW2 4340   3.062   4.316   6.703 -0.3887  1.3682  0.1851
 1267SOL     OW 4341   5.731   7.152   2.764 -0.0886  0.1651  0.0807
 1267SOL    HW1 4342   5.676   7.118   2.834 -0.3123 -0.4546 -0.3852
 1267SOL    HW2 4343   5.761   7.074   2.717  0.6050  0.5344 -0.1080
 1268SOL     OW 4344   2.354   3.602   3.487 -0.4781  0.2066  0.0729
 1268SOL    HW1 4345   2.266   3.628   3.514  0.2565  2.2360  0.6834
 1268SOL    HW2 4346   2.371   3.652   3.406  0.7104  1.1814  0.8827
 1269SOL     OW 4347   3.835   4.072   7.235 -0.1490 -0.2487  0.1254
 1269SOL    HW1 4348   3.870   4.040   7.152 -0.3850  0.2730 -0.1800
 1269SOL    HW2 4349   3.743   4.043   7.235  0.4801 -2.4438  1.3508
 1270SOL     OW 4350   3.607   6.150   4.031  0.3789  0.1719  0.1145
 1270SOL    HW1 4351   3.643   6.167   3.944  0.3967  0.8720  0.2540
 1270SOL    HW2 4352   3.546   6.222   4.046 -2.0453 -1.6011 -0.6196
 1271SOL     OW 4353   2.696   7.201   3.146 -0.0078 -0.6125 -0.6295
 1271SOL    HW1 4354   2.666   7.262   3.213  1.6806  1.2319 -1.4468
 1271SOL    HW2 4355   2.713   7.119   3.194 -1.7018 -0.2957  0.6035
 1272SOL     OW 4356   5.806   7.133   4.780  0.4100  0.2402  0.1915
 1272SOL    HW1 4357   5.864   7.077   4.831 -0.4601 -0.8832 -0.0017
 1272SOL    HW2 4358   5.864   7.194   4.736  1.3578 -0.2103  0.7784
 1273SOL     OW 4359   4.770   4.285   7.478 -0.4536  0.3195 -0.2117
 1273SOL    HW1 4360   4.800   4.218   7.417 -1.2991  0.0929 -0.4015
 1273SOL    HW2 4361   4.730   4.352   7.422  0.6629  1.1443 -0.0478
 1274SOL     OW 4362   6.566   5.977   5.128 -0.1202  0.5869  0.1940
 1274SOL    HW1 4363   6.580   5.979   5.033 -1.4089 -0.9020 -0.0690
 1274SOL    HW2 4364   6.655   5.979   5.165  0.4677 -0.1864 -1.0941
 1275SOL     OW 4365   4.614   0.027   5.045 -0.1471 -0.1892 -0.0979
 1275SOL    HW1 4366   4.695  -0.013   5.075 -0.6499 -0.3877  1.0602
 1275SOL    HW2 4367   4.545  -0.033   5.076 -0.6879 -0.9030 -2.4649
 1276SOL     OW 4368   2.711   5.782   4.686  0.0181 -0.6665  0.9636
 1276SOL    HW1 4369   2.776   5.779   4.756  1.5141  0.5525 -0.3300
 1276SOL    HW2 4370   2.739   5.853   4.629  0.0278 -2.9027 -2.0316
 1277SOL     OW 4371   0.143   1.531   6.079  0.3509  0.2560 -0.1339
 1277SOL    HW1 4372   0.142   1.582   6.160  0.3437 -0.7150  0.4870
 1277SOL    HW2 4373   0.135   1.440   6.107  0.5297 -0.1108 -1.2154
 1278SOL     OW 4374   2.634   2.478   6.456  0.0488 -0.2260 -0.1710
 1278SOL    HW1 4375   2.698   2.547   6.443 -0.2391  0.7142  2.6702
 1278SOL    HW2 4376   2.686   2.398   6.462  0.6179  0.0689 -1.0541
 1279SOL     OW 4377   5.741   3.376   6.325 -0.1567  0.2483 -0.8334
 1279SOL    HW1 4378   5.716   3.428   6.248 -0.8097  0.3254 -0.5809
 1279SOL    HW2 4379   5.832   3.350   6.309 -0.3733  0.0291 -1.7588
 1280SOL     OW 4380   6.695   6.016   1.592 -0.2295  0.4661  0.1440
 1280SOL    HW1 4381   6.779   5.971   1.587 -1.1141 -1.1304 -1.7072
 1280SOL    HW2 4382   6.709   6.100   1.549 -0.1259 -0.8328 -2.5688
 1281SOL     OW 4383   0.491   5.079   7.143  0.2174 -0.4192  0.2932
 1281SOL    HW1 4384   0.408   5.049   7.105  0.3606 -0.6365  0.1497
 1281SOL    HW2 4385   0.557   5.057   7.076  0.2499  0.7638 -0.0923
 1282SOL     OW 4386   7.483   3.730   4.277 -0.3883 -0.0708 -0.0500
 1282SOL    HW1 4387   7.460   3.808   4.328  0.6965 -0.7658  1.5967
 1282SOL    HW2 4388   7.525   3.672   4.341  3.1371 -0.1162 -2.1793
 1283SOL     OW 4389   2.108   2.350   4.901  0.0346 -0.1002 -0.6633
 1283SOL    HW1 4390   2.167   2.275   4.894  1.2436  0.7647 -0.0559
 1283SOL    HW2 4391   2.037   2.319   4.957  0.9646 -0.5325  0.3056
 1284SOL     OW 4392   2.486   7.254   0.264  0.0952  0.1312 -0.3922
 1284SOL    HW1 4393   2.529   7.200   0.331 -1.8890 -0.1834  0.6976
 1284SOL    HW2 4394   2.550   7.323   0.245  1.2741 -0.5749  0.8130
 1285SOL     OW 4395   4.847   5.678   7.087  0.6287  0.3436  0.4934
 1285SOL    HW1 4396   4.931   5.654   7.048  0.8248  2.2273 -0.3457
 1285SOL    HW2 4397   4.832   5.612   7.155  2.3916 -0.4805  0.1290
 1286SOL     OW 4398   1.305   0.448   1.224 -0.0079  0.4783  0.3307
 1286SOL    HW1 4399   1.341   0.537   1.222 -0.1031  0.5310  0.9600
 1286SOL    HW2 4400   1.333   0.412   1.308 -0.1547 -0.0115  0.1732
 1287SOL     OW 4401   7.065   5.683   4.377 -0.0407 -0.0513 -1.0939
 1287SOL    HW1 4402   7.025   5.730   4.304 -0.7524  0.3005 -0.4965
 1287SOL    HW2 4403   7.123   5.746   4.419 -1.2980  0.4769 -0.0501
 1288SOL     OW 4404   7.145   4.094   5.575 -0.6776  0.2948 -0.4007
 1288SOL    HW1 4405   7.150   4.190   5.572  0.6172  0.2208 -2.5634
 1288SOL    HW2 4406   7.117   4.075   5.665  0.8661  2.6448  0.6958
 1289SOL     OW 4407   3.768   0.108   2.613 -0.1586 -0.1897  0.3222
 1289SOL    HW1 4408   3.800   0.145   2.530  1.1314 -0.9826  0.4411
 1289SOL    HW2 4409   3.744   0.019   2.591  1.7734 -0.9632  1.0907
 1290SOL     OW 4410   5.571   2.499   4.156 -0.3487  0.5377 -0.2383
 1290SOL    HW1 4411   5.606   2.556   4.088  0.7264  0.2649  0.0655
 1290SOL    HW2 4412   5.620   2.523   4.235  0.7388 -1.3670 -0.2910
 1291SOL     OW 4413   7.118   4.329   6.179  0.0123  0.2862  0.2209
 1291SOL    HW1 4414   7.092   4.398   6.239  0.5200  0.3623  0.3640
 1291SOL    HW2 4415   7.105   4.248   6.228 -0.0475  0.3167  0.2553
 1292SOL     OW 4416   2.701   1.123   7.020  0.0063 -0.5539 -0.2384
 1292SOL    HW1 4417   2.635   1.073   6.972  0.1939 -1.6848  0.6478
 1292SOL    HW2 4418   2.650   1.191   7.065 -0.7056 -1.8506  1.0127
 1293SOL     OW 4419   0.869   5.858   2.211  0.2966  0.2533 -0.3715
 1293SOL    HW1 4420   0.839   5.811   2.288 -0.3665 -0.6888 -1.1739
 1293SOL    HW2 4421   0.923   5.795   2.164  0.1253  0.5803 -1.0246
 1294SOL     OW 4422   5.853   0.805   2.414  0.4970  0.1543  0.0196
 1294SOL    HW1 4423   5.826   0.847   2.332 -1.7468 -0.8329  0.1792
 1294SOL    HW2 4424   5.922   0.744   2.387  0.1852  0.2526 -1.0625
 1295SOL     OW 4425   7.090   5.455   1.512  0.1225 -0.6248 -0.5507
 1295SOL    HW1 4426   7.169   5.414   1.546 -0.1508 -0.8793 -0.2139
 1295SOL    HW2 4427   7.118   5.541   1.482  0.2766 -0.1955  0.7738
 1296SOL     OW 4428   6.429   4.323   6.958 -0.1676 -0.5675  0.4356
 1296SOL    HW1 4429   6.462   4.385   7.023 -1.8798 -0.8249  1.6283
 1296SOL    HW2 4430   6.368   4.374   6.905  1.0244 -0.4237 -0.8651
 1297SOL     OW 4431   0.782   4.662   2.727 -0.0765 -0.1086 -0.7803
 1297SOL    HW1 4432   0.846   4.607   2.682  2.0614  1.8685 -0.3946
 1297SOL    HW2 4433   0.817   4.671   2.816  0.3969  2.7412 -1.1348
 1298SOL     OW 4434   2.791   7.384   6.766  0.1888 -0.1185 -0.2170
 1298SOL    HW1 4435   2.835   7.306   6.798  0.7066  0.9248  1.7900
 1298SOL    HW2 4436   2.710   7.352   6.726  0.9889 -1.7474 -0.6033
 1299SOL     OW 4437   4.554   3.792   4.259  0.4225  0.1132 -0.3567
 1299SOL    HW1 4438   4.607   3.821   4.334 -0.3273  0.5128  0.0351
 1299SOL    HW2 4439   4.466   3.780   4.296  0.6588 -2.5496 -0.5241
 1300SOL     OW 4440   6.385   6.668   0.287 -0.4680  0.5025  0.0719
 1300SOL    HW1 4441   6.467   6.709   0.315 -0.0068 -0.3865  0.0470
 1300SOL    HW2 4442   6.339   6.647   0.368 -0.0508 -0.2352  0.1183
 1301SOL     OW 4443   7.229   4.289   5.942  0.3489 -0.0040  0.2608
 1301SOL    HW1 4444   7.186   4.290   6.028  1.1841 -3.3899  0.8525
 1301SOL    HW2 4445   7.276   4.373   5.938 -3.5509  2.4944  0.8836
 1302SOL     OW 4446   5.217   0.593   4.397  0.2913  0.3774 -0.0473
 1302SOL    HW1 4447   5.224   0.631   4.309  0.2714  2.5605  0.8414
 1302SOL    HW2 4448   5.292   0.629   4.444  0.1574 -0.5711  0.9220
 1303SOL     OW 4449   5.520   7.066   1.485  0.1370  0.3760 -0.2801
 1303SOL    HW1 4450   5.562   7.151   1.476 -0.0554  0.4702 -0.3024
 1303SOL    HW2 4451   5.446   7.069   1.425 -0.2785  0.4548  0.2233
 1304SOL     OW 4452   1.141   2.092   1.631 -0.2963 -0.2296 -0.0308
 1304SOL    HW1 4453   1.119   2.009   1.590  0.7682 -0.8470  0.5842
 1304SOL    HW2 4454   1.106   2.085   1.720  1.0933 -0.6620  0.5103
 1305SOL     OW 4455   6.326   5.949   3.862  0.1040 -0.1383  0.7613
 1305SOL    HW1 4456   6.419   5.955   3.841 -0.0266  1.1439  0.4437
 1305SOL    HW2 4457   6.303   5.858   3.843  1.3515 -0.5595  1.1595
 1306SOL     OW 4458   2.120   3.479   5.639  0.4860 -0.0432 -0.3475
 1306SOL    HW1 4459   2.102   3.459   5.547  0.0290  0.6119 -0.4059
 1306SOL    HW2 4460   2.185   3.550   5.636 -1.0461  1.4245 -0.2097
 1307SOL     OW 4461   2.715   6.476   2.699  0.0012 -0.2453  0.2669
 1307SOL    HW1 4462   2.657   6.457   2.626  0.6094 -0.2281 -0.2337
 1307SOL    HW2 4463   2.676   6.552   2.743 -0.8390 -0.7967  0.4950
 1308SOL     OW 4464   3.183   3.793   0.885 -0.0585  0.2162  0.0984
 1308SOL    HW1 4465   3.213   3.796   0.794 -0.9637 -1.2985 -0.2922
 1308SOL    HW2 4466   3.100   3.840   0.885  0.4803  1.2099  0.4130
 1309SOL     OW 4467   6.767   4.886   1.095  0.2420 -0.1803  0.2100
 1309SOL    HW1 4468   6.748   4.972   1.131 -1.1536 -0.5009  0.2801
 1309SOL    HW2 4469   6.783   4.902   1.002 -1.5310 -0.0070 -0.0961
 1310SOL     OW 4470   5.770   5.711   3.227  0.2135  0.2555 -0.0676
 1310SOL    HW1 4471   5.772   5.618   3.248 -1.3255  0.4788  1.2668
 1310SOL    HW2 4472   5.696   5.721   3.167  1.1124  0.4771 -1.1825
 1311SOL     OW 4473   1.182   1.912   6.699  0.0002  0.4931  0.3381
 1311SOL    HW1 4474   1.153   1.971   6.629  0.5849 -0.3647 -0.6506
 1311SOL    HW2 4475   1.104   1.899   6.753 -0.4836  1.1139 -0.1970
 1312SOL     OW 4476   4.663   4.806   6.795  0.3363 -0.8729 -0.2744
 1312SOL    HW1 4477   4.582   4.758   6.783 -0.0689 -0.4071  0.5038
 1312SOL    HW2 4478   4.710   4.758   6.864  0.4406 -0.7882 -0.2857
 1313SOL     OW 4479   2.466   5.265   3.200 -0.3608 -0.4195  0.1000
 1313SOL    HW1 4480   2.484   5.237   3.289 -0.3107 -1.2578 -0.1711
 1313SOL    HW2 4481   2.387   5.218   3.174  0.4519 -1.3485 -0.8097
 1314SOL     OW 4482   6.497   4.449   0.813 -0.0602  0.0717 -0.0941
 1314SOL    HW1 4483   6.581   4.411   0.837  0.3027  0.5854 -0.5306
 1314SOL    HW2 4484   6.494   4.533   0.858  0.4427  0.8561 -1.4481
 1315SOL     OW 4485   6.271   5.369   5.194 -0.4506 -0.0871 -0.0892
 1315SOL    HW1 4486   6.265   5.332   5.106 -1.1170  0.3369 -0.2282
 1315SOL    HW2 4487   6.296   5.295   5.249  0.4273 -0.2644 -0.6946
 1316SOL     OW 4488   3.899   5.600   2.382  0.7258 -0.0308  0.2253
 1316SOL    HW1 4489   3.831   5.568   2.323  1.1816 -1.8495  0.6234
 1316SOL    HW2 4490   3.940   5.521   2.417  0.9656  0.9912  2.4166
 1317SOL     OW 4491   2.548   6.436   3.554 -0.5569  0.2499 -0.0253
 1317SOL    HW1 4492   2.598   6.355   3.569 -1.0119  0.0984  0.7483
 1317SOL    HW2 4493   2.457   6.410   3.562 -0.6871  1.1013  1.7595
 1318SOL     OW 4494   5.131   0.495   5.324  0.0096  0.0625  0.2490
 1318SOL    HW1 4495   5.198   0.481   5.257 -0.5120 -1.4794  0.0124
 1318SOL    HW2 4496   5.181   0.505   5.405  0.5802 -3.4789  0.4935
 1319SOL     OW 4497   6.881   7.504   7.356  0.1667  0.7410  0.2375
 1319SOL    HW1 4498   6.803   7.544   7.395  0.4338  1.6709 -0.1396
 1319SOL    HW2 4499   6.866   7.510   7.262 -0.6610 -1.8581  0.1255
 1320SOL     OW 4500   0.194   6.086   2.153  0.1324  0.3021 -0.1785
 1320SOL    HW1 4501   0.135   6.161   2.143 -0.0360  0.1315 -0.4735
 1320SOL    HW2 4502   0.145   6.012   2.116  1.4882  0.5832 -2.7739
 1321SOL     OW 4503   5.201   5.430   3.378 -0.1492 -0.1048 -0.0104
 1321SOL    HW1 4504   5.117   5.390   3.355  0.0595 -1.7640  1.8505
 1321SOL    HW2 4505   5.205   5.509   3.325 -2.0044 -0.9740 -1.5759
 1322SOL     OW 4506   1.557   6.639   1.268 -0.3907 -0.0298  0.2568
 1322SOL    HW1 4507   1.579   6.575   1.336 -0.3652  0.2144  0.4815
 1322SOL    HW2 4508   1.573   6.724   1.310  0.0663  0.1154 -0.2047
 1323SOL     OW 4509   4.106   5.360   3.961  0.2693  0.2891 -0.4435
 1323SOL    HW1 4510   4.090   5.449   3.929 -0.2389  0.5589  0.5220
 1323SOL    HW2 4511   4.201   5.351   3.962  0.4604  1.7474  1.8089
 1324SOL     OW 4512   6.811   7.061   5.484  0.2877  0.2744  0.3728
 1324SOL    HW1 4513   6.799   7.150   5.518 -0.1349  0.7988 -1.0884
 1324SOL    HW2 4514   6.871   7.071   5.411 -0.0212 -0.5892 -0.0100
 1325SOL     OW 4515   2.112   1.079   4.391  1.1160  0.2432  0.4072
 1325SOL    HW1 4516   2.032   1.030   4.369  1.2875  0.6215 -1.2234
 1325SOL    HW2 4517   2.082   1.168   4.404  1.3461  0.6086 -1.2553
 1326SOL     OW 4518   6.206   1.726   2.026  0.0565  0.6239 -0.2209
 1326SOL    HW1 4519   6.270   1.796   2.024 -0.5929  1.2268 -0.3853
 1326SOL    HW2 4520   6.151   1.741   1.948  1.0854 -1.2069 -1.3823
 1327SOL     OW 4521   3.669   0.369   3.100 -0.4719 -0.8705  0.0225
 1327SOL    HW1 4522   3.724   0.438   3.064 -1.1035 -0.7557 -0.7265
 1327SOL    HW2 4523   3.606   0.415   3.155 -1.1404 -0.8091 -0.7879
 1328SOL     OW 4524   5.464   3.355   3.106  0.2996 -0.2581  0.1223
 1328SOL    HW1 4525   5.383   3.337   3.153 -0.4674 -0.1789 -1.1237
 1328SOL    HW2 4526   5.530   3.365   3.175 -0.1810 -2.9220  1.1219
 1329SOL     OW 4527   2.119   6.081   2.743  0.3491  0.1135  0.5178
 1329SOL    HW1 4528   2.028   6.111   2.744 -0.8841 -3.1051 -0.7569
 1329SOL    HW2 4529   2.167   6.153   2.704 -1.7774  1.6403  0.5156
 1330SOL     OW 4530   4.474   4.294   6.648  0.2716 -0.4364 -0.1462
 1330SOL    HW1 4531   4.459   4.353   6.574  2.2469 -0.9584 -1.0391
 1330SOL    HW2 4532   4.418   4.218   6.630 -0.7807  0.3080 -0.0336
 1331SOL     OW 4533   5.118   6.633   6.583  0.1051  0.2750 -0.1849
 1331SOL    HW1 4534   5.109   6.554   6.529 -0.1943  1.1452 -1.4450
 1331SOL    HW2 4535   5.105   6.705   6.522  0.2480  1.3085  0.9754
 1332SOL     OW 4536   5.792   6.335   3.562 -0.8984 -0.1052  0.0920
 1332SOL    HW1 4537   5.765   6.244   3.561  0.5869 -0.5850  0.2261
 1332SOL    HW2 4538   5.871   6.336   3.617 -0.2982  1.0701 -0.7435
 1333SOL     OW 4539   1.705   0.536   5.292 -0.4604  0.1190  0.5970
 1333SOL    HW1 4540   1.629   0.579   5.253 -1.5582  0.5754  3.0438
 1333SOL    HW2 4541   1.676   0.446   5.308 -0.2362  0.0989  0.8967
 1334SOL     OW 4542   5.448   1.048   1.917  0.1026  0.1119 -0.3779
 1334SOL    HW1 4543   5.502   1.071   1.993  1.6319 -1.0658 -1.0357
 1334SOL    HW2 4544   5.362   1.083   1.936  0.7165  0.7160  1.4428
 1335SOL     OW 4545   0.753   4.757   1.547  0.5501 -0.0435  0.3664
 1335SOL    HW1 4546   0.834   4.796   1.578  0.5727 -0.4211  0.7897
 1335SOL    HW2 4547   0.781   4.678   1.500  0.4111 -0.2904  0.7003
 1336SOL     OW 4548   7.235   4.442   6.785 -0.1755  0.3766  0.2667
 1336SOL    HW1 4549   7.260   4.509   6.722  0.6418 -0.1141  0.0567
 1336SOL    HW2 4550   7.272   4.471   6.868  2.6651 -1.1377 -0.3315
 1337SOL     OW 4551   0.350   3.097   0.320 -0.1183  0.0944  0.6739
 1337SOL    HW1 4552   0.412   3.127   0.253  0.7125 -0.4036  1.2022
 1337SOL    HW2 4553   0.324   3.177   0.366 -0.8288  0.4683 -0.3247
 1338SOL     OW 4554   6.204   0.214   1.873  0.6358 -0.5550  0.5685
 1338SOL    HW1 4555   6.108   0.221   1.874  0.5324 -1.7902  0.8423
 1338SOL    HW2 4556   6.233   0.279   1.936 -0.0308 -0.2829  0.6087
 1339SOL     OW 4557   1.145   1.533   6.307  0.4655 -0.0322 -0.1570
 1339SOL    HW1 4558   1.087   1.595   6.351 -1.3878 -1.3946 -0.5487
 1339SOL    HW2 4559   1.204   1.587   6.255  0.2710  1.4558  1.1128
 1340SOL     OW 4560   6.300   2.218   0.816  0.0209  0.1029  0.5138
 1340SOL    HW1 4561   6.212   2.256   0.824 -0.2648 -0.1855 -0.9434
 1340SOL    HW2 4562   6.353   2.289   0.779  0.1847  0.0049  0.5629
 1341SOL     OW 4563   3.946   4.132   6.977  0.7817  0.4034  0.1652
 1341SOL    HW1 4564   3.858   4.167   6.966  0.5426 -0.3114 -0.3308
 1341SOL    HW2 4565   3.999   4.178   6.912  0.6893  0.5646  0.2051
 1342SOL     OW 4566   2.118   5.667   4.945  0.3377 -0.0638 -0.6166
 1342SOL    HW1 4567   2.131   5.578   4.910 -0.3567 -1.2402  1.9093
 1342SOL    HW2 4568   2.024   5.673   4.961  0.4337  0.9932 -0.3921
 1343SOL     OW 4569   1.769   1.204   5.813  0.2130 -0.2690  0.2764
 1343SOL    HW1 4570   1.688   1.232   5.854 -0.4825 -0.4560 -0.9122
 1343SOL    HW2 4571   1.744   1.128   5.760  1.2638 -0.6421  0.2829
 1344SOL     OW 4572   1.327   2.171   2.349  0.0929  0.1580  0.4568
 1344SOL    HW1 4573   1.416   2.146   2.374 -0.6058 -1.6430  1.3017
 1344SOL    HW2 4574   1.304   2.243   2.408  0.0157 -1.2049  2.1452
 1345SOL     OW 4575   2.439   6.162   1.367 -0.0774  0.6768 -0.4382
 1345SOL    HW1 4576   2.444   6.139   1.459  1.7370 -0.2543 -0.7350
 1345SOL    HW2 4577   2.406   6.084   1.324 -2.0807  1.4884 -0.4898
 1346SOL     OW 4578   3.733   3.420   6.564  0.1648 -0.2131 -0.3141
 1346SOL    HW1 4579   3.753   3.326   6.572  0.3051 -0.1858 -0.3304
 1346SOL    HW2 4580   3.811   3.457   6.522  0.1736 -0.0637 -0.1667
 1347SOL     OW 4581   4.816   1.396   4.320 -0.0991 -0.0234  0.5933
 1347SOL    HW1 4582   4.759   1.340   4.372 -1.1046  0.8221  0.4544
 1347SOL    HW2 4583   4.762   1.474   4.303 -0.1426 -0.5982 -2.3970
 1348SOL     OW 4584   1.829   2.526   0.799 -0.6251 -0.2422 -0.0200
 1348SOL    HW1 4585   1.745   2.482   0.812  0.0138 -1.2342  0.9149
 1348SOL    HW2 4586   1.828   2.599   0.861 -0.3249 -0.9955  0.9144
 1349SOL     OW 4587   7.294   5.752   5.647 -0.4183  0.1501  0.4834
 1349SOL    HW1 4588   7.383   5.742   5.682 -0.1321 -1.7856 -0.6341
 1349SOL    HW2 4589   7.246   5.678   5.683 -0.9769 -0.0344 -0.5967
 1350SOL     OW 4590   3.108   4.353   5.709  0.2734 -0.2579 -0.0927
 1350SOL    HW1 4591   3.190   4.308   5.731  0.0576 -0.6748 -0.1381
 1350SOL    HW2 4592   3.135   4.423   5.650  0.9001  1.0503  1.6538
 1351SOL     OW 4593   5.781   1.520   0.124 -0.4729  0.2957  0.3925
 1351SOL    HW1 4594   5.756   1.493   0.035  0.8601 -0.4495  0.2242
 1351SOL    HW2 4595   5.836   1.597   0.110 -0.1179  0.0715  0.5746
 1352SOL     OW 4596   3.456   3.713   1.664  0.5750  0.0322  1.1228
 1352SOL    HW1 4597   3.412   3.720   1.749 -1.6205  2.2058 -0.0489
 1352SOL    HW2 4598   3.421   3.786   1.613  1.5607 -1.3398 -1.7616
 1353SOL     OW 4599   5.784   6.069   7.160  0.7413  0.2076 -0.0389
 1353SOL    HW1 4600   5.836   6.129   7.214  0.5896 -0.3605  0.7564
 1353SOL    HW2 4601   5.849   6.020   7.110  0.8352  1.7857 -1.5524
 1354SOL     OW 4602   2.325   2.940   3.541  0.2338 -0.5849  0.7902
 1354SOL    HW1 4603   2.356   2.984   3.620 -0.5799 -1.8399  1.8539
 1354SOL    HW2 4604   2.367   2.854   3.544  0.8110 -0.3668 -0.5832
 1355SOL     OW 4605   5.637   5.140   4.096  0.3310  0.5637  0.1902
 1355SOL    HW1 4606   5.682   5.062   4.064  2.1429  1.1599  1.1505
 1355SOL    HW2 4607   5.645   5.135   4.191 -1.0625  1.0509  0.3453
 1356SOL     OW 4608   3.254   6.861   7.071  0.0791  0.2097  0.2602
 1356SOL    HW1 4609   3.260   6.936   7.129  2.1708  1.0125 -0.8811
 1356SOL    HW2 4610   3.343   6.849   7.037 -0.9047 -0.5492 -2.3111
 1357SOL     OW 4611   0.481   0.343   0.649  0.6336  0.5744 -0.2378
 1357SOL    HW1 4612   0.534   0.356   0.570 -0.8761 -1.0520 -1.6081
 1357SOL    HW2 4613   0.393   0.325   0.616 -0.3544  1.2139  1.8960
 1358SOL     OW 4614   3.264   1.048   5.052  0.2495 -0.0870 -0.1832
 1358SOL    HW1 4615   3.285   0.961   5.086  1.6001  0.5302  0.6728
 1358SOL    HW2 4616   3.338   1.102   5.079 -1.3929  1.7497  0.9012
 1359SOL     OW 4617   6.900   2.909   2.359  0.2003 -0.1981  0.5361
 1359SOL    HW1 4618   6.956   2.855   2.414  0.6583  0.1374  0.4098
 1359SOL    HW2 4619   6.954   2.985   2.337 -0.5853  0.5565  1.1215
 1360SOL     OW 4620   5.806   0.344   1.497  0.7245  0.1097  0.1771
 1360SOL    HW1 4621   5.808   0.404   1.572 -1.5802 -0.0421  0.4300
 1360SOL    HW2 4622   5.892   0.354   1.456  0.6777  3.0158  0.6239
 1361SOL     OW 4623   6.663   4.841   0.050 -0.2100 -0.2901  0.1796
 1361SOL    HW1 4624   6.618   4.762   0.021  0.2394 -1.2295  1.8973
 1361SOL    HW2 4625   6.650   4.843   0.145  1.2781  0.7368  0.3995
 1362SOL     OW 4626   5.783   4.137   2.232  0.2450 -0.0022 -0.1601
 1362SOL    HW1 4627   5.738   4.060   2.267 -0.3741  0.0569 -0.8112
 1362SOL    HW2 4628   5.747   4.210   2.282  0.3186 -0.0567 -0.0256
 1363SOL     OW 4629   3.213   7.423   3.745  0.0295  0.0772  0.3072
 1363SOL    HW1 4630   3.307   7.413   3.760  0.1411 -1.5942 -1.1725
 1363SOL    HW2 4631   3.173   7.388   3.824  0.6588 -1.4226 -0.0023
 1364SOL     OW 4632   2.456   2.713   4.360  0.1104  0.1626 -0.0803
 1364SOL    HW1 4633   2.526   2.776   4.376 -0.3572  0.9039 -0.8541
 1364SOL    HW2 4634   2.456   2.700   4.265  0.2895 -1.1334  0.0666
 1365SOL     OW 4635   0.269   5.504   3.805  0.1651  0.5146 -0.0392
 1365SOL    HW1 4636   0.257   5.509   3.900 -0.5944  1.5957 -0.1750
 1365SOL    HW2 4637   0.361   5.480   3.794  0.2550  0.3374  0.9646
 1366SOL     OW 4638   6.021   6.210   0.160  0.4698  0.0233 -0.0278
 1366SOL    HW1 4639   6.047   6.197   0.068  1.8979  0.5462  0.2670
 1366SOL    HW2 4640   6.101   6.191   0.210 -0.3136 -0.3332  1.1242
 1367SOL     OW 4641   2.168   1.713   5.319 -0.3341 -0.6197 -0.2137
 1367SOL    HW1 4642   2.243   1.730   5.263  1.3166 -1.4880  1.6179
 1367SOL    HW2 4643   2.159   1.618   5.320  0.2258 -0.7007  1.5774
 1368SOL     OW 4644   0.396   5.887   5.227  0.5702  0.1478 -0.5924
 1368SOL    HW1 4645   0.458   5.827   5.268  0.8777  0.4624 -0.5856
 1368SOL    HW2 4646   0.329   5.831   5.188 -0.5051 -0.1534  1.5371
 1369SOL     OW 4647   0.524   2.424   2.889 -0.2576  0.0439 -0.1030
 1369SOL    HW1 4648   0.458   2.397   2.825 -2.5239  1.6680  1.3594
 1369SOL    HW2 4649   0.525   2.354   2.954  0.0808 -0.3731 -0.5534
 1370SOL     OW 4650   0.247   3.321   7.186  0.2035  0.2095 -0.2908
 1370SOL    HW1 4651   0.278   3.409   7.167 -0.4328  0.5012 -0.0001
 1370SOL    HW2 4652   0.233   3.320   7.281  1.6994 -0.6950 -0.0470
 1371SOL     OW 4653   3.225   1.928   1.673 -0.1944  0.6571  0.2025
 1371SOL    HW1 4654   3.288   1.891   1.611 -0.5134 -2.6903  1.6090
 1371SOL    HW2 4655   3.211   2.018   1.644  2.4863  0.4120 -2.2653
 1372SOL     OW 4656   4.192   1.604   7.282  0.2161  0.2145  0.1597
 1372SOL    HW1 4657   4.196   1.671   7.214 -0.3925  0.1636  0.0756
 1372SOL    HW2 4658   4.272   1.553   7.268  1.8808  2.2374  1.6136
 1373SOL     OW 4659   6.892   7.368   1.660 -0.1443 -0.7317 -0.2308
 1373SOL    HW1 4660   6.916   7.364   1.567  0.4431 -0.5441 -0.0872
 1373SOL    HW2 4661   6.872   7.277   1.683 -0.2457 -0.7868 -0.5264
 1374SOL     OW 4662   4.869   6.798   6.672  0.0867  0.4887  0.2149
 1374SOL    HW1 4663   4.896   6.720   6.719  1.0643  0.4979 -0.3085
 1374SOL    HW2 4664   4.778   6.780   6.646  0.1899 -0.3256  0.3919
 1375SOL     OW 4665   4.296   4.760   1.824 -0.2357  0.3928  0.4417
 1375SOL    HW1 4666   4.363   4.729   1.763  0.4998  0.7266  1.0564
 1375SOL    HW2 4667   4.298   4.856   1.814  0.6949  0.5462  1.7630
 1376SOL     OW 4668   5.944   0.209   2.254  0.1850  0.2597  0.2311
 1376SOL    HW1 4669   5.972   0.291   2.213  0.4788  0.3971  0.7002
 1376SOL    HW2 4670   5.856   0.194   2.220  1.0950 -0.6048 -1.8965
 1377SOL     OW 4671   6.281   7.318   6.959 -0.1654 -0.7387  0.5521
 1377SOL    HW1 4672   6.287   7.410   6.935  0.5287 -0.2670  2.3495
 1377SOL    HW2 4673   6.372   7.290   6.966 -0.3699 -1.6170 -0.0850
 1378SOL     OW 4674   2.701   7.420   0.444  0.0361 -0.2807  0.4095
 1378SOL    HW1 4675   2.700   7.411   0.539 -0.9345  0.1407  0.4482
 1378SOL    HW2 4676   2.750   7.344   0.413 -0.4601 -0.9266  1.1905
 1379SOL     OW 4677   3.276   4.555   3.250  0.0696  0.3560 -0.1841
 1379SOL    HW1 4678   3.260   4.538   3.158 -0.1641  0.8422 -0.2374
 1379SOL    HW2 4679   3.315   4.643   3.251  3.4315 -0.9741 -0.1472
 1380SOL     OW 4680   5.512   0.623   0.649 -0.3472  0.7069 -0.0249
 1380SOL    HW1 4681   5.493   0.641   0.556 -1.3802  0.5807  0.1441
 1380SOL    HW2 4682   5.604   0.598   0.650  0.0043  1.8614 -0.8553
 1381SOL     OW 4683   0.134   6.220   5.020 -0.5017 -0.5890  0.1103
 1381SOL    HW1 4684   0.148   6.275   5.097  0.0924 -1.4079  0.6028
 1381SOL    HW2 4685   0.044   6.239   4.993 -0.4068  0.3860  0.4517
 1382SOL     OW 4686   1.004   0.363   6.865  0.3939 -0.6062 -0.1163
 1382SOL    HW1 4687   0.987   0.292   6.803 -0.3117  0.3033 -1.0115
 1382SOL    HW2 4688   0.947   0.344   6.939 -0.4064 -0.5449 -0.7054
 1383SOL     OW 4689   4.427   3.733   6.582 -0.3911 -0.0318  0.0990
 1383SOL    HW1 4690   4.471   3.734   6.497  0.0107 -2.7785  0.1637
 1383SOL    HW2 4691   4.377   3.814   6.585  1.5598  1.3358 -1.6668
 1384SOL     OW 4692   0.508   2.401   5.388  0.1189 -0.2231  0.0691
 1384SOL    HW1 4693   0.542   2.490   5.380  0.2167 -0.3245 -0.6930
 1384SOL    HW2 4694   0.431   2.399   5.331  1.1469 -1.1290 -1.3312
 1385SOL     OW 4695   5.865   4.632   4.376  0.2104  0.3470  0.2993
 1385SOL    HW1 4696   5.861   4.715   4.422 -2.6814  0.9293 -0.7872
 1385SOL    HW2 4697   5.938   4.585   4.417  2.5141  3.6531  0.4091
 1386SOL     OW 4698   3.926   2.637   0.781  0.0590 -0.6844  0.4356
 1386SOL    HW1 4699   3.877   2.575   0.834  1.5903 -0.4201  2.2684
 1386SOL    HW2 4700   3.861   2.702   0.753 -0.9417 -1.2759  1.3321
 1387SOL     OW 4701   5.928   0.201   6.646 -0.0099 -0.6627  0.3186
 1387SOL    HW1 4702   5.851   0.164   6.602 -0.1995 -1.0667  0.9738
 1387SOL    HW2 4703   5.981   0.237   6.575 -1.4766  0.9324 -0.0151
 1388SOL     OW 4704   2.582   3.476   7.155 -0.0406  0.2263  0.1222
 1388SOL    HW1 4705   2.630   3.432   7.085  0.8635  0.5463  0.5274
 1388SOL    HW2 4706   2.532   3.545   7.111  0.3583  0.2929 -0.2291
 1389SOL     OW 4707   5.873   2.729   0.411 -0.2934 -0.1052 -0.4264
 1389SOL    HW1 4708   5.845   2.638   0.395 -1.1707  0.4333 -2.2081
 1389SOL    HW2 4709   5.865   2.740   0.506 -1.6862 -1.4298 -0.3408
 1390SOL     OW 4710   4.329   2.169   5.053 -0.2414  0.0501  0.8894
 1390SOL    HW1 4711   4.392   2.237   5.030  0.3370 -0.5354  0.7212
 1390SOL    HW2 4712   4.262   2.175   4.984  1.1782 -1.3011 -0.6859
 1391SOL     OW 4713   2.906   2.866   4.015  0.3692 -0.4448  0.5085
 1391SOL    HW1 4714   2.928   2.800   4.081  2.3488 -0.6319 -0.2577
 1391SOL    HW2 4715   2.981   2.865   3.955 -0.0499  1.7374 -0.1301
 1392SOL     OW 4716   1.973   0.772   4.637  0.3988  0.3285 -0.1243
 1392SOL    HW1 4717   1.885   0.796   4.608  0.8183  0.5157 -1.2972
 1392SOL    HW2 4718   2.003   0.707   4.574 -0.2175 -2.4916  2.2601
 1393SOL     OW 4719   0.413   6.812   6.417 -0.0078 -0.4183 -0.1987
 1393SOL    HW1 4720   0.477   6.769   6.475  0.4017  0.3776 -0.0474
 1393SOL    HW2 4721   0.458   6.891   6.386 -1.5106  1.1065  1.2948
 1394SOL     OW 4722   2.898   2.639   7.076  0.7636 -0.3320 -0.3214
 1394SOL    HW1 4723   2.919   2.697   7.150  0.1225 -0.7302  0.1812
 1394SOL    HW2 4724   2.866   2.698   7.008  1.3601  0.0389 -0.2863
 1395SOL     OW 4725   5.057   4.551   3.053 -0.0146 -0.6325  0.3054
 1395SOL    HW1 4726   5.089   4.464   3.028 -0.9491 -0.9347  0.1125
 1395SOL    HW2 4727   4.967   4.553   3.020  0.6460  1.2007 -1.5731
 1396SOL     OW 4728   5.270   4.726   7.221  0.2036  0.4560 -0.3332
 1396SOL    HW1 4729   5.236   4.689   7.140  1.8011  0.5484 -1.0643
 1396SOL    HW2 4730   5.252   4.659   7.287 -1.4099  0.5229 -0.6602
 1397SOL     OW 4731   1.593   4.154   0.690  0.8132  0.0903  0.0442
 1397SOL    HW1 4732   1.599   4.236   0.642  3.3515 -0.2783 -0.4218
 1397SOL    HW2 4733   1.606   4.179   0.782  1.4561  0.2364 -0.0841
 1398SOL     OW 4734   4.660   5.590   4.056 -0.2320 -0.4281 -0.3901
 1398SOL    HW1 4735   4.627   5.515   4.104  0.7535 -0.7388 -0.1715
 1398SOL    HW2 4736   4.658   5.562   3.964 -0.6234 -0.4212 -0.3846
 1399SOL     OW 4737   1.542   4.386   4.469 -0.1180 -0.0991  0.2295
 1399SOL    HW1 4738   1.623   4.407   4.514  0.3800 -1.1858 -0.1339
 1399SOL    HW2 4739   1.504   4.472   4.446  0.4999  0.4278  1.1163
 1400SOL     OW 4740   6.447   1.274   4.846 -0.1647 -0.3545 -0.4724
 1400SOL    HW1 4741   6.358   1.245   4.826 -1.2248  3.3927 -1.9794
 1400SOL    HW2 4742   6.503   1.212   4.799 -1.8977 -2.4969  0.0884
 1401SOL     OW 4743   1.700   7.116   7.084  0.3364 -0.0902 -0.2441
 1401SOL    HW1 4744   1.657   7.148   7.163 -0.3576  0.6792 -0.9094
 1401SOL    HW2 4745   1.692   7.021   7.089  0.0772 -0.0365  0.4873
 1402SOL     OW 4746   6.641   4.355   4.000  0.5644 -0.3018  0.2363
 1402SOL    HW1 4747   6.672   4.340   3.911  0.1386 -0.3781  0.0984
 1402SOL    HW2 4748   6.678   4.440   4.025  0.5706 -0.2170 -0.0618
 1403SOL     OW 4749   2.733   5.061   7.058 -0.2464 -0.2033 -0.0718
 1403SOL    HW1 4750   2.773   5.075   6.972 -1.3551  1.1383 -0.4174
 1403SOL    HW2 4751   2.790   5.107   7.119 -0.1649 -0.0320 -0.2758
 1404SOL     OW 4752   2.888   7.409   7.328 -0.1656 -0.4213  0.7231
 1404SOL    HW1 4753   2.855   7.497   7.343 -1.3351 -0.4083 -1.5648
 1404SOL    HW2 4754   2.810   7.356   7.311  0.6221 -1.5846  0.5732
 1405SOL     OW 4755   5.671   6.473   5.602 -0.1539  0.1484  0.1821
 1405SOL    HW1 4756   5.720   6.395   5.627 -0.5047  0.2684  1.2745
 1405SOL    HW2 4757   5.680   6.477   5.506  0.3822 -0.8726  0.1775
 1406SOL     OW 4758   5.354   5.515   0.729  0.0529  0.3362  0.0669
 1406SOL    HW1 4759   5.308   5.433   0.714 -0.4069  0.1848  2.0064
 1406SOL    HW2 4760   5.418   5.495   0.798 -1.0852  1.8758  1.6882
 1407SOL     OW 4761   7.323   6.929   3.432 -0.0093 -0.2927  0.2353
 1407SOL    HW1 4762   7.275   6.994   3.380  0.3681 -0.7560 -0.7098
 1407SOL    HW2 4763   7.260   6.901   3.498  0.0043  1.4475  1.0439
 1408SOL     OW 4764   7.151   1.627   3.189 -0.4352  0.1763  0.1090
 1408SOL    HW1 4765   7.187   1.549   3.230 -0.4797  0.4284  0.6437
 1408SOL    HW2 4766   7.221   1.692   3.194 -0.7624  0.5007  0.6616
 1409SOL     OW 4767   5.030   6.117   0.237 -0.1063 -0.7684 -0.2675
 1409SOL    HW1 4768   4.966   6.064   0.284 -1.2416  0.4416 -0.4099
 1409SOL    HW2 4769   5.111   6.066   0.242 -0.6717 -1.5744  1.3135
 1410SOL     OW 4770   2.395   3.896   5.179 -0.1559  0.2312 -0.6312
 1410SOL    HW1 4771   2.375   3.839   5.105 -0.9074  1.1087 -1.1258
 1410SOL    HW2 4772   2.476   3.861   5.215 -0.0632 -0.5310 -1.5409
 1411SOL     OW 4773   5.698   1.011   4.946 -0.6693  0.1333 -0.2805
 1411SOL    HW1 4774   5.781   1.001   4.991 -1.3517  0.3158  1.0767
 1411SOL    HW2 4775   5.720   1.049   4.861  0.5878  0.4854  0.1893
 1412SOL     OW 4776   5.125   4.081   3.407  0.2654 -0.0300 -0.1691
 1412SOL    HW1 4777   5.110   4.150   3.342 -0.5803  1.1960  1.2528
 1412SOL    HW2 4778   5.057   4.015   3.388  0.8143 -0.2901 -1.2786
 1413SOL     OW 4779   5.699   2.803   1.778  0.1333 -0.1330 -0.4024
 1413SOL    HW1 4780   5.664   2.730   1.828  1.8804 -0.0604  1.0194
 1413SOL    HW2 4781   5.625   2.863   1.768 -0.6287 -0.8259  0.8150
 1414SOL     OW 4782   1.449   6.041   2.849  0.5216 -0.0832 -0.6202
 1414SOL    HW1 4783   1.448   6.120   2.796 -0.0595 -0.1052 -0.6476
 1414SOL    HW2 4784   1.542   6.021   2.861  0.6609  0.2066 -1.1992
 1415SOL     OW 4785   3.592   4.800   3.166 -0.3594  0.0650  0.5452
 1415SOL    HW1 4786   3.681   4.830   3.185 -0.3110  0.6621 -0.5297
 1415SOL    HW2 4787   3.594   4.707   3.186  0.2269  0.2558  1.4616
 1416SOL     OW 4788   7.534   7.525   1.419  0.4585  0.1164  0.4259
 1416SOL    HW1 4789   7.560   7.470   1.492 -0.1056 -0.7328  0.0118
 1416SOL    HW2 4790   7.611   7.529   1.362 -0.4571 -3.2320 -1.3218
 1417SOL     OW 4791   5.437   1.344   7.536  0.2143  0.7854 -0.2763
 1417SOL    HW1 4792   5.488   1.409   7.488  1.1398 -0.1158 -0.5518
 1417SOL    HW2 4793   5.396   1.290   7.468  0.4968  0.2881 -0.0579
 1418SOL     OW 4794   6.163   7.093   5.344  0.0616  0.1654 -0.0368
 1418SOL    HW1 4795   6.129   7.135   5.423 -0.8337 -0.6355  0.0147
 1418SOL    HW2 4796   6.213   7.018   5.377  0.7945  0.5850 -0.1770
 1419SOL     OW 4797   2.330   0.992   0.321  0.3870  0.5118  0.0119
 1419SOL    HW1 4798   2.376   0.958   0.398 -0.5695 -1.3990 -0.1908
 1419SOL    HW2 4799   2.396   0.997   0.253  0.8903  0.6312  0.4995
 1420SOL     OW 4800   6.161   0.704   4.223  0.6832  0.6250 -0.1785
 1420SOL    HW1 4801   6.196   0.706   4.135  3.0466 -1.5029  0.5894
 1420SOL    HW2 4802   6.219   0.760   4.274  0.0285  0.9293  0.2479
 1421SOL     OW 4803   3.474   1.496   6.268  0.0118  0.3064  0.0547
 1421SOL    HW1 4804   3.385   1.463   6.258 -0.1612  0.1662  1.7229
 1421SOL    HW2 4805   3.466   1.565   6.333  0.9522  1.1328 -0.6848
 1422SOL     OW 4806   4.750   4.327   1.371  0.0292 -0.3437  0.0881
 1422SOL    HW1 4807   4.707   4.253   1.415 -1.0862  0.9486  1.2663
 1422SOL    HW2 4808   4.735   4.311   1.277 -1.9801 -0.6107  0.4014
 1423SOL     OW 4809   2.737   7.088   7.450 -0.0216 -0.1245  0.7571
 1423SOL    HW1 4810   2.760   6.997   7.432  0.4608 -0.3035  2.1715
 1423SOL    HW2 4811   2.659   7.082   7.505  1.1143  0.2247  2.4639
 1424SOL     OW 4812   1.743   0.819   1.226 -0.1197 -0.0388 -0.9248
 1424SOL    HW1 4813   1.814   0.758   1.205  1.2345  1.6681 -1.5095
 1424SOL    HW2 4814   1.716   0.795   1.315  3.6815  1.4399  0.8589
 1425SOL     OW 4815   6.332   1.686   0.931  0.0704 -0.0908  0.1372
 1425SOL    HW1 4816   6.287   1.699   0.847 -0.5391  1.9787  0.7307
 1425SOL    HW2 4817   6.420   1.657   0.906 -0.3604 -0.3644 -1.1730
 1426SOL     OW 4818   7.024   2.985   6.921  0.3372 -0.1386  0.4058
 1426SOL    HW1 4819   7.110   2.943   6.925  0.1150 -0.5212  1.7267
 1426SOL    HW2 4820   6.964   2.914   6.900  0.1477 -0.2010  1.1371
 1427SOL     OW 4821   3.805   3.884   5.812  0.7103 -0.0943 -0.0423
 1427SOL    HW1 4822   3.840   3.829   5.882 -1.2451 -0.1146  0.9952
 1427SOL    HW2 4823   3.851   3.967   5.821 -0.6118  0.4653  2.3738
 1428SOL     OW 4824   6.976   5.999   0.355  0.1944  0.3924 -0.6935
 1428SOL    HW1 4825   7.011   6.000   0.266  0.8902  1.2909 -0.4190
 1428SOL    HW2 4826   6.881   5.995   0.343  0.2603  1.0324 -1.4877
 1429SOL     OW 4827   5.583   5.921   7.266  0.1540  0.5114 -0.0779
 1429SOL    HW1 4828   5.647   5.980   7.226  2.2981 -1.3087  0.4378
 1429SOL    HW2 4829   5.602   5.836   7.227 -1.5364 -0.2241  0.6228
 1430SOL     OW 4830   4.121   4.319   2.666  0.0138  0.7105  0.0773
 1430SOL    HW1 4831   4.186   4.367   2.717  2.5735 -1.1173 -1.2949
 1430SOL    HW2 4832   4.143   4.337   2.575 -0.7425 -0.7732 -0.4347
 1431SOL     OW 4833   0.496   4.049   7.036 -0.0163 -0.0322 -0.4039
 1431SOL    HW1 4834   0.548   4.067   7.114 -0.0684 -1.8354  0.1046
 1431SOL    HW2 4835   0.406   4.040   7.069 -0.3070  0.8558 -0.9352
 1432SOL     OW 4836   1.740   6.133   0.442  0.1917  0.1626  0.1133
 1432SOL    HW1 4837   1.801   6.170   0.378 -2.0560  2.3312 -0.9309
 1432SOL    HW2 4838   1.796   6.104   0.514  2.5046  1.5545 -0.9925
 1433SOL     OW 4839   5.157   7.339   4.155 -0.4873  0.3333 -0.2299
 1433SOL    HW1 4840   5.249   7.341   4.182 -0.1892 -0.7794 -1.0735
 1433SOL    HW2 4841   5.117   7.412   4.201  1.2760  2.1729 -1.4171
 1434SOL     OW 4842   2.607   4.443   3.096  0.3723  0.2296  0.6159
 1434SOL    HW1 4843   2.602   4.530   3.136  3.3161 -0.0268  1.8033
 1434SOL    HW2 4844   2.654   4.390   3.160 -0.2537 -1.9407 -0.6085
 1435SOL     OW 4845   0.007   1.408   3.938  0.0670 -0.6456  0.5416
 1435SOL    HW1 4846   0.035   1.399   4.029 -0.6820 -0.6882  0.7710
 1435SOL    HW2 4847   0.085   1.441   3.893 -0.0771  1.2351  1.5506
 1436SOL     OW 4848   6.589   0.218   0.963 -0.2345  0.3428  0.0037
 1436SOL    HW1 4849   6.523   0.150   0.978 -1.1084  1.0600 -0.4235
 1436SOL    HW2 4850   6.541   0.287   0.916  0.9804  0.6254 -0.8719
 1437SOL     OW 4851   0.995   2.183   5.791  0.1325  0.6634 -0.8691
 1437SOL    HW1 4852   1.078   2.211   5.830  0.1008  0.2687 -0.5073
 1437SOL    HW2 4853   0.981   2.095   5.827 -1.2663  1.3448  0.3744
 1438SOL     OW 4854   3.054   7.212   4.406 -0.0481  0.0056 -0.4565
 1438SOL    HW1 4855   2.977   7.265   4.427  1.1336  1.4499  0.3766
 1438SOL    HW2 4856   3.110   7.219   4.484  1.0508 -0.8301 -1.1399
 1439SOL     OW 4857   1.446   1.866   5.031 -0.0102 -0.1016  0.4902
 1439SOL    HW1 4858   1.458   1.847   5.124 -0.0236 -2.3851  0.0913
 1439SOL    HW2 4859   1.352   1.854   5.015  0.1532 -0.7948 -0.0095
 1440SOL     OW 4860   3.161   6.863   4.577  0.6008 -0.3358  0.4329
 1440SOL    HW1 4861   3.216   6.912   4.516 -0.2375  0.0892  0.0081
 1440SOL    HW2 4862   3.080   6.848   4.530 -0.7268  1.4665  1.9767
 1441SOL     OW 4863   6.608   5.701   5.852 -0.5157 -0.3518  0.9269
 1441SOL    HW1 4864   6.551   5.758   5.903  0.5908  2.2862 -0.5995
 1441SOL    HW2 4865   6.693   5.706   5.896  0.4401  1.9244 -0.9631
 1442SOL     OW 4866   4.831   0.252   2.975  0.3488 -0.7442 -0.2155
 1442SOL    HW1 4867   4.769   0.190   2.936  0.4097 -0.1258 -1.3550
 1442SOL    HW2 4868   4.853   0.214   3.060 -1.4644 -1.0759  0.1634
 1443SOL     OW 4869   2.639   0.387   4.855 -0.2499 -0.2427 -0.3084
 1443SOL    HW1 4870   2.630   0.306   4.904  1.9975 -0.3859 -0.0380
 1443SOL    HW2 4871   2.564   0.389   4.796 -1.2025 -1.6994  0.8091
 1444SOL     OW 4872   2.380   2.023   2.538  0.4490  0.0114 -0.3563
 1444SOL    HW1 4873   2.295   2.040   2.580  0.6056 -0.8588  0.3403
 1444SOL    HW2 4874   2.440   2.084   2.579  0.5803 -0.7688  0.6506
 1445SOL     OW 4875   0.988   2.160   3.685  0.0859 -0.1713 -0.0192
 1445SOL    HW1 4876   0.978   2.253   3.704 -1.0915 -0.3677  0.4195
 1445SOL    HW2 4877   0.914   2.119   3.729  0.9573 -1.3993  0.3656
 1446SOL     OW 4878   6.613   6.811   3.132  0.3855 -0.2725  0.0533
 1446SOL    HW1 4879   6.525   6.848   3.129  0.6493  0.3266 -1.2194
 1446SOL    HW2 4880   6.605   6.732   3.185 -0.8584 -0.0741  0.1811
 1447SOL     OW 4881   1.349   1.361   1.662  0.2441 -0.8579 -0.1016
 1447SOL    HW1 4882   1.308   1.410   1.733 -0.8745 -0.7500 -0.8066
 1447SOL    HW2 4883   1.278   1.342   1.601  1.2822 -0.4528 -1.4858
 1448SOL     OW 4884   1.968   5.087   3.549 -0.3545  0.1014  0.1346
 1448SOL    HW1 4885   1.921   5.161   3.587 -0.1637 -0.2595  1.0888
 1448SOL    HW2 4886   2.044   5.074   3.606 -0.2532 -0.6776 -0.1624
 1449SOL     OW 4887   3.591   4.456   5.891 -0.0931 -0.2445  0.0635
 1449SOL    HW1 4888   3.508   4.464   5.937  0.3810 -0.7074  1.0288
 1449SOL    HW2 4889   3.608   4.362   5.887  1.5351 -0.1216  2.0881
 1450SOL     OW 4890   7.213   2.690   7.227  0.7888  0.3008  0.2849
 1450SOL    HW1 4891   7.225   2.614   7.285  0.0661 -0.9970 -1.1964
 1450SOL    HW2 4892   7.118   2.697   7.217  0.8535  1.3137  0.2422
 1451SOL     OW 4893   4.356   7.572   0.959  0.1196  0.4797 -0.5309
 1451SOL    HW1 4894   4.438   7.521   0.962 -0.7206 -1.0239 -1.7715
 1451SOL    HW2 4895   4.319   7.562   1.047  2.0430  2.6367  0.6389
 1452SOL     OW 4896   2.485   6.034   3.406 -0.5458  0.8637  0.1919
 1452SOL    HW1 4897   2.453   6.117   3.370 -1.1307  0.7714  0.5022
 1452SOL    HW2 4898   2.421   6.010   3.472  0.3772  0.8863  1.1125
 1453SOL     OW 4899   0.562   3.199   2.970 -0.2511 -0.7463  0.7049
 1453SOL    HW1 4900   0.521   3.142   3.035 -2.0332  0.0318  0.3461
 1453SOL    HW2 4901   0.538   3.160   2.886 -0.9165  0.1247  0.4708
 1454SOL     OW 4902   3.535   0.550   0.639 -0.2486 -0.2645  0.3237
 1454SOL    HW1 4903   3.501   0.482   0.581 -0.5399  0.8543 -0.8814
 1454SOL    HW2 4904   3.475   0.551   0.713 -0.6843 -0.8061 -0.0151
 1455SOL     OW 4905   2.149   1.788   6.329  0.1788  0.2667  0.2097
 1455SOL    HW1 4906   2.054   1.794   6.313 -0.4552  0.1253  3.2371
 1455SOL    HW2 4907   2.182   1.732   6.259 -1.8274  0.9790 -1.3950
 1456SOL     OW 4908   3.254   3.920   2.347  0.2657  0.1503 -0.1458
 1456SOL    HW1 4909   3.209   3.847   2.389 -0.7754  0.5533 -0.5159
 1456SOL    HW2 4910   3.283   3.885   2.262 -1.1968  0.4346 -0.8000
 1457SOL     OW 4911   6.335   3.615   0.229 -0.2901 -0.4242  0.3404
 1457SOL    HW1 4912   6.387   3.535   0.225  0.4029  0.0319  0.0645
 1457SOL    HW2 4913   6.367   3.662   0.306 -0.8468 -0.5077  0.6321
 1458SOL     OW 4914   3.884   3.041   0.230 -0.3439  0.0080 -0.2149
 1458SOL    HW1 4915   3.912   3.041   0.321  0.3456 -0.3144 -0.4202
 1458SOL    HW2 4916   3.932   2.968   0.190  0.3971  0.9587 -1.1382
 1459SOL     OW 4917   0.951   6.946   6.310  0.2350 -0.1533 -0.4321
 1459SOL    HW1 4918   1.024   6.914   6.257  1.1588 -1.8107  1.6988
 1459SOL    HW2 4919   0.890   6.872   6.313 -2.0569  1.4364 -2.8064
 1460SOL     OW 4920   3.516   0.930   5.885 -0.6770 -0.0479  0.1533
 1460SOL    HW1 4921   3.560   0.845   5.896 -1.5013 -0.3360  1.4793
 1460SOL    HW2 4922   3.583   0.994   5.911 -0.2817 -0.3282 -0.1505
 1461SOL     OW 4923   0.414   0.759   0.649 -0.0014  0.7772 -0.1128
 1461SOL    HW1 4924   0.361   0.839   0.646  1.3903  1.7399 -0.0420
 1461SOL    HW2 4925   0.400   0.717   0.564 -0.0146  1.5886 -0.5166
 1462SOL     OW 4926   7.577   3.694   5.074  0.1340 -0.7783  0.2516
 1462SOL    HW1 4927   7.582   3.688   5.170  0.0028  1.6460  0.4651
 1462SOL    HW2 4928   7.484   3.697   5.055  0.1682 -0.6737  0.0968
 1463SOL     OW 4929   0.560   4.777   5.809 -0.0863 -0.4035  0.4871
 1463SOL    HW1 4930   0.628   4.836   5.843  0.5161 -0.0370 -1.2640
 1463SOL    HW2 4931   0.574   4.776   5.715 -3.0482  0.3532 -0.0565
 1464SOL     OW 4932   1.665   6.705   0.985 -0.3274 -0.1206 -0.6884
 1464SOL    HW1 4933   1.735   6.770   0.985 -1.2470  0.9065 -0.2467
 1464SOL    HW2 4934   1.671   6.663   1.071 -0.2665  0.0060 -0.6295
 1465SOL     OW 4935   6.312   7.079   1.138  0.9968  0.4807 -0.0060
 1465SOL    HW1 4936   6.292   6.994   1.177 -1.0613  0.6107 -0.6615
 1465SOL    HW2 4937   6.327   7.136   1.213  0.5007 -0.0375  0.5047
 1466SOL     OW 4938   0.091   7.216   0.295 -0.5172  0.0494  0.1734
 1466SOL    HW1 4939   0.075   7.238   0.203 -1.3406  2.9082  0.8920
 1466SOL    HW2 4940   0.101   7.301   0.339  1.0274 -1.2471  2.5578
 1467SOL     OW 4941   2.529   1.531   0.663 -0.1448 -0.2482  0.0944
 1467SOL    HW1 4942   2.601   1.593   0.676 -1.5839  1.2861  1.1791
 1467SOL    HW2 4943   2.467   1.552   0.733 -1.5213 -1.7124 -0.6320
 1468SOL     OW 4944   7.169   7.589   5.725 -0.4240 -0.6124  0.3743
 1468SOL    HW1 4945   7.222   7.586   5.804 -0.6573 -2.2877  0.4930
 1468SOL    HW2 4946   7.178   7.502   5.686 -1.0341 -0.1045 -0.9658
 1469SOL     OW 4947   0.262   1.725   6.824  0.0498 -0.0899  0.4262
 1469SOL    HW1 4948   0.287   1.813   6.850 -2.5241  0.8025  0.2155
 1469SOL    HW2 4949   0.276   1.722   6.730 -0.0615  0.1815  0.4014
 1470SOL     OW 4950   6.904   4.960   3.384  0.1694  0.0193 -0.5717
 1470SOL    HW1 4951   6.937   4.996   3.466  0.4731  0.3902 -0.8536
 1470SOL    HW2 4952   6.977   4.967   3.323 -0.1039 -0.1075 -0.9197
 1471SOL     OW 4953   4.098   4.148   5.642 -0.3232 -0.0559  0.1891
 1471SOL    HW1 4954   4.186   4.119   5.620 -0.1764  1.4189 -1.4037
 1471SOL    HW2 4955   4.067   4.193   5.564 -2.7316 -0.9923  0.5101
 1472SOL     OW 4956   5.108   0.440   0.864  0.2661  0.3164 -0.1170
 1472SOL    HW1 4957   5.089   0.532   0.847  0.4085  0.2206 -0.8339
 1472SOL    HW2 4958   5.189   0.441   0.916 -0.1499  0.6172  0.5364
 1473SOL     OW 4959   7.487   7.517   3.243 -0.0589 -0.3205 -0.2978
 1473SOL    HW1 4960   7.528   7.600   3.267  0.5392  0.5597 -3.7848
 1473SOL    HW2 4961   7.416   7.506   3.306 -1.5463  4.0216 -0.8790
 1474SOL     OW 4962   6.193   4.897   2.615  0.4125 -0.2231 -0.0401
 1474SOL    HW1 4963   6.153   4.817   2.648 -1.5899  1.0316  0.8064
 1474SOL    HW2 4964   6.275   4.904   2.663  1.1789 -2.2926 -0.9484
 1475SOL     OW 4965   3.657   4.065   4.234  0.3071 -0.7057  0.6561
 1475SOL    HW1 4966   3.593   4.136   4.241 -0.2187 -1.3331  2.6293
 1475SOL    HW2 4967   3.736   4.107   4.198 -1.2555 -0.0149 -2.3410
 1476SOL     OW 4968   4.816   6.669   4.031 -0.0280  0.7834 -0.8533
 1476SOL    HW1 4969   4.810   6.761   4.057 -0.2046  0.6136 -0.2826
 1476SOL    HW2 4970   4.731   6.632   4.052  0.2932  0.3089 -0.3736
 1477SOL     OW 4971   4.253   4.264   1.003 -0.1488  0.1964 -0.1720
 1477SOL    HW1 4972   4.246   4.170   1.021 -0.4377  0.1458 -0.5316
 1477SOL    HW2 4973   4.300   4.269   0.920  0.6259  0.4041  0.2707
 1478SOL     OW 4974   4.006   5.384   4.595  0.6209 -0.4035  0.3155
 1478SOL    HW1 4975   4.067   5.393   4.669  0.3880 -0.4354  0.5124
 1478SOL    HW2 4976   3.937   5.447   4.613  1.4829  0.9233 -0.8104
 1479SOL     OW 4977   3.027   4.963   0.167 -0.0978  0.0838 -0.2026
 1479SOL    HW1 4978   2.997   4.956   0.258  1.1773  0.4646  0.2628
 1479SOL    HW2 4979   3.121   4.951   0.172  0.1123  1.0601 -1.3623
 1480SOL     OW 4980   1.041   0.501   5.583  0.5576 -0.4523 -0.3196
 1480SOL    HW1 4981   1.051   0.430   5.647  0.5729 -0.2566 -0.1058
 1480SOL    HW2 4982   1.076   0.464   5.502  0.4336 -0.7407 -0.2424
 1481SOL     OW 4983   1.871   4.661   5.328 -0.2331 -0.1656 -0.8618
 1481SOL    HW1 4984   1.938   4.640   5.394 -1.0214 -0.6581 -0.1963
 1481SOL    HW2 4985   1.805   4.592   5.339 -1.5920  1.1444 -0.4539
 1482SOL     OW 4986   6.373   3.428   1.089 -0.6471  0.4507 -0.0530
 1482SOL    HW1 4987   6.383   3.435   1.184  0.9014 -0.8760 -0.0745
 1482SOL    HW2 4988   6.439   3.487   1.053  1.6735 -2.0136 -0.2184
 1483SOL     OW 4989   0.536   2.925   4.397  0.2176  0.1368 -0.2175
 1483SOL    HW1 4990   0.524   2.833   4.422  0.6887  0.1059 -0.0798
 1483SOL    HW2 4991   0.480   2.937   4.321 -0.1279 -0.1667 -0.0112
 1484SOL     OW 4992   5.991   0.690   3.630 -0.3693  0.2884  0.0836
 1484SOL    HW1 4993   5.910   0.666   3.584  0.8916 -3.9939 -0.2915
 1484SOL    HW2 4994   6.054   0.705   3.560 -0.0918  0.6869  0.4145
 1485SOL     OW 4995   0.735   3.421   2.601  0.0420  0.3344 -0.8764
 1485SOL    HW1 4996   0.695   3.419   2.514 -1.3364 -0.7726 -0.2519
 1485SOL    HW2 4997   0.683   3.483   2.651 -1.8415 -2.0605  0.3172
 1486SOL     OW 4998   4.617   1.101   7.157  0.2605  0.6672 -0.5011
 1486SOL    HW1 4999   4.704   1.062   7.168 -0.4684 -0.6083  1.1977
 1486SOL    HW2 5000   4.614   1.169   7.224  0.4955  1.8239 -1.6198
 1487SOL     OW 5001   3.825   5.262   7.482  0.3212  0.0485  0.3597
 1487SOL    HW1 5002   3.905   5.313   7.495  1.0722 -1.0891  0.3309
 1487SOL    HW2 5003   3.766   5.294   7.550  0.6639  1.1506  0.1632
 1488SOL     OW 5004   1.727   1.532   3.259  0.1112  0.0682  0.0196
 1488SOL    HW1 5005   1.801   1.593   3.261 -0.0605  0.2851 -0.2846
 1488SOL    HW2 5006   1.760   1.453   3.302  0.6566  0.0154 -0.4820
 1489SOL     OW 5007   5.406   7.565   6.785 -0.3877  0.2002  0.5661
 1489SOL    HW1 5008   5.495   7.582   6.818 -0.6638 -0.4663  1.7085
 1489SOL    HW2 5009   5.392   7.633   6.719  0.7546  0.6662  0.7703
 1490SOL     OW 5010   5.904   4.415   3.955 -0.0465  0.0170 -0.6529
 1490SOL    HW1 5011   5.880   4.350   3.889 -0.5647 -0.3993 -0.0698
 1490SOL    HW2 5012   5.929   4.492   3.905 -2.4306  0.4203 -1.3497
 1491SOL     OW 5013   2.439   0.583   5.805  0.0173 -0.5898  0.0536
 1491SOL    HW1 5014   2.476   0.665   5.770  2.3092 -1.9168 -0.8547
 1491SOL    HW2 5015   2.495   0.562   5.880  0.4583 -2.0897 -0.6571
 1492SOL     OW 5016   1.364   5.560   5.835  0.3887  0.4351 -0.1311
 1492SOL    HW1 5017   1.425   5.486   5.836  0.1021  0.1777 -0.9587
 1492SOL    HW2 5018   1.322   5.556   5.749  0.4271  1.6188 -0.2193
 1493SOL     OW 5019   6.023   0.306   0.855 -0.1310  0.0190 -0.0131
 1493SOL    HW1 5020   5.985   0.356   0.927  0.0200 -0.2759  0.2794
 1493SOL    HW2 5021   6.105   0.272   0.891 -0.9733 -1.7612  0.3533
 1494SOL     OW 5022   5.238   6.979   5.662 -0.4122 -0.4488 -0.3982
 1494SOL    HW1 5023   5.240   7.073   5.679 -0.5792 -0.5802  0.4197
 1494SOL    HW2 5024   5.154   6.963   5.620 -0.0083 -0.1154 -1.3699
 1495SOL     OW 5025   2.287   6.639   0.353  0.4331 -0.4801 -0.6749
 1495SOL    HW1 5026   2.204   6.607   0.386  0.5944 -0.8423 -0.6189
 1495SOL    HW2 5027   2.344   6.643   0.431  0.2358  0.5190 -0.5722
 1496SOL     OW 5028   1.127   4.785   3.195  0.3088 -0.1629  0.1486
 1496SOL    HW1 5029   1.152   4.874   3.221  1.5227 -0.1275 -0.9963
 1496SOL    HW2 5030   1.059   4.798   3.129  0.1904 -0.0998  0.2828
 1497SOL     OW 5031   4.904   4.923   1.651 -0.2267 -0.4246 -0.4651
 1497SOL    HW1 5032   4.825   4.978   1.650  0.0650  0.0036 -0.0548
 1497SOL    HW2 5033   4.898   4.873   1.570 -0.6707 -0.0374 -0.6805
 1498SOL     OW 5034   3.887   4.849   1.577  0.4931 -0.5173 -0.8334
 1498SOL    HW1 5035   3.803   4.846   1.531  0.4044  1.4786 -0.8782
 1498SOL    HW2 5036   3.910   4.942   1.580  1.8364 -0.8517  0.7621
 1499SOL     OW 5037   7.108   7.455   3.130  0.1891  0.3145  0.2764
 1499SOL    HW1 5038   7.154   7.424   3.207  0.0392  0.8751  0.6036
 1499SOL    HW2 5039   7.173   7.507   3.082 -0.7019  3.4927  2.1487
 1500SOL     OW 5040   1.446   6.703   2.722  0.2170  0.0838 -0.1922
 1500SOL    HW1 5041   1.513   6.644   2.758 -0.2405  0.3080  1.0890
 1500SOL    HW2 5042   1.363   6.664   2.750 -0.1742  0.1714 -1.2001
 1501SOL     OW 5043   0.881   5.456   3.410 -0.1208  0.3303  0.1016
 1501SOL    HW1 5044   0.838   5.374   3.435  1.3620 -0.4160  0.2709
 1501SOL    HW2 5045   0.858   5.518   3.479 -0.1826 -0.3074  0.6555
 1502SOL     OW 5046   5.128   6.332   4.098 -0.4251 -0.1284  0.3388
 1502SOL    HW1 5047   5.062   6.340   4.029 -0.4369 -0.9219  0.2473
 1502SOL    HW2 5048   5.158   6.241   4.092 -0.4811 -0.2318  1.4344
 1503SOL     OW 5049   4.340   0.398   2.871 -0.0377 -0.0645 -0.1651
 1503SOL    HW1 5050   4.366   0.476   2.823 -2.8310  0.6996 -0.6438
 1503SOL    HW2 5051   4.384   0.326   2.825  1.3710  1.0645 -0.6691
 1504SOL     OW 5052   2.392   2.963   2.608 -0.4042  0.2522 -0.3527
 1504SOL    HW1 5053   2.464   3.017   2.641  0.6519 -2.4410  2.2866
 1504SOL    HW2 5054   2.434   2.899   2.550 -0.8970 -0.3391 -0.0712
 1505SOL     OW 5055   1.939   6.050   4.255  0.8904 -0.2127 -0.2459
 1505SOL    HW1 5056   1.996   6.078   4.183  1.9714  0.5167  0.8613
 1505SOL    HW2 5057   1.898   6.131   4.285  0.6440 -0.4788  0.1301
 1506SOL     OW 5058   3.232   1.475   1.491  0.6547 -0.1458  0.0368
 1506SOL    HW1 5059   3.301   1.512   1.546 -0.2535 -0.2581  1.2914
 1506SOL    HW2 5060   3.276   1.407   1.439  1.4084 -0.5240  1.1417
 1507SOL     OW 5061   5.216   1.981   6.213 -0.9169  0.2818 -0.1154
 1507SOL    HW1 5062   5.214   1.960   6.306  0.6044  2.0315  0.3607
 1507SOL    HW2 5063   5.308   1.974   6.189 -1.3184 -0.4035 -1.5867
 1508SOL     OW 5064   4.328   4.133   3.019 -0.2271 -0.2482 -0.0037
 1508SOL    HW1 5065   4.292   4.088   2.942  1.1853 -1.6172  0.0811
 1508SOL    HW2 5066   4.391   4.195   2.983 -0.2677 -0.2066 -0.0023
 1509SOL     OW 5067   0.123   3.500   2.576 -0.7392 -0.3840 -0.1724
 1509SOL    HW1 5068   0.118   3.407   2.598 -1.3109 -0.2739  0.1832
 1509SOL    HW2 5069   0.159   3.502   2.488  1.9720 -0.8362  0.8279
 1510SOL     OW 5070   0.043   0.446   0.752  0.2517  0.1682 -0.8320
 1510SOL    HW1 5071   0.006   0.377   0.696  0.5203 -0.2672 -0.4848
 1510SOL    HW2 5072   0.055   0.520   0.693 -0.6732  0.1462 -1.0629
 1511SOL     OW 5073   0.972   7.574   5.389 -0.0591  0.0340  0.0188
 1511SOL    HW1 5074   0.897   7.618   5.430  0.9015  1.6796  0.1250
 1511SOL    HW2 5075   0.959   7.589   5.295  1.1171  2.1640  0.1179
 1512SOL     OW 5076   5.159   6.230   3.069  0.6207 -0.2116 -0.2611
 1512SOL    HW1 5077   5.241   6.206   3.112  0.9281  4.2713  2.1673
 1512SOL    HW2 5078   5.106   6.268   3.138 -1.2217  2.2040 -2.8054
 1513SOL     OW 5079   6.761   0.095   2.076  0.3083  0.0141 -0.3369
 1513SOL    HW1 5080   6.782   0.101   1.983 -0.4118  1.3936 -0.4388
 1513SOL    HW2 5081   6.674   0.053   2.078 -0.2823  1.2037 -0.3857
 1514SOL     OW 5082   2.761   6.633   4.766  0.5381  0.4476  0.3476
 1514SOL    HW1 5083   2.726   6.544   4.780 -2.0485  0.6845 -3.2988
 1514SOL    HW2 5084   2.712   6.687   4.828  1.2532 -0.4215  1.7386
 1515SOL     OW 5085   1.244   3.297   5.943 -0.2708  0.6360  0.9293
 1515SOL    HW1 5086   1.295   3.218   5.966  0.3838  0.8754  0.3354
 1515SOL    HW2 5087   1.277   3.364   6.003 -0.2551  0.6597  0.8944
 1516SOL     OW 5088   3.755   7.336   0.551 -0.1309  0.0854 -0.5866
 1516SOL    HW1 5089   3.832   7.330   0.607 -1.0306 -1.0401  0.5920
 1516SOL    HW2 5090   3.787   7.315   0.463  0.9422 -0.0944 -0.1576
 1517SOL     OW 5091   3.217   2.522   2.670 -0.3234  0.8890 -0.2799
 1517SOL    HW1 5092   3.216   2.603   2.721  1.4298  1.4158 -1.0039
 1517SOL    HW2 5093   3.306   2.488   2.681 -1.5105 -2.0097  1.5664
 1518SOL     OW 5094   3.243   5.933   2.170  0.1059 -0.0435  0.0824
 1518SOL    HW1 5095   3.215   5.933   2.078 -0.1290  0.3049  0.1519
 1518SOL    HW2 5096   3.337   5.917   2.166  0.0269 -0.4445 -0.1971
 1519SOL     OW 5097   4.718   1.722   6.622  0.3942  0.2786 -0.6554
 1519SOL    HW1 5098   4.692   1.783   6.553  1.1621  2.3908  0.8301
 1519SOL    HW2 5099   4.767   1.775   6.684  2.1679 -2.1232  0.1482
 1520SOL     OW 5100   2.669   6.946   3.497  0.0639 -0.1340 -0.5879
 1520SOL    HW1 5101   2.721   7.025   3.480  0.0835 -0.0493 -0.1369
 1520SOL    HW2 5102   2.581   6.968   3.468  0.2512 -0.2368 -1.2464
 1521SOL     OW 5103   1.535   2.726   6.347 -0.0072 -0.6163  0.0144
 1521SOL    HW1 5104   1.440   2.715   6.352 -0.1746  1.2071  3.0194
 1521SOL    HW2 5105   1.570   2.643   6.380 -0.6723 -0.2616  1.6945
 1522SOL     OW 5106   1.677   2.288   4.512  0.3450 -0.1755 -0.3364
 1522SOL    HW1 5107   1.641   2.272   4.424  1.9542 -0.3162 -0.9995
 1522SOL    HW2 5108   1.633   2.223   4.567  0.0034 -0.7313 -1.2312
 1523SOL     OW 5109   1.624   2.151   7.340 -0.4633 -0.3776  0.2625
 1523SOL    HW1 5110   1.661   2.188   7.260  1.8804  2.4584  2.4178
 1523SOL    HW2 5111   1.609   2.059   7.319  1.3828 -0.1045 -2.9729
 1524SOL     OW 5112   4.285   0.607   3.172  0.1096  0.2777 -0.0710
 1524SOL    HW1 5113   4.200   0.637   3.205 -0.6882  0.5275 -2.2136
 1524SOL    HW2 5114   4.306   0.667   3.101  1.5750 -0.4483 -0.2872
 1525SOL     OW 5115   1.782   5.224   4.983 -0.3943 -0.6169 -0.1524
 1525SOL    HW1 5116   1.851   5.235   5.049  1.2374 -0.0858 -1.8590
 1525SOL    HW2 5117   1.705   5.267   5.020  1.4520  2.9084 -0.0206
 1526SOL     OW 5118   2.377   5.938   1.219  0.2342  0.3769 -0.6678
 1526SOL    HW1 5119   2.431   5.888   1.158 -1.8987 -0.2829 -2.1150
 1526SOL    HW2 5120   2.319   5.873   1.258  0.2704  1.1093  0.6769
 1527SOL     OW 5121   3.894   7.396   3.912 -0.2960  0.3139  0.4429
 1527SOL    HW1 5122   3.863   7.309   3.939 -0.7210 -0.5114 -2.3844
 1527SOL    HW2 5123   3.989   7.391   3.919 -0.1430 -1.2086 -1.6803
 1528SOL     OW 5124   1.458   2.433   1.339 -0.1312  0.0053 -0.5140
 1528SOL    HW1 5125   1.515   2.506   1.362 -0.3992  0.0274  0.1238
 1528SOL    HW2 5126   1.385   2.440   1.401 -0.1846 -0.7710 -0.4815
 1529SOL     OW 5127   0.536   1.611   3.599 -0.1207 -0.2995  0.1114
 1529SOL    HW1 5128   0.443   1.596   3.585 -0.6133  3.6723 -2.8499
 1529SOL    HW2 5129   0.579   1.538   3.555 -1.8884 -0.7969 -0.9027
 1530SOL     OW 5130   4.207   4.821   5.971  0.0016 -0.3107 -0.1026
 1530SOL    HW1 5131   4.193   4.737   6.016 -0.7941  0.3784  0.9854
 1530SOL    HW2 5132   4.233   4.796   5.882 -1.1763 -1.7231 -0.0918
 1531SOL     OW 5133   3.713   5.693   6.637  0.2631  0.3153 -0.2494
 1531SOL    HW1 5134   3.732   5.725   6.549  1.9225 -1.0545 -0.4372
 1531SOL    HW2 5135   3.671   5.608   6.623  0.0106  0.3456  0.2824
 1532SOL     OW 5136   2.369   2.020   0.523  0.5272  0.1946 -1.2183
 1532SOL    HW1 5137   2.363   2.082   0.595 -0.3212  1.9312 -2.6867
 1532SOL    HW2 5138   2.320   1.944   0.552 -1.1347  1.4704 -0.5079
 1533SOL     OW 5139   6.639   1.565   7.108 -0.1312 -0.2166 -0.1427
 1533SOL    HW1 5140   6.678   1.581   7.022 -0.2030 -1.1149 -0.3518
 1533SOL    HW2 5141   6.709   1.525   7.160  0.2282  1.2575  0.5650
 1534SOL     OW 5142   5.237   5.010   3.485 -0.0203 -0.6273  0.1567
 1534SOL    HW1 5143   5.179   5.083   3.505  0.8176  0.1041 -0.0574
 1534SOL    HW2 5144   5.183   4.949   3.434 -0.8008 -0.2972  0.5857
 1535SOL     OW 5145   2.670   5.434   5.824 -0.0510  0.4279 -0.1833
 1535SOL    HW1 5146   2.700   5.344   5.836  0.6569  0.4712 -1.3988
 1535SOL    HW2 5147   2.707   5.481   5.898 -1.0749 -0.4085  0.8911
 1536SOL     OW 5148   5.484   5.106   1.966  0.4715 -0.2727  0.2372
 1536SOL    HW1 5149   5.412   5.057   2.006 -0.2576  0.4427 -0.1777
 1536SOL    HW2 5150   5.532   5.041   1.914  1.0484 -1.0808  1.7153
 1537SOL     OW 5151   4.880   5.377   6.187  0.2822  0.4545  0.3054
 1537SOL    HW1 5152   4.833   5.404   6.108  0.0776  1.4225  0.7373
 1537SOL    HW2 5153   4.813   5.335   6.242  0.5764 -0.8756 -0.3195
 1538SOL     OW 5154   5.558   1.801   1.181  0.5018 -0.2592 -0.2508
 1538SOL    HW1 5155   5.571   1.859   1.256 -2.2494 -1.7103  1.4848
 1538SOL    HW2 5156   5.489   1.843   1.130 -0.5080 -1.2755  0.2574
 1539SOL     OW 5157   3.414   4.184   4.311 -0.6036  0.0300  0.1832
 1539SOL    HW1 5158   3.436   4.276   4.295  1.3560 -0.5570 -0.8397
 1539SOL    HW2 5159   3.347   4.164   4.246 -1.2995  0.8218  0.6467
 1540SOL     OW 5160   6.043   6.444   4.040 -0.2885  0.2390 -0.2453
 1540SOL    HW1 5161   6.041   6.407   3.952  0.6051 -1.5189  0.4226
 1540SOL    HW2 5162   5.998   6.380   4.095 -0.5365  1.1417  0.6418
 1541SOL     OW 5163   0.945   1.996   1.836 -0.0100 -0.1849 -0.6519
 1541SOL    HW1 5164   0.995   2.000   1.918 -2.0422  0.5055  0.6137
 1541SOL    HW2 5165   0.855   1.979   1.863 -0.8079  0.4346 -2.7269
 1542SOL     OW 5166   6.002   0.693   0.267 -0.2201 -0.1320  0.2948
 1542SOL    HW1 5167   6.032   0.774   0.308 -0.9590  0.6021 -0.5676
 1542SOL    HW2 5168   6.035   0.698   0.177 -0.4909 -0.6579  0.1636
 1543SOL     OW 5169   0.368   4.169   5.653 -0.0567  0.2120  0.0172
 1543SOL    HW1 5170   0.427   4.163   5.728 -0.8643 -0.6018  0.6105
 1543SOL    HW2 5171   0.372   4.261   5.626 -0.3316  0.6881  1.5450
 1544SOL     OW 5172   4.637   3.278   4.425  0.1060  0.2588 -0.5674
 1544SOL    HW1 5173   4.610   3.310   4.511  1.4518 -2.3426  0.9621
 1544SOL    HW2 5174   4.612   3.348   4.364 -3.6566  0.9703  1.4797
 1545SOL     OW 5175   5.312   1.664   4.233 -0.2480  0.1440 -0.1692
 1545SOL    HW1 5176   5.336   1.623   4.316  1.2852 -0.1800 -0.7418
 1545SOL    HW2 5177   5.257   1.738   4.257  1.7277  1.1999  1.2803
 1546SOL     OW 5178   3.710   2.770   4.313  0.0146 -0.1988 -0.3801
 1546SOL    HW1 5179   3.700   2.794   4.405 -3.4826  0.0043 -0.6490
 1546SOL    HW2 5180   3.788   2.816   4.284 -0.2544  1.8764  1.8538
 1547SOL     OW 5181   2.830   1.208   6.558  0.0483  0.2413  0.0185
 1547SOL    HW1 5182   2.786   1.284   6.596 -0.2010  0.8565 -1.4533
 1547SOL    HW2 5183   2.847   1.232   6.467  0.0180 -1.4495 -0.4764
 1548SOL     OW 5184   6.038   7.483   0.159 -0.0811 -0.4578 -0.2319
 1548SOL    HW1 5185   5.974   7.547   0.189 -0.1145 -0.0813 -1.0930
 1548SOL    HW2 5186   6.119   7.508   0.204 -0.6231 -1.2092  1.2073
 1549SOL     OW 5187   6.071   4.925   1.275 -0.1782  0.0150  0.3661
 1549SOL    HW1 5188   6.030   5.001   1.234  0.4613  0.2526  0.1608
 1549SOL    HW2 5189   6.025   4.916   1.359 -1.5442 -0.5210 -0.3927
 1550SOL     OW 5190   0.786   0.537   5.531 -0.0819 -0.1959 -0.6630
 1550SOL    HW1 5191   0.873   0.506   5.555 -0.0528 -0.3971 -1.0063
 1550SOL    HW2 5192   0.785   0.532   5.435 -0.3173  0.2224 -0.6848
 1551SOL     OW 5193   5.578   7.043   5.339  0.8006  0.2582  0.3914
 1551SOL    HW1 5194   5.520   7.046   5.262 -0.7007 -2.7152  1.2771
 1551SOL    HW2 5195   5.666   7.051   5.303  0.0327  1.4212 -1.3592
 1552SOL     OW 5196   5.909   7.270   0.316 -0.3674  0.5992  0.8172
 1552SOL    HW1 5197   5.936   7.352   0.273 -0.2573  0.2244  0.1553
 1552SOL    HW2 5198   5.968   7.204   0.280 -1.1422  0.0465  0.5527
 1553SOL     OW 5199   3.791   0.652   2.743 -0.1349 -0.1266  0.3299
 1553SOL    HW1 5200   3.879   0.645   2.707 -1.3235 -1.3813 -2.6656
 1553SOL    HW2 5201   3.761   0.561   2.750 -1.9787  0.3065 -1.0476
 1554SOL     OW 5202   4.256   6.020   1.652  0.0001  0.3041  0.2880
 1554SOL    HW1 5203   4.221   5.952   1.595  1.1546  0.2347 -0.3586
 1554SOL    HW2 5204   4.335   6.051   1.607  0.6294  0.6365  1.5835
 1555SOL     OW 5205   3.280   1.326   3.974  0.1451 -0.0195  0.6081
 1555SOL    HW1 5206   3.237   1.258   3.922 -1.7824 -0.1824  2.3049
 1555SOL    HW2 5207   3.368   1.331   3.938 -0.9447 -0.3400 -2.4494
 1556SOL     OW 5208   7.621   7.148   2.397 -0.2006 -0.0048 -0.6590
 1556SOL    HW1 5209   7.714   7.170   2.386  0.9634 -0.3867  5.1419
 1556SOL    HW2 5210   7.576   7.232   2.394  0.8726  0.6006 -0.3678
 1557SOL     OW 5211   2.997   5.654   3.452  0.1613  0.6313 -0.3028
 1557SOL    HW1 5212   3.009   5.659   3.357  1.4200 -0.6786 -0.2575
 1557SOL    HW2 5213   3.062   5.715   3.487 -1.3140  2.2495 -0.2823
 1558SOL     OW 5214   5.359   6.524   4.456 -0.0338  0.0660  0.2033
 1558SOL    HW1 5215   5.275   6.493   4.488  0.6114 -0.9721  0.9647
 1558SOL    HW2 5216   5.376   6.472   4.377  0.7863 -1.2086  1.1670
 1559SOL     OW 5217   6.032   4.477   5.885 -1.0017 -0.5769  0.1578
 1559SOL    HW1 5218   6.063   4.396   5.843  0.2706 -0.4758  0.8521
 1559SOL    HW2 5219   6.018   4.452   5.976 -2.5154 -0.4800 -0.0252
 1560SOL     OW 5220   6.554   5.120   4.836  0.0075 -0.2235  0.1865
 1560SOL    HW1 5221   6.498   5.178   4.784  2.6352  0.8342 -1.6505
 1560SOL    HW2 5222   6.587   5.056   4.774  1.2963 -0.4501  1.0694
 1561SOL     OW 5223   5.710   2.087   2.599  0.7356  0.2367 -0.0250
 1561SOL    HW1 5224   5.647   2.158   2.608 -0.1064 -0.3799 -0.9266
 1561SOL    HW2 5225   5.714   2.070   2.505  1.5070 -0.3977  0.1128
 1562SOL     OW 5226   7.554   2.570   5.504  0.6853  0.6435 -0.2001
 1562SOL    HW1 5227   7.646   2.546   5.497  0.9150  1.5538 -0.3445
 1562SOL    HW2 5228   7.529   2.544   5.593  0.9420 -0.0603 -0.3295
 1563SOL     OW 5229   5.059   2.168   3.252 -0.4553  0.1282 -0.3743
 1563SOL    HW1 5230   5.085   2.233   3.186 -1.2746 -1.0047 -1.8844
 1563SOL    HW2 5231   4.965   2.156   3.238 -0.8511  0.5381  1.6727
 1564SOL     OW 5232   5.531   0.683   5.367 -0.4385 -0.0567  0.1999
 1564SOL    HW1 5233   5.545   0.753   5.430 -1.0233  1.8856 -1.6839
 1564SOL    HW2 5234   5.436   0.669   5.367 -0.3437 -0.7395  0.4310
 1565SOL     OW 5235   2.243   6.604   7.420  0.6053  0.1470 -0.2891
 1565SOL    HW1 5236   2.225   6.598   7.514 -1.5441  0.2438 -0.6323
 1565SOL    HW2 5237   2.198   6.684   7.392  1.6433  0.3933 -1.3235
 1566SOL     OW 5238   3.963   3.908   2.880 -0.0364 -0.0824 -0.4271
 1566SOL    HW1 5239   4.016   3.987   2.870  1.4238 -0.8053  1.1234
 1566SOL    HW2 5240   3.873   3.937   2.865  0.4689  1.8733  0.1236
 1567SOL     OW 5241   2.499   3.121   2.053  0.5390  0.2871  0.4526
 1567SOL    HW1 5242   2.530   3.211   2.065  3.2523 -0.7941  2.8248
 1567SOL    HW2 5243   2.475   3.091   2.140  1.3851 -1.7904  0.0474
 1568SOL     OW 5244   6.607   6.481   2.291 -0.1509  0.2259 -0.2800
 1568SOL    HW1 5245   6.681   6.455   2.347  0.2577 -0.3816 -1.0867
 1568SOL    HW2 5246   6.598   6.575   2.306 -0.0895  0.0728  0.8518
 1569SOL     OW 5247   3.891   1.677   5.400 -0.2909  0.5956  0.6790
 1569SOL    HW1 5248   3.973   1.630   5.382 -0.1210  1.4756 -1.1511
 1569SOL    HW2 5249   3.822   1.613   5.383 -0.0190  0.5743 -0.4724
 1570SOL     OW 5250   1.317   4.472   7.065 -0.0147 -0.1610  0.0840
 1570SOL    HW1 5251   1.376   4.533   7.020  0.5665 -0.6334  0.1860
 1570SOL    HW2 5252   1.231   4.488   7.026  0.4702 -0.5403 -1.1829
 1571SOL     OW 5253   3.995   3.632   4.333  0.0262 -0.0739  0.3411
 1571SOL    HW1 5254   3.930   3.564   4.318 -1.1727  1.1502 -0.1788
 1571SOL    HW2 5255   4.040   3.641   4.249 -0.7849  0.7244 -0.0321
 1572SOL     OW 5256   6.869   6.181   1.429 -0.3435 -0.0300  0.1659
 1572SOL    HW1 5257   6.798   6.171   1.366 -0.5265 -2.2783  0.6515
 1572SOL    HW2 5258   6.940   6.128   1.395  0.5357  0.8780  0.5256
 1573SOL     OW 5259   4.980   3.266   7.461 -0.7303 -0.5219 -0.1599
 1573SOL    HW1 5260   5.004   3.282   7.552 -0.0055  1.4018 -0.6441
 1573SOL    HW2 5261   5.040   3.321   7.410 -0.6974 -2.0216 -1.8529
 1574SOL     OW 5262   3.975   1.197   5.238  0.2412 -0.0912  0.0585
 1574SOL    HW1 5263   3.913   1.177   5.168  0.7233 -1.9977  0.1042
 1574SOL    HW2 5264   4.060   1.199   5.195  0.5292 -1.1609  0.5446
 1575SOL     OW 5265   6.246   3.896   4.319  0.0761 -0.0656  0.1146
 1575SOL    HW1 5266   6.261   3.969   4.257 -4.0468  0.0944 -0.9911
 1575SOL    HW2 5267   6.240   3.819   4.263  0.0863 -0.5540  0.7847
 1576SOL     OW 5268   7.324   2.299   3.996 -0.9449 -0.0677  0.0604
 1576SOL    HW1 5269   7.249   2.356   4.015 -1.6191 -0.3841 -1.4700
 1576SOL    HW2 5270   7.285   2.219   3.961  0.1424  0.3439 -2.2300
 1577SOL     OW 5271   2.075   1.217   3.625 -0.4000 -0.1303  0.3482
 1577SOL    HW1 5272   2.110   1.211   3.536  1.9105 -0.8951  1.2365
 1577SOL    HW2 5273   2.065   1.311   3.640  2.4008  0.2527  0.3733
 1578SOL     OW 5274   6.677   0.112   6.268 -0.7312 -0.0856 -0.1920
 1578SOL    HW1 5275   6.754   0.084   6.317 -0.4017 -1.6081 -1.4681
 1578SOL    HW2 5276   6.663   0.203   6.295  1.2166  0.0871  0.4529
 1579SOL     OW 5277   0.259   3.558   4.303 -0.2910 -0.5824  0.1638
 1579SOL    HW1 5278   0.347   3.530   4.329 -0.1643  0.1766  0.5841
 1579SOL    HW2 5279   0.273   3.619   4.231 -0.4332 -0.0428  0.5859
 1580SOL     OW 5280   1.951   4.501   0.303 -0.0167  0.5670  0.2765
 1580SOL    HW1 5281   2.042   4.525   0.320  0.0269 -0.5431  1.8696
 1580SOL    HW2 5282   1.956   4.438   0.231  0.0060  3.6758 -2.7308
 1581SOL     OW 5283   2.207   6.592   6.982  0.5550  0.3510 -0.6133
 1581SOL    HW1 5284   2.129   6.620   7.030  0.3552 -0.7827 -0.2412
 1581SOL    HW2 5285   2.218   6.657   6.913  1.3528  2.5538  1.4553
 1582SOL     OW 5286   6.349   1.942   5.700  0.5773  0.4086  0.3291
 1582SOL    HW1 5287   6.342   1.955   5.606  1.2182 -0.9101  0.0767
 1582SOL    HW2 5288   6.259   1.944   5.732  0.2273 -0.6077 -0.5418
 1583SOL     OW 5289   2.075   2.714   3.629 -0.0389 -0.3197  0.1555
 1583SOL    HW1 5290   2.151   2.666   3.663  1.4038  2.2740  0.9182
 1583SOL    HW2 5291   2.103   2.745   3.543 -0.3188  0.3669  0.3030
 1584SOL     OW 5292   2.848   3.709   3.402  0.6686  0.4303 -0.0128
 1584SOL    HW1 5293   2.847   3.711   3.307  0.1468 -0.4805 -0.0371
 1584SOL    HW2 5294   2.842   3.616   3.425  2.3428  0.5043  0.9045
 1585SOL     OW 5295   2.155   6.017   7.253 -0.0250 -0.5992 -0.3670
 1585SOL    HW1 5296   2.166   5.952   7.183  1.9848 -2.5316  1.5599
 1585SOL    HW2 5297   2.080   5.985   7.304 -0.6635  0.0703 -0.8771
 1586SOL     OW 5298   3.168   6.093   2.687  0.0757 -0.1465  0.7231
 1586SOL    HW1 5299   3.124   6.022   2.734 -0.8901 -0.5847 -0.7720
 1586SOL    HW2 5300   3.200   6.052   2.606  1.5740  0.6135  0.9024
 1587SOL     OW 5301   0.854   3.072   3.114  0.5069 -0.5053 -0.3588
 1587SOL    HW1 5302   0.871   3.129   3.188  0.4121  0.2018 -0.8739
 1587SOL    HW2 5303   0.917   3.099   3.047  0.1320 -0.6638 -0.7858
 1588SOL     OW 5304   7.529   0.576   6.120 -0.2771 -0.0954  0.6951
 1588SOL    HW1 5305   7.574   0.636   6.061 -0.7181 -0.5489 -0.1062
 1588SOL    HW2 5306   7.558   0.489   6.095  1.9971 -0.1911  3.2031
 1589SOL     OW 5307   0.248   4.805   2.147 -0.0783  0.2961 -0.5900
 1589SOL    HW1 5308   0.288   4.793   2.062  1.9418 -1.3760  0.5237
 1589SOL    HW2 5309   0.293   4.743   2.205 -2.7494 -0.0840  1.2767
 1590SOL     OW 5310   5.315   2.838   0.132 -0.2771  0.3979 -0.0294
 1590SOL    HW1 5311   5.246   2.886   0.179 -0.1335 -0.0316  0.6365
 1590SOL    HW2 5312   5.388   2.900   0.127 -0.4629  0.6138 -0.1286
 1591SOL     OW 5313   4.796   1.817   7.188  0.1625  0.2940 -0.1867
 1591SOL    HW1 5314   4.825   1.865   7.110  0.0448 -0.5488 -0.7572
 1591SOL    HW2 5315   4.716   1.772   7.160  0.7640 -0.9612  0.0684
 1592SOL     OW 5316   0.173   5.308   1.403  0.0525 -0.1494  0.3422
 1592SOL    HW1 5317   0.083   5.290   1.428  0.1206  0.3203  0.9426
 1592SOL    HW2 5318   0.226   5.278   1.477  0.3962 -0.4560 -0.0201
 1593SOL     OW 5319   5.348   4.543   5.619 -0.2426  0.1830 -0.3300
 1593SOL    HW1 5320   5.348   4.638   5.626 -0.5457  0.5101 -3.3010
 1593SOL    HW2 5321   5.266   4.516   5.660  0.1155  1.1075  1.0592
 1594SOL     OW 5322   1.855   4.960   0.879 -0.0741 -0.2546 -0.1220
 1594SOL    HW1 5323   1.832   4.915   0.798 -0.7988  0.2512 -0.2039
 1594SOL    HW2 5324   1.842   4.894   0.947 -0.1243 -0.4737 -0.3422
 1595SOL     OW 5325   6.121   2.718   1.334  0.1344  0.1384 -0.3727
 1595SOL    HW1 5326   6.158   2.771   1.264 -0.6582  0.8847 -0.2465
 1595SOL    HW2 5327   6.193   2.704   1.394  0.0791  2.2438  0.2712
 1596SOL     OW 5328   3.130   3.995   6.171  0.1333  0.0913 -0.3747
 1596SOL    HW1 5329   3.065   3.926   6.161 -1.6528  1.5015  0.8291
 1596SOL    HW2 5330   3.081   4.077   6.157  2.0750  1.1552 -1.3682
 1597SOL     OW 5331   0.385   5.841   3.964 -0.6212  0.3268  0.2766
 1597SOL    HW1 5332   0.303   5.875   4.000 -1.8741 -0.0000 -2.0554
 1597SOL    HW2 5333   0.398   5.757   4.009 -0.4640  1.2412  2.0494
 1598SOL     OW 5334   1.910   0.049   4.947 -0.2053  0.0366  0.0716
 1598SOL    HW1 5335   1.893  -0.032   4.995 -0.6302 -1.1719 -1.9712
 1598SOL    HW2 5336   1.864   0.116   4.997 -2.2913 -1.4659  0.3215
 1599SOL     OW 5337   5.416   6.322   6.384 -0.1579  0.5691  0.1627
 1599SOL    HW1 5338   5.450   6.400   6.427 -0.4497  1.0094 -0.3840
 1599SOL    HW2 5339   5.459   6.249   6.428 -0.7312  0.9734  1.4498
 1600SOL     OW 5340   5.909   6.346   6.963  0.3459 -0.3259 -0.0909
 1600SOL    HW1 5341   5.963   6.370   6.888 -1.4496 -1.5369 -1.8637
 1600SOL    HW2 5342   5.962   6.283   7.012  2.3339  1.9271  0.8664
 1601SOL     OW 5343   5.598   3.924   0.703  0.2281  0.2937 -0.7959
 1601SOL    HW1 5344   5.568   3.834   0.719  0.9698 -0.4333 -3.0880
 1601SOL    HW2 5345   5.653   3.945   0.779 -0.4710 -0.9405  0.0867
 1602SOL     OW 5346   2.804   1.279   0.070  0.5667  0.2955 -0.1468
 1602SOL    HW1 5347   2.720   1.279   0.023  0.0841  1.1351  0.6928
 1602SOL    HW2 5348   2.794   1.347   0.137  0.4606 -2.2022  2.5649
 1603SOL     OW 5349   6.090   6.326   0.729 -0.2138  0.9065  0.1486
 1603SOL    HW1 5350   6.031   6.284   0.666  0.2278  1.5161 -0.6886
 1603SOL    HW2 5351   6.037   6.395   0.769 -0.5352  0.4313  0.5496
 1604SOL     OW 5352   6.060   3.212   4.120 -0.3527 -0.5855 -0.4016
 1604SOL    HW1 5353   6.091   3.300   4.101  3.1500 -1.5314  0.2135
 1604SOL    HW2 5354   6.049   3.210   4.216 -0.6824 -0.7714 -0.4386
 1605SOL     OW 5355   2.043   5.945   1.063 -0.1637  0.3266  0.0729
 1605SOL    HW1 5356   2.092   5.864   1.058 -1.0951 -0.2039 -0.7364
 1605SOL    HW2 5357   2.066   5.993   0.984  0.3365  0.8352  0.5169
 1606SOL     OW 5358   5.458   2.974   5.354 -0.3696  0.0420  0.6420
 1606SOL    HW1 5359   5.470   2.908   5.287  0.7594  0.4069  0.4545
 1606SOL    HW2 5360   5.435   3.053   5.306  1.4977  0.5793  0.5314
 1607SOL     OW 5361   2.140   3.264   2.299  0.2714 -1.0002  0.6672
 1607SOL    HW1 5362   2.228   3.256   2.336 -0.0371 -2.3626  1.1798
 1607SOL    HW2 5363   2.131   3.186   2.244 -0.2688 -0.3645 -0.1690
 1608SOL     OW 5364   7.105   6.959   4.658 -0.4578  0.4360  0.1456
 1608SOL    HW1 5365   7.150   6.888   4.705  0.4911  0.0674 -1.2184
 1608SOL    HW2 5366   7.026   6.976   4.708  0.1272 -0.4561  1.4165
 1609SOL     OW 5367   4.778   0.777   5.375 -1.2237 -0.0458 -0.4657
 1609SOL    HW1 5368   4.864   0.806   5.406 -1.6780 -1.2906  2.2938
 1609SOL    HW2 5369   4.790   0.763   5.281  1.6598 -0.3358 -0.1526
 1610SOL     OW 5370   4.562   1.467   1.872  0.4967  0.3863 -0.0040
 1610SOL    HW1 5371   4.488   1.471   1.933 -0.7814 -0.1955 -1.4495
 1610SOL    HW2 5372   4.565   1.554   1.833 -0.4114 -0.0150 -1.0188
 1611SOL     OW 5373   3.269   5.261   1.087  0.0206  0.7363 -0.1867
 1611SOL    HW1 5374   3.289   5.309   1.168  1.4567  0.3088 -0.2563
 1611SOL    HW2 5375   3.247   5.330   1.024 -0.8529  1.0887  0.4817
 1612SOL     OW 5376   4.550   1.217   0.327 -0.5206  0.3926  0.4255
 1612SOL    HW1 5377   4.473   1.265   0.297 -1.1145 -0.1054  1.1257
 1612SOL    HW2 5378   4.540   1.129   0.290 -0.7198  0.0816  1.2076
 1613SOL     OW 5379   0.605   5.072   1.304 -0.0140  0.8071  0.6405
 1613SOL    HW1 5380   0.698   5.093   1.319  0.0057 -0.0154  1.8512
 1613SOL    HW2 5381   0.579   5.024   1.383 -0.8611 -0.9811 -0.6786
 1614SOL     OW 5382   7.006   1.464   5.938 -0.3887 -0.3166  0.0257
 1614SOL    HW1 5383   7.087   1.428   5.973 -0.3971 -0.8415 -0.4744
 1614SOL    HW2 5384   6.994   1.547   5.985  0.3593 -0.3025  0.2069
 1615SOL     OW 5385   0.080   3.705   1.100  0.0248 -0.0906  0.2046
 1615SOL    HW1 5386   0.085   3.651   1.020 -0.3147 -1.1955  0.9036
 1615SOL    HW2 5387  -0.009   3.690   1.132 -0.0359  0.8235  0.4781
 1616SOL     OW 5388   7.319   2.499   3.127  0.5332  0.1223 -0.3419
 1616SOL    HW1 5389   7.386   2.567   3.121 -0.7572  1.3644 -1.2013
 1616SOL    HW2 5390   7.280   2.496   3.040 -0.3733 -0.7520  0.0807
 1617SOL     OW 5391   2.532   3.108   6.188  0.3821 -0.2594  0.0356
 1617SOL    HW1 5392   2.623   3.130   6.171 -0.5018  2.5650 -1.8158
 1617SOL    HW2 5393   2.506   3.053   6.114  0.3243 -0.2093  0.0178
 1618SOL     OW 5394   2.437   1.376   1.339 -0.0838 -0.0158  0.5056
 1618SOL    HW1 5395   2.473   1.304   1.391 -1.6302  0.9564  3.0994
 1618SOL    HW2 5396   2.415   1.443   1.404 -2.4779  1.1403 -1.3611
 1619SOL     OW 5397   0.877   5.765   7.215  0.3931 -0.5783 -0.0301
 1619SOL    HW1 5398   0.918   5.765   7.302  0.0399 -0.3907  0.1421
 1619SOL    HW2 5399   0.931   5.706   7.163  1.2867  0.2058 -0.0072
 1620SOL     OW 5400   2.093   2.968   3.847  0.2559 -0.5086  0.5180
 1620SOL    HW1 5401   2.185   2.952   3.827  0.3075 -0.8716  1.0122
 1620SOL    HW2 5402   2.046   2.895   3.808  0.0518  0.1931 -0.6100
 1621SOL     OW 5403   5.292   4.822   3.697 -0.1054  0.2567  0.3727
 1621SOL    HW1 5404   5.269   4.893   3.636 -0.5150 -0.0635  0.1470
 1621SOL    HW2 5405   5.378   4.793   3.668 -1.1492 -1.2898 -1.4049
 1622SOL     OW 5406   0.683   0.228   7.250 -0.3076 -0.1702 -0.0386
 1622SOL    HW1 5407   0.597   0.262   7.226 -0.9504 -1.4572  0.3778
 1622SOL    HW2 5408   0.669   0.186   7.335  0.8265 -0.0506  0.2222
 1623SOL     OW 5409   0.319   3.891   4.736  0.4766  0.3659 -0.6750
 1623SOL    HW1 5410   0.311   3.899   4.641  1.3294 -1.1762 -0.9068
 1623SOL    HW2 5411   0.253   3.826   4.760  0.6663  0.3197 -0.2745
 1624SOL     OW 5412   2.732   1.379   3.251  0.0909  0.5771  0.1281
 1624SOL    HW1 5413   2.743   1.287   3.228 -1.9106  0.4452 -0.4871
 1624SOL    HW2 5414   2.813   1.402   3.297  0.5688 -1.5054  0.4236
 1625SOL     OW 5415   0.886   6.057   5.156 -0.1004  0.3597  0.2448
 1625SOL    HW1 5416   0.875   6.038   5.250 -1.7092 -0.8125 -0.1340
 1625SOL    HW2 5417   0.824   6.128   5.139 -0.8582 -0.3819 -0.1829
 1626SOL     OW 5418   2.869   0.689   4.028  0.1444 -0.0499 -0.1405
 1626SOL    HW1 5419   2.948   0.699   3.974  0.8560  0.2155  0.9002
 1626SOL    HW2 5420   2.901   0.703   4.118 -1.0870 -0.0067  0.2998
 1627SOL     OW 5421   4.176   6.985   5.235  0.3015  0.3810 -0.1735
 1627SOL    HW1 5422   4.263   6.995   5.274  0.8465 -0.8384 -1.0449
 1627SOL    HW2 5423   4.134   6.917   5.287  0.9260 -1.0470 -1.4878
 1628SOL     OW 5424   3.157   4.548   2.131  0.5521 -0.2858 -0.1375
 1628SOL    HW1 5425   3.129   4.586   2.048 -0.2104  1.2257  0.7824
 1628SOL    HW2 5426   3.077   4.542   2.183  1.0239 -1.2250  0.5091
 1629SOL     OW 5427   4.067   2.365   6.791  0.1954 -0.0061 -0.1958
 1629SOL    HW1 5428   3.990   2.324   6.751 -0.0291  0.0772  0.1497
 1629SOL    HW2 5429   4.097   2.301   6.855  0.1735  0.1364 -0.0445
 1630SOL     OW 5430   6.476   3.026   3.069  0.3330 -0.3688  0.0827
 1630SOL    HW1 5431   6.489   3.033   3.164  0.9500 -0.1790 -0.0133
 1630SOL    HW2 5432   6.505   3.110   3.035  0.8398 -0.7127 -0.3503
 1631SOL     OW 5433   5.047   4.247   4.481  0.7786  0.1226 -0.0140
 1631SOL    HW1 5434   5.006   4.302   4.549  0.6289 -1.8192  1.5599
 1631SOL    HW2 5435   5.141   4.257   4.497  0.7874  0.7439 -0.4311
 1632SOL     OW 5436   1.785   0.444   0.455  0.2020 -0.0929 -0.4156
 1632SOL    HW1 5437   1.827   0.528   0.435  0.8045 -0.9197 -3.0127
 1632SOL    HW2 5438   1.835   0.411   0.529  1.5869  0.7585 -0.9088
 1633SOL     OW 5439   1.369   4.236   3.943 -0.7260 -0.1395 -0.0015
 1633SOL    HW1 5440   1.333   4.161   3.991 -2.9568  0.5461 -0.4625
 1633SOL    HW2 5441   1.316   4.311   3.972  0.6881  1.0535 -0.4001
 1634SOL     OW 5442   6.669   5.138   1.773 -0.1986  0.3948  0.0199
 1634SOL    HW1 5443   6.712   5.206   1.825 -1.1209  0.4171  0.7885
 1634SOL    HW2 5444   6.604   5.100   1.833  0.5177 -1.4023 -0.2637
 1635SOL     OW 5445   5.339   2.402   1.992  0.2371  0.2503  0.6740
 1635SOL    HW1 5446   5.319   2.334   2.057 -0.0463  0.3406  0.6862
 1635SOL    HW2 5447   5.378   2.354   1.919  1.2988  0.2446  1.2224
 1636SOL     OW 5448   3.945   6.068   0.563 -0.2092  0.0977  0.1812
 1636SOL    HW1 5449   3.993   6.014   0.500 -0.2987  0.4276 -0.1798
 1636SOL    HW2 5450   4.006   6.079   0.636 -0.4817 -1.1197  0.6004
 1637SOL     OW 5451   0.498   0.851   6.880  0.5536  0.6275 -0.4500
 1637SOL    HW1 5452   0.495   0.862   6.975  0.8513 -1.9318 -0.0684
 1637SOL    HW2 5453   0.589   0.872   6.856  0.2428  2.2081 -0.3595
 1638SOL     OW 5454   6.230   0.784   3.969 -0.4474 -0.3473  0.0003
 1638SOL    HW1 5455   6.302   0.836   3.933  0.2570 -1.7826 -0.7231
 1638SOL    HW2 5456   6.151   0.822   3.930 -0.0350  0.7612  0.2122
 1639SOL     OW 5457   0.691   3.915   0.359  0.2976 -0.2025  0.4362
 1639SOL    HW1 5458   0.746   3.868   0.422  1.2167 -1.4841 -1.2472
 1639SOL    HW2 5459   0.746   3.924   0.281 -0.3912  2.3826  0.1559
 1640SOL     OW 5460   4.065   4.661   1.468 -0.1019 -1.2300 -0.7155
 1640SOL    HW1 5461   3.994   4.723   1.488  0.3765 -0.5117 -1.1951
 1640SOL    HW2 5462   4.121   4.663   1.546  0.6456 -0.0105 -1.2658
 1641SOL     OW 5463   5.982   5.671   6.530 -0.2833 -0.0143 -0.5500
 1641SOL    HW1 5464   5.998   5.683   6.623  0.8626  0.0933 -0.7522
 1641SOL    HW2 5465   6.055   5.715   6.487 -1.5962  1.3223 -1.5522
 1642SOL     OW 5466   7.068   6.197   3.693  0.2950 -0.1270  0.6024
 1642SOL    HW1 5467   7.058   6.268   3.629 -1.7104 -0.5616  0.3915
 1642SOL    HW2 5468   7.015   6.126   3.659  0.0519 -0.7499  2.2187
 1643SOL     OW 5469   7.471   1.232   3.298 -0.1454  0.0078 -0.1250
 1643SOL    HW1 5470   7.554   1.214   3.342  0.1808 -0.9033 -1.0858
 1643SOL    HW2 5471   7.444   1.148   3.260 -2.3011 -0.1017  1.4577
 1644SOL     OW 5472   2.530   2.100   3.564  0.3319  0.1329 -0.5224
 1644SOL    HW1 5473   2.509   2.077   3.474 -0.3056  0.1802 -0.3915
 1644SOL    HW2 5474   2.478   2.178   3.583 -1.6236 -1.3431  0.6916
 1645SOL     OW 5475   7.353   5.106   2.308 -0.2107 -0.4097  0.1185
 1645SOL    HW1 5476   7.392   5.194   2.301  0.4418 -0.7650 -0.9607
 1645SOL    HW2 5477   7.426   5.046   2.295 -0.1742 -1.2103  3.2126
 1646SOL     OW 5478   5.742   4.288   3.061  0.0084 -0.1930  0.0001
 1646SOL    HW1 5479   5.761   4.336   3.142  0.9745  0.4197 -0.5664
 1646SOL    HW2 5480   5.809   4.317   3.000 -1.0536 -0.1999 -1.2140
 1647SOL     OW 5481   1.882   6.624   5.522 -0.0506 -0.3733  0.3811
 1647SOL    HW1 5482   1.882   6.602   5.615 -2.6826  1.2373  0.8574
 1647SOL    HW2 5483   1.837   6.551   5.480  0.3285 -0.6662  0.4739
 1648SOL     OW 5484   2.441   6.158   1.667 -0.0948  0.7393 -0.6966
 1648SOL    HW1 5485   2.358   6.198   1.641 -0.6770 -0.6527 -1.0749
 1648SOL    HW2 5486   2.416   6.090   1.731  0.6647 -0.1436 -1.3131
 1649SOL     OW 5487   4.842   6.142   0.505  0.4622  0.5838  0.1482
 1649SOL    HW1 5488   4.815   6.178   0.421 -1.1919  1.2836  0.9265
 1649SOL    HW2 5489   4.867   6.052   0.486 -0.5262  0.5270 -0.9991
 1650SOL     OW 5490   6.023   3.470   4.502 -0.1702 -0.3325 -0.5725
 1650SOL    HW1 5491   5.976   3.537   4.451 -0.9669  0.0383  0.6011
 1650SOL    HW2 5492   5.965   3.395   4.502 -0.9588  0.2263  1.1312
 1651SOL     OW 5493   6.815   5.426   0.342 -0.3127  0.1584  0.3088
 1651SOL    HW1 5494   6.732   5.385   0.368 -1.6653  1.1291 -2.1052
 1651SOL    HW2 5495   6.812   5.428   0.247  3.1912 -1.0240  0.0485
 1652SOL     OW 5496   1.433   0.079   4.205 -0.5301  0.4230 -0.2421
 1652SOL    HW1 5497   1.392   0.005   4.160 -0.6141  0.2578  0.1116
 1652SOL    HW2 5498   1.378   0.154   4.181 -1.0730  0.1956  0.2754
 1653SOL     OW 5499   1.849   5.093   5.273 -0.2320 -0.1409  0.2360
 1653SOL    HW1 5500   1.788   5.143   5.327 -0.0720  1.8514 -1.2965
 1653SOL    HW2 5501   1.918   5.156   5.250  0.2590 -1.1917 -1.3507
 1654SOL     OW 5502   1.041   4.860   4.563 -0.0805 -0.1313 -0.0418
 1654SOL    HW1 5503   0.979   4.913   4.612 -2.6996 -1.3183 -1.8703
 1654SOL    HW2 5504   1.050   4.905   4.478  2.1255  0.3389  0.3574
 1655SOL     OW 5505   6.123   6.116   1.607 -0.0906 -0.3478 -0.6566
 1655SOL    HW1 5506   6.205   6.077   1.576 -0.4593 -0.6118 -1.3306
 1655SOL    HW2 5507   6.143   6.208   1.620  0.6293 -0.6291  0.3400
 1656SOL     OW 5508   7.159   7.582   7.300  0.2541  0.7245  0.0585
 1656SOL    HW1 5509   7.072   7.554   7.329 -0.2338  0.2754 -1.7225
 1656SOL    HW2 5510   7.219   7.518   7.338 -0.4112 -0.1611 -0.3385
 1657SOL     OW 5511   3.639   5.972   6.056 -0.0781 -0.2140  0.5432
 1657SOL    HW1 5512   3.667   5.950   6.145  0.0691  0.4869  0.6777
 1657SOL    HW2 5513   3.557   5.924   6.044  0.7307 -1.6294  0.4454
 1658SOL     OW 5514   5.741   5.256   1.524  0.5698  0.4117  0.4550
 1658SOL    HW1 5515   5.703   5.225   1.442  1.7824 -0.8836  0.3326
 1658SOL    HW2 5516   5.803   5.323   1.498  0.8167  0.1342  0.3224
 1659SOL     OW 5517   4.243   7.210   2.982 -0.5087 -0.0844 -0.2564
 1659SOL    HW1 5518   4.310   7.270   2.951  1.4639 -1.1276  1.7121
 1659SOL    HW2 5519   4.160   7.250   2.956  0.8261  1.8693 -1.6969
 1660SOL     OW 5520   3.265   2.395   1.897 -0.1147  0.0725  0.2621
 1660SOL    HW1 5521   3.250   2.347   1.815  1.2535  1.3110 -0.7788
 1660SOL    HW2 5522   3.356   2.424   1.891  0.6938 -1.4939  3.1861
 1661SOL     OW 5523   4.746   0.111   2.364  0.5073  0.5731  0.6898
 1661SOL    HW1 5524   4.755   0.029   2.316 -0.2207  1.1768 -0.5133
 1661SOL    HW2 5525   4.821   0.164   2.335  0.0634  0.9410  0.2059
 1662SOL     OW 5526   2.787   2.662   1.796  0.2116 -0.3470  0.0550
 1662SOL    HW1 5527   2.850   2.625   1.734  0.1359 -0.9048  0.3071
 1662SOL    HW2 5528   2.759   2.588   1.849 -1.8514 -0.4384 -1.0478
 1663SOL     OW 5529   3.128   4.935   7.473 -0.6736 -0.2074  1.0040
 1663SOL    HW1 5530   3.161   4.897   7.555 -0.3436  0.7215  1.3088
 1663SOL    HW2 5531   3.147   4.868   7.407  2.3417  0.4372  1.0706
 1664SOL     OW 5532   3.763   1.188   3.313 -0.1449  0.6736 -0.0540
 1664SOL    HW1 5533   3.788   1.255   3.377 -2.1602 -0.3995  1.9924
 1664SOL    HW2 5534   3.773   1.105   3.360 -0.4707 -0.2548 -1.5634
 1665SOL     OW 5535   5.806   2.166   3.269 -0.0025  0.3007 -0.2733
 1665SOL    HW1 5536   5.725   2.188   3.222 -0.4096 -0.5486  0.0011
 1665SOL    HW2 5537   5.875   2.181   3.205 -0.3804  1.0014 -0.5284
 1666SOL     OW 5538   0.958   4.809   3.577  0.0288 -0.6406 -0.3689
 1666SOL    HW1 5539   1.030   4.808   3.640 -0.0144  2.2365 -0.1639
 1666SOL    HW2 5540   0.994   4.766   3.500  1.2921 -1.0414  0.3987
 1667SOL     OW 5541   3.995   5.079   1.192 -0.0279 -0.6624 -0.3596
 1667SOL    HW1 5542   3.990   5.170   1.164  0.8585 -0.2643  0.7042
 1667SOL    HW2 5543   3.912   5.064   1.239  0.0435 -0.2495 -0.1001
 1668SOL     OW 5544   5.108   1.789   5.022  0.3773  0.1387 -0.4918
 1668SOL    HW1 5545   5.185   1.831   4.983  0.3969  0.6358  0.0721
 1668SOL    HW2 5546   5.041   1.795   4.954  0.3481  1.1694 -0.3821
 1669SOL     OW 5547   0.614   5.227   2.032 -0.2942 -0.1915 -0.5968
 1669SOL    HW1 5548   0.605   5.286   1.957  0.3516 -1.3589 -1.6392
 1669SOL    HW2 5549   0.526   5.195   2.048 -0.7121  1.2795  0.1993
 1670SOL     OW 5550   6.599   1.116   5.419  0.1241  0.0745  0.6256
 1670SOL    HW1 5551   6.622   1.033   5.461  0.5484  0.2474  0.7458
 1670SOL    HW2 5552   6.677   1.141   5.370 -0.7974 -0.7656 -1.3646
 1671SOL     OW 5553   7.085   0.794   7.051 -0.2621  0.2235 -0.2393
 1671SOL    HW1 5554   7.149   0.752   7.108 -1.7733 -1.6362  0.2022
 1671SOL    HW2 5555   7.122   0.787   6.963  0.2911 -0.5101  0.0462
 1672SOL     OW 5556   5.109   1.403   6.734  0.3097  0.2086  0.0900
 1672SOL    HW1 5557   5.165   1.412   6.810  1.1712 -0.2641 -0.4760
 1672SOL    HW2 5558   5.133   1.477   6.678 -0.3007  0.5390  0.2592
 1673SOL     OW 5559   3.330   4.699   5.861 -0.1418 -0.0391 -0.1633
 1673SOL    HW1 5560   3.300   4.624   5.912 -0.4996 -0.1958 -0.5864
 1673SOL    HW2 5561   3.405   4.734   5.909 -1.4823  0.8657  1.3945
 1674SOL     OW 5562   6.808   2.752   6.217 -0.6488  0.1942 -0.0391
 1674SOL    HW1 5563   6.726   2.704   6.226 -0.6728  0.4435  1.2192
 1674SOL    HW2 5564   6.844   2.754   6.306  0.7249  0.0739 -0.5763
 1675SOL     OW 5565   5.978   5.395   6.768  0.1231 -0.3019 -1.4192
 1675SOL    HW1 5566   6.056   5.343   6.751 -0.1062 -0.3043 -2.5420
 1675SOL    HW2 5567   5.944   5.416   6.681 -0.3690  0.8404 -0.9694
 1676SOL     OW 5568   7.411   3.540   5.663 -0.4889 -0.1573 -0.1715
 1676SOL    HW1 5569   7.365   3.606   5.716  0.1976  1.0573 -1.0226
 1676SOL    HW2 5570   7.503   3.565   5.670 -0.2333 -0.9719 -0.6089
 1677SOL     OW 5571   4.186   6.449   4.197 -0.1386 -0.3654 -0.2756
 1677SOL    HW1 5572   4.164   6.463   4.290  2.2276  0.2369  0.2491
 1677SOL    HW2 5573   4.178   6.535   4.157  1.4436 -0.0722 -0.0075
 1678SOL     OW 5574   1.481   7.173   2.910 -0.1854 -0.4560  0.0994
 1678SOL    HW1 5575   1.478   7.111   2.838  0.9318 -0.6732  0.2127
 1678SOL    HW2 5576   1.450   7.124   2.986  0.9497 -0.9715  0.2430
 1679SOL     OW 5577   6.462   7.370   2.627  0.0249 -0.2891  0.7661
 1679SOL    HW1 5578   6.387   7.333   2.581  1.0865 -0.9003 -0.5463
 1679SOL    HW2 5579   6.453   7.338   2.717  0.2810 -2.8674 -0.0452
 1680SOL     OW 5580   0.207   2.686   1.017  0.6157 -0.0001  0.2027
 1680SOL    HW1 5581   0.170   2.620   1.076  0.0678 -0.3677 -0.5260
 1680SOL    HW2 5582   0.245   2.635   0.946 -1.1414  0.4660 -1.1507
 1681SOL     OW 5583   4.155   2.283   0.197 -0.1598 -0.2048  0.4574
 1681SOL    HW1 5584   4.242   2.316   0.175 -0.4523  0.6821  0.6024
 1681SOL    HW2 5585   4.120   2.348   0.258 -0.5685 -1.0305  1.1157
 1682SOL     OW 5586   0.315   3.287   5.302 -0.3402  0.4993 -0.5704
 1682SOL    HW1 5587   0.321   3.366   5.355  0.0503  0.0748  0.0225
 1682SOL    HW2 5588   0.360   3.220   5.352 -1.7803 -0.4346 -0.4560
 1683SOL     OW 5589   6.701   7.087   5.768 -0.1795  0.0093  0.1509
 1683SOL    HW1 5590   6.758   7.060   5.696  1.1974 -0.7849  1.4660
 1683SOL    HW2 5591   6.674   7.004   5.809 -2.0537  0.3848 -0.2316
 1684SOL     OW 5592   7.606   1.597   1.000  0.7174 -0.2227 -0.3283
 1684SOL    HW1 5593   7.583   1.516   0.955 -0.5378 -0.8652  1.3536
 1684SOL    HW2 5594   7.533   1.657   0.983  0.4093 -0.3452  0.4894
 1685SOL     OW 5595   2.985   5.396   3.173 -0.5641  0.0806 -0.1240
 1685SOL    HW1 5596   3.064   5.343   3.183 -0.0056  1.1563  1.9563
 1685SOL    HW2 5597   3.018   5.485   3.159 -1.4693  0.1156 -2.3747
 1686SOL     OW 5598   1.333   4.542   0.860  0.1515 -0.8225 -0.4580
 1686SOL    HW1 5599   1.254   4.564   0.909  1.5814 -0.5388  1.8683
 1686SOL    HW2 5600   1.363   4.625   0.823 -0.4198 -0.8686 -1.0397
 1687SOL     OW 5601   1.185   5.233   0.189  0.3892  0.3342  0.0467
 1687SOL    HW1 5602   1.270   5.271   0.211  1.0443  0.2021 -2.0315
 1687SOL    HW2 5603   1.203   5.175   0.116 -1.6856  1.3637 -1.3900
 1688SOL     OW 5604   4.191   1.070   1.018  0.2721  0.2138 -0.3280
 1688SOL    HW1 5605   4.167   1.040   1.105 -0.5183 -1.3831 -1.0525
 1688SOL    HW2 5606   4.258   1.008   0.989 -0.7860 -0.4035 -1.5414
 1689SOL     OW 5607   6.607   3.757   5.999 -0.0630 -0.4042 -0.1753
 1689SOL    HW1 5608   6.579   3.722   6.084  0.4429  1.4595  0.8086
 1689SOL    HW2 5609   6.675   3.820   6.021 -0.9453  1.2113 -1.8405
 1690SOL     OW 5610   4.275   5.673   0.678 -0.7107  0.2794 -0.0119
 1690SOL    HW1 5611   4.186   5.645   0.697  0.1415 -2.9563 -0.1329
 1690SOL    HW2 5612   4.311   5.603   0.623  1.7182  1.7943 -0.5174
 1691SOL     OW 5613   4.139   0.275   3.000  0.4733 -0.7520  0.3391
 1691SOL    HW1 5614   4.192   0.334   2.946 -0.5289 -0.7280 -0.6642
 1691SOL    HW2 5615   4.105   0.210   2.938 -1.6792 -0.0383  0.6895
 1692SOL     OW 5616   3.051   5.528   1.070 -0.1077 -0.1082  0.5427
 1692SOL    HW1 5617   2.991   5.600   1.051  0.4564 -0.0233 -0.9834
 1692SOL    HW2 5618   3.127   5.570   1.110 -0.7957 -0.1556  1.9599
 1693SOL     OW 5619   6.558   1.666   2.796 -0.0625 -0.4046 -0.7821
 1693SOL    HW1 5620   6.649   1.639   2.809  0.2729  0.9318 -0.1056
 1693SOL    HW2 5621   6.516   1.591   2.755  0.3969 -2.5578  2.3378
 1694SOL     OW 5622   3.095   4.157   4.815  0.4177 -0.0989 -0.0334
 1694SOL    HW1 5623   3.144   4.226   4.860 -0.9805  1.4280 -0.7231
 1694SOL    HW2 5624   3.016   4.145   4.869  0.5489 -1.0359 -0.0338
 1695SOL     OW 5625   6.914   2.254   7.358 -0.3291  0.5306 -0.2620
 1695SOL    HW1 5626   6.957   2.206   7.287 -0.6301 -0.6991  0.3600
 1695SOL    HW2 5627   6.952   2.342   7.354 -1.2665  0.8788 -2.7220
 1696SOL     OW 5628   2.170   4.501   4.412 -0.0346 -0.3806  0.2759
 1696SOL    HW1 5629   2.146   4.428   4.355 -1.0395 -0.0414  0.2327
 1696SOL    HW2 5630   2.265   4.497   4.418 -0.0372 -1.3780 -0.1408
 1697SOL     OW 5631   1.556   5.589   1.423 -0.4488  0.1159 -0.1403
 1697SOL    HW1 5632   1.490   5.536   1.467 -1.7449  0.8233 -1.1741
 1697SOL    HW2 5633   1.570   5.663   1.481 -0.4762 -0.0910  0.1320
 1698SOL     OW 5634   2.011   7.531   2.289 -0.0578 -0.1739 -0.2527
 1698SOL    HW1 5635   1.987   7.491   2.373 -2.7717 -0.0127 -0.8520
 1698SOL    HW2 5636   2.016   7.625   2.309  0.5958 -0.2538 -0.0205
 1699SOL     OW 5637   5.255   3.912   1.027  0.3470  0.2936  0.3496
 1699SOL    HW1 5638   5.273   4.004   1.005  0.4466  0.2661  0.3161
 1699SOL    HW2 5639   5.192   3.883   0.961 -0.5852  0.6770  1.0466
 1700SOL     OW 5640   2.908   3.769   6.125  0.1971  0.0902  0.0757
 1700SOL    HW1 5641   2.867   3.765   6.212  0.6944  0.3983  0.3297
 1700SOL    HW2 5642   2.900   3.680   6.091  2.1747 -0.6850  1.4470
 1701SOL     OW 5643   2.492   4.527   6.976 -0.1039 -0.4501 -0.4237
 1701SOL    HW1 5644   2.417   4.488   6.931 -0.0653 -2.1626  0.9035
 1701SOL    HW2 5645   2.552   4.552   6.905 -0.8716 -1.2865 -1.4014
 1702SOL     OW 5646   7.064   4.500   0.485  0.1743 -0.1967  0.1524
 1702SOL    HW1 5647   7.095   4.434   0.422  0.5711  0.1473 -0.0215
 1702SOL    HW2 5648   7.075   4.583   0.439 -1.0240 -0.0597  0.0905
 1703SOL     OW 5649   2.965   6.292   1.018 -0.3060 -0.5250  0.8426
 1703SOL    HW1 5650   2.879   6.316   0.984 -0.1711 -0.4967  0.5163
 1703SOL    HW2 5651   2.961   6.197   1.028  0.1579 -0.7400 -0.7159
 1704SOL     OW 5652   2.162   4.586   3.552 -0.5237  0.1763 -0.3420
 1704SOL    HW1 5653   2.116   4.509   3.583 -0.8242  0.5670  0.2135
 1704SOL    HW2 5654   2.111   4.617   3.478 -2.5448  1.9104  1.6097
 1705SOL     OW 5655   6.582   4.129   5.954 -0.4810  0.5987  0.5343
 1705SOL    HW1 5656   6.560   4.187   6.027 -0.3028  0.0215  1.0452
 1705SOL    HW2 5657   6.521   4.056   5.962 -0.1744  0.3210  0.3571
 1706SOL     OW 5658   1.433   2.546   0.799  0.0141  0.6610  0.3149
 1706SOL    HW1 5659   1.412   2.595   0.719  2.3396  1.5162  0.1470
 1706SOL    HW2 5660   1.426   2.610   0.869 -0.8174  0.2100  0.6551
 1707SOL     OW 5661   0.585   4.057   0.094  0.0456  0.6077 -0.1394
 1707SOL    HW1 5662   0.633   4.105   0.161  1.3538 -2.3971  1.2783
 1707SOL    HW2 5663   0.639   4.066   0.015  0.6183  0.8712  0.2763
 1708SOL     OW 5664   2.166   3.116   1.920  0.4036  0.2440  0.0954
 1708SOL    HW1 5665   2.104   3.123   1.847  1.4870  0.1606 -0.8694
 1708SOL    HW2 5666   2.248   3.151   1.884  0.8932  0.4320  1.3682
 1709SOL     OW 5667   2.428   3.889   2.196 -0.5018 -0.0336  0.2131
 1709SOL    HW1 5668   2.472   3.826   2.252 -0.1027  0.2610  0.2307
 1709SOL    HW2 5669   2.491   3.960   2.185 -1.3820  0.9320  1.1755
 1710SOL     OW 5670   6.360   6.550   3.066 -0.6405  0.0478  0.3888
 1710SOL    HW1 5671   6.292   6.547   2.998 -0.0033  0.1491 -0.2632
 1710SOL    HW2 5672   6.339   6.478   3.124 -1.3978  0.1710  0.2787
 1711SOL     OW 5673   3.102   3.577   6.563  0.5849 -0.2183  0.2785
 1711SOL    HW1 5674   3.120   3.569   6.470  1.2079  0.2915  0.3525
 1711SOL    HW2 5675   3.075   3.668   6.575 -0.4920 -0.5341  0.4419
 1712SOL     OW 5676   4.042   0.991   6.860 -0.1702 -0.2769 -0.3716
 1712SOL    HW1 5677   4.000   0.918   6.905 -0.0862  0.8378  1.6092
 1712SOL    HW2 5678   4.020   1.068   6.912 -0.2543  1.1679 -2.3874
 1713SOL     OW 5679   4.315   3.035   5.879  0.1424  0.3172 -0.0979
 1713SOL    HW1 5680   4.395   2.994   5.911  0.8034 -0.3505 -2.3563
 1713SOL    HW2 5681   4.338   3.068   5.792 -1.6436  1.4718 -0.2009
 1714SOL     OW 5682   3.347   5.287   3.579 -0.1394 -0.1030 -0.4406
 1714SOL    HW1 5683   3.347   5.192   3.590  2.1761 -0.1057 -0.0179
 1714SOL    HW2 5684   3.387   5.302   3.494 -1.1224  0.4908 -0.8104
 1715SOL     OW 5685   6.521   3.708   4.771  0.1919 -0.3949  0.4395
 1715SOL    HW1 5686   6.447   3.761   4.802 -1.3932 -2.4130  0.3393
 1715SOL    HW2 5687   6.530   3.733   4.679  0.4304  0.6886  0.7337
 1716SOL     OW 5688   3.533   4.456   2.390  0.0751 -0.1222  0.0888
 1716SOL    HW1 5689   3.551   4.499   2.306 -1.3011  1.8197  0.7089
 1716SOL    HW2 5690   3.612   4.472   2.442 -0.6440  2.4512  0.5449
 1717SOL     OW 5691   6.761   2.022   4.766 -0.3586 -0.1896 -0.0786
 1717SOL    HW1 5692   6.814   2.046   4.842 -1.9403 -0.1989  1.0805
 1717SOL    HW2 5693   6.750   2.105   4.718 -0.5356  0.1289  0.4966
 1718SOL     OW 5694   4.927   0.630   5.135 -0.2486  0.0716 -0.9575
 1718SOL    HW1 5695   4.920   0.543   5.097 -1.4734 -0.6546  0.7835
 1718SOL    HW2 5696   5.007   0.627   5.187 -0.3047 -0.0283 -0.8765
 1719SOL     OW 5697   6.197   4.337   5.338  0.2030  0.0766  0.2834
 1719SOL    HW1 5698   6.211   4.244   5.323 -1.7893  0.0863 -2.4544
 1719SOL    HW2 5699   6.220   4.351   5.430  0.6970 -3.0431  0.7374
 1720SOL     OW 5700   0.710   5.712   4.019  0.4561 -0.1198 -0.1044
 1720SOL    HW1 5701   0.780   5.765   4.057 -0.7552  3.1254 -2.0254
 1720SOL    HW2 5702   0.655   5.688   4.094  1.5939  0.4835  0.9611
 1721SOL     OW 5703   2.493   3.909   7.033  0.1308 -0.2229  0.7364
 1721SOL    HW1 5704   2.496   3.887   6.939 -1.5317  0.2637  0.5212
 1721SOL    HW2 5705   2.451   3.995   7.035 -0.8647 -0.7074  1.9702
 1722SOL     OW 5706   5.897   6.639   1.267 -0.2365 -0.0239  0.1642
 1722SOL    HW1 5707   5.910   6.559   1.317 -1.4628 -1.0855 -1.1516
 1722SOL    HW2 5708   5.962   6.636   1.198 -0.4325  0.0006 -0.0231
 1723SOL     OW 5709   3.872   0.818   6.983 -0.0455  0.0149 -0.3733
 1723SOL    HW1 5710   3.874   0.725   7.006  1.1552  0.0964 -0.0529
 1723SOL    HW2 5711   3.789   0.831   6.937  0.7210 -1.6983 -2.3986
 1724SOL     OW 5712   6.063   4.620   6.338  0.5809 -0.0776  0.0947
 1724SOL    HW1 5713   6.145   4.595   6.382 -0.4051  1.2986  2.9765
 1724SOL    HW2 5714   6.005   4.648   6.409 -2.5304 -1.1973 -1.7888
 1725SOL     OW 5715   6.099   0.247   5.908  0.8269  0.7896  0.7023
 1725SOL    HW1 5716   6.105   0.208   5.821  1.1074  3.5074 -0.5964
 1725SOL    HW2 5717   6.131   0.179   5.967 -0.7252 -1.6609 -1.1063
 1726SOL     OW 5718   5.364   3.097   0.892 -0.0031 -0.5497  0.1646
 1726SOL    HW1 5719   5.337   3.103   0.801 -0.9080  1.9006  0.5189
 1726SOL    HW2 5720   5.316   3.021   0.926 -0.3997 -0.9104 -1.1384
 1727SOL     OW 5721   0.746   1.015   2.708 -0.0866 -0.3564 -0.2526
 1727SOL    HW1 5722   0.692   0.937   2.697  0.2055 -0.3948 -1.6707
 1727SOL    HW2 5723   0.754   1.051   2.620 -2.1326  2.6339  0.6273
 1728SOL     OW 5724   3.526   5.861   7.387 -0.0213  0.0275  0.1724
 1728SOL    HW1 5725   3.495   5.891   7.302  0.5685 -2.1999 -0.9156
 1728SOL    HW2 5726   3.462   5.795   7.414  0.5795 -0.3269  0.7603
 1729SOL     OW 5727   5.378   5.040   6.901 -0.7206 -0.1683 -0.1591
 1729SOL    HW1 5728   5.360   5.043   6.994 -0.5362  2.4024 -0.1377
 1729SOL    HW2 5729   5.363   4.949   6.876  1.0589 -1.3685  2.7132
 1730SOL     OW 5730   7.283   3.196   1.827  0.0459 -0.2775  0.4073
 1730SOL    HW1 5731   7.226   3.124   1.856 -0.7653  0.3511  0.4333
 1730SOL    HW2 5732   7.223   3.257   1.783  0.8913 -0.1102 -0.5429
 1731SOL     OW 5733   7.057   1.593   1.426  0.4576 -0.0316  0.5837
 1731SOL    HW1 5734   7.102   1.653   1.366  0.5637 -0.4718  0.2123
 1731SOL    HW2 5735   7.037   1.646   1.503 -0.1318  0.6796 -0.0461
 1732SOL     OW 5736   0.083   0.486   0.481 -0.0989 -0.3658  0.1147
 1732SOL    HW1 5737   0.173   0.517   0.477 -0.6294  1.2595  0.2113
 1732SOL    HW2 5738   0.031   0.558   0.446 -1.4911 -0.7247  1.3489
 1733SOL     OW 5739   4.165   4.199   4.014  0.1729  0.2518  0.1916
 1733SOL    HW1 5740   4.165   4.267   4.081 -0.7991  0.4575  0.0051
 1733SOL    HW2 5741   4.126   4.241   3.937 -2.9698 -1.1539  0.8260
 1734SOL     OW 5742   6.512   1.471   5.829  0.1095 -0.0591  0.0556
 1734SOL    HW1 5743   6.572   1.401   5.854  0.6239  1.1053  2.3749
 1734SOL    HW2 5744   6.550   1.550   5.867 -1.9315  1.0115  0.0310
 1735SOL     OW 5745   0.632   2.773   2.812  0.4458 -0.2451  0.0741
 1735SOL    HW1 5746   0.708   2.831   2.808  0.4780 -0.3260 -0.5282
 1735SOL    HW2 5747   0.659   2.703   2.872  1.1501 -0.6925 -0.7243
 1736SOL     OW 5748   0.241   3.435   6.020  0.2867 -0.7267  0.2685
 1736SOL    HW1 5749   0.209   3.400   6.103  2.9853 -0.2263  1.6465
 1736SOL    HW2 5750   0.216   3.527   6.022  1.0693 -0.5124  0.9794
 1737SOL     OW 5751   5.334   3.424   2.055 -0.4309 -0.1292 -0.1522
 1737SOL    HW1 5752   5.368   3.467   2.133  1.7507 -0.2562 -0.9667
 1737SOL    HW2 5753   5.244   3.456   2.047  0.0459  1.6774  1.1243
 1738SOL     OW 5754   1.080   1.535   6.875 -0.3509 -0.8496 -0.0490
 1738SOL    HW1 5755   1.140   1.460   6.878  0.5977 -0.1085 -0.1942
 1738SOL    HW2 5756   1.112   1.594   6.943 -0.9866 -0.4877 -0.0585
 1739SOL     OW 5757   4.286   5.212   5.659 -0.5341  0.2522 -0.4287
 1739SOL    HW1 5758   4.258   5.129   5.698  0.9358 -0.7495 -1.3786
 1739SOL    HW2 5759   4.226   5.226   5.586  1.1691 -1.8568 -2.4343
 1740SOL     OW 5760   5.615   5.601   4.975 -0.0681  0.0416 -0.1333
 1740SOL    HW1 5761   5.566   5.674   5.013 -0.8762 -0.7768  0.4347
 1740SOL    HW2 5762   5.548   5.551   4.927 -0.2341 -2.1894  2.2596
 1741SOL     OW 5763   3.161   4.381   3.713  0.3115 -0.5120  0.4571
 1741SOL    HW1 5764   3.085   4.325   3.696  1.3879 -1.2229 -2.7193
 1741SOL    HW2 5765   3.230   4.321   3.739  1.2978 -0.7013 -2.3486
 1742SOL     OW 5766   6.726   6.065   3.086  0.4527  0.0405  0.3562
 1742SOL    HW1 5767   6.812   6.030   3.063  0.0351  0.1980 -1.6215
 1742SOL    HW2 5768   6.742   6.157   3.107  1.1334 -0.5625  2.8052
 1743SOL     OW 5769   5.693   6.861   2.743  0.1135  0.2431 -0.2775
 1743SOL    HW1 5770   5.758   6.831   2.806  0.3407  1.9957  0.3712
 1743SOL    HW2 5771   5.613   6.815   2.768  0.4320  0.1825  0.6764
 1744SOL     OW 5772   6.558   7.034   1.379 -0.0520 -0.3926 -0.2207
 1744SOL    HW1 5773   6.633   6.986   1.415 -0.3054 -1.2098 -0.7655
 1744SOL    HW2 5774   6.520   6.975   1.314  0.1751  0.8822 -1.5786
 1745SOL     OW 5775   5.325   5.712   4.234 -0.4992 -0.0391 -0.4039
 1745SOL    HW1 5776   5.296   5.725   4.324 -0.5143  0.5409 -0.4902
 1745SOL    HW2 5777   5.401   5.653   4.241 -0.8743 -0.4866 -0.0690
 1746SOL     OW 5778   1.301   5.043   0.634 -0.0075  0.3375  0.4564
 1746SOL    HW1 5779   1.293   5.137   0.616  1.1401  0.6174  1.2353
 1746SOL    HW2 5780   1.296   5.037   0.730  0.0560 -0.3781  0.4199
 1747SOL     OW 5781   1.183   7.118   3.382  0.0026  0.0953 -0.0845
 1747SOL    HW1 5782   1.146   7.197   3.421  0.3929  0.4593 -0.4396
 1747SOL    HW2 5783   1.267   7.106   3.427 -1.1231 -1.5283  1.7339
 1748SOL     OW 5784   7.003   1.759   3.990 -0.3367 -0.1904 -0.2534
 1748SOL    HW1 5785   6.936   1.707   4.034 -0.1344 -1.0440 -0.9258
 1748SOL    HW2 5786   6.955   1.830   3.948 -0.7925 -0.6514 -0.5161
 1749SOL     OW 5787   6.123   5.830   2.140 -0.3410 -0.6263  0.3694
 1749SOL    HW1 5788   6.142   5.737   2.125  0.4892 -0.4675  0.4036
 1749SOL    HW2 5789   6.055   5.851   2.076  0.5443 -0.8770 -0.6755
 1750SOL     OW 5790   7.201   1.029   1.170 -0.0890  0.0871 -0.2618
 1750SOL    HW1 5791   7.111   1.058   1.187 -0.1465  0.2008 -0.7478
 1750SOL    HW2 5792   7.202   0.938   1.200 -1.0991 -0.7603 -2.5574
 1751SOL     OW 5793   3.559   7.190   3.325  0.0167 -0.2989 -0.4677
 1751SOL    HW1 5794   3.563   7.236   3.241 -0.3349  2.3142  0.8156
 1751SOL    HW2 5795   3.650   7.173   3.348  0.0718 -2.4190 -2.0004
 1752SOL     OW 5796   5.675   2.554   6.490 -0.3445  0.3846  0.3101
 1752SOL    HW1 5797   5.764   2.565   6.523 -0.6097 -0.1061  1.2265
 1752SOL    HW2 5798   5.638   2.642   6.488  0.8834  0.9420 -2.2842
 1753SOL     OW 5799   5.573   3.887   7.250  0.0990 -0.0279  0.2535
 1753SOL    HW1 5800   5.523   3.966   7.270  0.4192  0.5979 -1.2673
 1753SOL    HW2 5801   5.636   3.879   7.322 -1.1018  0.0818  1.3395
 1754SOL     OW 5802   5.766   7.539   3.447 -0.4999  0.3482 -0.4260
 1754SOL    HW1 5803   5.814   7.457   3.456 -1.8010 -0.4421 -0.4320
 1754SOL    HW2 5804   5.697   7.535   3.513 -2.2582  0.1734 -2.1474
 1755SOL     OW 5805   0.494   4.507   4.277 -0.4774 -0.1246 -0.4347
 1755SOL    HW1 5806   0.546   4.517   4.197  0.1727 -0.5796 -0.0793
 1755SOL    HW2 5807   0.407   4.537   4.253 -0.2247 -0.0204 -1.2471
 1756SOL     OW 5808   3.171   0.805   6.400 -0.3160  0.1380 -0.1564
 1756SOL    HW1 5809   3.214   0.858   6.468  1.5995  0.5865 -1.6257
 1756SOL    HW2 5810   3.113   0.746   6.449  1.6589 -0.2009  1.9650
 1757SOL     OW 5811   3.754   1.996   3.131  0.0015  0.4099  0.0139
 1757SOL    HW1 5812   3.755   2.091   3.139  0.5508  0.3255  1.1889
 1757SOL    HW2 5813   3.847   1.971   3.139 -0.0329 -0.1616 -1.1949
 1758SOL     OW 5814   5.440   5.830   5.059 -0.5947  0.2200 -0.2548
 1758SOL    HW1 5815   5.374   5.818   4.991 -0.2364 -0.3638 -0.5066
 1758SOL    HW2 5816   5.509   5.882   5.016  0.7273 -2.0929 -1.1097
 1759SOL     OW 5817   3.727   5.373   1.232  0.1594  0.5693 -0.0352
 1759SOL    HW1 5818   3.710   5.340   1.144  0.3292  1.2011 -0.3069
 1759SOL    HW2 5819   3.650   5.426   1.253  0.8265  1.7572 -0.4598
 1760SOL     OW 5820   3.699   6.171   0.507 -0.4810 -1.0470  0.6032
 1760SOL    HW1 5821   3.683   6.152   0.414 -1.3668  1.2869  0.1957
 1760SOL    HW2 5822   3.792   6.152   0.520 -0.4652 -1.9442 -0.6058
 1761SOL     OW 5823   5.236   1.159   5.611  0.2121  0.0145  0.4144
 1761SOL    HW1 5824   5.160   1.213   5.590  0.1000 -0.1020  0.5129
 1761SOL    HW2 5825   5.276   1.139   5.527 -0.3622 -0.6405  0.2891
 1762SOL     OW 5826   3.462   3.136   3.900  0.1628  0.3334  0.8315
 1762SOL    HW1 5827   3.453   3.085   3.980  0.1294 -0.1313  0.5390
 1762SOL    HW2 5828   3.471   3.070   3.831  0.7711  0.7322  0.5218
 1763SOL     OW 5829   4.237   4.047   0.718 -0.5105  0.1716  0.0856
 1763SOL    HW1 5830   4.267   4.009   0.800 -0.9886 -0.4425 -0.0185
 1763SOL    HW2 5831   4.317   4.068   0.670 -0.2434 -0.8447  0.0793
 1764SOL     OW 5832   7.432   3.751   0.102  0.0205  0.1002  0.0031
 1764SOL    HW1 5833   7.369   3.785   0.039  0.4394 -0.5908 -0.8004
 1764SOL    HW2 5834   7.435   3.818   0.170 -0.9420  0.5438 -0.3603
 1765SOL     OW 5835   5.376   0.587   0.239  0.4289 -0.0530  0.0816
 1765SOL    HW1 5836   5.420   0.638   0.306 -0.0216 -0.0164  0.3516
 1765SOL    HW2 5837   5.341   0.511   0.286  1.0589 -0.5992 -0.3065
 1766SOL     OW 5838   0.645   0.983   4.933 -0.3829  0.3176 -0.8646
 1766SOL    HW1 5839   0.663   1.020   5.019 -0.0903 -0.0464 -0.7632
 1766SOL    HW2 5840   0.711   1.023   4.876  0.4442 -0.6082 -0.6006
 1767SOL     OW 5841   1.757   3.316   0.830 -0.0841 -0.1004  0.2426
 1767SOL    HW1 5842   1.827   3.285   0.888 -0.6480  0.1277  1.0549
 1767SOL    HW2 5843   1.690   3.249   0.834 -0.7445  0.5825  0.9896
 1768SOL     OW 5844   2.623   4.932   1.133  0.1996  0.4624  0.1343
 1768SOL    HW1 5845   2.662   4.936   1.045 -0.7376 -1.3560 -0.4179
 1768SOL    HW2 5846   2.683   4.877   1.183  0.1076  0.5097  0.2961
 1769SOL     OW 5847   6.258   3.071   6.964  0.7819  0.0971 -0.2631
 1769SOL    HW1 5848   6.216   3.101   7.045  0.2637 -2.3754  0.4522
 1769SOL    HW2 5849   6.308   3.147   6.933 -1.4137  2.0615  0.7205
 1770SOL     OW 5850   2.258   3.311   7.179  0.3018 -0.0627 -0.4462
 1770SOL    HW1 5851   2.258   3.400   7.213  2.0991  0.8053 -2.4887
 1770SOL    HW2 5852   2.193   3.265   7.232 -1.5810  2.7361 -0.1013
 1771SOL     OW 5853   0.169   4.572   3.468  0.6737  0.2320  0.4883
 1771SOL    HW1 5854   0.202   4.569   3.558  1.1759 -0.2734  0.2905
 1771SOL    HW2 5855   0.241   4.538   3.414 -0.2705 -1.2467  0.0866
 1772SOL     OW 5856   4.914   3.968   1.246 -0.3609  0.2522  0.0133
 1772SOL    HW1 5857   4.905   3.952   1.152  1.5472 -1.7006  0.0832
 1772SOL    HW2 5858   4.993   4.020   1.254 -0.4235  0.2696  0.5511
 1773SOL     OW 5859   1.299   3.414   2.440  0.1294 -0.2777 -0.2424
 1773SOL    HW1 5860   1.274   3.481   2.376 -0.7057  2.1618  2.4030
 1773SOL    HW2 5861   1.220   3.400   2.492  1.0247 -1.4605  0.8686
 1774SOL     OW 5862   1.594   3.888   2.886  0.1854  0.0095  0.0818
 1774SOL    HW1 5863   1.533   3.852   2.951 -0.3052  1.6447  0.5857
 1774SOL    HW2 5864   1.680   3.873   2.924 -0.0258 -0.2231  0.4884
 1775SOL     OW 5865   3.843   3.377   6.850 -0.0047 -0.2771  0.5151
 1775SOL    HW1 5866   3.846   3.445   6.782  4.6318  1.6653  2.2811
 1775SOL    HW2 5867   3.808   3.300   6.805 -3.9069  2.5830 -2.0993
 1776SOL     OW 5868   0.786   0.511   1.397  0.2419  0.3592  0.2939
 1776SOL    HW1 5869   0.777   0.551   1.311  0.5884  0.2431  0.2038
 1776SOL    HW2 5870   0.831   0.578   1.450  2.6135 -0.6054 -0.3763
 1777SOL     OW 5871   0.973   4.729   0.550  0.2844 -0.1139  0.2395
 1777SOL    HW1 5872   0.998   4.748   0.641 -0.6034 -1.1909  0.7370
 1777SOL    HW2 5873   0.968   4.633   0.547  0.4405 -0.0937 -0.9945
 1778SOL     OW 5874   5.413   1.803   3.614  0.3118 -0.4423 -0.0794
 1778SOL    HW1 5875   5.339   1.743   3.617  1.3711 -1.7442  2.4432
 1778SOL    HW2 5876   5.379   1.880   3.567 -2.9608 -0.5433  1.8188
 1779SOL     OW 5877   5.469   6.526   4.693 -0.0199  0.1160 -0.0420
 1779SOL    HW1 5878   5.449   6.541   4.600 -1.0671  2.3600  0.4793
 1779SOL    HW2 5879   5.519   6.604   4.719 -0.3370 -0.1568  1.4451
 1780SOL     OW 5880   0.712   6.929   0.289  0.2186 -0.5362 -1.0688
 1780SOL    HW1 5881   0.701   6.840   0.254 -1.4850 -0.9673  0.4415
 1780SOL    HW2 5882   0.662   6.930   0.370 -0.2694  1.9924 -1.3139
 1781SOL     OW 5883   6.206   0.712   0.902 -0.2450 -0.0023  0.0382
 1781SOL    HW1 5884   6.230   0.626   0.937 -1.9161 -0.5414 -0.0119
 1781SOL    HW2 5885   6.246   0.775   0.962 -0.3322 -0.8509  1.0162
 1782SOL     OW 5886   2.197   5.118   6.532  0.4916 -0.4318  0.3436
 1782SOL    HW1 5887   2.143   5.188   6.569  1.0230  0.1641  0.0192
 1782SOL    HW2 5888   2.257   5.094   6.602  0.3200 -0.5500  0.4503
 1783SOL     OW 5889   7.316   7.335   4.694 -0.4615 -0.2416 -0.2616
 1783SOL    HW1 5890   7.224   7.359   4.679 -0.0056  0.2389 -2.7455
 1783SOL    HW2 5891   7.348   7.308   4.608  1.5948 -0.9334  0.6562
 1784SOL     OW 5892   0.107   4.442   3.056  0.5279  0.2366  0.2293
 1784SOL    HW1 5893   0.026   4.428   3.007  0.7572  0.1177 -0.1204
 1784SOL    HW2 5894   0.176   4.437   2.990  0.7346  1.5646  0.3173
 1785SOL     OW 5895   1.900   0.226   4.458 -0.7188 -0.7733  0.2395
 1785SOL    HW1 5896   1.870   0.204   4.546 -0.4234  1.4886  0.9481
 1785SOL    HW2 5897   1.819   0.232   4.406 -1.0607 -0.1643  0.8281
 1786SOL     OW 5898   4.761   1.991   2.118  0.6098  0.1253  0.3471
 1786SOL    HW1 5899   4.766   2.005   2.023  2.6634  3.5701  0.7857
 1786SOL    HW2 5900   4.826   1.923   2.135 -1.1929 -2.0055 -0.8174
 1787SOL     OW 5901   7.295   4.038   1.316 -0.0025 -0.0441 -0.4467
 1787SOL    HW1 5902   7.326   4.046   1.226  1.5134  0.1500  0.0649
 1787SOL    HW2 5903   7.226   3.973   1.312  0.5029 -0.5348 -1.6460
 1788SOL     OW 5904   6.485   6.029   3.469 -0.1140 -0.6129  0.2663
 1788SOL    HW1 5905   6.563   5.975   3.476  1.2275  1.4274  2.0654
 1788SOL    HW2 5906   6.451   6.011   3.381  2.8907 -0.8957 -0.9269
 1789SOL     OW 5907   0.338   3.559   4.928 -0.1077 -0.1860 -0.3639
 1789SOL    HW1 5908   0.348   3.572   4.833  0.3625 -0.3768 -0.3416
 1789SOL    HW2 5909   0.330   3.465   4.939 -2.4962 -0.0564 -0.4232
 1790SOL     OW 5910   3.236   5.293   6.075 -0.1473  0.5449 -0.5259
 1790SOL    HW1 5911   3.161   5.240   6.047  0.2367  0.4411 -1.3666
 1790SOL    HW2 5912   3.304   5.277   6.009  0.6483  0.5792  0.2560
 1791SOL     OW 5913   1.764   0.344   1.911  0.0024 -0.2411 -0.6537
 1791SOL    HW1 5914   1.787   0.339   1.818  1.9344 -1.3170 -0.1665
 1791SOL    HW2 5915   1.791   0.260   1.947 -0.9286  0.0672  0.8569
 1792SOL     OW 5916   5.968   5.461   3.280  0.7807  0.1925 -0.3053
 1792SOL    HW1 5917   5.890   5.413   3.251  0.5713  0.6619 -0.5274
 1792SOL    HW2 5918   5.995   5.511   3.203  1.5253 -0.2526 -0.3411
 1793SOL     OW 5919   5.502   1.720   7.133 -0.0340  0.1404 -0.2251
 1793SOL    HW1 5920   5.572   1.750   7.074  0.2422 -0.1277 -0.0372
 1793SOL    HW2 5921   5.517   1.626   7.142 -0.1562  0.1567  0.1649
 1794SOL     OW 5922   7.288   0.879   2.746 -0.0173 -0.1176 -0.4141
 1794SOL    HW1 5923   7.355   0.893   2.679 -0.5863 -0.3923 -1.0514
 1794SOL    HW2 5924   7.265   0.967   2.776 -0.0837  0.0348 -0.9053
 1795SOL     OW 5925   0.720   3.321   6.765  0.0489  0.1522 -0.2208
 1795SOL    HW1 5926   0.667   3.339   6.843  0.5335 -1.6725  0.5708
 1795SOL    HW2 5927   0.667   3.354   6.693 -1.3883 -0.0310  0.7007
 1796SOL     OW 5928   6.111   0.605   6.036 -0.1365 -0.1004  0.5252
 1796SOL    HW1 5929   6.198   0.570   6.052  0.0788 -0.9178 -1.9477
 1796SOL    HW2 5930   6.055   0.560   6.098  1.3498  1.6591  3.3379
 1797SOL     OW 5931   2.189   1.878   1.754  0.2505  0.2912  0.0987
 1797SOL    HW1 5932   2.111   1.850   1.705  1.2968 -1.2101 -0.7797
 1797SOL    HW2 5933   2.159   1.882   1.845 -0.7414 -0.7379 -0.1506
 1798SOL     OW 5934   0.948   5.360   7.485 -0.4155  0.7394 -0.6411
 1798SOL    HW1 5935   0.912   5.286   7.533 -2.0188  0.3567 -2.3278
 1798SOL    HW2 5936   0.989   5.415   7.552  0.8159 -1.6222  0.6523
 1799SOL     OW 5937   0.375   6.325   5.347  0.2314  0.1644  0.2938
 1799SOL    HW1 5938   0.409   6.242   5.312 -2.1118 -0.3899 -0.8932
 1799SOL    HW2 5939   0.310   6.298   5.412  0.4459  1.1384  0.9346
 1800SOL     OW 5940   3.273   7.060   7.263 -0.3267  0.4058 -0.5577
 1800SOL    HW1 5941   3.193   7.110   7.253  0.4246  1.6086 -0.8023
 1800SOL    HW2 5942   3.258   7.004   7.339 -0.5776  2.3018  0.8794
 1801SOL     OW 5943   0.413   1.589   5.797  0.1432 -0.0391 -0.4535
 1801SOL    HW1 5944   0.504   1.578   5.768 -0.4989  2.1136 -3.8729
 1801SOL    HW2 5945   0.406   1.536   5.876  3.7798 -1.9858 -1.2393
 1802SOL     OW 5946   0.899   4.296   6.275  0.4769 -0.7591 -0.4852
 1802SOL    HW1 5947   0.893   4.297   6.179  2.0724  0.7062 -0.6202
 1802SOL    HW2 5948   0.956   4.222   6.295  1.0559 -0.3904 -0.7552
 1803SOL     OW 5949   4.789   0.749   2.730 -0.0637 -0.1594 -0.2106
 1803SOL    HW1 5950   4.804   0.665   2.773 -1.4532  1.0623  2.9567
 1803SOL    HW2 5951   4.875   0.791   2.729 -0.1716  0.4424  3.2100
 1804SOL     OW 5952   3.952   0.383   5.564 -0.5378  0.4104 -0.2919
 1804SOL    HW1 5953   4.045   0.371   5.545 -0.8169 -2.0229 -0.4432
 1804SOL    HW2 5954   3.908   0.360   5.483 -1.3095  0.1133  0.1981
 1805SOL     OW 5955   2.162   3.185   5.094  0.4844  0.1212  0.1959
 1805SOL    HW1 5956   2.135   3.093   5.095 -0.1598  0.3031 -0.2748
 1805SOL    HW2 5957   2.258   3.181   5.094  0.4611 -0.5409  0.7549
 1806SOL     OW 5958   4.975   4.494   1.422 -0.7594  0.1552 -0.0829
 1806SOL    HW1 5959   4.991   4.400   1.423 -0.5489  0.1913  0.5680
 1806SOL    HW2 5960   4.888   4.505   1.461  0.0090  0.3509  1.6647
 1807SOL     OW 5961   0.061   2.040   2.115  0.0527 -0.3523 -0.2955
 1807SOL    HW1 5962   0.080   2.095   2.039  0.1849  1.5493  1.0374
 1807SOL    HW2 5963   0.006   1.970   2.080 -0.1583  0.6325 -2.0936
 1808SOL     OW 5964   3.456   5.122   0.229 -0.1769  0.2252 -0.0266
 1808SOL    HW1 5965   3.402   5.199   0.243 -0.2824 -0.1159  1.6476
 1808SOL    HW2 5966   3.405   5.050   0.266  0.9919 -0.2413  0.7560
 1809SOL     OW 5967   3.203   3.714   6.052 -0.4966  0.0266 -0.1717
 1809SOL    HW1 5968   3.271   3.758   6.104 -0.2086 -0.0399 -0.4917
 1809SOL    HW2 5969   3.142   3.681   6.118 -0.2581  0.1464  0.1167
 1810SOL     OW 5970   5.706   1.861   7.026  0.6111  0.1058  0.5175
 1810SOL    HW1 5971   5.776   1.896   7.082  1.3642  0.7968 -0.7890
 1810SOL    HW2 5972   5.748   1.847   6.941 -0.9834  1.2444 -0.5252
 1811SOL     OW 5973   2.709   6.784   0.144  0.1034 -0.2589 -0.2923
 1811SOL    HW1 5974   2.629   6.742   0.114  0.5672 -0.1330 -1.7766
 1811SOL    HW2 5975   2.697   6.794   0.238 -1.8901  0.3045 -0.5637
 1812SOL     OW 5976   3.475   2.272   4.239 -0.0402  0.6599  0.2376
 1812SOL    HW1 5977   3.467   2.329   4.163 -1.0869 -0.6920 -0.7200
 1812SOL    HW2 5978   3.431   2.320   4.310  0.4733  1.6957 -0.1316
 1813SOL     OW 5979   6.783   0.672   6.348 -0.4325  0.4233  0.0467
 1813SOL    HW1 5980   6.703   0.704   6.307 -0.2126  0.5088 -0.3263
 1813SOL    HW2 5981   6.852   0.730   6.314 -0.3961  1.2140  1.4073
 1814SOL     OW 5982   6.893   2.560   1.932  0.5273 -0.6696  0.0113
 1814SOL    HW1 5983   6.896   2.563   1.836  0.8830 -1.4596 -0.0093
 1814SOL    HW2 5984   6.971   2.607   1.960  1.6499 -2.3195 -0.1486
 1815SOL     OW 5985   2.368   4.778   3.572 -0.1988  0.1991 -0.3546
 1815SOL    HW1 5986   2.396   4.810   3.486  2.2554 -0.5824  0.0745
 1815SOL    HW2 5987   2.308   4.706   3.552  0.8588 -0.4192 -1.4750
 1816SOL     OW 5988   1.741   6.404   5.730 -0.7930 -0.1530 -0.4220
 1816SOL    HW1 5989   1.758   6.310   5.726 -0.6518 -0.0874 -2.0529
 1816SOL    HW2 5990   1.828   6.443   5.740 -1.0196 -0.2390  2.8556
 1817SOL     OW 5991   1.526   3.505   4.687  0.0553  0.7107  0.4052
 1817SOL    HW1 5992   1.591   3.453   4.734 -1.1906 -1.3820 -0.0658
 1817SOL    HW2 5993   1.565   3.593   4.682  3.0344 -0.5265 -0.2659
 1818SOL     OW 5994   7.060   0.031   3.752 -0.0652 -0.2226  0.1952
 1818SOL    HW1 5995   7.109   0.101   3.795 -1.3236 -0.0134  1.3625
 1818SOL    HW2 5996   6.970   0.043   3.782 -0.2671 -2.5233  0.7065
 1819SOL     OW 5997   6.326   7.009   6.885  0.5299  0.2538 -0.2940
 1819SOL    HW1 5998   6.338   7.103   6.894 -2.4006  0.7479 -0.4389
 1819SOL    HW2 5999   6.384   6.984   6.814 -0.3642  2.4707 -1.9222
 1820SOL     OW 6000   1.897   2.884   6.128  0.7801  0.3497 -0.3157
 1820SOL    HW1 6001   1.877   2.837   6.209 -1.5463  1.0878 -0.3814
 1820SOL    HW2 6002   1.968   2.944   6.151 -0.4449  1.1801  1.4363
 1821SOL     OW 6003   0.598   7.007   5.005 -0.3295  0.8403  0.3875
 1821SOL    HW1 6004   0.617   7.089   4.960 -0.8474  1.0169  0.4817
 1821SOL    HW2 6005   0.503   7.003   5.007 -0.3067  0.4900  0.8392
 1822SOL     OW 6006   6.229   3.893   6.484 -0.0520 -0.0904  0.0106
 1822SOL    HW1 6007   6.302   3.954   6.493  0.1071 -0.2428 -0.2120
 1822SOL    HW2 6008   6.166   3.920   6.551  0.5205 -0.3943  0.6838
 1823SOL     OW 6009   4.377   0.566   2.477  0.5294  0.1018 -0.6966
 1823SOL    HW1 6010   4.376   0.645   2.423 -0.5286 -0.7327 -1.9693
 1823SOL    HW2 6011   4.461   0.570   2.523  1.3874  0.9902 -2.2359
 1824SOL     OW 6012   5.619   4.746   0.295  0.2805 -0.4326  0.2258
 1824SOL    HW1 6013   5.593   4.838   0.298  0.5259 -0.3254 -0.5308
 1824SOL    HW2 6014   5.592   4.717   0.208 -0.0275 -1.1543  0.5567
 1825SOL     OW 6015   2.508   3.453   0.942  0.5837  0.3187  0.2277
 1825SOL    HW1 6016   2.483   3.362   0.929  1.4114 -0.2416  2.1621
 1825SOL    HW2 6017   2.440   3.503   0.898  0.2426 -1.2224 -1.0880
 1826SOL     OW 6018   0.740   2.437   0.883 -0.2045 -0.2205  0.2407
 1826SOL    HW1 6019   0.804   2.470   0.947 -0.2908  1.3053 -0.4228
 1826SOL    HW2 6020   0.692   2.370   0.931  1.3491 -0.8551  1.0065
 1827SOL     OW 6021   3.004   4.903   1.656 -0.4335  0.6222 -0.0021
 1827SOL    HW1 6022   3.082   4.951   1.628  0.7041  0.0374  1.9057
 1827SOL    HW2 6023   3.006   4.910   1.752 -1.7090 -0.9602  0.1712
 1828SOL     OW 6024   5.270   0.236   5.670  0.3138  0.2337 -0.2871
 1828SOL    HW1 6025   5.198   0.235   5.733 -0.1926  1.9116 -0.7828
 1828SOL    HW2 6026   5.242   0.174   5.601  0.0621 -0.2660  0.2542
 1829SOL     OW 6027   6.196   5.017   1.913 -0.4944 -0.0667 -0.8193
 1829SOL    HW1 6028   6.127   5.081   1.931 -1.3645 -0.4843 -2.4691
 1829SOL    HW2 6029   6.245   5.054   1.840  0.4586 -0.2076 -0.2629
 1830SOL     OW 6030   3.723   5.639   4.857 -0.1764 -0.3130  0.0988
 1830SOL    HW1 6031   3.652   5.694   4.826  2.0000  1.6478 -1.7516
 1830SOL    HW2 6032   3.760   5.600   4.778  1.6728 -0.1585  0.8382
 1831SOL     OW 6033   0.142   6.788   5.560 -0.0893  0.2635  0.4842
 1831SOL    HW1 6034   0.188   6.727   5.502  0.1578  0.9022 -0.0022
 1831SOL    HW2 6035   0.086   6.732   5.613  0.4978 -0.4377  0.3889
 1832SOL     OW 6036   0.382   2.344   4.323 -0.2307 -0.1466 -0.2166
 1832SOL    HW1 6037   0.333   2.317   4.401 -0.7550  0.3470 -0.3702
 1832SOL    HW2 6038   0.371   2.439   4.320  0.8430 -0.0072 -0.1810
 1833SOL     OW 6039   7.213   6.844   0.544  0.7143  0.3594  0.7655
 1833SOL    HW1 6040   7.228   6.756   0.511 -0.4437  0.5445 -0.3223
 1833SOL    HW2 6041   7.150   6.832   0.615  0.3984  0.3236  0.4814
 1834SOL     OW 6042   2.411   1.234   3.345 -0.0101  0.3398  0.6347
 1834SOL    HW1 6043   2.423   1.315   3.394  1.6431  0.7377 -0.3600
 1834SOL    HW2 6044   2.499   1.210   3.316 -0.3941 -2.1374  1.3771
 1835SOL     OW 6045   4.824   0.080   1.783  0.1854  0.7239 -0.3443
 1835SOL    HW1 6046   4.872   0.005   1.750 -0.0033  0.6841 -0.5300
 1835SOL    HW2 6047   4.798   0.129   1.705 -0.1853  0.6766 -0.2530
 1836SOL     OW 6048   7.570   1.079   0.431  0.2886 -0.5379  0.8143
 1836SOL    HW1 6049   7.573   1.002   0.374  0.4267 -0.8289  1.2060
 1836SOL    HW2 6050   7.650   1.127   0.412  0.2330 -0.5216  0.6154
 1837SOL     OW 6051   6.710   0.710   1.203 -0.0169 -0.5693 -0.3629
 1837SOL    HW1 6052   6.789   0.672   1.242  0.3451  0.9486  0.4335
 1837SOL    HW2 6053   6.643   0.643   1.217  0.5697 -0.8995  1.1281
 1838SOL     OW 6054   1.278   7.342   6.305  0.0996  0.4436  0.1522
 1838SOL    HW1 6055   1.221   7.417   6.291  0.8873  1.6263  2.6118
 1838SOL    HW2 6056   1.345   7.374   6.366  0.3396 -2.2922  1.4850
 1839SOL     OW 6057   5.298   2.264   3.353  0.7056 -0.3547 -0.1693
 1839SOL    HW1 6058   5.221   2.232   3.306  0.3177  2.0408 -1.3185
 1839SOL    HW2 6059   5.358   2.293   3.284  0.1484  3.1867  0.6188
 1840SOL     OW 6060   4.122   1.927   1.517 -0.3766 -0.3179  0.7268
 1840SOL    HW1 6061   4.042   1.958   1.560  0.2690  0.8468  1.1202
 1840SOL    HW2 6062   4.152   2.002   1.466 -0.4539 -1.2940 -0.8152
 1841SOL     OW 6063   2.761   3.258   2.889  0.1496 -0.3289 -0.2302
 1841SOL    HW1 6064   2.844   3.213   2.906 -0.3422 -1.1311  0.1314
 1841SOL    HW2 6065   2.717   3.258   2.974 -0.2268  0.0825 -0.4232
 1842SOL     OW 6066   7.449   5.067   1.103 -0.4232  0.7872 -0.0928
 1842SOL    HW1 6067   7.481   5.140   1.051  0.7691  1.2205  1.1787
 1842SOL    HW2 6068   7.389   5.107   1.166 -0.0361  0.6324  0.3813
 1843SOL     OW 6069   4.120   0.196   4.515 -0.1110  0.1769  0.2864
 1843SOL    HW1 6070   4.068   0.116   4.522  0.3721 -0.0760  1.1377
 1843SOL    HW2 6071   4.190   0.185   4.580  1.2305  0.3339 -1.0544
 1844SOL     OW 6072   3.348   3.040   5.665  0.0635  0.4314  0.2312
 1844SOL    HW1 6073   3.436   3.078   5.663  0.1413  0.2942  0.8567
 1844SOL    HW2 6074   3.360   2.950   5.636 -0.0532  0.7372 -0.8120
 1845SOL     OW 6075   5.323   2.134   7.530 -0.1152  0.5276 -0.9493
 1845SOL    HW1 6076   5.234   2.099   7.531 -0.1401  0.5045  1.7712
 1845SOL    HW2 6077   5.322   2.204   7.595  1.8040  0.7020 -1.0539
 1846SOL     OW 6078   1.065   5.706   5.183  0.1404  0.1153  0.0273
 1846SOL    HW1 6079   1.048   5.665   5.098  0.5270  1.4561 -0.7415
 1846SOL    HW2 6080   1.134   5.653   5.222  1.2166  0.4814 -1.2933
 1847SOL     OW 6081   6.622   0.873   5.559  0.0640  0.6383 -0.1384
 1847SOL    HW1 6082   6.574   0.792   5.544  2.6164 -0.6004 -2.2608
 1847SOL    HW2 6083   6.687   0.852   5.625  0.0101  1.2800  0.1284
 1848SOL     OW 6084   7.601   5.344   3.472  0.0242 -0.5424 -0.0629
 1848SOL    HW1 6085   7.580   5.278   3.538 -1.8646  0.6811  0.6746
 1848SOL    HW2 6086   7.647   5.412   3.521 -0.2159 -0.2197 -0.2823
 1849SOL     OW 6087   0.011   1.015   5.144  0.2430  0.0914  0.0249
 1849SOL    HW1 6088   0.103   0.999   5.166  0.2130  0.3529  0.3439
 1849SOL    HW2 6089   0.013   1.050   5.055  0.4565  0.1187  0.0411
 1850SOL     OW 6090   2.838   3.486   3.588 -0.3169 -0.4528 -0.0553
 1850SOL    HW1 6091   2.758   3.537   3.595  1.3765  2.2437  1.2995
 1850SOL    HW2 6092   2.833   3.422   3.659  0.0089  1.7921  2.1461
 1851SOL     OW 6093   5.292   6.033   2.069  0.5136  0.2574 -0.5937
 1851SOL    HW1 6094   5.271   5.956   2.122  0.6247 -0.5895 -1.7388
 1851SOL    HW2 6095   5.361   6.078   2.119  1.0833 -0.8651 -0.3292
 1852SOL     OW 6096   1.744   5.566   2.027 -0.5706  0.0340 -0.7282
 1852SOL    HW1 6097   1.753   5.588   2.120 -1.1738  3.6091 -1.3438
 1852SOL    HW2 6098   1.828   5.591   1.989 -0.2620 -1.5838 -1.1690
 1853SOL     OW 6099   7.610   3.233   6.619 -0.2873  0.1730 -0.3073
 1853SOL    HW1 6100   7.576   3.185   6.695  0.0684 -0.3345 -0.4641
 1853SOL    HW2 6101   7.664   3.169   6.573 -0.7820  0.3730 -1.1830
 1854SOL     OW 6102   6.298   6.074   2.587  0.0658  0.0833  0.0007
 1854SOL    HW1 6103   6.331   6.007   2.526  1.0510 -2.5300  3.1228
 1854SOL    HW2 6104   6.371   6.088   2.648 -1.0472  2.1910  0.9264
 1855SOL     OW 6105   3.407   0.920   4.672  0.2160  0.1048  0.1106
 1855SOL    HW1 6106   3.342   0.988   4.691 -1.6547 -1.0672 -1.6708
 1855SOL    HW2 6107   3.386   0.849   4.734  1.2879  0.5765  1.0459
 1856SOL     OW 6108   2.477   4.933   3.786  0.2959  0.2809  0.0869
 1856SOL    HW1 6109   2.434   4.896   3.709 -0.0346 -0.5361  0.6467
 1856SOL    HW2 6110   2.551   4.982   3.751  0.6033 -0.7111 -0.7174
 1857SOL     OW 6111   1.330   5.829   6.695 -0.5544  0.3231  0.0893
 1857SOL    HW1 6112   1.331   5.774   6.616  1.2657  0.8204 -0.2722
 1857SOL    HW2 6113   1.398   5.894   6.680 -0.7937  0.9870  1.6978
 1858SOL     OW 6114   4.581   4.706   3.940 -0.6212 -0.5808  0.1597
 1858SOL    HW1 6115   4.671   4.676   3.927 -0.1377  0.4700  0.9636
 1858SOL    HW2 6116   4.569   4.775   3.874 -0.9426 -0.8991 -0.1229
 1859SOL     OW 6117   5.815   2.903   7.213  0.4980  0.0692 -0.2014
 1859SOL    HW1 6118   5.833   2.857   7.131  0.7211 -0.6496  0.2367
 1859SOL    HW2 6119   5.746   2.851   7.254 -0.4451  1.0869 -0.4631
 1860SOL     OW 6120   0.263   4.384   2.815  0.2831 -0.6280 -0.2114
 1860SOL    HW1 6121   0.243   4.449   2.748  0.0987 -1.8354 -1.3833
 1860SOL    HW2 6122   0.358   4.387   2.825  0.2319  0.1266  0.0758
 1861SOL     OW 6123   2.302   1.344   7.088  0.3639  0.1184 -0.3342
 1861SOL    HW1 6124   2.319   1.345   6.993  0.8119  1.1036 -0.2535
 1861SOL    HW2 6125   2.225   1.401   7.099  0.5026  0.2576 -0.0742
 1862SOL     OW 6126   7.401   0.778   1.882 -0.2279 -0.0866 -0.4777
 1862SOL    HW1 6127   7.350   0.698   1.890  1.1156 -0.9849 -0.6508
 1862SOL    HW2 6128   7.452   0.783   1.964 -0.8848  1.0278 -0.1092
 1863SOL     OW 6129   0.543   4.282   6.112  0.1984  0.3778  0.4632
 1863SOL    HW1 6130   0.615   4.345   6.122 -0.1941  0.8235  0.4783
 1863SOL    HW2 6131   0.504   4.276   6.199  1.7212 -1.7163  1.0946
 1864SOL     OW 6132   5.558   1.432   6.143 -0.3169  0.5013 -0.0191
 1864SOL    HW1 6133   5.518   1.350   6.173  1.0045 -0.2992 -0.3278
 1864SOL    HW2 6134   5.545   1.432   6.048  2.7572 -1.2033 -0.5566
 1865SOL     OW 6135   6.838   6.616   0.498  0.5200 -0.3753  0.1983
 1865SOL    HW1 6136   6.839   6.544   0.562  0.7529 -1.2710 -0.7763
 1865SOL    HW2 6137   6.759   6.666   0.519  1.2380  0.1144  1.9742
 1866SOL     OW 6138   0.696   6.205   0.726 -0.2190  0.1194 -0.9012
 1866SOL    HW1 6139   0.721   6.295   0.706 -2.2276  1.1979  0.9496
 1866SOL    HW2 6140   0.603   6.211   0.750 -0.1947 -2.3058  0.1013
 1867SOL     OW 6141   3.346   4.349   4.520  0.3852  0.2028  0.5045
 1867SOL    HW1 6142   3.251   4.359   4.524  0.2945 -0.9553  2.2105
 1867SOL    HW2 6143   3.370   4.381   4.433 -1.6699 -0.3955 -0.3320
 1868SOL     OW 6144   2.474   2.975   6.405  0.2380  0.0115 -0.7855
 1868SOL    HW1 6145   2.490   3.040   6.336 -1.2096 -0.7959 -1.9339
 1868SOL    HW2 6146   2.383   2.988   6.430  0.6033 -0.0386  0.6761
 1869SOL     OW 6147   4.796   1.828   3.162 -0.5040 -0.2274 -0.0444
 1869SOL    HW1 6148   4.881   1.834   3.119  0.1495  0.5430  1.3156
 1869SOL    HW2 6149   4.764   1.918   3.167 -0.8563 -0.3772  0.5220
 1870SOL     OW 6150   6.920   0.492   2.228 -0.0370  0.1144 -0.8473
 1870SOL    HW1 6151   6.852   0.443   2.275 -0.2498 -1.5770 -2.7747
 1870SOL    HW2 6152   7.001   0.471   2.275 -0.5770  0.8314  0.4741
 1871SOL     OW 6153   4.951   3.933   4.112  0.0513  0.2010  0.1767
 1871SOL    HW1 6154   4.972   4.004   4.051  1.2285 -0.7958 -0.6189
 1871SOL    HW2 6155   4.987   3.962   4.195 -3.6395  2.6926  1.1554
 1872SOL     OW 6156   4.946   6.802   7.003 -0.3968  0.2554 -0.4399
 1872SOL    HW1 6157   4.956   6.716   6.961 -0.6780 -0.1469  0.3064
 1872SOL    HW2 6158   4.861   6.833   6.972 -0.3886  0.1728 -0.5478
 1873SOL     OW 6159   1.271   0.843   7.417 -0.2600  0.5777 -0.1008
 1873SOL    HW1 6160   1.283   0.760   7.371 -0.0855 -0.1379  1.1771
 1873SOL    HW2 6161   1.342   0.899   7.386 -0.7156  0.4529 -1.4003
 1874SOL     OW 6162   2.075   3.397   6.456 -0.1105 -0.1902  0.3713
 1874SOL    HW1 6163   2.164   3.361   6.455 -1.3914 -3.7012 -1.7868
 1874SOL    HW2 6164   2.051   3.396   6.549  1.8598  0.3627  0.9525
 1875SOL     OW 6165   5.375   3.324   1.351 -0.0088  0.4990  0.0233
 1875SOL    HW1 6166   5.422   3.351   1.272  2.3183  0.8513  1.4533
 1875SOL    HW2 6167   5.313   3.395   1.368  0.6074  1.2002 -0.5854
 1876SOL     OW 6168   0.627   1.433   2.815  0.2738 -0.5707 -0.1061
 1876SOL    HW1 6169   0.606   1.514   2.860 -0.5971 -0.7991 -0.0848
 1876SOL    HW2 6170   0.649   1.460   2.726  0.3334 -0.2784 -0.0026
 1877SOL     OW 6171   5.141   1.354   2.070 -0.4499  0.2235  0.2960
 1877SOL    HW1 6172   5.236   1.339   2.065 -0.6506 -1.6933  1.5731
 1877SOL    HW2 6173   5.133   1.436   2.120  0.5305  0.3829  0.2161
 1878SOL     OW 6174   3.132   1.829   1.327 -0.2140  0.5848  0.1756
 1878SOL    HW1 6175   3.220   1.851   1.358  0.9158  0.1415 -2.4416
 1878SOL    HW2 6176   3.136   1.735   1.310 -1.0882  0.6227 -0.2500
 1879SOL     OW 6177   0.325   1.408   3.045 -0.2530 -0.3650 -0.3696
 1879SOL    HW1 6178   0.344   1.486   2.992  0.6090 -0.9605 -0.9788
 1879SOL    HW2 6179   0.397   1.403   3.107 -1.6799  0.7814  1.4549
 1880SOL     OW 6180   1.408   3.530   3.435  0.3872  0.3356 -0.0459
 1880SOL    HW1 6181   1.374   3.515   3.347  3.0770 -3.1274 -0.7313
 1880SOL    HW2 6182   1.400   3.446   3.479  1.8111  1.1607  1.9795
 1881SOL     OW 6183   5.663   1.489   1.022 -0.7766 -0.3675 -0.1569
 1881SOL    HW1 6184   5.637   1.577   0.994  0.1561  0.3946  1.2417
 1881SOL    HW2 6185   5.720   1.504   1.098  2.7395 -1.9366 -2.2480
 1882SOL     OW 6186   1.273   1.303   0.835  0.1980  0.3416  0.3287
 1882SOL    HW1 6187   1.255   1.210   0.818 -1.9305  0.5172  1.2854
 1882SOL    HW2 6188   1.205   1.350   0.786  0.2703  1.3094  1.1247
 1883SOL     OW 6189   2.314   0.632   4.353 -0.2793 -0.0258  0.2701
 1883SOL    HW1 6190   2.385   0.693   4.333 -0.2913 -0.2199 -0.3724
 1883SOL    HW2 6191   2.250   0.647   4.284  0.3153 -1.7047 -0.6829
 1884SOL     OW 6192   2.152   7.103   2.362  0.2686  0.2801  0.2433
 1884SOL    HW1 6193   2.140   7.072   2.452 -1.2566  0.3019  0.0834
 1884SOL    HW2 6194   2.207   7.037   2.321 -2.4602 -2.0926  0.0672
 1885SOL     OW 6195   7.252   1.944   6.461 -0.3202  0.6609 -0.0084
 1885SOL    HW1 6196   7.215   2.025   6.495 -0.1799  0.5770  0.3458
 1885SOL    HW2 6197   7.239   1.880   6.531  0.8608  0.7236  0.2898
 1886SOL     OW 6198   3.756   5.093   5.111  0.4627  0.5346  0.1202
 1886SOL    HW1 6199   3.828   5.043   5.072 -0.4071  0.3241 -1.2559
 1886SOL    HW2 6200   3.683   5.032   5.114 -0.2362  1.3356 -0.3501
 1887SOL     OW 6201   1.727   6.698   6.870 -0.0185 -0.4384  0.4287
 1887SOL    HW1 6202   1.656   6.742   6.824 -0.1168 -2.1082 -1.1269
 1887SOL    HW2 6203   1.704   6.605   6.866  2.5683 -1.1242 -0.7825
 1888SOL     OW 6204   0.437   5.400   7.166  0.0556 -0.0916 -0.1980
 1888SOL    HW1 6205   0.350   5.361   7.155  0.3322 -0.4863 -1.1530
 1888SOL    HW2 6206   0.481   5.344   7.229 -0.8162  0.8942  1.3707
 1889SOL     OW 6207   0.588   4.404   0.093 -0.9666  0.1346  0.2394
 1889SOL    HW1 6208   0.598   4.492   0.055 -0.5784 -0.1657 -0.3732
 1889SOL    HW2 6209   0.667   4.357   0.065  0.0258  0.2891  2.5458
 1890SOL     OW 6210   7.450   1.156   2.763  0.1161 -0.4619 -0.0532
 1890SOL    HW1 6211   7.430   1.190   2.851 -1.4510  0.4676 -0.7344
 1890SOL    HW2 6212   7.543   1.135   2.767 -0.1903 -1.7420  2.2525
 1891SOL     OW 6213   0.735   3.940   5.100 -0.1768  0.0416  0.2022
 1891SOL    HW1 6214   0.728   3.949   5.005 -0.6881 -0.7650  0.1558
 1891SOL    HW2 6215   0.766   3.851   5.114 -0.4380  0.0393  0.8033
 1892SOL     OW 6216   0.104   2.435   3.298 -0.3562  0.5413 -0.4654
 1892SOL    HW1 6217   0.036   2.370   3.316 -0.8829  0.8912 -1.1457
 1892SOL    HW2 6218   0.186   2.385   3.301 -0.8903 -0.6935 -3.2783
 1893SOL     OW 6219   1.368   2.048   1.433 -0.3309  0.1879  0.2120
 1893SOL    HW1 6220   1.394   2.065   1.342  0.3669 -0.1195  0.3476
 1893SOL    HW2 6221   1.275   2.028   1.428 -0.2850  0.1155 -0.4504
 1894SOL     OW 6222   4.234   5.953   4.779 -0.2238 -0.4650 -0.3335
 1894SOL    HW1 6223   4.310   5.974   4.834 -0.3230  0.5188 -0.5493
 1894SOL    HW2 6224   4.262   5.976   4.690 -0.1109 -1.9215 -0.6904
 1895SOL     OW 6225   5.593   2.407   1.103 -0.0906  0.3726  0.2498
 1895SOL    HW1 6226   5.507   2.382   1.137 -0.1349 -1.2752 -0.9468
 1895SOL    HW2 6227   5.654   2.375   1.169 -0.3455  0.7358  0.6685
 1896SOL     OW 6228   6.042   6.879   3.763  0.1766 -0.0874 -0.2456
 1896SOL    HW1 6229   6.110   6.866   3.697  0.5410  0.9482 -0.0966
 1896SOL    HW2 6230   5.974   6.931   3.719 -0.0400 -0.2397 -0.0965
 1897SOL     OW 6231   0.190   0.479   0.978  0.0529 -0.1150 -0.1253
 1897SOL    HW1 6232   0.146   0.445   0.900  1.0571 -0.2000 -0.6709
 1897SOL    HW2 6233   0.202   0.572   0.961 -0.0970 -0.0523  0.1082
 1898SOL     OW 6234   5.990   0.509   1.669  0.0713  0.7506  0.3656
 1898SOL    HW1 6235   5.972   0.601   1.686  0.8219  1.0393 -0.3037
 1898SOL    HW2 6236   6.072   0.509   1.618  0.7831 -0.3543  1.4328
 1899SOL     OW 6237   1.468   5.111   0.929 -0.0203  0.4510  0.1506
 1899SOL    HW1 6238   1.539   5.133   0.868  0.0008  1.7971  0.6365
 1899SOL    HW2 6239   1.504   5.130   1.016 -1.0160  1.3206  0.3938
 1900SOL     OW 6240   6.520   4.714   3.746  0.3951  0.2402  0.0740
 1900SOL    HW1 6241   6.613   4.717   3.725  0.7818  1.0811  1.7649
 1900SOL    HW2 6242   6.496   4.805   3.762 -0.7224  0.0245 -0.2427
 1901SOL     OW 6243   5.412   7.345   0.161 -0.4997  0.6775 -0.0831
 1901SOL    HW1 6244   5.325   7.343   0.201 -0.3581 -0.9645  0.1920
 1901SOL    HW2 6245   5.471   7.313   0.229 -0.1994 -1.7474 -1.3825
 1902SOL     OW 6246   6.604   3.101   6.460  0.7368 -0.8623 -0.3525
 1902SOL    HW1 6247   6.538   3.048   6.505 -1.2341  0.0765 -1.9677
 1902SOL    HW2 6248   6.609   3.063   6.372 -0.8786  1.6060 -1.6190
 1903SOL     OW 6249   6.418   4.706   7.112 -0.2380 -0.1710  0.0887
 1903SOL    HW1 6250   6.498   4.758   7.101 -1.1447  2.1558  3.1250
 1903SOL    HW2 6251   6.450   4.617   7.127  1.6731  0.3599 -0.4890
 1904SOL     OW 6252   0.535   6.003   6.605  0.4132 -0.5229  0.5127
 1904SOL    HW1 6253   0.502   6.083   6.566 -0.0086 -1.2879 -0.7404
 1904SOL    HW2 6254   0.567   6.030   6.691 -2.5808  0.4351  1.4338
 1905SOL     OW 6255   4.321   0.272   0.079 -0.1449 -0.4487  0.1399
 1905SOL    HW1 6256   4.327   0.323   0.160 -1.8390 -0.8925  0.5911
 1905SOL    HW2 6257   4.381   0.315   0.019 -0.3552  1.1159  0.9974
 1906SOL     OW 6258   6.187   3.611   5.241  0.0939  0.0251  0.1079
 1906SOL    HW1 6259   6.241   3.665   5.183  1.7071 -0.7745  0.7938
 1906SOL    HW2 6260   6.127   3.566   5.183  1.0551 -0.0524 -0.8585
 1907SOL     OW 6261   4.218   3.206   1.271 -0.0990  0.7087  0.5991
 1907SOL    HW1 6262   4.221   3.127   1.325 -1.5512  0.9614  1.0920
 1907SOL    HW2 6263   4.208   3.174   1.182 -0.8016  0.3227  0.8056
 1908SOL     OW 6264   1.644   1.783   2.202  0.6298 -0.4558  0.1787
 1908SOL    HW1 6265   1.656   1.769   2.295 -0.1840  0.2960  0.4168
 1908SOL    HW2 6266   1.699   1.859   2.182  1.5845 -1.2258 -0.1728
 1909SOL     OW 6267   1.497   5.276   1.507 -0.3196 -0.6328 -0.1741
 1909SOL    HW1 6268   1.488   5.276   1.603 -1.3914 -3.4985 -0.1918
 1909SOL    HW2 6269   1.577   5.226   1.491  0.0745  0.1758 -0.7926
 1910SOL     OW 6270   0.946   2.908   7.000 -0.4877  0.7408  0.5229
 1910SOL    HW1 6271   1.018   2.844   7.005  1.1724  2.2187 -2.3218
 1910SOL    HW2 6272   0.970   2.975   7.064 -0.4759  0.2112  1.0897
 1911SOL     OW 6273   2.597   6.761   5.290  0.5921 -0.5676  0.6295
 1911SOL    HW1 6274   2.622   6.795   5.204  0.8601 -1.0577  0.5063
 1911SOL    HW2 6275   2.610   6.666   5.282  1.0447 -0.5729  1.3432
 1912SOL     OW 6276   4.090   5.405   3.589  0.2790  0.3675 -0.4259
 1912SOL    HW1 6277   4.156   5.336   3.589 -0.1063 -0.0120  0.5636
 1912SOL    HW2 6278   4.109   5.457   3.666  0.3228  1.1452 -0.9512
 1913SOL     OW 6279   2.745   3.449   1.665 -0.4807  0.7690  0.2195
 1913SOL    HW1 6280   2.666   3.446   1.718 -0.0529 -0.9519  0.8106
 1913SOL    HW2 6281   2.787   3.532   1.690 -1.3980  1.0435  0.9040
 1914SOL     OW 6282   5.016   6.785   7.280  0.4546 -0.0107  0.1535
 1914SOL    HW1 6283   4.984   6.791   7.190 -3.1861 -2.1179  1.1283
 1914SOL    HW2 6284   5.072   6.707   7.280  1.3247  0.5929 -0.4411
 1915SOL     OW 6285   7.102   3.872   7.226 -0.0332 -0.7142 -0.1291
 1915SOL    HW1 6286   7.048   3.939   7.186  0.3860  0.0403  0.5414
 1915SOL    HW2 6287   7.050   3.792   7.219 -1.4903  0.0847  0.9667
 1916SOL     OW 6288   3.014   3.851   6.580 -0.3757  0.1567  0.2599
 1916SOL    HW1 6289   3.010   3.918   6.648 -0.3539  1.6244 -1.1266
 1916SOL    HW2 6290   3.089   3.876   6.527 -0.0988 -1.2416 -0.0459
 1917SOL     OW 6291   5.025   7.529   3.928 -0.1498 -0.8225 -0.7842
 1917SOL    HW1 6292   5.083   7.598   3.960 -0.1014 -1.0081 -0.4745
 1917SOL    HW2 6293   5.015   7.469   4.002 -0.0401 -1.2483 -1.1117
 1918SOL     OW 6294   5.103   4.292   5.109  0.4785  0.3371  0.0729
 1918SOL    HW1 6295   5.130   4.380   5.135 -1.2999  1.7271 -2.4388
 1918SOL    HW2 6296   5.186   4.247   5.090  1.4451  1.2544  1.8607
 1919SOL     OW 6297   4.355   3.994   4.173  0.3723  0.3630 -0.4933
 1919SOL    HW1 6298   4.424   3.973   4.111 -0.1519 -1.5094 -0.4913
 1919SOL    HW2 6299   4.274   3.981   4.124 -0.0524 -1.1530  0.5526
 1920SOL     OW 6300   0.669   4.318   7.123  0.7770  0.3742 -0.5751
 1920SOL    HW1 6301   0.721   4.398   7.111  1.8041 -0.0740  0.7321
 1920SOL    HW2 6302   0.714   4.253   7.070 -1.2226  1.0459 -3.3606
 1921SOL     OW 6303   0.162   6.236   3.025 -0.0618  0.1489  0.3239
 1921SOL    HW1 6304   0.238   6.177   3.031 -2.9816 -4.0137  1.5206
 1921SOL    HW2 6305   0.166   6.271   2.936  1.4789 -2.7481 -0.9115
 1922SOL     OW 6306   3.654   4.844   4.420 -0.0634 -0.9299 -0.5429
 1922SOL    HW1 6307   3.609   4.854   4.504 -1.0149  0.6387 -1.2005
 1922SOL    HW2 6308   3.620   4.762   4.383 -0.5731 -0.9790  0.0335
 1923SOL     OW 6309   4.391   3.234   4.782 -0.2888 -0.0112  0.0701
 1923SOL    HW1 6310   4.448   3.164   4.813 -1.0437 -0.4411  0.5152
 1923SOL    HW2 6311   4.416   3.310   4.835  1.8826  0.6567 -1.7109
 1924SOL     OW 6312   5.360   3.725   2.580  0.5589 -0.0123 -0.4552
 1924SOL    HW1 6313   5.314   3.805   2.604  0.1277 -0.4234  0.1371
 1924SOL    HW2 6314   5.310   3.655   2.623  1.1633 -0.5590 -0.6204
 1925SOL     OW 6315   7.585   2.122   7.329 -0.1269  0.1343 -0.5900
 1925SOL    HW1 6316   7.511   2.063   7.344  0.0076  0.2649  0.7285
 1925SOL    HW2 6317   7.661   2.065   7.326 -0.2516  0.0034 -1.9149
 1926SOL     OW 6318   6.403   4.836   4.654  0.6998  0.2784  0.5117
 1926SOL    HW1 6319   6.384   4.750   4.616  1.7802 -0.1557  0.8939
 1926SOL    HW2 6320   6.487   4.861   4.614  1.3990  0.2250  1.8809
 1927SOL     OW 6321   5.866   3.616   4.336 -0.4425  0.0340 -0.5524
 1927SOL    HW1 6322   5.774   3.630   4.316 -0.7692 -1.9958 -0.6304
 1927SOL    HW2 6323   5.913   3.662   4.266 -1.3682  0.8154 -0.6880
 1928SOL     OW 6324   4.728   0.883   1.184  0.3601 -0.2248  0.3744
 1928SOL    HW1 6325   4.762   0.869   1.272 -0.8451  1.9755  1.2965
 1928SOL    HW2 6326   4.787   0.947   1.145 -0.5702  0.7920  0.5974
 1929SOL     OW 6327   5.587   4.946   1.721 -0.4148 -0.1684 -0.5507
 1929SOL    HW1 6328   5.645   4.966   1.647  2.5265  0.5833  1.7278
 1929SOL    HW2 6329   5.596   4.851   1.734  0.3146 -0.0699 -0.2652
 1930SOL     OW 6330   7.386   5.011   7.393 -0.1668  0.2375 -0.1635
 1930SOL    HW1 6331   7.419   4.968   7.472 -0.6165  2.0126  1.0622
 1930SOL    HW2 6332   7.366   4.940   7.333 -0.6774 -1.2394  1.6741
 1931SOL     OW 6333   3.866   3.529   2.245  0.1649 -0.0252 -0.1134
 1931SOL    HW1 6334   3.771   3.524   2.252  0.2239  0.5013  1.5030
 1931SOL    HW2 6335   3.887   3.620   2.270  1.1461 -0.4308  0.6169
 1932SOL     OW 6336   0.981   5.845   1.395  0.3434  0.2420 -0.0097
 1932SOL    HW1 6337   0.905   5.848   1.336 -0.2123  0.8782  0.7222
 1932SOL    HW2 6338   1.045   5.791   1.348 -0.3366  0.1765 -0.8977
 1933SOL     OW 6339   3.132   1.838   4.399  0.5034 -0.2188  0.0440
 1933SOL    HW1 6340   3.166   1.838   4.489 -0.6854 -0.8935  0.5294
 1933SOL    HW2 6341   3.038   1.821   4.410  0.2798  0.0589 -1.3124
 1934SOL     OW 6342   0.806   1.521   7.558 -0.1871  0.1834  0.7479
 1934SOL    HW1 6343   0.854   1.583   7.502 -2.2434  0.2796 -1.0387
 1934SOL    HW2 6344   0.829   1.435   7.523 -1.1352  0.2224 -0.0107
 1935SOL     OW 6345   2.741   7.094   1.335 -0.0200  0.0749  0.0146
 1935SOL    HW1 6346   2.653   7.123   1.359 -0.8011 -1.6950 -0.5720
 1935SOL    HW2 6347   2.742   7.095   1.240  0.4592 -0.2664  0.0119
 1936SOL     OW 6348   5.295   4.744   0.146 -0.3681  0.3424 -0.3832
 1936SOL    HW1 6349   5.257   4.769   0.061 -3.2595  0.3766  0.8127
 1936SOL    HW2 6350   5.375   4.795   0.152 -0.3245  0.7114 -2.8752
 1937SOL     OW 6351   2.234   4.309   4.988 -0.3113  0.3501 -0.0353
 1937SOL    HW1 6352   2.325   4.285   5.005 -1.1556 -2.7976  0.7014
 1937SOL    HW2 6353   2.192   4.306   5.074 -1.0594  2.3093 -0.2860
 1938SOL     OW 6354   0.764   7.255   4.411 -0.1261 -0.0572 -0.0146
 1938SOL    HW1 6355   0.832   7.199   4.449 -0.8759 -1.2405 -0.3612
 1938SOL    HW2 6356   0.740   7.314   4.482 -0.3280 -1.1254  0.8345
 1939SOL     OW 6357   6.458   7.198   5.814  0.3473 -1.1509 -0.3386
 1939SOL    HW1 6358   6.447   7.186   5.909  0.6021 -1.5870 -0.3599
 1939SOL    HW2 6359   6.551   7.178   5.798  0.7795  0.7141 -0.4138
 1940SOL     OW 6360   2.954   5.770   4.412  0.4166  0.1505 -0.6286
 1940SOL    HW1 6361   2.998   5.712   4.350  2.4570 -0.3415  1.1641
 1940SOL    HW2 6362   2.873   5.724   4.435 -0.3966  0.3615 -2.8746
 1941SOL     OW 6363   6.085   4.480   0.021  0.4194  0.2456  0.7351
 1941SOL    HW1 6364   6.067   4.558  -0.031  0.8693  0.5917  1.0881
 1941SOL    HW2 6365   6.031   4.412  -0.018 -0.9525  1.0224  1.2042
 1942SOL     OW 6366   3.975   7.576   4.468  0.3236 -0.6475 -0.0064
 1942SOL    HW1 6367   3.955   7.556   4.377 -2.1660  0.5265  0.1980
 1942SOL    HW2 6368   4.007   7.493   4.505 -1.3447 -1.9169 -1.2627
 1943SOL     OW 6369   1.167   5.948   0.998 -0.2262 -0.3491  0.0260
 1943SOL    HW1 6370   1.262   5.938   1.001  0.0494  2.0316  1.5550
 1943SOL    HW2 6371   1.134   5.872   1.047  0.6547 -2.4646 -2.4055
 1944SOL     OW 6372   2.397   4.728   4.202 -0.0608  0.3981  0.2893
 1944SOL    HW1 6373   2.488   4.708   4.226  0.2468  1.2487 -0.1270
 1944SOL    HW2 6374   2.405   4.792   4.131 -0.9860  0.7025  0.4522
 1945SOL     OW 6375   2.266   1.726   3.213  0.0813 -0.3864  0.0766
 1945SOL    HW1 6376   2.269   1.631   3.202 -2.6605 -1.0324  3.0565
 1945SOL    HW2 6377   2.179   1.751   3.181  0.7281  1.1243 -0.5878
 1946SOL     OW 6378   6.828   4.882   3.048  0.4896  0.2345 -0.3897
 1946SOL    HW1 6379   6.878   4.802   3.062  0.4041  0.2489  0.0037
 1946SOL    HW2 6380   6.792   4.903   3.134  0.7256  0.8387 -0.4338
 1947SOL     OW 6381   4.786   0.477   1.630  0.9325 -0.4044  0.1079
 1947SOL    HW1 6382   4.765   0.385   1.613  1.1987 -0.4014 -0.2313
 1947SOL    HW2 6383   4.760   0.523   1.550 -2.4031  0.3314  1.4528
 1948SOL     OW 6384   1.015   7.580   2.781  0.2963  0.0131 -0.3499
 1948SOL    HW1 6385   1.037   7.530   2.860 -1.9885 -0.1305  0.2724
 1948SOL    HW2 6386   1.023   7.516   2.710  2.1851  0.0919 -0.2703
 1949SOL     OW 6387   4.343   5.930   6.258  0.0254 -0.1782  1.0003
 1949SOL    HW1 6388   4.268   5.962   6.208  0.8608 -0.0022 -0.1881
 1949SOL    HW2 6389   4.329   5.836   6.265 -0.4412 -0.1104  1.0258
 1950SOL     OW 6390   1.568   4.810   3.254  0.4771 -0.1586  0.1753
 1950SOL    HW1 6391   1.502   4.840   3.317 -0.2300  0.0514 -0.6508
 1950SOL    HW2 6392   1.591   4.889   3.204 -1.3668 -0.8961 -1.9860
 1951SOL     OW 6393   1.833   0.603   1.692  0.1030 -0.4620 -0.1030
 1951SOL    HW1 6394   1.792   0.674   1.741 -1.2351 -2.2022  1.4097
 1951SOL    HW2 6395   1.762   0.562   1.643  0.3811 -2.1478  0.8211
 1952SOL     OW 6396   5.298   5.733   6.353 -0.1821  0.4095  0.2652
 1952SOL    HW1 6397   5.383   5.726   6.398 -0.4810  0.7868  0.9104
 1952SOL    HW2 6398   5.248   5.794   6.407 -0.6481  0.6799 -0.4575
 1953SOL     OW 6399   7.235   3.714   2.915 -0.0043 -0.0526  0.3098
 1953SOL    HW1 6400   7.218   3.728   3.008  2.3934 -0.7085  0.8972
 1953SOL    HW2 6401   7.230   3.802   2.876  1.5868  0.6342  1.5545
 1954SOL     OW 6402   5.865   7.610   1.964  0.4871 -0.2258 -0.0464
 1954SOL    HW1 6403   5.894   7.692   1.924  0.7827  0.0895  0.7746
 1954SOL    HW2 6404   5.771   7.621   1.976  0.2954 -0.5588 -1.1611
 1955SOL     OW 6405   2.877   1.094   1.567 -0.0500 -1.3187 -0.2598
 1955SOL    HW1 6406   2.848   1.062   1.482  0.8020 -0.0383 -1.0530
 1955SOL    HW2 6407   2.971   1.108   1.558  0.6540 -3.9337  1.8054
 1956SOL     OW 6408   3.272   2.047   4.029  0.5289  0.3773 -0.5062
 1956SOL    HW1 6409   3.261   2.116   4.094  2.5106  2.8985 -2.5941
 1956SOL    HW2 6410   3.183   2.019   4.008 -0.2429  0.9961  1.6839
 1957SOL     OW 6411   7.464   3.606   4.580 -0.4026 -0.3916  0.2264
 1957SOL    HW1 6412   7.557   3.596   4.560 -0.1782  0.7174  0.6697
 1957SOL    HW2 6413   7.456   3.694   4.616 -1.4016 -0.9368  1.4388
 1958SOL     OW 6414   1.168   1.667   5.230 -0.1219 -0.7402 -0.0577
 1958SOL    HW1 6415   1.116   1.614   5.290 -0.2824 -0.1750  0.3111
 1958SOL    HW2 6416   1.254   1.625   5.229 -0.2902 -1.0917  0.1169
 1959SOL     OW 6417   2.166   5.348   1.461  0.0491  0.2001 -0.0443
 1959SOL    HW1 6418   2.112   5.346   1.382 -2.1880  4.2480  1.0996
 1959SOL    HW2 6419   2.243   5.399   1.436 -0.2535  0.7492  0.1148
 1960SOL     OW 6420   1.220   5.790   1.941  0.1814 -0.5151  0.2553
 1960SOL    HW1 6421   1.218   5.794   1.845 -1.4953 -1.4106  0.2122
 1960SOL    HW2 6422   1.312   5.805   1.964  0.8688 -1.5789 -1.5684
 1961SOL     OW 6423   1.328   0.939   0.112 -0.7046  0.6036 -0.0698
 1961SOL    HW1 6424   1.418   0.946   0.144 -0.4232 -0.5054 -0.5740
 1961SOL    HW2 6425   1.327   0.987   0.030 -0.4104  0.1323 -0.3562
 1962SOL     OW 6426   0.540   3.313   1.465  0.1374 -0.1712 -0.0155
 1962SOL    HW1 6427   0.590   3.392   1.443  0.2696  0.0517  1.0235
 1962SOL    HW2 6428   0.469   3.344   1.521  0.5179 -0.8518  0.8613
 1963SOL     OW 6429   5.811   6.264   5.724  0.1279  0.2617  0.0733
 1963SOL    HW1 6430   5.896   6.309   5.727  0.5374 -0.1032 -2.8312
 1963SOL    HW2 6431   5.830   6.176   5.754  1.3622 -0.4520 -2.4950
 1964SOL     OW 6432   2.981   7.613   4.479  0.1786 -0.3327  0.5492
 1964SOL    HW1 6433   2.947   7.649   4.561 -0.0191 -0.5442  0.5620
 1964SOL    HW2 6434   2.963   7.519   4.485 -0.0401 -0.3179  0.1665
 1965SOL     OW 6435   2.462   1.361   5.735 -0.6893  0.0986  0.3975
 1965SOL    HW1 6436   2.386   1.314   5.701 -2.0101  1.2004  1.6618
 1965SOL    HW2 6437   2.466   1.335   5.827  0.4845  0.0532  0.3408
 1966SOL     OW 6438   3.145   1.017   2.140 -0.0685 -0.3293  0.3044
 1966SOL    HW1 6439   3.055   1.009   2.110  0.1650 -0.9998 -0.2439
 1966SOL    HW2 6440   3.193   1.052   2.065  0.2429 -0.5759  0.3838
 1967SOL     OW 6441   5.728   2.573   5.585 -0.0346 -0.8283  0.1272
 1967SOL    HW1 6442   5.737   2.666   5.604 -0.2542 -1.2372  2.5578
 1967SOL    HW2 6443   5.634   2.557   5.587  0.0131 -1.1546 -0.0611
 1968SOL     OW 6444   0.891   1.266   3.520 -0.3765  0.6899  0.3187
 1968SOL    HW1 6445   0.867   1.188   3.568 -0.8300  1.1249  0.8158
 1968SOL    HW2 6446   0.984   1.279   3.540 -0.4498  0.6170  0.7215
 1969SOL     OW 6447   6.853   1.857   0.423 -0.5522 -0.3227  0.1225
 1969SOL    HW1 6448   6.822   1.834   0.511  1.9663  1.1214  1.5100
 1969SOL    HW2 6449   6.910   1.933   0.437  0.3384 -0.3616 -2.7136
 1970SOL     OW 6450   0.008   2.649   4.196 -0.0948  0.1226 -0.1195
 1970SOL    HW1 6451  -0.057   2.583   4.175 -0.8647  0.6728  0.4576
 1970SOL    HW2 6452   0.016   2.645   4.291  1.5301 -0.6782 -0.2703
 1971SOL     OW 6453   0.019   3.453   7.058 -0.0797 -0.3686  0.1258
 1971SOL    HW1 6454   0.044   3.362   7.042 -0.0419 -0.5372  1.0877
 1971SOL    HW2 6455   0.065   3.478   7.138  0.8693  0.8971 -0.7735
 1972SOL     OW 6456   4.315   1.764   2.400  0.2584  0.0274  0.0995
 1972SOL    HW1 6457   4.314   1.794   2.491 -2.2631  2.7609 -0.6606
 1972SOL    HW2 6458   4.232   1.718   2.389 -0.2334  1.1558 -1.1706
 1973SOL     OW 6459   0.994   2.828   5.853 -0.3643  0.4554  0.0563
 1973SOL    HW1 6460   0.917   2.777   5.877 -0.9209  1.4976  0.5366
 1973SOL    HW2 6461   1.031   2.782   5.778 -0.9762 -0.5175  0.3321
 1974SOL     OW 6462   4.821   5.189   5.577  0.3344 -0.1807 -0.2164
 1974SOL    HW1 6463   4.743   5.243   5.588  0.5916 -0.2069  2.3638
 1974SOL    HW2 6464   4.893   5.244   5.607  0.6726 -1.6523  1.8968
 1975SOL     OW 6465   6.214   1.295   2.763 -0.0201 -0.3935 -0.6334
 1975SOL    HW1 6466   6.211   1.261   2.852  0.1864 -1.3904 -0.9933
 1975SOL    HW2 6467   6.257   1.379   2.771 -0.3334 -0.3040  0.2579
 1976SOL     OW 6468   0.802   5.721   3.502 -0.0142  0.0104  0.4093
 1976SOL    HW1 6469   0.771   5.787   3.440 -0.3544  2.3560  2.9144
 1976SOL    HW2 6470   0.731   5.713   3.566  1.1196 -0.8373  1.6048
 1977SOL     OW 6471   2.326   3.352   3.557 -0.2330  0.4285 -0.1615
 1977SOL    HW1 6472   2.391   3.414   3.591 -0.3381  0.7596 -0.5590
 1977SOL    HW2 6473   2.256   3.407   3.522 -1.1910  0.0877  1.0966
 1978SOL     OW 6474   4.050   0.194   0.048 -0.1702  0.4498 -0.1527
 1978SOL    HW1 6475   4.052   0.103   0.017 -1.5195  0.7753 -1.3041
 1978SOL    HW2 6476   4.133   0.205   0.094  1.0229 -0.7267 -1.8753
 1979SOL     OW 6477   2.121   3.672   3.568  0.0797 -0.3083 -0.2534
 1979SOL    HW1 6478   2.028   3.657   3.584 -0.0601  1.4350  0.7958
 1979SOL    HW2 6479   2.129   3.766   3.554  1.9252 -0.0463  1.8389
 1980SOL     OW 6480   2.846   6.508   7.557 -0.2441 -0.4368  0.0146
 1980SOL    HW1 6481   2.750   6.509   7.564 -0.2392 -1.5626  0.5880
 1980SOL    HW2 6482   2.863   6.515   7.463 -0.9441 -1.2087 -0.1891
 1981SOL     OW 6483   5.668   5.325   1.784 -0.1271  0.6080  0.0505
 1981SOL    HW1 6484   5.694   5.280   1.704  1.0524 -2.3078  1.9077
 1981SOL    HW2 6485   5.572   5.323   1.782 -0.1254 -1.7262 -0.1516
 1982SOL     OW 6486   4.236   4.527   0.415  0.4270 -0.4973  0.1176
 1982SOL    HW1 6487   4.331   4.527   0.398  0.0221 -0.1303 -2.4978
 1982SOL    HW2 6488   4.205   4.608   0.375 -0.7845  0.5179  2.8289
 1983SOL     OW 6489   5.031   3.223   6.143 -0.3089 -0.1068 -0.0095
 1983SOL    HW1 6490   4.974   3.253   6.072  0.8684  2.0099 -0.1744
 1983SOL    HW2 6491   5.109   3.190   6.099 -0.1143 -0.0183  0.2641
 1984SOL     OW 6492   6.505   1.731   5.597 -0.4190 -0.1823  0.1150
 1984SOL    HW1 6493   6.460   1.773   5.670  2.6770 -0.6068  2.4838
 1984SOL    HW2 6494   6.565   1.798   5.564 -0.4230 -0.5984 -0.7846
 1985SOL     OW 6495   2.147   7.354   4.989 -0.3377  0.1652  0.4481
 1985SOL    HW1 6496   2.242   7.365   4.983 -0.1880 -0.9410  0.6505
 1985SOL    HW2 6497   2.112   7.420   4.929  0.5671  0.3987  0.1555
 1986SOL     OW 6498   1.571   1.112   5.458  0.1731 -0.1338 -0.3215
 1986SOL    HW1 6499   1.663   1.121   5.484  0.4591 -0.2665 -1.2307
 1986SOL    HW2 6500   1.570   1.034   5.402 -0.7935 -1.0927  0.9659
 1987SOL     OW 6501   3.889   5.171   7.208 -0.1140  0.1716  0.1290
 1987SOL    HW1 6502   3.852   5.207   7.288  0.8788  2.0216 -0.1910
 1987SOL    HW2 6503   3.921   5.247   7.159 -1.2227 -0.8176 -2.3329
 1988SOL     OW 6504   1.993   3.186   4.595 -0.3471  1.0089 -0.6469
 1988SOL    HW1 6505   1.992   3.272   4.553  1.1551  0.5524 -1.6832
 1988SOL    HW2 6506   2.086   3.167   4.608 -0.7113  0.1986  0.9778
 1989SOL     OW 6507   3.329   6.399   1.258  0.4116  0.2022  0.3367
 1989SOL    HW1 6508   3.336   6.471   1.195  0.5683 -0.8700 -0.9040
 1989SOL    HW2 6509   3.256   6.346   1.225  1.1478 -0.9214  0.4833
 1990SOL     OW 6510   0.647   2.067   5.573 -0.0002 -0.3519 -0.3107
 1990SOL    HW1 6511   0.600   2.148   5.593  1.4037  0.0438  1.6845
 1990SOL    HW2 6512   0.596   1.999   5.617  1.3579  0.1232  2.1737
 1991SOL     OW 6513   5.948   7.469   4.149  0.2930  0.2321  0.5160
 1991SOL    HW1 6514   5.939   7.455   4.054 -2.3010 -0.4268  0.8044
 1991SOL    HW2 6515   6.041   7.455   4.166  0.4958 -1.5516 -1.6356
 1992SOL     OW 6516   3.420   5.480   6.955 -0.5385  0.0278 -0.1681
 1992SOL    HW1 6517   3.483   5.432   7.008  0.2694  0.2554 -0.9007
 1992SOL    HW2 6518   3.399   5.421   6.883 -0.6812  0.1964 -0.2667
 1993SOL     OW 6519   6.229   6.183   3.952 -0.1405 -0.1229 -0.2945
 1993SOL    HW1 6520   6.249   6.095   3.920 -2.1729 -0.9965  0.6582
 1993SOL    HW2 6521   6.153   6.210   3.901 -0.3606  0.5148  0.3580
 1994SOL     OW 6522   0.623   3.162   2.678 -0.3871 -0.7032 -0.4220
 1994SOL    HW1 6523   0.642   3.107   2.602 -4.6546 -0.4642 -1.9326
 1994SOL    HW2 6524   0.648   3.251   2.650  0.9574 -1.0033 -0.2564
 1995SOL     OW 6525   1.096   1.521   4.073  0.0799  0.7650  0.5821
 1995SOL    HW1 6526   1.015   1.540   4.026 -0.9678 -1.0889  1.5054
 1995SOL    HW2 6527   1.069   1.510   4.164  1.1150 -1.1933  0.7055
 1996SOL     OW 6528   6.411   1.438   3.260  0.0344  0.1130  0.4494
 1996SOL    HW1 6529   6.375   1.525   3.242  1.2542  0.1393 -2.3128
 1996SOL    HW2 6530   6.487   1.454   3.315  0.4664  0.8534 -0.3512
 1997SOL     OW 6531   6.805   7.104   1.717  0.3794 -0.3749  0.4218
 1997SOL    HW1 6532   6.885   7.099   1.770  1.0097 -1.3003 -0.5670
 1997SOL    HW2 6533   6.750   7.034   1.750  0.3915 -0.3706  0.4513
 1998SOL     OW 6534   6.849   5.674   1.971  0.2356  0.2438  0.4355
 1998SOL    HW1 6535   6.827   5.765   1.990  1.8233  0.8510 -0.4631
 1998SOL    HW2 6536   6.940   5.676   1.944  0.1801 -1.5641 -0.0473
 1999SOL     OW 6537   1.247   4.269   5.533 -0.0965 -0.1760  0.6968
 1999SOL    HW1 6538   1.276   4.357   5.510  0.4697 -0.7720 -1.0478
 1999SOL    HW2 6539   1.326   4.227   5.568  0.4772 -0.8792 -1.2931
 2000SOL     OW 6540   3.518   6.787   7.064  0.2540 -0.0874 -0.1167
 2000SOL    HW1 6541   3.597   6.821   7.106 -0.3510  0.8815  0.2635
 2000SOL    HW2 6542   3.533   6.797   6.970  0.0554  1.3483 -0.0151
 2001SOL     OW 6543   2.521   5.936   5.476 -1.2541  0.2875  0.3369
 2001SOL    HW1 6544   2.429   5.910   5.476 -1.3141  0.3924 -1.1771
 2001SOL    HW2 6545   2.524   6.010   5.415 -0.1009  0.0476  0.0991
 2002SOL     OW 6546   3.197   1.182   2.349 -0.7677  0.3350  0.2670
 2002SOL    HW1 6547   3.126   1.161   2.409 -0.0958 -2.4231  0.2234
 2002SOL    HW2 6548   3.196   1.111   2.285  0.5093  1.5424 -1.1896
 2003SOL     OW 6549   7.388   5.346   5.548 -0.5234  0.1378  0.1842
 2003SOL    HW1 6550   7.358   5.369   5.460  0.3766  0.0402 -0.1573
 2003SOL    HW2 6551   7.447   5.272   5.534 -2.0972 -1.3780  1.0925
 2004SOL     OW 6552   6.644   4.614   0.389  0.0047 -0.6376 -0.2871
 2004SOL    HW1 6553   6.566   4.577   0.431  0.7358 -0.4890  1.2774
 2004SOL    HW2 6554   6.688   4.539   0.349  0.1887 -1.0860  0.7273
 2005SOL     OW 6555   4.052   6.605   6.871  0.2513 -0.4491  0.5410
 2005SOL    HW1 6556   4.146   6.599   6.886  0.1840 -0.1013  1.1379
 2005SOL    HW2 6557   4.020   6.661   6.942 -0.4977 -1.0762  0.7066
 2006SOL     OW 6558   6.977   3.263   1.937  0.0928 -0.3098 -0.2793
 2006SOL    HW1 6559   7.008   3.332   1.995  1.0777 -1.8067  1.0679
 2006SOL    HW2 6560   7.017   3.283   1.852  1.6343 -0.0227  0.4656
 2007SOL     OW 6561   1.593   0.439   1.243  0.4068 -0.0859  0.0706
 2007SOL    HW1 6562   1.529   0.370   1.259 -0.0421  0.6660  1.6720
 2007SOL    HW2 6563   1.659   0.398   1.186 -0.7923 -1.2595 -0.5234
 2008SOL     OW 6564   5.049   3.246   5.712 -0.3059 -0.4664  0.6024
 2008SOL    HW1 6565   4.970   3.300   5.710  0.9690  1.5992  1.9961
 2008SOL    HW2 6566   5.074   3.237   5.620 -1.6896 -0.4619  0.1999
 2009SOL     OW 6567   3.565   1.201   1.865 -0.0982 -0.4498 -0.6541
 2009SOL    HW1 6568   3.602   1.155   1.790  0.2473  0.9202 -1.3477
 2009SOL    HW2 6569   3.634   1.262   1.892 -0.7214  0.0048 -0.0664
 2010SOL     OW 6570   3.051   1.548   3.695  0.2358  0.4612  0.7047
 2010SOL    HW1 6571   2.960   1.574   3.685  0.0699 -0.2182  0.3681
 2010SOL    HW2 6572   3.053   1.497   3.776  0.3832  0.7574  0.8890
 2011SOL     OW 6573   5.102   3.978   3.071 -0.4240 -0.2996  0.3289
 2011SOL    HW1 6574   5.071   3.997   2.982 -0.1812 -0.4426  0.2131
 2011SOL    HW2 6575   5.082   4.058   3.120 -0.2748 -0.0971  0.0689
 2012SOL     OW 6576   7.543   6.411   4.954 -0.1989  0.2642  0.4563
 2012SOL    HW1 6577   7.449   6.400   4.947 -0.2354  1.1163 -0.6370
 2012SOL    HW2 6578   7.558   6.505   4.943  0.9097 -0.0872 -1.4792
 2013SOL     OW 6579   6.130   2.526   0.598 -0.3825 -0.3151  0.0259
 2013SOL    HW1 6580   6.143   2.501   0.689 -1.4185  0.3700  0.3794
 2013SOL    HW2 6581   6.062   2.466   0.567 -0.0491 -0.5303 -0.2971
 2014SOL     OW 6582   2.036   2.612   7.452 -0.1906 -0.0729  0.2042
 2014SOL    HW1 6583   2.130   2.633   7.455 -0.0303 -0.8296  0.6636
 2014SOL    HW2 6584   2.012   2.599   7.543 -0.8607  0.5808  0.1283
 2015SOL     OW 6585   2.875   4.032   5.550  0.2782  0.2658  0.2322
 2015SOL    HW1 6586   2.869   4.065   5.639  0.1084  0.4241  0.1605
 2015SOL    HW2 6587   2.795   4.062   5.507  0.4838  0.4186 -0.0480
 2016SOL     OW 6588   7.030   4.719   0.296 -0.2957 -0.3591 -0.0319
 2016SOL    HW1 6589   6.987   4.788   0.246 -0.8602 -0.4827  0.2722
 2016SOL    HW2 6590   7.079   4.669   0.231  1.2890  1.1550 -0.0683
 2017SOL     OW 6591   6.595   1.713   3.486 -0.1102  0.2607  0.0153
 2017SOL    HW1 6592   6.676   1.764   3.485 -0.7735  1.3753 -1.8798
 2017SOL    HW2 6593   6.619   1.629   3.446  0.0541  0.6999 -0.8264
 2018SOL     OW 6594   5.448   0.034   6.398  0.6633 -0.2122 -0.6057
 2018SOL    HW1 6595   5.439   0.084   6.479 -1.6927 -0.7731 -0.4479
 2018SOL    HW2 6596   5.384   0.072   6.339 -0.2389 -2.1132 -0.9338
 2019SOL     OW 6597   7.376   1.858   7.047 -0.6139  0.5802  0.3406
 2019SOL    HW1 6598   7.379   1.946   7.010 -0.7067  0.2853 -0.3808
 2019SOL    HW2 6599   7.458   1.817   7.018 -0.9757  0.1401 -0.0830
 2020SOL     OW 6600   0.819   3.494   3.946 -0.2784 -0.4209 -0.0786
 2020SOL    HW1 6601   0.867   3.491   3.863  0.8953  0.1466  0.5555
 2020SOL    HW2 6602   0.779   3.582   3.947  1.3174  0.3404  0.7919
 2021SOL     OW 6603   5.997   3.409   0.468  0.8096  0.0556  0.3257
 2021SOL    HW1 6604   6.064   3.469   0.501  0.8850 -0.3541  0.9530
 2021SOL    HW2 6605   5.976   3.354   0.544  0.2483 -0.2561 -0.0520
 2022SOL     OW 6606   6.873   7.574   7.091 -0.2071  0.0084  0.2530
 2022SOL    HW1 6607   6.810   7.604   7.025  0.7038  0.6717 -0.3545
 2022SOL    HW2 6608   6.899   7.487   7.061 -1.9428 -0.9373  1.3469
 2023SOL     OW 6609   2.607   1.487   2.105  0.0970  0.1821  0.4409
 2023SOL    HW1 6610   2.656   1.440   2.172  1.6021  1.8715  0.6156
 2023SOL    HW2 6611   2.629   1.443   2.023  0.8591  0.0890  0.6879
 2024SOL     OW 6612   2.687   5.064   4.487  0.4308  0.1397 -0.3032
 2024SOL    HW1 6613   2.611   5.010   4.465 -0.8140  1.9335 -0.6055
 2024SOL    HW2 6614   2.762   5.007   4.469 -0.7184 -0.7182 -2.9142
 2025SOL     OW 6615   4.048   2.269   1.068  0.2865 -0.5656  0.3736
 2025SOL    HW1 6616   4.093   2.322   1.002  0.4102 -0.2287  0.7231
 2025SOL    HW2 6617   4.111   2.201   1.092  0.7834  0.1449  1.1571
 2026SOL     OW 6618   6.474   1.356   3.666 -0.5660 -0.5980  0.2732
 2026SOL    HW1 6619   6.563   1.365   3.632 -0.9329  0.8457 -0.3494
 2026SOL    HW2 6620   6.433   1.291   3.609  0.5120 -2.4560  1.5081
 2027SOL     OW 6621   7.057   6.384   3.520 -0.0783 -0.5690  0.1224
 2027SOL    HW1 6622   7.018   6.345   3.441  0.4812 -2.0162  0.5215
 2027SOL    HW2 6623   7.131   6.434   3.488 -0.3318 -0.4826 -0.3426
 2028SOL     OW 6624   0.616   2.678   1.501  0.6595 -0.5493 -0.3984
 2028SOL    HW1 6625   0.530   2.693   1.460  0.4382  0.5695  0.4129
 2028SOL    HW2 6626   0.626   2.583   1.502 -1.6826 -0.8542  1.6703
 2029SOL     OW 6627   4.689   3.477   4.802  0.2961 -0.2610 -0.1615
 2029SOL    HW1 6628   4.732   3.560   4.823 -0.0959  0.1021 -0.7716
 2029SOL    HW2 6629   4.681   3.477   4.707  1.6580 -1.6936 -0.3280
 2030SOL     OW 6630   7.085   1.930   1.949  0.0338 -0.2566 -0.8321
 2030SOL    HW1 6631   7.067   1.841   1.918 -0.7305 -0.3666 -0.1163
 2030SOL    HW2 6632   7.073   1.925   2.044 -1.1125  0.8458 -0.8861
 2031SOL     OW 6633   2.793   5.519   5.195  0.2852 -0.3317 -0.1348
 2031SOL    HW1 6634   2.823   5.497   5.284  0.5632  2.3403  0.4952
 2031SOL    HW2 6635   2.838   5.601   5.174 -2.1401  0.7312 -1.5083
 2032SOL     OW 6636   2.408   2.950   3.821  0.5717 -0.6780 -0.3789
 2032SOL    HW1 6637   2.415   2.917   3.911  1.5962  0.3953 -0.0323
 2032SOL    HW2 6638   2.418   3.045   3.830 -2.3330 -0.2011 -1.3242
 2033SOL     OW 6639   1.937   7.618   2.746  0.7172  0.3188 -0.0881
 2033SOL    HW1 6640   2.012   7.677   2.759  0.3676  1.0555 -1.3212
 2033SOL    HW2 6641   1.940   7.560   2.823 -0.1958  3.2565  2.3734
 2034SOL     OW 6642   4.188   2.625   5.437 -0.6904  0.5148  0.1654
 2034SOL    HW1 6643   4.223   2.660   5.518  1.2519 -0.6751 -0.0825
 2034SOL    HW2 6644   4.205   2.531   5.442  1.2737  0.6138 -2.3801
 2035SOL     OW 6645   2.781   1.360   2.485 -0.0936  0.2848 -0.3230
 2035SOL    HW1 6646   2.788   1.333   2.394  1.0369  1.1725 -0.5169
 2035SOL    HW2 6647   2.840   1.435   2.493 -1.2291  1.1071  0.7993
 2036SOL     OW 6648   1.422   5.292   7.562 -0.1338 -0.1471 -0.2647
 2036SOL    HW1 6649   1.389   5.202   7.549 -0.0872 -0.1884 -0.0942
 2036SOL    HW2 6650   1.416   5.332   7.475 -0.2615 -0.2802 -0.3180
 2037SOL     OW 6651   0.328   6.978   4.937 -0.0334 -0.2795 -0.0867
 2037SOL    HW1 6652   0.275   7.011   5.009 -0.4859 -0.3882 -0.3705
 2037SOL    HW2 6653   0.277   6.906   4.900  1.6365 -2.4734  1.5604
 2038SOL     OW 6654   2.029   0.767   2.364 -0.1249 -0.0323  0.2744
 2038SOL    HW1 6655   1.954   0.770   2.423  0.4524 -1.7851  1.1770
 2038SOL    HW2 6656   2.054   0.858   2.351 -1.5447  0.4942  1.0639
 2039SOL     OW 6657   0.549   0.945   6.164 -0.1861  0.4645  0.4446
 2039SOL    HW1 6658   0.605   0.944   6.086 -0.4486  2.1177  0.1826
 2039SOL    HW2 6659   0.516   1.035   6.168 -0.0948  0.4500  2.5389
 2040SOL     OW 6660   1.965   7.141   5.012 -0.5722 -0.4077  0.1787
 2040SOL    HW1 6661   2.032   7.209   5.004 -1.0586 -0.0958 -1.7336
 2040SOL    HW2 6662   1.984   7.080   4.941 -0.4426 -2.0538  1.5640
 2041SOL     OW 6663   1.701   7.542   6.887  0.1333 -0.1507 -0.4415
 2041SOL    HW1 6664   1.770   7.499   6.937  0.3504  0.9297  0.1960
 2041SOL    HW2 6665   1.721   7.635   6.891 -1.7721  0.2785  0.4286
 2042SOL     OW 6666   0.759   1.859   5.353  0.4719  0.2378  0.2057
 2042SOL    HW1 6667   0.769   1.916   5.429 -0.9743 -0.6049  1.0836
 2042SOL    HW2 6668   0.705   1.910   5.293  1.4457  0.8269 -0.1791
 2043SOL     OW 6669   1.809   1.528   6.321  0.2151  0.1402 -0.1532
 2043SOL    HW1 6670   1.783   1.615   6.351  1.9577  0.1539  1.5493
 2043SOL    HW2 6671   1.835   1.540   6.230 -0.0757  1.2905 -0.0994
 2044SOL     OW 6672   7.319   0.442   3.545  0.4180  0.2559 -0.3840
 2044SOL    HW1 6673   7.398   0.400   3.581  1.9952  1.3594 -2.3796
 2044SOL    HW2 6674   7.352   0.509   3.485 -2.0538  1.9324 -0.0183
 2045SOL     OW 6675   4.156   6.191   4.061  0.2535  0.2530  0.2373
 2045SOL    HW1 6676   4.104   6.136   4.119  0.9988  0.9963  1.6609
 2045SOL    HW2 6677   4.181   6.267   4.115  0.0210  1.5423 -1.3851
 2046SOL     OW 6678   5.918   3.476   3.565  0.0945  0.7013 -0.4472
 2046SOL    HW1 6679   6.006   3.471   3.527 -0.4646 -0.3030 -1.6912
 2046SOL    HW2 6680   5.868   3.529   3.502 -0.5423  0.0429 -0.5134
 2047SOL     OW 6681   3.526   1.888   5.759  0.3967  0.5286 -0.0555
 2047SOL    HW1 6682   3.449   1.842   5.725 -0.1880  0.2652  1.5526
 2047SOL    HW2 6683   3.596   1.868   5.696 -0.4252 -0.6339 -0.6299
 2048SOL     OW 6684   0.697   7.392   3.901  0.1921 -0.2587 -0.1417
 2048SOL    HW1 6685   0.672   7.300   3.895  0.3547 -0.3223  0.1618
 2048SOL    HW2 6686   0.646   7.435   3.832 -0.1110 -0.5265 -0.0878
 2049SOL     OW 6687   4.070   0.429   1.664 -0.3000 -0.1410  0.1407
 2049SOL    HW1 6688   4.134   0.426   1.735 -0.0861  0.3788 -0.0263
 2049SOL    HW2 6689   4.103   0.366   1.599 -1.1175 -1.5013  1.0029
 2050SOL     OW 6690   6.952   4.122   3.271  0.0743 -0.2501  0.4515
 2050SOL    HW1 6691   6.897   4.157   3.201 -0.5454  1.0627  1.5433
 2050SOL    HW2 6692   6.894   4.116   3.347  1.2704  0.6449  1.4944
 2051SOL     OW 6693   0.600   6.077   3.496 -0.4186  0.2536  0.1166
 2051SOL    HW1 6694   0.523   6.096   3.443 -0.6606 -0.3993  0.2210
 2051SOL    HW2 6695   0.565   6.038   3.576  0.0677 -1.8100 -0.6038
 2052SOL     OW 6696   0.597   0.583   7.202  0.4002 -0.4344  0.4622
 2052SOL    HW1 6697   0.688   0.606   7.222  1.4778 -3.1720 -0.8285
 2052SOL    HW2 6698   0.564   0.542   7.282  1.0703 -1.4501  0.2355
 2053SOL     OW 6699   3.469   3.342   6.210  0.3618  0.2746 -0.2819
 2053SOL    HW1 6700   3.415   3.380   6.141 -0.6612 -1.6377 -0.5838
 2053SOL    HW2 6701   3.428   3.372   6.291  0.0080  0.4311 -0.5145
 2054SOL     OW 6702   0.257   3.753   2.817  0.0341 -0.8700  0.3175
 2054SOL    HW1 6703   0.172   3.715   2.794  0.2189 -1.4990  0.6454
 2054SOL    HW2 6704   0.318   3.680   2.810  0.2055 -0.9349  2.1376
 2055SOL     OW 6705   6.619   0.738   0.558  0.2080  0.5738  0.4216
 2055SOL    HW1 6706   6.588   0.663   0.508  1.3748 -0.7960  1.6541
 2055SOL    HW2 6707   6.614   0.812   0.497 -1.3581 -0.4013 -0.6956
 2056SOL     OW 6708   6.534   3.935   5.116  0.7833 -0.1565  0.1322
 2056SOL    HW1 6709   6.446   3.899   5.103  0.5063  0.2103  0.9377
 2056SOL    HW2 6710   6.566   3.891   5.195  0.2675  1.6534  1.3976
 2057SOL     OW 6711   7.160   5.519   4.092  0.0195 -0.2347 -0.0266
 2057SOL    HW1 6712   7.207   5.503   4.174  1.8219  0.0159 -0.9587
 2057SOL    HW2 6713   7.093   5.583   4.116  1.3625  0.8524  1.0104
 2058SOL     OW 6714   2.162   4.167   6.449 -0.7752 -0.5204 -0.2351
 2058SOL    HW1 6715   2.184   4.253   6.485 -0.4761 -0.6214 -0.1705
 2058SOL    HW2 6716   2.234   4.147   6.389 -0.4191 -1.0940  0.3765
 2059SOL     OW 6717   6.553   2.902   3.731 -0.0227  0.5874  0.1695
 2059SOL    HW1 6718   6.572   2.983   3.683  1.6935 -1.1265 -2.3404
 2059SOL    HW2 6719   6.605   2.908   3.811  1.7122  1.1811 -0.9420
 2060SOL     OW 6720   5.992   4.162   5.598 -0.3499 -0.0335  0.1111
 2060SOL    HW1 6721   6.082   4.193   5.598 -0.9615  1.8630 -0.4104
 2060SOL    HW2 6722   5.939   4.241   5.606 -1.9989 -0.9946 -0.7321
 2061SOL     OW 6723   2.916   4.913   0.435  0.4706  0.2363  0.2538
 2061SOL    HW1 6724   2.824   4.903   0.461  0.4639 -0.6775 -0.1050
 2061SOL    HW2 6725   2.966   4.882   0.510  0.5062  1.3601  0.7109
 2062SOL     OW 6726   1.410   0.865   0.673  0.1550  1.1621  0.3592
 2062SOL    HW1 6727   1.407   0.817   0.756  0.1587 -0.0855 -0.3399
 2062SOL    HW2 6728   1.485   0.923   0.681  2.4528 -1.5629 -0.1372
 2063SOL     OW 6729   3.615   3.515   0.382 -0.2738 -0.7721 -0.4258
 2063SOL    HW1 6730   3.606   3.433   0.430  0.8035 -0.2269  0.7652
 2063SOL    HW2 6731   3.526   3.535   0.352 -1.7417  0.3375  3.8830
 2064SOL     OW 6732   3.238   4.977   2.631  0.4569 -0.3877  0.1423
 2064SOL    HW1 6733   3.192   5.055   2.601  0.7716  0.7465  2.3591
 2064SOL    HW2 6734   3.310   5.011   2.684  0.1734 -2.1754  1.7751
 2065SOL     OW 6735   0.688   5.102   7.316 -0.5528  0.1759  0.2487
 2065SOL    HW1 6736   0.617   5.106   7.251 -0.4436  0.6460  0.1505
 2065SOL    HW2 6737   0.727   5.189   7.313  0.1558 -0.1373  0.1668
 2066SOL     OW 6738   2.826   4.621   6.497 -0.3778 -0.1283  0.2124
 2066SOL    HW1 6739   2.818   4.706   6.454 -0.1126 -0.4563 -0.5132
 2066SOL    HW2 6740   2.821   4.558   6.425 -2.3810 -0.8354  0.8920
 2067SOL     OW 6741   5.721   3.976   3.030 -0.5159 -0.2881 -0.1601
 2067SOL    HW1 6742   5.791   3.958   2.967  0.1018 -0.4148  0.5506
 2067SOL    HW2 6743   5.701   4.069   3.018  0.2305 -0.0920  0.0839
 2068SOL     OW 6744   0.148   3.212   3.815 -0.2228  0.1916  0.4845
 2068SOL    HW1 6745   0.192   3.136   3.854 -0.6067  1.2280  3.1533
 2068SOL    HW2 6746   0.075   3.175   3.766  2.8103 -1.5315 -3.3207
 2069SOL     OW 6747   3.706   5.528   6.222 -0.7053 -0.2169  0.1118
 2069SOL    HW1 6748   3.769   5.508   6.152  1.8817  1.0337  1.9248
 2069SOL    HW2 6749   3.721   5.460   6.287 -2.4759 -0.8670 -0.1283
 2070SOL     OW 6750   3.862   4.339   2.810 -0.1623 -0.0083  0.2935
 2070SOL    HW1 6751   3.952   4.314   2.790 -0.3065 -0.6786  0.4315
 2070SOL    HW2 6752   3.866   4.433   2.828  0.3893  0.1055 -0.3773
 2071SOL     OW 6753   5.149   2.162   4.862 -0.6443 -0.2399 -0.1245
 2071SOL    HW1 6754   5.226   2.142   4.914 -0.7444  0.4767  0.3121
 2071SOL    HW2 6755   5.180   2.219   4.793 -1.2751  2.9864  2.0294
 2072SOL     OW 6756   1.225   4.558   4.237  0.1531 -0.5437 -0.2135
 2072SOL    HW1 6757   1.187   4.645   4.239  1.4295  0.0704 -1.1156
 2072SOL    HW2 6758   1.150   4.499   4.226 -0.8433  0.3086  1.5740
 2073SOL     OW 6759   5.780   4.347   3.333 -0.1186 -0.3334  0.1921
 2073SOL    HW1 6760   5.778   4.252   3.320  0.4941 -0.5534  1.5096
 2073SOL    HW2 6761   5.801   4.358   3.426 -0.5725  1.0960  0.1526
 2074SOL     OW 6762   1.796   4.921   2.760  0.2366  0.6725 -0.5818
 2074SOL    HW1 6763   1.870   4.965   2.803 -1.4436  1.7615  1.3270
 2074SOL    HW2 6764   1.739   4.992   2.733 -0.9974 -0.2056 -0.3386
 2075SOL     OW 6765   6.359   0.448   6.057  0.8367 -0.1245 -0.1503
 2075SOL    HW1 6766   6.343   0.359   6.089  2.9886 -0.1470  1.1156
 2075SOL    HW2 6767   6.449   0.445   6.023  0.5495  1.3063 -1.1316
 2076SOL     OW 6768   6.399   3.252   4.289  0.5937  0.1954  0.4219
 2076SOL    HW1 6769   6.330   3.318   4.285 -1.3461 -1.7860 -1.3257
 2076SOL    HW2 6770   6.463   3.280   4.224 -1.2668 -0.6495 -1.8812
 2077SOL     OW 6771   5.528   2.743   5.203  0.4711  0.3415 -0.3616
 2077SOL    HW1 6772   5.466   2.751   5.130  0.7350  0.3063 -0.5913
 2077SOL    HW2 6773   5.518   2.653   5.233  1.2277 -0.0191 -1.1427
 2078SOL     OW 6774   5.718   5.990   4.192 -0.4780  0.3017 -0.3638
 2078SOL    HW1 6775   5.770   5.914   4.218  0.0100  0.5636 -0.5617
 2078SOL    HW2 6776   5.648   5.954   4.137  0.3871  0.1008 -1.3659
 2079SOL     OW 6777   3.744   6.652   1.088 -0.5495 -0.6234 -0.6005
 2079SOL    HW1 6778   3.682   6.602   1.140 -0.3386 -0.2762 -0.0099
 2079SOL    HW2 6779   3.808   6.588   1.058 -0.2996 -0.7134  0.1219
 2080SOL     OW 6780   5.009   6.434   2.084 -0.2587  0.7262 -0.3249
 2080SOL    HW1 6781   4.932   6.422   2.139 -0.2806  0.0325 -0.5048
 2080SOL    HW2 6782   5.015   6.354   2.032  0.8545  0.5515  0.0324
 2081SOL     OW 6783   4.041   1.194   4.576 -0.1301  0.1213  0.3795
 2081SOL    HW1 6784   3.969   1.257   4.575 -1.6050 -1.4466  1.3738
 2081SOL    HW2 6785   4.120   1.247   4.573 -1.2949  1.8838 -1.9472
 2082SOL     OW 6786   4.765   2.278   0.669 -0.4797  0.5811 -0.8851
 2082SOL    HW1 6787   4.848   2.325   0.662 -1.0184  1.4577 -1.5824
 2082SOL    HW2 6788   4.712   2.312   0.597 -2.0994  1.3570  0.6033
 2083SOL     OW 6789   5.352   5.085   1.708  0.2413  0.2997 -1.3192
 2083SOL    HW1 6790   5.437   5.043   1.702  1.1390  1.8989 -0.4288
 2083SOL    HW2 6791   5.371   5.178   1.719 -1.6604  1.0304 -3.4131
 2084SOL     OW 6792   2.084   1.129   6.266  0.0904 -0.2288  0.2382
 2084SOL    HW1 6793   2.078   1.216   6.227 -2.1047  1.0104  2.9792
 2084SOL    HW2 6794   1.994   1.095   6.261  0.3106 -1.1045  1.7829
 2085SOL     OW 6795   7.137   0.047   1.776  0.3775 -0.2816 -0.2729
 2085SOL    HW1 6796   7.152   0.013   1.864  2.1566 -0.3098 -0.5536
 2085SOL    HW2 6797   7.224   0.057   1.738 -0.2728  1.1126 -1.5289
 2086SOL     OW 6798   4.475   2.116   2.555 -0.4273  0.0392 -0.3296
 2086SOL    HW1 6799   4.566   2.099   2.530  0.0339 -0.3077  1.4940
 2086SOL    HW2 6800   4.427   2.112   2.472  1.0756 -0.6722 -1.2067
 2087SOL     OW 6801   5.348   0.730   3.319 -0.0516  0.0881  0.2605
 2087SOL    HW1 6802   5.260   0.717   3.284 -0.5498  2.9466  0.1830
 2087SOL    HW2 6803   5.334   0.765   3.407  0.9143  1.7969 -0.2188
 2088SOL     OW 6804   1.898   4.372   0.569  0.0946 -0.4904  0.0660
 2088SOL    HW1 6805   1.994   4.379   0.574 -0.0559  1.0995  1.7000
 2088SOL    HW2 6806   1.877   4.387   0.477  1.2084  3.2817  0.2566
 2089SOL     OW 6807   3.492   3.790   4.668 -0.9991  0.5124  0.4322
 2089SOL    HW1 6808   3.426   3.831   4.724 -0.8082  0.9712  0.3238
 2089SOL    HW2 6809   3.513   3.857   4.603 -0.8613  0.1549  0.1074
 2090SOL     OW 6810   2.483   1.054   1.894  0.0558 -0.1591  0.0616
 2090SOL    HW1 6811   2.540   0.978   1.886  0.9720  0.6343 -1.4673
 2090SOL    HW2 6812   2.408   1.035   1.837  0.2952  0.0746 -0.3377
 2091SOL     OW 6813   2.980   1.407   1.560  0.2275  0.0119  0.1698
 2091SOL    HW1 6814   3.028   1.474   1.512 -0.2408 -0.2808 -0.7302
 2091SOL    HW2 6815   2.992   1.327   1.509 -1.6535  0.0469 -0.3836
 2092SOL     OW 6816   3.442   2.086   2.725  0.2063  0.2741 -0.2113
 2092SOL    HW1 6817   3.527   2.054   2.693 -0.7298 -2.1998 -0.4803
 2092SOL    HW2 6818   3.404   2.131   2.650  0.6089 -0.0423 -0.6116
 2093SOL     OW 6819   5.831   2.953   2.005  0.1661  0.4578  0.8450
 2093SOL    HW1 6820   5.761   2.992   2.056  0.2216  1.5664  0.1172
 2093SOL    HW2 6821   5.793   2.872   1.969 -0.0227 -0.0772  2.1968
 2094SOL     OW 6822   5.558   2.859   7.400 -0.2078 -0.2117 -0.1018
 2094SOL    HW1 6823   5.608   2.781   7.425  0.0352  0.5436  2.0067
 2094SOL    HW2 6824   5.574   2.921   7.471 -3.3058  0.4496  0.1510
 2095SOL     OW 6825   1.206   6.117   1.719  0.5429 -0.4574  0.0828
 2095SOL    HW1 6826   1.283   6.154   1.762  0.1252  0.2963  0.1960
 2095SOL    HW2 6827   1.203   6.026   1.749  3.7922 -1.8951 -3.1031
 2096SOL     OW 6828   0.095   2.357   0.062  0.7778 -0.5726 -0.3928
 2096SOL    HW1 6829   0.111   2.413   0.137  0.6648 -1.9963  0.7419
 2096SOL    HW2 6830   0.004   2.372   0.039  1.5601  2.1513 -2.2770
 2097SOL     OW 6831   6.654   3.404   3.440  0.2594 -0.3023  0.1200
 2097SOL    HW1 6832   6.676   3.471   3.505 -0.0831  1.9856 -1.9690
 2097SOL    HW2 6833   6.734   3.353   3.430  0.6036 -0.1116  1.6281
 2098SOL     OW 6834   0.826   5.469   3.984 -0.1906 -0.0136  0.3067
 2098SOL    HW1 6835   0.769   5.412   4.035  0.9990 -0.4071  1.2489
 2098SOL    HW2 6836   0.787   5.556   3.993 -0.7949 -0.3178  0.7066
 2099SOL     OW 6837   5.781   6.181   6.073 -0.0759 -0.1874  0.1663
 2099SOL    HW1 6838   5.759   6.272   6.052  1.2493 -0.0480 -0.7196
 2099SOL    HW2 6839   5.861   6.163   6.024 -0.3402 -1.8634  0.2721
 2100SOL     OW 6840   3.826   0.566   0.014 -0.4284  0.3308 -0.2122
 2100SOL    HW1 6841   3.918   0.592   0.021 -0.3951  0.0291  0.6600
 2100SOL    HW2 6842   3.781   0.644  -0.018  0.0734  0.6069 -0.2512
 2101SOL     OW 6843   4.418   2.417   0.159  0.1987 -0.3310  0.4065
 2101SOL    HW1 6844   4.405   2.468   0.079  0.4885 -1.0212 -0.0934
 2101SOL    HW2 6845   4.435   2.482   0.227  0.1769  0.2524 -0.1391
 2102SOL     OW 6846   4.227   0.327   5.567 -0.4801 -0.2421 -0.1080
 2102SOL    HW1 6847   4.283   0.403   5.553 -0.5762 -0.1144  0.1749
 2102SOL    HW2 6848   4.287   0.253   5.573 -0.4669 -0.3933 -1.7011
 2103SOL     OW 6849   7.512   7.435   6.855 -0.2961  0.6853  0.0930
 2103SOL    HW1 6850   7.493   7.360   6.798  0.5514  0.3153  0.2738
 2103SOL    HW2 6851   7.492   7.512   6.802  0.4353  0.3433 -0.6913
 2104SOL     OW 6852   3.495   2.832   7.010 -0.1042  0.0532 -0.3970
 2104SOL    HW1 6853   3.550   2.795   6.940  0.1599  0.2102 -0.2748
 2104SOL    HW2 6854   3.406   2.810   6.984  0.1050 -1.8892  0.3608
 2105SOL     OW 6855   6.768   4.316   5.116 -0.4201  0.3363  0.6311
 2105SOL    HW1 6856   6.842   4.258   5.097 -1.2604 -0.6170  0.2113
 2105SOL    HW2 6857   6.790   4.398   5.071 -1.9991 -1.5605 -4.2685
 2106SOL     OW 6858   4.458   7.070   6.175  0.3933 -0.3527  0.6058
 2106SOL    HW1 6859   4.498   7.136   6.118 -2.1185  0.8092  0.0236
 2106SOL    HW2 6860   4.435   6.999   6.115  1.8619 -1.2064  1.0074
 2107SOL     OW 6861   0.930   4.375   2.015 -0.5927 -0.2813  0.4538
 2107SOL    HW1 6862   0.955   4.314   2.085 -0.0325 -0.5693  0.0103
 2107SOL    HW2 6863   0.963   4.334   1.935 -0.2913  0.5596  0.1415
 2108SOL     OW 6864   6.299   1.216   3.419 -0.4840 -0.3118 -0.3206
 2108SOL    HW1 6865   6.264   1.299   3.388 -1.1248 -1.1083 -1.7871
 2108SOL    HW2 6866   6.382   1.206   3.373  0.4391  0.2782  1.1242
 2109SOL     OW 6867   4.536   2.565   7.534  0.1338 -0.2934  0.8558
 2109SOL    HW1 6868   4.618   2.596   7.572  0.5513 -0.0069 -0.2247
 2109SOL    HW2 6869   4.475   2.638   7.546  0.3557 -0.0779  0.6873
 2110SOL     OW 6870   3.587   7.272   2.980  0.2521 -0.0251 -0.1068
 2110SOL    HW1 6871   3.527   7.326   2.929  0.0528 -0.6910 -0.5963
 2110SOL    HW2 6872   3.650   7.334   3.017 -1.4489  0.8704  1.5027
 2111SOL     OW 6873   6.811   1.983   1.830  0.0028 -0.1050  0.6540
 2111SOL    HW1 6874   6.883   2.046   1.827  0.8547 -1.0537  0.6835
 2111SOL    HW2 6875   6.737   2.029   1.790  0.6637  0.8258  0.4643
 2112SOL     OW 6876   5.241   0.535   5.835 -0.1875 -0.1495  0.1284
 2112SOL    HW1 6877   5.167   0.577   5.792  0.7868  2.5332  0.8865
 2112SOL    HW2 6878   5.257   0.456   5.783 -1.7817  0.6751 -1.7443
 2113SOL     OW 6879   5.071   6.794   3.684 -0.0784 -0.6119 -0.2434
 2113SOL    HW1 6880   5.113   6.879   3.688  0.0258 -0.6905  0.5189
 2113SOL    HW2 6881   5.139   6.732   3.709 -0.4108 -0.8261  0.1432
 2114SOL     OW 6882   1.691   4.259   4.002  0.3576 -0.3603  0.4804
 2114SOL    HW1 6883   1.604   4.225   4.023  0.4439 -0.1807  1.1428
 2114SOL    HW2 6884   1.714   4.216   3.920 -1.2000  1.0717 -0.7955
 2115SOL     OW 6885   6.979   6.227   5.368  0.1858  0.0094 -0.0583
 2115SOL    HW1 6886   6.956   6.137   5.345  1.4366 -0.8843  1.8845
 2115SOL    HW2 6887   7.060   6.219   5.418 -0.8005  1.9920  2.0689
 2116SOL     OW 6888   3.787   4.619   5.099  0.1123 -1.0575  0.1180
 2116SOL    HW1 6889   3.804   4.554   5.030 -0.0097 -1.2960  0.3117
 2116SOL    HW2 6890   3.872   4.660   5.114 -0.0316 -0.4045 -0.7778
 2117SOL     OW 6891   1.244   1.649   4.962  0.0509  0.5787 -0.5140
 2117SOL    HW1 6892   1.188   1.652   5.040  2.7565 -0.4449  1.6276
 2117SOL    HW2 6893   1.231   1.561   4.927 -0.5637  0.7612 -0.7564
 2118SOL     OW 6894   0.973   0.257   6.322 -0.5473  0.1749  0.5391
 2118SOL    HW1 6895   1.017   0.342   6.329 -2.6059  1.4355 -0.8677
 2118SOL    HW2 6896   0.919   0.264   6.243 -0.2772 -2.7240 -0.0195
 2119SOL     OW 6897   5.314   2.869   3.731 -0.9516 -0.0926  0.2218
 2119SOL    HW1 6898   5.267   2.952   3.721 -1.6152 -0.2894  1.4926
 2119SOL    HW2 6899   5.354   2.854   3.645 -1.0134  1.4107 -0.1067
 2120SOL     OW 6900   5.249   3.265   5.929  0.3239 -0.2092 -0.1575
 2120SOL    HW1 6901   5.203   3.258   5.846  0.0052 -2.0929  0.1318
 2120SOL    HW2 6902   5.304   3.187   5.933  2.0232  0.9412  0.4390
 2121SOL     OW 6903   3.226   1.175   6.924  0.2822 -0.1157 -0.0407
 2121SOL    HW1 6904   3.133   1.170   6.948  0.1656  0.2331 -0.4039
 2121SOL    HW2 6905   3.230   1.247   6.861  0.6142 -0.8942 -0.9260
 2122SOL     OW 6906   1.107   3.590   3.317  0.0145  0.1789 -0.2211
 2122SOL    HW1 6907   1.052   3.599   3.240  0.4551 -1.1896 -0.7168
 2122SOL    HW2 6908   1.086   3.667   3.370 -2.2530 -0.2148 -0.4477
 2123SOL     OW 6909   3.744   0.376   1.433 -0.1001 -0.1208 -0.0400
 2123SOL    HW1 6910   3.805   0.393   1.361  0.7799 -2.3570  0.1168
 2123SOL    HW2 6911   3.740   0.281   1.439 -0.9818  0.0118  2.2022
 2124SOL     OW 6912   5.263   0.349   2.232  0.1164  0.6138 -0.0572
 2124SOL    HW1 6913   5.239   0.410   2.162 -0.9086  2.8503  2.0957
 2124SOL    HW2 6914   5.313   0.403   2.294  1.6444 -1.4666  0.6456
 2125SOL     OW 6915   4.367   3.634   0.375 -0.4786  0.0237 -0.2948
 2125SOL    HW1 6916   4.431   3.646   0.446 -1.1264 -2.6219  0.8552
 2125SOL    HW2 6917   4.283   3.630   0.420 -0.8799 -1.9444 -1.1495
 2126SOL     OW 6918   5.714   2.310   3.620  0.0285  0.6738  0.3795
 2126SOL    HW1 6919   5.781   2.274   3.678  0.3625 -0.2673 -0.5617
 2126SOL    HW2 6920   5.653   2.237   3.606 -2.1768  1.9377  2.5286
 2127SOL     OW 6921   0.632   6.065   7.164  0.2277 -0.3644 -0.0224
 2127SOL    HW1 6922   0.667   5.988   7.120  1.3632 -0.9104  1.7143
 2127SOL    HW2 6923   0.650   6.137   7.104  0.9176 -1.1790 -0.8261
 2128SOL     OW 6924   3.860   7.505   4.174  0.5431  0.6056 -0.4556
 2128SOL    HW1 6925   3.923   7.562   4.130 -0.6529  1.6294 -0.8708
 2128SOL    HW2 6926   3.854   7.428   4.116  1.7280  0.2726 -0.1768
 2129SOL     OW 6927   2.148   0.849   3.598  0.5299 -0.0967  0.3058
 2129SOL    HW1 6928   2.218   0.882   3.540  1.2348 -0.7064  0.7873
 2129SOL    HW2 6929   2.130   0.922   3.657 -1.1620  1.0401 -1.4785
 2130SOL     OW 6930   6.045   0.703   5.341 -0.6445  0.1225  0.3201
 2130SOL    HW1 6931   6.067   0.785   5.384 -0.8117 -0.3848  1.4044
 2130SOL    HW2 6932   6.061   0.636   5.407  3.3128 -1.1960 -1.6838
 2131SOL     OW 6933   3.694   6.291   3.479  0.4546 -0.5526  0.0951
 2131SOL    HW1 6934   3.739   6.274   3.397  0.6711  0.4935 -0.0165
 2131SOL    HW2 6935   3.619   6.346   3.455  1.6945  1.5550  0.8130
 2132SOL     OW 6936   7.625   3.707   2.724 -0.1548  0.4144  1.1432
 2132SOL    HW1 6937   7.660   3.633   2.674  0.0822  0.2398  1.5628
 2132SOL    HW2 6938   7.547   3.734   2.675 -1.1489 -1.1066  1.8129
 2133SOL     OW 6939   5.700   3.933   5.960  0.1177  0.2209 -0.5222
 2133SOL    HW1 6940   5.638   4.002   5.936 -0.3129 -0.0801 -0.2844
 2133SOL    HW2 6941   5.673   3.857   5.909 -0.2097 -0.1451  0.1746
 2134SOL     OW 6942   2.917   6.892   4.437  0.2335 -0.1548 -0.0329
 2134SOL    HW1 6943   2.831   6.860   4.410  0.4649 -2.4721  1.6541
 2134SOL    HW2 6944   2.943   6.953   4.368 -2.5507  0.3127 -0.8076
 2135SOL     OW 6945   4.547   0.607   2.732 -0.8219  0.0935 -0.0775
 2135SOL    HW1 6946   4.496   0.679   2.768 -0.3919  0.2197  0.2787
 2135SOL    HW2 6947   4.634   0.644   2.717 -0.1549 -0.7369  1.5201
 2136SOL     OW 6948   3.048   1.197   0.704 -0.0104  0.0980 -0.4057
 2136SOL    HW1 6949   2.986   1.268   0.686 -2.4847 -1.4041  1.5141
 2136SOL    HW2 6950   3.127   1.242   0.734 -1.3714  2.1111  0.4076
 2137SOL     OW 6951   1.739   0.639   6.251  0.2211 -0.1565 -0.1819
 2137SOL    HW1 6952   1.781   0.612   6.170  0.4971  0.2806 -0.1885
 2137SOL    HW2 6953   1.774   0.580   6.317 -0.3131 -0.7783 -0.4447
 2138SOL     OW 6954   6.564   7.263   1.771 -0.0173  0.9859 -0.6662
 2138SOL    HW1 6955   6.645   7.228   1.733  0.6533  0.9315  0.7428
 2138SOL    HW2 6956   6.497   7.198   1.749  0.8191 -0.2313  0.2430
 2139SOL     OW 6957   5.771   4.321   0.012  0.5509  0.0056 -0.0168
 2139SOL    HW1 6958   5.736   4.344  -0.074 -0.1728  0.1368  0.3008
 2139SOL    HW2 6959   5.858   4.287  -0.006  0.1137 -0.6985 -0.8833
 2140SOL     OW 6960   6.807   7.104   6.104  0.2908 -0.1750 -0.3201
 2140SOL    HW1 6961   6.824   7.174   6.041  2.4128 -2.8707 -3.0487
 2140SOL    HW2 6962   6.725   7.064   6.076 -1.3615  1.5243  1.7279
 2141SOL     OW 6963   5.285   2.014   4.038  0.4705 -0.5319  0.3856
 2141SOL    HW1 6964   5.341   2.035   4.113  0.1114  1.8109  0.0664
 2141SOL    HW2 6965   5.226   1.946   4.071  0.3036  0.4498  2.2720
 2142SOL     OW 6966   6.684   0.958   2.892  0.8048 -0.2269 -0.0365
 2142SOL    HW1 6967   6.722   0.998   2.814  2.8847  1.7529  1.8401
 2142SOL    HW2 6968   6.725   0.872   2.897  2.0492  0.3401 -0.1862
 2143SOL     OW 6969   3.637   2.303   0.479  0.1537 -0.2377  0.3897
 2143SOL    HW1 6970   3.698   2.234   0.453 -0.1466 -0.4501  0.2419
 2143SOL    HW2 6971   3.684   2.385   0.462  0.5329 -0.4035  0.6193
 2144SOL     OW 6972   3.380   5.628   3.408 -0.5552 -0.3016  0.3967
 2144SOL    HW1 6973   3.452   5.593   3.461  0.7673  0.1582 -1.0218
 2144SOL    HW2 6974   3.385   5.579   3.326 -1.6295  0.0162  0.1313
 2145SOL     OW 6975   0.823   0.915   6.954  0.5526  0.3736 -0.3720
 2145SOL    HW1 6976   0.839   0.832   6.907  1.9502  0.1495  0.4565
 2145SOL    HW2 6977   0.899   0.925   7.012 -0.7364  1.0374  1.2837
 2146SOL     OW 6978   3.898   1.407   4.082 -0.6643 -0.4545 -0.1833
 2146SOL    HW1 6979   3.944   1.342   4.029  2.0747 -0.1958  1.7025
 2146SOL    HW2 6980   3.806   1.398   4.055  0.3488 -1.0963 -4.0789
 2147SOL     OW 6981   3.817   3.290   2.511  0.1219 -0.7725 -0.6602
 2147SOL    HW1 6982   3.796   3.280   2.418 -1.4432  2.5043 -0.8164
 2147SOL    HW2 6983   3.738   3.260   2.557  1.0035 -2.6733 -0.2853
 2148SOL     OW 6984   5.315   0.784   0.748  0.7622  0.1788 -0.8033
 2148SOL    HW1 6985   5.363   0.835   0.813  0.0627 -1.4164  1.0818
 2148SOL    HW2 6986   5.374   0.712   0.726 -0.1653 -1.0658  0.5505
 2149SOL     OW 6987   4.231   0.851   0.112  0.3619  0.0974 -0.0429
 2149SOL    HW1 6988   4.260   0.832   0.201  2.1709  0.2242 -0.5463
 2149SOL    HW2 6989   4.307   0.894   0.071 -0.4005  0.0002 -1.6462
 2150SOL     OW 6990   0.734   5.772   5.490 -0.0160  0.2059  0.2003
 2150SOL    HW1 6991   0.813   5.735   5.529  0.0953  1.1824  0.9444
 2150SOL    HW2 6992   0.711   5.846   5.547  0.9645  2.6265 -2.3125
 2151SOL     OW 6993   3.395   3.979   6.069  0.2270 -0.2823  0.3594
 2151SOL    HW1 6994   3.303   3.966   6.092 -0.2179  0.1895 -1.0427
 2151SOL    HW2 6995   3.414   4.070   6.092  0.6077 -0.6198  1.4361
 2152SOL     OW 6996   0.104   3.971   3.094 -0.4237  0.1998 -0.7500
 2152SOL    HW1 6997   0.119   4.032   3.022 -0.2424  2.4590  1.0669
 2152SOL    HW2 6998   0.191   3.946   3.123 -0.3875  1.4273  0.3103
 2153SOL     OW 6999   5.940   0.703   0.959 -0.0886  0.0610  0.0865
 2153SOL    HW1 7000   5.908   0.694   0.870 -1.2160  1.1234  0.3486
 2153SOL    HW2 7001   6.033   0.723   0.949 -0.2191  0.2487 -0.8562
 2154SOL     OW 7002   2.446   2.905   7.087  0.4237 -0.4938  0.3384
 2154SOL    HW1 7003   2.452   2.998   7.064  1.9087 -0.8169 -0.7364
 2154SOL    HW2 7004   2.353   2.884   7.079  0.3185  0.4512 -1.3534
 2155SOL     OW 7005   5.269   3.367   4.453 -0.0597 -0.2489  0.1998
 2155SOL    HW1 7006   5.233   3.450   4.422  1.1266 -0.2145 -1.1680
 2155SOL    HW2 7007   5.216   3.300   4.409  0.5329 -0.1988 -0.6080
 2156SOL     OW 7008   0.893   0.023   6.450  0.2382  0.4620 -0.0958
 2156SOL    HW1 7009   0.814  -0.012   6.407  0.8751 -2.6317  0.9429
 2156SOL    HW2 7010   0.900   0.113   6.419 -2.9439  0.4347 -1.2641
 2157SOL     OW 7011   7.147   7.374   3.994  0.4857  0.1474 -0.6841
 2157SOL    HW1 7012   7.072   7.345   3.942  0.1364 -2.2585  0.9705
 2157SOL    HW2 7013   7.124   7.462   4.022 -1.7685 -0.5056 -0.2392
 2158SOL     OW 7014   4.848   1.297   3.174 -0.3180  0.6031 -0.2586
 2158SOL    HW1 7015   4.867   1.205   3.158 -1.8505  0.0308  0.9610
 2158SOL    HW2 7016   4.759   1.297   3.210 -0.0105  2.4792  0.6078
 2159SOL     OW 7017   1.288   3.706   3.654  0.1085  0.0947 -0.1697
 2159SOL    HW1 7018   1.342   3.785   3.654  2.3521 -1.2883  2.0971
 2159SOL    HW2 7019   1.305   3.666   3.569  1.2092  0.6469 -0.2280
 2160SOL     OW 7020   2.977   2.344   1.546 -0.5422 -0.1916 -0.2189
 2160SOL    HW1 7021   2.896   2.387   1.519 -1.3305 -1.3363  0.2223
 2160SOL    HW2 7022   3.016   2.404   1.610 -1.6502 -0.1609  0.4492
 2161SOL     OW 7023   1.775   4.039   1.035 -0.4412  0.4658  0.0819
 2161SOL    HW1 7024   1.858   4.008   1.071 -0.3731 -0.6143 -0.9631
 2161SOL    HW2 7025   1.710   3.979   1.071 -0.6640  0.7917  0.2258
 2162SOL     OW 7026   0.990   0.656   6.143  0.2560  0.2835  0.0172
 2162SOL    HW1 7027   0.916   0.610   6.103  0.5476 -0.4568  0.2923
 2162SOL    HW2 7028   0.950   0.715   6.207 -0.1466  0.6008 -0.5227
 2163SOL     OW 7029   4.495   3.326   6.047 -0.3623 -0.1353  0.6845
 2163SOL    HW1 7030   4.527   3.397   5.991 -0.4436 -1.0280 -0.5321
 2163SOL    HW2 7031   4.411   3.357   6.080 -1.0012 -0.1655 -0.8571
 2164SOL     OW 7032   1.655   5.232   5.420 -0.1991  0.1379  1.1317
 2164SOL    HW1 7033   1.572   5.185   5.411 -0.6227  0.8850  1.1047
 2164SOL    HW2 7034   1.664   5.249   5.514 -0.3807  0.6075  1.0632
 2165SOL     OW 7035   2.536   5.259   2.455 -0.4284 -0.0286 -0.4349
 2165SOL    HW1 7036   2.597   5.302   2.395  0.3945 -1.1572 -0.4503
 2165SOL    HW2 7037   2.590   5.230   2.528 -0.8730 -1.3444 -0.6009
 2166SOL     OW 7038   7.031   2.613   1.222  0.4778 -0.4409 -0.5072
 2166SOL    HW1 7039   7.026   2.662   1.139  3.2690  0.6979 -0.1434
 2166SOL    HW2 7040   6.999   2.675   1.288  1.1352 -0.1827 -0.4155
 2167SOL     OW 7041   6.999   1.951   2.222 -0.1495 -0.0645  0.3256
 2167SOL    HW1 7042   6.930   1.985   2.280 -2.4049 -2.1695 -0.9084
 2167SOL    HW2 7043   7.062   1.910   2.281 -0.3607  1.1775  1.4607
 2168SOL     OW 7044   6.819   1.880   5.778 -0.0112 -0.0255  0.2213
 2168SOL    HW1 7045   6.871   1.881   5.858 -0.1373  2.1712  0.3203
 2168SOL    HW2 7046   6.728   1.882   5.808 -0.0666  0.3769  0.0312
 2169SOL     OW 7047   5.472   3.718   1.966 -0.1349  0.2330  0.5197
 2169SOL    HW1 7048   5.450   3.661   2.040 -1.0969 -0.1084 -0.0016
 2169SOL    HW2 7049   5.453   3.665   1.889  0.7292  0.6327  0.0243
 2170SOL     OW 7050   7.360   0.314   5.327  0.2283 -0.5783  0.2621
 2170SOL    HW1 7051   7.374   0.399   5.368 -4.5574  1.1650 -1.0448
 2170SOL    HW2 7052   7.381   0.328   5.234  1.1150 -1.4170  0.3193
 2171SOL     OW 7053   0.145   1.968   4.168 -0.1247 -0.0997  0.6466
 2171SOL    HW1 7054   0.175   1.954   4.258 -1.0107 -1.3071  0.7851
 2171SOL    HW2 7055   0.222   1.952   4.114  0.7645  1.9407  1.2193
 2172SOL     OW 7056   0.130   7.412   5.707 -0.2902 -0.1093 -0.2452
 2172SOL    HW1 7057   0.196   7.457   5.655 -0.8433  0.0301 -0.8502
 2172SOL    HW2 7058   0.051   7.416   5.653 -1.2694  1.2846  1.2061
 2173SOL     OW 7059   6.564   3.936   0.050  0.1755 -0.4762 -0.5212
 2173SOL    HW1 7060   6.481   3.978   0.075 -0.2109 -0.3908 -1.8754
 2173SOL    HW2 7061   6.596   3.988  -0.023  2.2713  0.4612  0.9865
 2174SOL     OW 7062   3.701   0.077   5.233 -0.0771  0.0386  0.4319
 2174SOL    HW1 7063   3.723   0.086   5.140 -0.2770  0.5886  0.4367
 2174SOL    HW2 7064   3.739  -0.008   5.258 -1.4396 -0.9132 -0.5487
 2175SOL     OW 7065   6.268   3.236   3.456  0.0932 -0.1813 -0.1088
 2175SOL    HW1 7066   6.198   3.298   3.438  1.3896  1.1102 -0.9078
 2175SOL    HW2 7067   6.226   3.150   3.450 -0.9859  0.4493 -2.8329
 2176SOL     OW 7068   0.453   7.602   6.950  0.1909 -0.0993  0.4322
 2176SOL    HW1 7069   0.362   7.631   6.943 -0.1274 -0.7895  1.4498
 2176SOL    HW2 7070   0.464   7.578   7.042  2.2789  2.8254  1.0964
 2177SOL     OW 7071   0.440   1.503   6.588  0.1415  0.0605  0.4186
 2177SOL    HW1 7072   0.388   1.485   6.510  0.6667 -1.2646  0.3548
 2177SOL    HW2 7073   0.382   1.480   6.661  0.3550 -0.6229  0.3702
 2178SOL     OW 7074   1.270   7.103   4.121  0.3505 -0.4200  0.4894
 2178SOL    HW1 7075   1.335   7.043   4.159  0.8669 -0.0620  0.1689
 2178SOL    HW2 7076   1.318   7.152   4.055 -0.3390 -0.4168 -0.0197
 2179SOL     OW 7077   6.449   2.115   1.020  0.7640  0.3892 -0.2904
 2179SOL    HW1 7078   6.400   2.152   0.946  0.6302 -0.0543 -0.4258
 2179SOL    HW2 7079   6.417   2.025   1.028 -0.0002  0.7490  0.9956
 2180SOL     OW 7080   5.365   1.957   3.110 -0.2224 -0.3108 -0.1469
 2180SOL    HW1 7081   5.448   1.979   3.068  0.4522 -1.0204  0.7677
 2180SOL    HW2 7082   5.300   2.010   3.064  0.7095  0.1502 -0.9770
 2181SOL     OW 7083   0.519   5.432   3.705  0.0389  0.3344  0.0013
 2181SOL    HW1 7084   0.591   5.490   3.729 -0.4343 -0.0474  2.7414
 2181SOL    HW2 7085   0.550   5.344   3.727 -1.5465  0.2604  2.3481
 2182SOL     OW 7086   2.763   5.653   2.849 -0.2363 -0.1226 -0.2098
 2182SOL    HW1 7087   2.770   5.721   2.915  0.1724  0.5923 -0.9697
 2182SOL    HW2 7088   2.795   5.574   2.892  2.5584  0.8524 -0.2992
 2183SOL     OW 7089   6.588   3.654   1.306  0.0755  0.5520  0.0066
 2183SOL    HW1 7090   6.514   3.598   1.332  0.3100  0.0739 -0.3299
 2183SOL    HW2 7091   6.582   3.730   1.364 -0.1333  0.0805  0.6154
 2184SOL     OW 7092   1.600   1.067   0.676 -0.1826 -0.5685 -0.0997
 2184SOL    HW1 7093   1.686   1.067   0.634 -0.3201  1.6990 -0.5367
 2184SOL    HW2 7094   1.616   1.095   0.766 -0.4517 -0.0082 -0.2179
 2185SOL     OW 7095   4.265   1.309   5.489 -0.5472  0.4173  0.4204
 2185SOL    HW1 7096   4.254   1.291   5.583  1.2098 -3.5158  0.0785
 2185SOL    HW2 7097   4.233   1.230   5.445  1.0909  1.0179 -2.0800
 2186SOL     OW 7098   3.217   7.566   1.490 -0.3316  0.2943 -0.2901
 2186SOL    HW1 7099   3.174   7.580   1.574 -0.9706 -0.5170 -0.4680
 2186SOL    HW2 7100   3.291   7.626   1.491  0.3159 -0.4709  1.3149
 2187SOL     OW 7101   0.771   6.032   2.032 -0.1140 -0.0697  0.6683
 2187SOL    HW1 7102   0.806   5.982   2.105 -1.2939  0.6595  1.7832
 2187SOL    HW2 7103   0.681   6.052   2.057 -0.3715  0.7030 -0.7257
 2188SOL     OW 7104   4.378   0.570   4.182 -0.0630 -0.7060 -0.2500
 2188SOL    HW1 7105   4.460   0.522   4.188  0.1686 -0.3834 -0.8253
 2188SOL    HW2 7106   4.329   0.525   4.113  0.5729  0.4854 -1.5138
 2189SOL     OW 7107   5.203   2.578   5.801  0.1613 -0.0059 -0.0623
 2189SOL    HW1 7108   5.152   2.635   5.859 -0.8096 -1.2283  0.3300
 2189SOL    HW2 7109   5.270   2.539   5.859 -1.8147 -2.4911  0.7281
 2190SOL     OW 7110   4.665   4.815   4.898 -0.3870  0.3380 -0.0753
 2190SOL    HW1 7111   4.660   4.724   4.869 -0.0148  0.6737 -1.2617
 2190SOL    HW2 7112   4.649   4.866   4.818 -0.5887  1.3044  0.5742
 2191SOL     OW 7113   5.102   1.266   2.354 -0.4156 -0.1025  0.3693
 2191SOL    HW1 7114   5.140   1.247   2.268 -0.8734 -0.1491  0.1748
 2191SOL    HW2 7115   5.040   1.194   2.369 -1.8024  0.9369 -0.1439
 2192SOL     OW 7116   6.068   0.877   7.342 -0.1228  0.4631 -0.2471
 2192SOL    HW1 7117   6.150   0.926   7.351  0.2435 -0.4886  3.4523
 2192SOL    HW2 7118   6.080   0.823   7.264  1.8000  1.9949 -1.1014
 2193SOL     OW 7119   7.212   4.586   4.214 -0.4819  0.3619 -0.2233
 2193SOL    HW1 7120   7.284   4.640   4.181 -0.7956  0.5927 -0.5386
 2193SOL    HW2 7121   7.237   4.496   4.192  0.9428  0.1420  1.9273
 2194SOL     OW 7122   1.477   2.447   6.578  0.2230 -0.4832 -0.6095
 2194SOL    HW1 7123   1.496   2.411   6.665 -0.1640  0.3936 -0.1362
 2194SOL    HW2 7124   1.424   2.525   6.597  3.0598  1.8315 -1.3887
 2195SOL     OW 7125   5.949   2.375   0.471 -0.6945  0.3210  0.3163
 2195SOL    HW1 7126   5.874   2.317   0.454  0.7955 -1.7488  0.4829
 2195SOL    HW2 7127   6.002   2.369   0.392  1.0147 -1.0691  1.4961
 2196SOL     OW 7128   6.034   1.595   0.021 -0.4515  0.2937  0.9132
 2196SOL    HW1 7129   6.076   1.540  -0.045 -0.0955 -0.3028  1.6326
 2196SOL    HW2 7130   6.081   1.678   0.017 -0.1440  0.1117  0.7205
 2197SOL     OW 7131   2.060   6.970   4.782  0.7458 -0.1072 -0.2833
 2197SOL    HW1 7132   2.089   6.911   4.712  1.3079 -2.4936  1.7868
 2197SOL    HW2 7133   2.110   6.942   4.859 -1.9627  0.2829  1.8001
 2198SOL     OW 7134   7.352   4.729   4.016 -0.1168  0.4669  0.7112
 2198SOL    HW1 7135   7.399   4.801   3.973  0.5766  0.2999  1.1659
 2198SOL    HW2 7136   7.323   4.673   3.944  0.7398  0.3608  0.4314
 2199SOL     OW 7137   0.238   2.285   4.530 -0.1424  0.1543  0.2419
 2199SOL    HW1 7138   0.270   2.310   4.616 -0.5583  0.2248  0.3773
 2199SOL    HW2 7139   0.143   2.289   4.537 -0.2745 -2.2164  0.4991
 2200SOL     OW 7140   2.791   0.980   1.812 -0.5097  0.3152 -0.0290
 2200SOL    HW1 7141   2.769   0.904   1.760  0.8705 -0.5433  0.5689
 2200SOL    HW2 7142   2.814   1.048   1.748 -2.4975  0.5160 -0.5786
 2201SOL     OW 7143   2.100   3.653   1.419  0.1212 -0.0882 -0.1495
 2201SOL    HW1 7144   2.122   3.585   1.356  0.0775 -0.1494 -0.0992
 2201SOL    HW2 7145   2.007   3.640   1.437 -0.2801  0.9493 -1.3080
 2202SOL     OW 7146   6.634   7.222   7.161 -0.2211  0.3337 -0.1020
 2202SOL    HW1 7147   6.566   7.159   7.136 -1.2248 -0.1393  3.3038
 2202SOL    HW2 7148   6.716   7.173   7.150 -0.6529 -0.1836 -1.2273
 2203SOL     OW 7149   7.017   4.636   5.439 -0.1122 -0.3556 -1.0541
 2203SOL    HW1 7150   6.965   4.555   5.434 -2.0447  0.7737 -0.3031
 2203SOL    HW2 7151   6.984   4.690   5.367 -0.1890  0.4958 -0.3937
 2204SOL     OW 7152   0.194   5.029   2.304 -0.2024  0.3225  0.3511
 2204SOL    HW1 7153   0.190   4.951   2.249 -2.7518  0.9305 -0.4638
 2204SOL    HW2 7154   0.117   5.079   2.279  0.2366  2.1122  2.3529
 2205SOL     OW 7155   2.898   2.563   0.137 -0.0457  0.6852  0.0271
 2205SOL    HW1 7156   2.960   2.533   0.069 -0.5678  0.9018 -0.5572
 2205SOL    HW2 7157   2.835   2.491   0.145  0.0213  0.6555  0.2955
 2206SOL     OW 7158   1.006   6.614   2.910  0.2358  0.5115  0.0365
 2206SOL    HW1 7159   0.996   6.705   2.880  1.6899  0.3712 -0.9926
 2206SOL    HW2 7160   0.954   6.610   2.990 -0.1305  2.1648 -0.0677
 2207SOL     OW 7161   4.238   7.584   2.981  0.1150 -0.2282  0.1397
 2207SOL    HW1 7162   4.290   7.573   3.060 -1.0638 -1.4450  0.7913
 2207SOL    HW2 7163   4.263   7.510   2.926  1.4363  0.9820 -0.9744
 2208SOL     OW 7164   0.210   5.489   4.912  0.0718 -0.1874  0.4362
 2208SOL    HW1 7165   0.173   5.494   5.000  1.5515  0.9805  1.0263
 2208SOL    HW2 7166   0.305   5.494   4.925  0.3592 -0.8452 -1.1778
 2209SOL     OW 7167   1.255   3.278   6.713 -0.1118  0.0850 -0.1740
 2209SOL    HW1 7168   1.170   3.265   6.756  0.4758 -0.3410  0.8959
 2209SOL    HW2 7169   1.298   3.193   6.720  1.1643  0.7904  1.0242
 2210SOL     OW 7170   1.043   2.785   2.930  0.2503  1.0143  0.1697
 2210SOL    HW1 7171   1.061   2.713   2.870 -0.7478  1.5823 -0.8515
 2210SOL    HW2 7172   0.961   2.823   2.898  0.7680  2.6139  0.6798
 2211SOL     OW 7173   0.036   7.302   4.279 -0.4121 -0.1984 -0.4762
 2211SOL    HW1 7174   0.066   7.235   4.217  0.7417  0.8317 -1.0682
 2211SOL    HW2 7175   0.110   7.314   4.338 -0.6334  0.5084 -0.3391
 2212SOL     OW 7176   6.759   0.525   6.575  0.6845 -0.4227 -0.0526
 2212SOL    HW1 7177   6.793   0.569   6.497  1.5451  0.0876  0.5944
 2212SOL    HW2 7178   6.664   0.538   6.571  0.7982  0.2914 -0.5870
 2213SOL     OW 7179   0.050   4.968   0.767 -0.0486 -0.4919  0.8442
 2213SOL    HW1 7180  -0.039   4.958   0.800 -0.6029 -1.5388 -0.8455
 2213SOL    HW2 7181   0.100   4.899   0.810 -0.0782 -0.0562  1.6057
 2214SOL     OW 7182   4.785   4.956   2.735  0.0762 -0.6484 -0.0872
 2214SOL    HW1 7183   4.794   4.880   2.678  0.4434 -0.8289  0.2079
 2214SOL    HW2 7184   4.859   5.012   2.711 -1.5519  0.8288 -2.0932
 2215SOL     OW 7185   4.144   3.544   6.026  0.8675 -0.2945 -0.1280
 2215SOL    HW1 7186   4.239   3.530   6.029  0.7255 -1.0507  1.1887
 2215SOL    HW2 7187   4.106   3.466   6.066 -0.2082  0.9946  1.4914
 2216SOL     OW 7188   2.508   4.822   5.439  0.0221  0.1344  0.2392
 2216SOL    HW1 7189   2.580   4.885   5.440  0.4788 -0.3610  1.6331
 2216SOL    HW2 7190   2.491   4.804   5.531  0.1121 -1.9939 -0.1011
 2217SOL     OW 7191   6.601   6.884   4.013  0.3106 -0.8254  0.5374
 2217SOL    HW1 7192   6.533   6.944   4.045  0.4128  0.7962 -2.0150
 2217SOL    HW2 7193   6.676   6.940   3.995  1.1721 -2.0744  0.1180
 2218SOL     OW 7194   3.056   0.620   6.098  0.3281 -0.3399 -0.2639
 2218SOL    HW1 7195   3.086   0.567   6.025  1.5339  0.8208 -0.6551
 2218SOL    HW2 7196   3.128   0.680   6.115 -0.9190  1.0840  0.2438
 2219SOL     OW 7197   1.900   2.690   6.794 -0.3247 -0.3347 -0.4343
 2219SOL    HW1 7198   1.972   2.683   6.730  0.3944  1.4153  0.1290
 2219SOL    HW2 7199   1.825   2.716   6.742 -0.0752 -0.2332 -0.7471
 2220SOL     OW 7200   1.537   4.206   5.563  0.4503  0.2409  0.1906
 2220SOL    HW1 7201   1.629   4.222   5.544  0.5275  1.1058  1.1491
 2220SOL    HW2 7202   1.537   4.132   5.623  0.4978  0.0414 -0.0551
 2221SOL     OW 7203   6.167   2.167   4.551  0.2688 -0.6334  0.3284
 2221SOL    HW1 7204   6.124   2.174   4.636  0.2984 -0.1891  0.3074
 2221SOL    HW2 7205   6.245   2.115   4.568 -0.9609 -2.6990  0.1149
 2222SOL     OW 7206   6.137   4.086   5.088  0.1196 -0.2163 -0.2595
 2222SOL    HW1 7207   6.180   4.091   5.173 -0.1705 -0.1102 -0.1177
 2222SOL    HW2 7208   6.209   4.093   5.024  0.4868 -1.5749 -0.0282
 2223SOL     OW 7209   1.382   5.984   3.328 -0.3198  0.2825  0.0456
 2223SOL    HW1 7210   1.341   5.903   3.297 -1.6966  0.5599  1.0459
 2223SOL    HW2 7211   1.309   6.043   3.345  0.5383  1.0692  1.1754
 2224SOL     OW 7212   0.984   4.435   5.705  0.1200 -0.3298 -0.0569
 2224SOL    HW1 7213   0.911   4.396   5.657  0.3434 -0.0653 -0.6184
 2224SOL    HW2 7214   1.011   4.509   5.651  1.8381 -1.3639 -0.7006
 2225SOL     OW 7215   3.890   7.448   7.268 -0.0643 -0.1606  0.0826
 2225SOL    HW1 7216   3.973   7.483   7.237 -1.0471  0.6196 -1.8564
 2225SOL    HW2 7217   3.912   7.364   7.307  1.5537 -0.2860 -1.0124
 2226SOL     OW 7218   4.197   2.667   0.848  0.4706  0.0011  0.5094
 2226SOL    HW1 7219   4.242   2.720   0.782  0.0549 -2.3580 -1.8221
 2226SOL    HW2 7220   4.106   2.666   0.820 -0.0528  0.3423  2.1355
 2227SOL     OW 7221   1.128   1.943   1.363  0.0498  0.2488 -0.9079
 2227SOL    HW1 7222   1.089   1.893   1.435  1.1734  0.8370  0.1482
 2227SOL    HW2 7223   1.118   1.886   1.286  0.1700 -1.0623  0.0078
 2228SOL     OW 7224   2.715   1.411   5.923 -0.2718 -0.1557  0.3644
 2228SOL    HW1 7225   2.663   1.375   5.995  1.8871 -1.4639  1.3813
 2228SOL    HW2 7226   2.676   1.496   5.905 -2.9147 -1.1954  0.8169
 2229SOL     OW 7227   6.522   2.607   3.426 -0.0582  0.1915  0.3940
 2229SOL    HW1 7228   6.479   2.693   3.416 -0.2136  0.2955  1.8005
 2229SOL    HW2 7229   6.570   2.614   3.508 -0.3425 -1.1866  0.6902
 2230SOL     OW 7230   0.803   0.289   7.006 -0.3025  0.5465  0.2015
 2230SOL    HW1 7231   0.775   0.206   6.967 -1.7030  1.0508  0.0744
 2230SOL    HW2 7232   0.811   0.270   7.100  1.3224 -0.2074 -0.0492
 2231SOL     OW 7233   0.816   5.692   1.856 -0.5312 -0.2026 -0.2279
 2231SOL    HW1 7234   0.848   5.650   1.936  0.6219 -0.8101 -0.9829
 2231SOL    HW2 7235   0.895   5.716   1.808 -1.0347  3.7008  0.5441
 2232SOL     OW 7236   2.013   0.012   7.265 -0.3488  0.1799 -0.1416
 2232SOL    HW1 7237   2.067  -0.033   7.329 -0.5979 -0.1184 -0.1429
 2232SOL    HW2 7238   2.062   0.006   7.183 -1.2566 -1.7905 -0.5952
 2233SOL     OW 7239   7.088   4.641   2.879 -0.5948  0.0733  0.1892
 2233SOL    HW1 7240   6.999   4.667   2.905 -1.0501 -0.6646 -0.5811
 2233SOL    HW2 7241   7.075   4.563   2.825  0.6385 -1.0655  1.4685
 2234SOL     OW 7242   4.120   0.352   3.346 -0.3736  0.1616  0.6511
 2234SOL    HW1 7243   4.138   0.409   3.421 -1.3182  0.4266  0.6853
 2234SOL    HW2 7244   4.186   0.378   3.281  2.3109 -1.9714  2.3125
 2235SOL     OW 7245   4.440   3.059   2.368 -0.1600 -0.0097 -0.2623
 2235SOL    HW1 7246   4.405   2.985   2.418  0.4683 -0.1467 -0.0200
 2235SOL    HW2 7247   4.400   3.050   2.282  0.8512 -1.3603 -0.6311
 2236SOL     OW 7248   3.578   3.445   2.881  0.1403 -0.4082 -0.1636
 2236SOL    HW1 7249   3.663   3.475   2.850  0.1051  1.7135  1.5734
 2236SOL    HW2 7250   3.596   3.403   2.965 -0.5429  0.6700  0.5559
 2237SOL     OW 7251   4.949   5.560   1.544  0.2577 -0.1033 -0.1048
 2237SOL    HW1 7252   4.887   5.496   1.510  0.1687 -0.3121  0.4367
 2237SOL    HW2 7253   5.003   5.584   1.468 -0.9472  0.6395 -0.7546
 2238SOL     OW 7254   0.138   7.321   6.519  0.3423 -0.3478  0.3615
 2238SOL    HW1 7255   0.101   7.408   6.505  0.2741 -0.4533 -0.1781
 2238SOL    HW2 7256   0.125   7.277   6.435 -0.5186 -1.2030  0.9228
 2239SOL     OW 7257   6.324   7.135   2.830  0.6881 -0.5176 -0.3630
 2239SOL    HW1 7258   6.316   7.067   2.897 -0.3079  2.5123  2.8996
 2239SOL    HW2 7259   6.240   7.132   2.784  1.1556 -2.2706 -1.1909
 2240SOL     OW 7260   1.576   6.856   1.461 -0.2343  0.1627  0.3946
 2240SOL    HW1 7261   1.594   6.830   1.551 -0.0719 -0.2250  0.2525
 2240SOL    HW2 7262   1.596   6.949   1.458 -0.6868  0.2778  0.8769
 2241SOL     OW 7263   0.545   3.930   4.006  0.5348 -0.0016 -0.1217
 2241SOL    HW1 7264   0.598   3.850   4.013  0.1789 -0.2803 -0.5712
 2241SOL    HW2 7265   0.609   4.001   4.011  1.0867 -0.3482 -1.7403
 2242SOL     OW 7266   1.831   7.176   3.113  0.5601  0.0791 -0.2440
 2242SOL    HW1 7267   1.854   7.257   3.068  1.6030  0.3724  0.7646
 2242SOL    HW2 7268   1.907   7.119   3.100 -0.2580 -0.8371 -1.1406
 2243SOL     OW 7269   5.968   6.464   6.726  0.1993  0.2252  0.2194
 2243SOL    HW1 7270   6.007   6.548   6.753  1.9955 -0.1515 -0.9947
 2243SOL    HW2 7271   6.012   6.444   6.643 -0.9373 -1.4457 -0.0167
 2244SOL     OW 7272   6.781   4.744   0.659  0.0652 -0.3757 -0.2516
 2244SOL    HW1 7273   6.686   4.736   0.645 -0.1089 -0.4311  0.8685
 2244SOL    HW2 7274   6.811   4.800   0.588 -0.9149  0.1831 -0.2435
 2245SOL     OW 7275   3.955   5.508   6.685  0.0090 -0.1192  0.0500
 2245SOL    HW1 7276   3.883   5.572   6.686 -0.9791 -1.1845 -0.3669
 2245SOL    HW2 7277   4.000   5.520   6.768 -0.0682  1.2103 -0.0823
 2246SOL     OW 7278   5.755   6.162   2.242  0.9379 -0.3097  0.1898
 2246SOL    HW1 7279   5.835   6.110   2.240  2.0472  1.3529  0.4426
 2246SOL    HW2 7280   5.783   6.251   2.260 -1.0581  0.1505  1.4043
 2247SOL     OW 7281   1.257   7.289   5.716  0.0643  0.2356  0.1662
 2247SOL    HW1 7282   1.293   7.377   5.699 -0.1513  0.2435 -0.2687
 2247SOL    HW2 7283   1.177   7.286   5.664  0.8822 -0.7889 -1.1262
 2248SOL     OW 7284   0.938   3.583   7.310 -0.1493 -0.3754  0.0297
 2248SOL    HW1 7285   0.916   3.581   7.216 -0.5760 -0.5747  0.1347
 2248SOL    HW2 7286   1.024   3.542   7.315 -0.9068 -2.0570 -0.0620
 2249SOL     OW 7287   0.158   4.407   7.236  0.0540  0.3203  0.4563
 2249SOL    HW1 7288   0.117   4.484   7.274  0.6134  1.0226 -0.3323
 2249SOL    HW2 7289   0.251   4.428   7.230 -0.1773  1.0474 -2.9284
 2250SOL     OW 7290   3.106   3.921   1.723 -0.1433 -0.6840 -0.5036
 2250SOL    HW1 7291   3.117   3.835   1.762 -0.6072  0.4702  2.3910
 2250SOL    HW2 7292   3.190   3.939   1.680  0.9082 -1.5062  1.1232
 2251SOL     OW 7293   2.231   7.239   1.952  0.8873  0.0466 -0.6334
 2251SOL    HW1 7294   2.246   7.306   2.019 -1.3312  0.5355 -0.5640
 2251SOL    HW2 7295   2.192   7.286   1.879 -1.7481 -1.2353 -0.1782
 2252SOL     OW 7296   2.014   1.819   2.014 -0.5561  0.0446  0.4941
 2252SOL    HW1 7297   1.928   1.858   2.002 -1.0055 -0.6485  1.3789
 2252SOL    HW2 7298   2.070   1.890   2.045 -0.6786  0.6102 -0.5505
 2253SOL     OW 7299   1.770   6.267   4.319 -0.1399  0.7146  0.4271
 2253SOL    HW1 7300   1.703   6.256   4.251 -0.7354  0.0117  1.0997
 2253SOL    HW2 7301   1.759   6.356   4.350  0.1135  1.0286 -0.3734
 2254SOL     OW 7302   4.794   4.098   2.402 -0.4518 -0.3928 -0.1817
 2254SOL    HW1 7303   4.809   4.162   2.332  2.0173 -0.4413  0.2297
 2254SOL    HW2 7304   4.749   4.148   2.471 -0.0447  0.4737 -0.5260
 2255SOL     OW 7305   5.256   5.213   2.848 -0.3521  0.5048  0.1298
 2255SOL    HW1 7306   5.234   5.306   2.841  0.5391  0.7062 -0.0666
 2255SOL    HW2 7307   5.315   5.197   2.775 -0.6561 -0.2651  0.0495
 2256SOL     OW 7308   6.052   2.685   5.846  0.9973  0.4963 -0.3213
 2256SOL    HW1 7309   6.020   2.711   5.759  2.8559  1.1153 -0.8593
 2256SOL    HW2 7310   6.071   2.767   5.890 -0.2538  0.1981  0.8550
 2257SOL     OW 7311   2.093   4.448   1.009 -0.6935 -0.3341  0.1678
 2257SOL    HW1 7312   2.014   4.395   1.001  0.3309 -1.7323 -1.0057
 2257SOL    HW2 7313   2.140   4.435   0.927  2.0021 -1.5809  1.7942
 2258SOL     OW 7314   6.704   2.241   6.073 -0.1399 -0.4435 -0.5125
 2258SOL    HW1 7315   6.700   2.319   6.128  0.7117 -1.1335  0.5750
 2258SOL    HW2 7316   6.795   2.212   6.080 -0.4731 -1.5830 -0.8112
 2259SOL     OW 7317   1.296   6.924   0.456  0.4161  0.1262 -0.3341
 2259SOL    HW1 7318   1.221   6.984   0.456 -0.4097 -0.8858  0.6450
 2259SOL    HW2 7319   1.280   6.867   0.381 -0.0298 -0.3632  0.1264
 2260SOL     OW 7320   6.318   7.307   3.904 -0.0601  0.2247 -0.2276
 2260SOL    HW1 7321   6.412   7.295   3.917 -0.1217  0.8597  0.9957
 2260SOL    HW2 7322   6.311   7.347   3.817  0.8892  1.0350  0.0458
 2261SOL     OW 7323   7.371   1.854   1.597  0.2342 -0.1043 -0.4834
 2261SOL    HW1 7324   7.384   1.766   1.564 -0.2602 -0.9062  1.3270
 2261SOL    HW2 7325   7.454   1.899   1.580  0.8353 -1.2137 -0.5393
 2262SOL     OW 7326   6.532   0.201   6.628  0.7266  0.1016  0.0154
 2262SOL    HW1 7327   6.511   0.178   6.538 -2.6399 -1.5219  1.0616
 2262SOL    HW2 7328   6.461   0.258   6.656 -0.3147 -2.2796  2.6282
 2263SOL     OW 7329   5.525   0.788   3.123 -0.0449 -0.3080  0.0107
 2263SOL    HW1 7330   5.472   0.752   3.195  0.7594 -3.0634 -0.6314
 2263SOL    HW2 7331   5.467   0.788   3.048  0.3591 -1.8695 -0.3405
 2264SOL     OW 7332   5.793   0.515   4.900  0.2604 -0.4962 -0.0238
 2264SOL    HW1 7333   5.837   0.525   4.815  0.2172  0.2973  0.0326
 2264SOL    HW2 7334   5.837   0.578   4.957  3.1940 -3.8742  1.8081
 2265SOL     OW 7335   4.421   6.165   6.444 -0.1365  0.0542  0.0648
 2265SOL    HW1 7336   4.391   6.230   6.380  0.0318 -1.5160 -1.6839
 2265SOL    HW2 7337   4.456   6.093   6.391  0.1196 -1.2746  1.9402
 2266SOL     OW 7338   6.877   6.774   1.234  0.7601  0.6636  0.7293
 2266SOL    HW1 7339   6.790   6.802   1.204  0.6077 -1.4587 -1.0609
 2266SOL    HW2 7340   6.924   6.856   1.251 -0.5146  1.9508 -1.5301
 2267SOL     OW 7341   1.262   1.262   6.871  0.0427  0.0902 -0.0570
 2267SOL    HW1 7342   1.218   1.181   6.846  1.9708 -1.6570  1.9031
 2267SOL    HW2 7343   1.324   1.279   6.800 -0.8287  0.3061 -0.8018
 2268SOL     OW 7344   6.152   5.859   0.571 -1.0268  0.2305 -0.2106
 2268SOL    HW1 7345   6.195   5.944   0.560 -2.3084  0.7948 -1.0355
 2268SOL    HW2 7346   6.170   5.812   0.490 -0.7113 -0.1227  0.0575
 2269SOL     OW 7347   3.841   0.913   5.093 -0.1143  0.3261  0.4950
 2269SOL    HW1 7348   3.841   0.830   5.044 -0.8558  0.8313 -0.4019
 2269SOL    HW2 7349   3.856   0.980   5.026  1.0916  0.8960  1.2944
 2270SOL     OW 7350   6.692   4.071   7.466  0.5403  0.2140 -0.0606
 2270SOL    HW1 7351   6.785   4.095   7.462  0.2327  1.4682  0.0128
 2270SOL    HW2 7352   6.646   4.153   7.483 -0.4268 -0.7254  2.2382
 2271SOL     OW 7353   0.755   6.906   2.406 -0.2810  0.2801 -0.1701
 2271SOL    HW1 7354   0.751   6.864   2.321 -0.0128  0.0934 -0.0913
 2271SOL    HW2 7355   0.737   6.836   2.469 -0.4389  0.4083 -0.0698
 2272SOL     OW 7356   3.441   6.369   4.125 -0.3597  0.1588 -0.2163
 2272SOL    HW1 7357   3.465   6.436   4.189  1.1532  0.1737 -0.7563
 2272SOL    HW2 7358   3.348   6.384   4.109 -0.3195  1.3921  0.5380
 2273SOL     OW 7359   3.835   5.611   4.615 -0.0725  0.5338 -0.5410
 2273SOL    HW1 7360   3.898   5.681   4.597 -0.8070  0.8924 -1.9198
 2273SOL    HW2 7361   3.792   5.596   4.531 -0.9675 -0.5619  0.0812
 2274SOL     OW 7362   1.878   6.058   6.884 -0.1595 -0.0297  0.5241
 2274SOL    HW1 7363   1.838   6.113   6.951  1.1986  0.6719  0.7957
 2274SOL    HW2 7364   1.972   6.073   6.894  0.0558  0.6190 -1.9715
 2275SOL     OW 7365   4.391   0.779   3.843 -0.2631  0.3549  0.2950
 2275SOL    HW1 7366   4.452   0.839   3.885  1.3014 -0.9794  0.0189
 2275SOL    HW2 7367   4.418   0.692   3.873  0.5369 -0.6158 -2.8743
 2276SOL     OW 7368   7.465   2.845   2.631 -0.1033 -0.3580 -0.2129
 2276SOL    HW1 7369   7.404   2.773   2.612  0.9720 -1.4116  0.1845
 2276SOL    HW2 7370   7.409   2.920   2.649 -1.2425 -0.6913 -2.1589
 2277SOL     OW 7371   6.960   2.522   2.694  0.1455  0.5137 -0.5758
 2277SOL    HW1 7372   6.994   2.436   2.669 -0.0887  0.4058 -0.5305
 2277SOL    HW2 7373   6.875   2.503   2.733 -0.7253  0.9250 -2.1927
 2278SOL     OW 7374   2.610   1.742   7.226  0.1949 -0.5678 -0.5711
 2278SOL    HW1 7375   2.580   1.682   7.294  1.9128  0.1431  0.8736
 2278SOL    HW2 7376   2.553   1.818   7.234  1.1430  0.0296  0.9615
 2279SOL     OW 7377   2.106   2.258   6.585  0.6703 -0.3953  0.1430
 2279SOL    HW1 7378   2.200   2.238   6.589  0.7597  0.0588  0.3866
 2279SOL    HW2 7379   2.074   2.245   6.674  0.0623 -2.5688 -0.3471
 2280SOL     OW 7380   2.619   2.190   5.024 -0.3880 -0.0094  0.6741
 2280SOL    HW1 7381   2.657   2.165   4.939  0.0419 -0.5927  1.0330
 2280SOL    HW2 7382   2.695   2.205   5.080 -0.6385 -2.3903  1.7560
 2281SOL     OW 7383   2.709   5.966   3.263  0.3112 -0.1383 -0.0282
 2281SOL    HW1 7384   2.749   6.053   3.253  1.4027 -0.5198  0.7965
 2281SOL    HW2 7385   2.635   5.981   3.322 -2.7785  1.1104 -3.7635
 2282SOL     OW 7386   5.823   0.028   0.207  0.1169  0.2886 -0.0806
 2282SOL    HW1 7387   5.826   0.120   0.236 -3.1184  0.2583  0.6864
 2282SOL    HW2 7388   5.750  -0.010   0.255  1.2589 -2.7213 -0.4896
 2283SOL     OW 7389   0.161   0.449   4.307 -0.1699  0.0140  0.5659
 2283SOL    HW1 7390   0.228   0.484   4.365 -1.1675 -2.0755  3.2043
 2283SOL    HW2 7391   0.141   0.520   4.246  2.8518  1.4047  1.0245
 2284SOL     OW 7392   7.317   7.583   4.384 -0.3657  0.2339 -0.1140
 2284SOL    HW1 7393   7.226   7.578   4.413 -0.4914 -0.2837 -0.5825
 2284SOL    HW2 7394   7.353   7.660   4.429 -0.2877 -1.0187  2.0981
 2285SOL     OW 7395   4.121   2.608   7.533 -0.0230 -0.1735 -0.1992
 2285SOL    HW1 7396   4.128   2.602   7.438 -0.6941  2.2639 -0.4782
 2285SOL    HW2 7397   4.067   2.533   7.558 -2.3676  0.7273 -2.1371
 2286SOL     OW 7398   3.169   6.036   6.611 -0.0358  0.3539  0.2276
 2286SOL    HW1 7399   3.090   5.984   6.597 -0.9177  2.0935 -1.9164
 2286SOL    HW2 7400   3.143   6.103   6.674  0.4444 -0.4294  1.2831
 2287SOL     OW 7401   5.495   7.376   3.963  0.1715  0.1004  0.1830
 2287SOL    HW1 7402   5.579   7.368   4.007 -0.3095 -1.4047  0.8629
 2287SOL    HW2 7403   5.516   7.417   3.879  1.6938 -0.8897  0.0442
 2288SOL     OW 7404   0.247   2.617   2.112  0.6024  0.1102  0.2597
 2288SOL    HW1 7405   0.171   2.592   2.163  1.0236  1.5031  1.6466
 2288SOL    HW2 7406   0.294   2.535   2.096  0.5510 -0.3651  2.3094
 2289SOL     OW 7407   2.037   2.407   6.008  0.0040 -0.1077 -0.2830
 2289SOL    HW1 7408   2.050   2.393   6.102 -2.0671  0.3549  0.1394
 2289SOL    HW2 7409   2.012   2.321   5.975 -0.6254  0.0091 -0.1232
 2290SOL     OW 7410   2.390   5.880   6.532 -0.5434  0.0665  0.0293
 2290SOL    HW1 7411   2.317   5.926   6.571 -1.7594 -0.8392 -1.0891
 2290SOL    HW2 7412   2.371   5.879   6.438  0.8049 -0.3538 -0.2756
 2291SOL     OW 7413   0.358   5.163   2.114  0.9020 -0.1428  0.3903
 2291SOL    HW1 7414   0.308   5.127   2.186  0.2991  1.1679  0.6597
 2291SOL    HW2 7415   0.335   5.256   2.113  0.8688 -0.1359 -1.5124
 2292SOL     OW 7416   2.759   6.619   2.053  0.4237 -0.2538 -0.0058
 2292SOL    HW1 7417   2.728   6.631   1.963 -0.2873  0.4770  0.3335
 2292SOL    HW2 7418   2.746   6.525   2.070 -0.6978 -0.1564 -0.2189
 2293SOL     OW 7419   2.715   2.523   4.336 -0.0133  0.2421 -0.4174
 2293SOL    HW1 7420   2.646   2.589   4.329  0.8383  1.3475  1.0199
 2293SOL    HW2 7421   2.792   2.571   4.364  0.8340 -1.2711 -0.0112
 2294SOL     OW 7422   3.900   2.046   3.618  0.3229  0.0343 -0.1205
 2294SOL    HW1 7423   3.872   1.955   3.627  1.2067 -0.2299  0.0560
 2294SOL    HW2 7424   3.819   2.094   3.603 -0.1673 -0.7683 -0.1374
 2295SOL     OW 7425   7.605   3.079   5.051 -0.7063 -0.4504  0.0546
 2295SOL    HW1 7426   7.653   3.131   5.115 -0.6568 -0.5313  0.0823
 2295SOL    HW2 7427   7.513   3.097   5.070 -0.6847 -0.1696 -0.1031
 2296SOL     OW 7428   6.412   6.309   2.252 -0.2932  0.4289  0.2313
 2296SOL    HW1 7429   6.438   6.222   2.221 -1.6904  0.4767 -1.1956
 2296SOL    HW2 7430   6.495   6.353   2.273  0.6433 -0.2764 -1.7410
 2297SOL     OW 7431   2.450   4.538   1.734  0.6865 -0.2027  0.2216
 2297SOL    HW1 7432   2.402   4.462   1.768 -0.2875  0.0320 -0.5760
 2297SOL    HW2 7433   2.538   4.505   1.716  0.8890 -0.6134  1.8558
 2298SOL     OW 7434   7.624   0.821   3.575  0.0132 -0.3513 -0.5065
 2298SOL    HW1 7435   7.658   0.782   3.494  0.4773 -0.9113 -0.0570
 2298SOL    HW2 7436   7.665   0.770   3.645 -2.5502 -1.7906  0.0794
 2299SOL     OW 7437   1.212   0.087   4.864 -0.3135 -0.5687  0.3715
 2299SOL    HW1 7438   1.232   0.132   4.946 -3.6213 -0.7663  1.4465
 2299SOL    HW2 7439   1.200   0.158   4.800 -0.3410 -0.2383  0.7394
 2300SOL     OW 7440   6.210   2.313   7.307  0.5315 -0.3502  0.1311
 2300SOL    HW1 7441   6.160   2.376   7.359  0.4868 -0.4480  0.2075
 2300SOL    HW2 7442   6.144   2.265   7.257  0.5514 -0.4589  0.2091
 2301SOL     OW 7443   4.319   2.035   6.220 -0.1289  0.1372  0.0169
 2301SOL    HW1 7444   4.276   2.071   6.298 -1.1431 -0.8434 -0.0568
 2301SOL    HW2 7445   4.247   1.997   6.169  0.7681 -1.0564 -0.3934
 2302SOL     OW 7446   0.567   2.262   1.416  0.1909  0.1985  0.3383
 2302SOL    HW1 7447   0.635   2.216   1.367  0.5161 -1.5635  2.3347
 2302SOL    HW2 7448   0.485   2.229   1.378  0.3878  0.9604 -0.8317
 2303SOL     OW 7449   0.909   6.550   1.688  0.9161  0.0563 -0.4353
 2303SOL    HW1 7450   0.935   6.625   1.634  0.0450  0.4164 -0.3637
 2303SOL    HW2 7451   0.933   6.473   1.635 -0.9232  0.3949 -1.8795
 2304SOL     OW 7452   7.374   1.185   1.346  0.1224  0.0565 -0.4592
 2304SOL    HW1 7453   7.314   1.150   1.280  0.0558 -3.1352  1.0968
 2304SOL    HW2 7454   7.317   1.224   1.412 -0.3020 -1.9657  0.4609
 2305SOL     OW 7455   3.667   3.788   1.947  0.2853  0.0609  0.0443
 2305SOL    HW1 7456   3.588   3.735   1.945  0.9703 -0.9861 -0.0545
 2305SOL    HW2 7457   3.678   3.812   2.039 -0.9198  1.4486 -0.1385
 2306SOL     OW 7458   5.482   1.617   3.349 -0.0358 -0.2004  0.4001
 2306SOL    HW1 7459   5.532   1.658   3.420  0.0930 -0.5765  0.5284
 2306SOL    HW2 7460   5.470   1.526   3.378  0.8436 -0.6194 -0.4902
 2307SOL     OW 7461   5.665   4.346   2.383  0.0804  0.1983 -0.0266
 2307SOL    HW1 7462   5.671   4.288   2.459 -1.6534 -1.4413 -1.0693
 2307SOL    HW2 7463   5.574   4.379   2.386  0.0059  0.1483 -1.3604
 2308SOL     OW 7464   5.496   7.444   4.839  0.3362 -0.2720  0.4573
 2308SOL    HW1 7465   5.431   7.495   4.791  1.8328  1.2916 -0.0084
 2308SOL    HW2 7466   5.492   7.479   4.928  3.1350  2.6975 -0.3981
 2309SOL     OW 7467   0.695   4.903   4.345  0.5313  0.6571  0.5394
 2309SOL    HW1 7468   0.714   4.876   4.255  0.3692 -0.6182  0.8635
 2309SOL    HW2 7469   0.650   4.987   4.336 -0.5293 -0.0052 -0.6430
 2310SOL     OW 7470   3.163   5.300   1.621 -0.2518  0.1120  0.4493
 2310SOL    HW1 7471   3.136   5.209   1.634  0.8140 -0.4306 -0.8783
 2310SOL    HW2 7472   3.089   5.351   1.652 -1.1376 -1.2228  0.6316
 2311SOL     OW 7473   2.138   1.581   2.862  0.0908  0.1058  0.1952
 2311SOL    HW1 7474   2.212   1.605   2.807  0.1567  1.4477  0.8557
 2311SOL    HW2 7475   2.170   1.509   2.916  0.2369 -0.7571 -1.0005
 2312SOL     OW 7476   0.622   2.657   4.957  0.5115 -0.2871 -0.6612
 2312SOL    HW1 7477   0.668   2.602   4.893 -1.0359 -0.9262 -1.2905
 2312SOL    HW2 7478   0.530   2.653   4.929  0.0268  0.6768  0.7193
 2313SOL     OW 7479   2.758   6.890   0.605 -0.5678  0.5867  0.0024
 2313SOL    HW1 7480   2.693   6.826   0.636 -0.3214  0.4671  0.2769
 2313SOL    HW2 7481   2.745   6.894   0.511  0.7224 -1.3450 -0.3130
 2314SOL     OW 7482   6.823   3.258   6.451  0.4104  0.2955  0.3831
 2314SOL    HW1 7483   6.758   3.188   6.454  2.5497 -1.8832 -0.5582
 2314SOL    HW2 7484   6.797   3.311   6.375 -0.3518 -0.4510  0.1046
 2315SOL     OW 7485   4.029   1.184   1.449 -0.1319  0.3916  0.0661
 2315SOL    HW1 7486   3.950   1.235   1.430  0.1292 -0.2633 -3.3531
 2315SOL    HW2 7487   4.012   1.146   1.536 -2.7089  1.7908  0.2869
 2316SOL     OW 7488   5.871   6.612   5.812  0.1906  0.5415 -0.0414
 2316SOL    HW1 7489   5.950   6.607   5.759 -0.2679 -3.0098 -0.6017
 2316SOL    HW2 7490   5.896   6.577   5.897 -0.9548 -2.0212 -0.6514
 2317SOL     OW 7491   1.604   3.824   3.932  0.0968  0.4345 -0.0151
 2317SOL    HW1 7492   1.594   3.913   3.898 -0.2614  0.9660  1.4143
 2317SOL    HW2 7493   1.514   3.796   3.951  0.3006  0.2976  0.7920
 2318SOL     OW 7494   2.562   3.138   4.310  0.9103  0.0564 -0.1487
 2318SOL    HW1 7495   2.631   3.081   4.276 -1.1167 -2.9660  0.4361
 2318SOL    HW2 7496   2.535   3.097   4.392  0.4177  2.8556  1.2182
 2319SOL     OW 7497   0.574   7.322   0.783  0.3923 -0.5828  0.1385
 2319SOL    HW1 7498   0.532   7.333   0.698 -1.8240 -0.6364  1.1772
 2319SOL    HW2 7499   0.557   7.403   0.830  0.3288 -1.1059  1.0477
 2320SOL     OW 7500   3.118   6.188   0.695 -0.1709 -0.2452 -0.2542
 2320SOL    HW1 7501   3.028   6.199   0.722 -0.2595 -2.0956  0.3497
 2320SOL    HW2 7502   3.113   6.134   0.616  0.3882  0.1330 -0.5589
 2321SOL     OW 7503   0.978   1.939   4.535 -0.8301  0.4394 -0.3904
 2321SOL    HW1 7504   0.933   1.898   4.609  1.2680  0.5083  0.9960
 2321SOL    HW2 7505   1.019   1.866   4.488  0.9780  0.6546  0.7515
 2322SOL     OW 7506   1.749   4.893   5.726 -0.2266  0.3910  0.1279
 2322SOL    HW1 7507   1.668   4.940   5.747  0.4287  2.2696 -1.3133
 2322SOL    HW2 7508   1.763   4.910   5.633  1.1779 -0.9835  0.0463
 2323SOL     OW 7509   1.104   4.980   2.835  0.0715  0.8911 -0.4547
 2323SOL    HW1 7510   1.112   5.002   2.742  1.9369 -0.2443 -0.6387
 2323SOL    HW2 7511   1.157   5.046   2.879  0.5897  0.4503 -0.3991
 2324SOL     OW 7512   2.524   6.614   5.732  0.1379 -0.0852 -0.3679
 2324SOL    HW1 7513   2.543   6.656   5.816  1.6409 -0.1144 -0.6846
 2324SOL    HW2 7514   2.538   6.683   5.667 -1.2733  0.0100 -0.6102
 2325SOL     OW 7515   1.203   2.574   3.968 -0.0544 -0.6331 -0.4223
 2325SOL    HW1 7516   1.159   2.658   3.980  0.1811 -0.6068  0.2953
 2325SOL    HW2 7517   1.178   2.522   4.045  2.7686  0.0941  1.1135
 2326SOL     OW 7518   6.698   1.793   4.927 -0.3277  0.0355  0.5159
 2326SOL    HW1 7519   6.717   1.860   4.862 -1.0751  0.5158  0.7763
 2326SOL    HW2 7520   6.667   1.718   4.876 -1.9965  0.7978  0.3710
 2327SOL     OW 7521   7.331   1.036   3.515 -0.4463  1.1908 -0.2267
 2327SOL    HW1 7522   7.378   1.046   3.432 -0.1221 -1.1393 -0.4032
 2327SOL    HW2 7523   7.240   1.021   3.489 -0.6006  1.8256 -0.0729
 2328SOL     OW 7524   3.759   7.536   3.700 -0.0151 -0.3458  0.3622
 2328SOL    HW1 7525   3.790   7.624   3.681 -1.3781  0.1107  0.1173
 2328SOL    HW2 7526   3.811   7.508   3.776  0.8293  0.4318  0.0856
 2329SOL     OW 7527   0.540   0.093   2.401  0.4333 -0.3403  0.5527
 2329SOL    HW1 7528   0.539   0.187   2.381  0.0633 -0.0825  1.7188
 2329SOL    HW2 7529   0.631   0.067   2.388  0.2093 -0.2391 -1.5309
 2330SOL     OW 7530   2.280   3.685   0.529  0.1300 -0.2487  0.0052
 2330SOL    HW1 7531   2.289   3.595   0.498  0.3132  0.1055 -1.0170
 2330SOL    HW2 7532   2.213   3.681   0.596  0.8239 -1.3044  0.6590
 2331SOL     OW 7533   5.115   1.904   1.593 -0.0282  0.0251 -0.3280
 2331SOL    HW1 7534   5.105   1.930   1.685 -0.1465 -1.3674  0.0755
 2331SOL    HW2 7535   5.188   1.842   1.594  0.4833  0.6032 -1.3074
 2332SOL     OW 7536   1.555   6.973   0.132 -0.1346 -0.2686 -0.7739
 2332SOL    HW1 7537   1.490   7.001   0.066  1.4865  1.1455 -1.8726
 2332SOL    HW2 7538   1.518   7.001   0.215 -0.6196  1.2463 -1.4548
 2333SOL     OW 7539   7.049   4.428   2.686 -0.1270  0.5988 -0.4217
 2333SOL    HW1 7540   7.042   4.338   2.656 -0.9381  0.4558  0.1698
 2333SOL    HW2 7541   6.963   4.466   2.670  0.2536  1.3203 -0.8151
 2334SOL     OW 7542   0.042   2.574   4.904 -0.4064 -0.5770 -0.3359
 2334SOL    HW1 7543  -0.003   2.659   4.905 -0.3193 -0.4776 -1.9031
 2334SOL    HW2 7544   0.109   2.582   4.972  0.3892  1.1007 -1.2336
 2335SOL     OW 7545   3.392   6.494   5.801  0.0506 -0.2221 -0.4770
 2335SOL    HW1 7546   3.466   6.433   5.795  1.0844  0.9549 -0.1049
 2335SOL    HW2 7547   3.317   6.438   5.822  1.2939 -1.1913  1.7798
 2336SOL     OW 7548   6.089   4.110   0.170 -0.0048  0.4779  0.5101
 2336SOL    HW1 7549   6.055   4.150   0.251  1.0096 -1.6536  2.0930
 2336SOL    HW2 7550   6.022   4.045   0.146  0.0782  0.5460  0.0923
 2337SOL     OW 7551   7.560   4.017   5.382  0.2549  0.1496 -0.3660
 2337SOL    HW1 7552   7.651   4.041   5.398  0.4787 -0.4657 -0.6714
 2337SOL    HW2 7553   7.527   3.990   5.468  0.1848  0.9288 -0.1438
 2338SOL     OW 7554   3.247   3.959   4.730 -0.0007  0.4483 -0.4307
 2338SOL    HW1 7555   3.249   3.979   4.636  1.1668  1.3574 -0.2455
 2338SOL    HW2 7556   3.187   4.024   4.767 -0.4182  0.1256 -0.5369
 2339SOL     OW 7557   6.739   1.785   6.866  0.6304 -0.5020  0.0365
 2339SOL    HW1 7558   6.693   1.868   6.855  1.4233  0.0081  0.4164
 2339SOL    HW2 7559   6.737   1.745   6.779 -0.5833 -0.5418  0.0693
 2340SOL     OW 7560   3.145   3.365   4.127 -0.1294  0.1144 -0.6659
 2340SOL    HW1 7561   3.090   3.427   4.174 -0.2658 -0.4748 -0.0367
 2340SOL    HW2 7562   3.104   3.280   4.142 -0.9135  0.0224 -2.8688
 2341SOL     OW 7563   4.275   2.840   7.334 -0.5938 -0.4291  0.1951
 2341SOL    HW1 7564   4.292   2.874   7.246 -0.0052 -2.6967 -0.6315
 2341SOL    HW2 7565   4.183   2.814   7.332 -0.7088 -0.0532  0.4246
 2342SOL     OW 7566   1.351   7.530   5.593 -0.2402 -0.1645  0.0187
 2342SOL    HW1 7567   1.407   7.551   5.518 -0.2141 -0.0910  0.0578
 2342SOL    HW2 7568   1.274   7.585   5.582 -0.0834  0.1013  0.2265
 2343SOL     OW 7569   2.380   1.237   1.619 -0.4274 -0.0760  0.1590
 2343SOL    HW1 7570   2.466   1.278   1.622  0.6282 -2.1563  0.7179
 2343SOL    HW2 7571   2.344   1.250   1.707  0.4638 -1.3871  0.7479
 2344SOL     OW 7572   4.843   6.274   3.601  0.1469  0.6283  0.3104
 2344SOL    HW1 7573   4.809   6.243   3.517 -0.1570 -1.3040  1.1086
 2344SOL    HW2 7574   4.933   6.241   3.604 -0.1841 -0.2315  1.1805
 2345SOL     OW 7575   7.073   4.090   6.622  0.6977  0.3920  0.3741
 2345SOL    HW1 7576   7.141   4.128   6.567  0.6655 -0.4958 -0.2952
 2345SOL    HW2 7577   6.993   4.098   6.570  0.2410  1.5241  1.1959
 2346SOL     OW 7578   0.096   3.792   5.849  0.6893  0.0539 -0.3650
 2346SOL    HW1 7579   0.112   3.879   5.812  1.3966 -0.2786 -0.8466
 2346SOL    HW2 7580   0.054   3.743   5.779  0.3336 -0.0182 -0.1080
 2347SOL     OW 7581   4.930   2.173   1.715  0.4875 -0.0948 -0.5156
 2347SOL    HW1 7582   4.859   2.238   1.721  1.3273  0.7902  0.1365
 2347SOL    HW2 7583   5.005   2.224   1.686  1.4576 -0.5539  1.0959
 2348SOL     OW 7584   0.875   2.951   3.425 -0.3590 -0.5865 -0.9588
 2348SOL    HW1 7585   0.856   2.861   3.451 -0.7031 -0.4323 -0.6699
 2348SOL    HW2 7586   0.885   2.998   3.508  1.6384 -0.7204 -1.0642
 2349SOL     OW 7587   3.599   4.000   4.514  0.2187  0.3677  0.4613
 2349SOL    HW1 7588   3.604   4.058   4.439  1.9259 -0.8791 -0.4515
 2349SOL    HW2 7589   3.674   3.942   4.505 -1.1025 -1.6472  1.6005
 2350SOL     OW 7590   2.739   7.564   3.385  0.9087  0.3582  0.0899
 2350SOL    HW1 7591   2.807   7.516   3.339  0.3774 -0.1392 -0.1818
 2350SOL    HW2 7592   2.786   7.610   3.455  1.3659 -0.9226  0.6577
 2351SOL     OW 7593   0.278   5.415   2.084 -0.4064  0.0265  0.0573
 2351SOL    HW1 7594   0.297   5.506   2.108  1.6134 -0.4575  0.4235
 2351SOL    HW2 7595   0.209   5.423   2.018  0.7946  1.9398 -1.0893
 2352SOL     OW 7596   6.890   6.900   2.182 -0.3116  0.6982  0.0600
 2352SOL    HW1 7597   6.867   6.992   2.195 -0.1930  0.6814  0.3988
 2352SOL    HW2 7598   6.935   6.875   2.263  0.0265  0.4579 -0.2014
 2353SOL     OW 7599   5.887   5.717   0.369 -0.0189 -0.4809  0.4741
 2353SOL    HW1 7600   5.884   5.812   0.363 -0.8537 -0.3781  2.0410
 2353SOL    HW2 7601   5.897   5.688   0.278  0.9256  1.1024  0.0351
 2354SOL     OW 7602   1.123   2.585   7.070  0.3173  0.5101  0.0984
 2354SOL    HW1 7603   1.178   2.506   7.077  4.3744  2.9800 -0.8669
 2354SOL    HW2 7604   1.085   2.595   7.158  2.1913 -0.8429  1.1356
 2355SOL     OW 7605   5.520   1.553   4.634 -0.0624 -0.3457 -0.2679
 2355SOL    HW1 7606   5.532   1.501   4.713  0.2188  3.0487  2.1543
 2355SOL    HW2 7607   5.433   1.529   4.602 -0.1710 -1.8299  1.0209
 2356SOL     OW 7608   1.164   5.866   7.056 -0.2924  0.0262  0.3448
 2356SOL    HW1 7609   1.215   5.837   7.131 -1.4153 -0.4224  0.9552
 2356SOL    HW2 7610   1.108   5.936   7.090 -0.2538  0.3570 -0.2566
 2357SOL     OW 7611   4.313   4.389   6.431 -0.0644  0.0345 -0.5152
 2357SOL    HW1 7612   4.272   4.303   6.440 -2.0473  1.0032  0.1266
 2357SOL    HW2 7613   4.254   4.438   6.374  0.6788  1.2145 -0.3096
 2358SOL     OW 7614   1.693   4.432   7.612 -0.2100 -0.2034  0.2874
 2358SOL    HW1 7615   1.626   4.466   7.671 -0.1146  0.1837  0.1730
 2358SOL    HW2 7616   1.666   4.461   7.525  0.4354  0.4919  0.3099
 2359SOL     OW 7617   6.362   3.241   4.949 -0.5763  0.4074 -0.0909
 2359SOL    HW1 7618   6.300   3.251   5.022 -2.1942  0.6771 -1.4590
 2359SOL    HW2 7619   6.409   3.324   4.947 -0.3921  0.3349  0.7449
 2360SOL     OW 7620   0.512   0.566   0.845 -0.0851  0.2245  0.0755
 2360SOL    HW1 7621   0.595   0.555   0.798 -0.1304  1.5650 -0.3671
 2360SOL    HW2 7622   0.450   0.593   0.778 -0.1127  2.3496  0.8907
 2361SOL     OW 7623   5.031   0.792   6.122 -0.1652 -0.4680 -0.1257
 2361SOL    HW1 7624   4.988   0.875   6.103  0.0071  0.1248  1.8401
 2361SOL    HW2 7625   4.993   0.730   6.060 -1.1021  0.8437 -0.8961
 2362SOL     OW 7626   3.111   7.580   7.508 -0.5373  0.2400  0.5122
 2362SOL    HW1 7627   3.084   7.514   7.444  0.7599 -0.2189  0.4137
 2362SOL    HW2 7628   3.040   7.645   7.506 -0.3052  0.5121 -1.8031
 2363SOL     OW 7629   6.484   2.691   1.773  0.6608 -0.7810  0.0012
 2363SOL    HW1 7630   6.537   2.646   1.838 -1.2349 -1.0430  1.4677
 2363SOL    HW2 7631   6.401   2.642   1.772 -0.5505  1.1543 -0.1839
 2364SOL     OW 7632   0.933   5.010   4.172  0.1887  0.2623 -1.0497
 2364SOL    HW1 7633   0.875   5.067   4.224 -0.9715 -1.2772 -0.5696
 2364SOL    HW2 7634   0.948   5.059   4.091 -1.6461  0.8266 -1.1074
 2365SOL     OW 7635   6.008   5.192   7.358 -0.2161 -0.4124 -0.0273
 2365SOL    HW1 7636   6.050   5.106   7.368  1.4828  0.4324  0.5394
 2365SOL    HW2 7637   6.026   5.217   7.268 -0.4109 -0.5064 -0.0919
 2366SOL     OW 7638   6.909   7.177   5.240  0.4254 -0.2201  0.7035
 2366SOL    HW1 7639   7.003   7.187   5.250  0.6148 -0.6453 -0.4457
 2366SOL    HW2 7640   6.874   7.266   5.248  1.0905  0.1575 -0.3350
 2367SOL     OW 7641   3.381   0.228   2.409 -0.6194 -0.4163 -0.0731
 2367SOL    HW1 7642   3.325   0.238   2.485 -0.1195 -2.1690  0.5840
 2367SOL    HW2 7643   3.447   0.297   2.419 -0.7793 -0.3842  0.8779
 2368SOL     OW 7644   6.691   2.143   2.132  0.6411  0.0021 -0.2333
 2368SOL    HW1 7645   6.715   2.054   2.106  0.4128  0.0098 -0.4723
 2368SOL    HW2 7646   6.751   2.199   2.083  1.4587 -0.0562  0.6792
 2369SOL     OW 7647   3.475   6.152   3.339  0.2389 -0.7070 -0.4419
 2369SOL    HW1 7648   3.513   6.083   3.393  2.0517 -0.1775 -0.9785
 2369SOL    HW2 7649   3.388   6.120   3.317  0.0648 -1.6421  1.4627
 2370SOL     OW 7650   5.407   0.936   4.250 -0.0526 -0.4184 -0.6572
 2370SOL    HW1 7651   5.477   0.954   4.312 -0.8000  1.4973 -0.2775
 2370SOL    HW2 7652   5.450   0.936   4.165  0.9252 -2.7122 -0.2235
 2371SOL     OW 7653   1.548   4.139   1.242  0.3287  0.1870  0.8160
 2371SOL    HW1 7654   1.521   4.089   1.165  1.7902  0.9707 -0.2515
 2371SOL    HW2 7655   1.487   4.213   1.245 -0.0740 -0.1376  0.7428
 2372SOL     OW 7656   7.377   6.476   2.902 -0.2633 -0.3068  0.1719
 2372SOL    HW1 7657   7.357   6.543   2.836  1.7375  1.6050  1.4019
 2372SOL    HW2 7658   7.472   6.467   2.899 -0.0528  0.1312  2.9995
 2373SOL     OW 7659   1.386   0.546   0.622 -0.0538  0.7424  0.1346
 2373SOL    HW1 7660   1.404   0.557   0.529  0.3342 -1.3572 -0.0958
 2373SOL    HW2 7661   1.350   0.457   0.629 -0.5071  1.0208  1.9300
 2374SOL     OW 7662   5.932   0.060   7.424 -0.1271 -0.2767 -0.1329
 2374SOL    HW1 7663   5.960   0.151   7.414  1.4917 -0.5655  1.2350
 2374SOL    HW2 7664   5.983   0.011   7.359 -0.6378 -0.2743 -0.5399
 2375SOL     OW 7665   4.723   1.198   5.087  1.0474 -0.2764  0.2738
 2375SOL    HW1 7666   4.810   1.231   5.112  1.4826 -1.0479 -0.1871
 2375SOL    HW2 7667   4.719   1.208   4.992  0.8783 -0.8124  0.2209
 2376SOL     OW 7668   5.142   1.581   5.737  0.1722 -0.0063  0.1699
 2376SOL    HW1 7669   5.159   1.503   5.790 -0.4929 -1.8839 -2.2256
 2376SOL    HW2 7670   5.197   1.570   5.660 -2.5553  0.0045 -1.9136
 2377SOL     OW 7671   7.536   3.021   7.327  0.1952  0.3365  0.1023
 2377SOL    HW1 7672   7.486   3.102   7.341 -0.6931 -0.0582 -0.6743
 2377SOL    HW2 7673   7.627   3.046   7.339 -0.2141  0.6445  3.8281
 2378SOL     OW 7674   3.474   6.242   4.605 -0.5819  0.5405 -0.0207
 2378SOL    HW1 7675   3.489   6.167   4.662  2.5275 -0.1924 -1.5809
 2378SOL    HW2 7676   3.470   6.317   4.664  0.1611 -0.4245  1.3094
 2379SOL     OW 7677   1.923   3.357   2.139 -0.4695  0.0469 -0.1243
 2379SOL    HW1 7678   2.014   3.354   2.169 -0.3908 -1.8218 -0.4147
 2379SOL    HW2 7679   1.912   3.445   2.102  0.3590  1.3121  2.4298
 2380SOL     OW 7680   5.472   6.625   2.727 -0.2405 -0.5827 -0.0754
 2380SOL    HW1 7681   5.522   6.606   2.647  1.4292  1.0768  0.5195
 2380SOL    HW2 7682   5.507   6.565   2.792  1.2166  0.7468  0.4053
 2381SOL     OW 7683   1.867   1.677   7.455  0.1900 -0.0384 -0.3201
 2381SOL    HW1 7684   1.778   1.670   7.489  0.5937 -0.0715  0.7721
 2381SOL    HW2 7685   1.886   1.590   7.421  0.0697 -0.2574  0.1556
 2382SOL     OW 7686   2.951   6.857   3.609  0.1482 -0.2469 -0.1769
 2382SOL    HW1 7687   2.960   6.870   3.515 -0.9352  1.3596 -0.0907
 2382SOL    HW2 7688   2.865   6.816   3.620 -0.5626  1.2761  0.2049
 2383SOL     OW 7689   1.408   4.161   4.653 -0.0513  0.2647  0.0831
 2383SOL    HW1 7690   1.447   4.195   4.734 -0.9798  1.1956  0.1594
 2383SOL    HW2 7691   1.466   4.190   4.584  0.7641 -0.5561  0.3997
 2384SOL     OW 7692   7.397   3.445   1.621  0.2321  0.6173  0.2238
 2384SOL    HW1 7693   7.480   3.433   1.573 -1.7240 -0.9081 -3.1876
 2384SOL    HW2 7694   7.354   3.518   1.575 -1.0663  0.1753  0.7059
 2385SOL     OW 7695   2.706   3.201   0.205  0.2717 -0.3819  0.3572
 2385SOL    HW1 7696   2.732   3.293   0.204  1.7715 -0.7449  1.6073
 2385SOL    HW2 7697   2.668   3.186   0.118 -1.3683  1.7517  0.6310
 2386SOL     OW 7698   1.788   6.266   3.059  0.4252  0.1189  0.4311
 2386SOL    HW1 7699   1.717   6.313   3.016  1.4389  2.0692  0.7958
 2386SOL    HW2 7700   1.745   6.217   3.129 -0.8421 -0.6855 -0.8470
 2387SOL     OW 7701   3.846   1.568   6.011 -0.0741 -0.5478 -0.6627
 2387SOL    HW1 7702   3.876   1.641   5.956 -0.4829  1.0805  1.1382
 2387SOL    HW2 7703   3.918   1.506   6.009  1.6346  1.2765  0.0500
 2388SOL     OW 7704   0.311   4.916   1.009  0.2705  0.0302 -0.1620
 2388SOL    HW1 7705   0.255   4.971   1.064  1.0832  2.2576 -1.4448
 2388SOL    HW2 7706   0.395   4.960   1.010  1.0081 -1.2998 -1.1751
 2389SOL     OW 7707   0.407   0.523   2.999 -0.4359  0.2419  0.5613
 2389SOL    HW1 7708   0.471   0.463   3.036 -2.2938 -2.1477  0.1298
 2389SOL    HW2 7709   0.418   0.516   2.905 -1.5008 -0.4704  0.4670
 2390SOL     OW 7710   2.461   6.826   4.745  0.0085  0.4806  0.2502
 2390SOL    HW1 7711   2.488   6.750   4.693  0.2396  0.0372  1.0001
 2390SOL    HW2 7712   2.443   6.790   4.832  0.6388  1.3643  0.7569
 2391SOL     OW 7713   2.702   4.405   7.557 -0.2468 -0.4361  0.1790
 2391SOL    HW1 7714   2.649   4.466   7.608  1.5212  0.5382  0.9525
 2391SOL    HW2 7715   2.732   4.340   7.621  1.3266  0.3324  0.2641
 2392SOL     OW 7716   1.257   1.829   4.619  0.0079 -0.2444  0.4741
 2392SOL    HW1 7717   1.195   1.756   4.620 -1.4095  0.9126  0.5213
 2392SOL    HW2 7718   1.235   1.880   4.698  0.5014  0.5947  0.0794
 2393SOL     OW 7719   0.024   6.972   0.350  0.6639 -0.0866 -0.2221
 2393SOL    HW1 7720  -0.055   6.962   0.297  2.5287 -2.0202 -2.8878
 2393SOL    HW2 7721   0.068   7.049   0.313  0.4577  0.5240  0.7539
 2394SOL     OW 7722   4.895   7.095   3.117  0.1846  0.2257 -0.3694
 2394SOL    HW1 7723   4.956   7.128   3.051 -0.6392  0.6812 -0.9166
 2394SOL    HW2 7724   4.883   7.002   3.094  0.9782  0.0205 -0.0048
 2395SOL     OW 7725   4.096   2.963   1.923 -0.2621  0.6450 -0.0855
 2395SOL    HW1 7726   4.028   2.913   1.969  0.6216 -0.3219  0.2024
 2395SOL    HW2 7727   4.048   3.013   1.858 -1.2565 -0.0620  0.0711
 2396SOL     OW 7728   0.831   3.877   3.788 -0.4841 -0.3430 -0.4290
 2396SOL    HW1 7729   0.891   3.814   3.825  0.3744  0.0063 -1.1957
 2396SOL    HW2 7730   0.756   3.825   3.759 -1.2686 -0.6259  1.8330
 2397SOL     OW 7731   2.082   6.674   1.367 -0.1545 -0.0500  0.1743
 2397SOL    HW1 7732   2.123   6.721   1.294 -0.4964  1.5393  0.9455
 2397SOL    HW2 7733   2.006   6.728   1.390  0.4395 -0.0210  2.2554
 2398SOL     OW 7734   6.711   6.420   4.096 -0.3706 -0.1982  0.2245
 2398SOL    HW1 7735   6.699   6.503   4.050 -0.1293 -0.4922 -0.3767
 2398SOL    HW2 7736   6.639   6.365   4.065 -0.6234 -0.1636  0.7424
 2399SOL     OW 7737   4.465   3.484   2.752 -0.3154  0.6720 -0.1536
 2399SOL    HW1 7738   4.527   3.429   2.800 -0.9213  0.8474  0.8583
 2399SOL    HW2 7739   4.452   3.438   2.669  0.5803  0.2434 -0.0674
 2400SOL     OW 7740   1.728   1.868   5.739  0.4875 -0.1682  0.4081
 2400SOL    HW1 7741   1.784   1.792   5.756  0.6067 -0.0950  0.3398
 2400SOL    HW2 7742   1.646   1.830   5.706  1.2231 -0.1880 -1.5072
 2401SOL     OW 7743   5.238   5.778   3.043 -0.2597 -0.5564 -0.4100
 2401SOL    HW1 7744   5.235   5.872   3.024  0.4955 -0.3725  0.3400
 2401SOL    HW2 7745   5.181   5.767   3.119  1.3881 -0.3169  0.9277
 2402SOL     OW 7746   6.226   4.951   3.886  0.1503  0.4634 -0.2929
 2402SOL    HW1 7747   6.171   4.975   3.811  1.5792  1.3853 -1.0990
 2402SOL    HW2 7748   6.226   5.029   3.942 -1.6699 -0.5317  1.2269
 2403SOL     OW 7749   4.007   1.992   7.254  0.0828  0.1374 -0.2726
 2403SOL    HW1 7750   3.923   2.029   7.226 -0.3819 -0.6625  0.0468
 2403SOL    HW2 7751   4.062   2.068   7.272 -0.1759  0.6848 -1.6329
 2404SOL     OW 7752   0.904   3.023   1.444  0.1018 -0.6017 -0.1458
 2404SOL    HW1 7753   0.923   3.068   1.362  1.9142  0.3783  0.7574
 2404SOL    HW2 7754   0.923   3.088   1.512 -3.4439 -0.6295  1.0656
 2405SOL     OW 7755   7.582   6.681   5.292  0.2865 -0.4382 -0.1299
 2405SOL    HW1 7756   7.502   6.698   5.242  0.3156 -0.1781 -0.0930
 2405SOL    HW2 7757   7.553   6.679   5.383  0.3078 -0.4166 -0.1224
 2406SOL     OW 7758   6.787   3.417   4.975  0.6117 -0.1202  0.1615
 2406SOL    HW1 7759   6.818   3.483   5.038  0.2984 -0.1881  0.3885
 2406SOL    HW2 7760   6.866   3.388   4.929  0.7163  0.6369 -0.1557
 2407SOL     OW 7761   0.403   0.870   0.933 -0.1957  0.3783  0.0611
 2407SOL    HW1 7762   0.476   0.848   0.875 -0.1474  2.2132 -0.6271
 2407SOL    HW2 7763   0.444   0.879   1.020  0.1036 -0.2492 -0.0124
 2408SOL     OW 7764   7.146   1.856   7.184  0.1594 -0.8744  0.2148
 2408SOL    HW1 7765   7.229   1.840   7.139  0.1949  0.9896 -0.4516
 2408SOL    HW2 7766   7.143   1.950   7.198 -2.1130 -0.8072 -0.3089
 2409SOL     OW 7767   1.463   4.149   2.693 -0.2278 -0.5340 -0.2394
 2409SOL    HW1 7768   1.504   4.132   2.778  2.4302  0.2119 -1.2628
 2409SOL    HW2 7769   1.398   4.217   2.711  0.5952 -0.0673  1.1251
 2410SOL     OW 7770   7.274   3.978   1.033 -0.5328 -0.1564  0.4625
 2410SOL    HW1 7771   7.283   3.948   0.942 -0.7403 -1.5427  0.8653
 2410SOL    HW2 7772   7.181   4.001   1.042 -0.2553  1.2453 -0.0137
 2411SOL     OW 7773   2.560   1.898   5.418 -0.6248 -0.7953  0.3238
 2411SOL    HW1 7774   2.553   1.985   5.379 -1.3117 -0.2419  1.6221
 2411SOL    HW2 7775   2.509   1.842   5.359  0.3447 -0.4742 -0.8643
 2412SOL     OW 7776   6.473   1.299   4.516  0.1066 -0.1640  0.1250
 2412SOL    HW1 7777   6.468   1.211   4.555  0.9571  0.3812  1.5667
 2412SOL    HW2 7778   6.398   1.345   4.553 -0.0585 -0.1444 -0.2387
 2413SOL     OW 7779   4.328   2.600   4.126  0.1119  0.0210 -0.1800
 2413SOL    HW1 7780   4.374   2.624   4.045  0.8566 -0.8651 -0.0374
 2413SOL    HW2 7781   4.238   2.581   4.098  0.2031  0.3211 -0.6937
 2414SOL     OW 7782   4.359   6.456   3.578  0.3301 -0.3019  0.4875
 2414SOL    HW1 7783   4.402   6.522   3.524 -1.7328 -0.1193 -1.1140
 2414SOL    HW2 7784   4.266   6.468   3.559 -0.1716 -3.1618  0.7213
 2415SOL     OW 7785   3.213   2.450   5.352  0.4880  0.0067  0.3153
 2415SOL    HW1 7786   3.231   2.506   5.277  1.6170  0.2725  0.7662
 2415SOL    HW2 7787   3.169   2.373   5.315  2.1419 -0.4457 -0.8072
 2416SOL     OW 7788   3.301   6.388   4.416  0.0107 -0.0426 -0.3688
 2416SOL    HW1 7789   3.317   6.476   4.382  2.1144  0.2985  1.3483
 2416SOL    HW2 7790   3.241   6.401   4.489 -0.7203 -0.2223 -0.9221
 2417SOL     OW 7791   6.017   3.796   0.849  0.0296  0.4831  0.4467
 2417SOL    HW1 7792   6.077   3.784   0.776 -1.8905  0.5401 -1.2343
 2417SOL    HW2 7793   6.048   3.875   0.893  1.0394  0.6491 -0.5238
 2418SOL     OW 7794   1.833   6.176   5.550 -0.7196  0.6427 -0.6354
 2418SOL    HW1 7795   1.866   6.098   5.506  2.3892  1.1887  0.5105
 2418SOL    HW2 7796   1.757   6.203   5.498 -2.1059 -3.2435 -0.8919
 2419SOL     OW 7797   0.604   6.424   5.479 -0.3442 -0.1096 -0.3989
 2419SOL    HW1 7798   0.538   6.415   5.410  0.1107  1.0195 -1.0143
 2419SOL    HW2 7799   0.580   6.506   5.524  0.3426  0.0482 -0.3127
 2420SOL     OW 7800   2.308   6.034   3.637  0.4461  0.7482 -0.2362
 2420SOL    HW1 7801   2.287   6.029   3.731 -0.1536 -3.8813 -0.3889
 2420SOL    HW2 7802   2.223   6.032   3.594  0.7419 -1.8552 -0.8090
 2421SOL     OW 7803   4.832   0.035   4.293 -0.3827 -0.1362 -0.6348
 2421SOL    HW1 7804   4.922   0.021   4.263 -0.1063  0.0716  0.0942
 2421SOL    HW2 7805   4.838   0.107   4.355 -0.9082 -0.7374  0.1308
 2422SOL     OW 7806   0.317   7.118   6.932 -0.7535  0.5399 -0.3339
 2422SOL    HW1 7807   0.249   7.053   6.952  0.5150 -0.6144  0.4393
 2422SOL    HW2 7808   0.294   7.193   6.987 -0.8511 -0.2298  0.7231
 2423SOL     OW 7809   3.894   4.433   4.299 -0.0096 -0.1440 -0.1095
 2423SOL    HW1 7810   3.968   4.476   4.257  0.3877 -0.1858  0.5366
 2423SOL    HW2 7811   3.901   4.341   4.272  0.1031 -0.1239 -0.1504
 2424SOL     OW 7812   2.132   5.095   6.889  0.3083 -0.3951 -0.4746
 2424SOL    HW1 7813   2.073   5.112   6.963 -0.4056 -3.1742 -0.2995
 2424SOL    HW2 7814   2.219   5.112   6.923 -0.0186 -1.4752  1.0100
 2425SOL     OW 7815   5.699   4.909   7.600 -0.0664  0.6781  0.1330
 2425SOL    HW1 7816   5.738   4.947   7.678 -0.6031  0.7338  0.3807
 2425SOL    HW2 7817   5.654   4.982   7.557  0.1773  0.6352 -0.1956
 2426SOL     OW 7818   0.744   1.522   6.571 -0.1293  0.8050 -0.2392
 2426SOL    HW1 7819   0.658   1.485   6.590  0.5601 -0.7240  0.0116
 2426SOL    HW2 7820   0.780   1.543   6.658 -0.3641  1.7874 -0.3594
 2427SOL     OW 7821   6.157   3.054   0.317 -0.6972  0.1180  0.0700
 2427SOL    HW1 7822   6.167   3.139   0.274 -0.0469  0.1956  0.3632
 2427SOL    HW2 7823   6.177   2.990   0.249 -0.8555  0.2086 -0.0627
 2428SOL     OW 7824   5.935   3.731   1.127  0.2380  0.3593 -0.3740
 2428SOL    HW1 7825   6.009   3.744   1.067  1.5348  1.8623  1.4172
 2428SOL    HW2 7826   5.975   3.700   1.208 -0.7545  3.1598  1.3259
 2429SOL     OW 7827   6.825   3.806   4.026  0.8414 -0.1417  0.3613
 2429SOL    HW1 7828   6.741   3.772   4.056  0.4224 -0.1165 -0.7501
 2429SOL    HW2 7829   6.811   3.900   4.017  0.6230 -0.2798 -0.9303
 2430SOL     OW 7830   6.761   2.841   0.698  0.2540 -0.1066  0.2865
 2430SOL    HW1 7831   6.769   2.847   0.603 -1.2520 -0.3159  0.1182
 2430SOL    HW2 7832   6.824   2.905   0.731 -0.1245  0.9367 -0.9013
 2431SOL     OW 7833   0.628   0.475   6.945 -0.2426  0.0386 -0.1070
 2431SOL    HW1 7834   0.616   0.503   7.035  1.8629  0.3710  0.1245
 2431SOL    HW2 7835   0.693   0.405   6.950 -0.6866 -0.4849 -1.2993
 2432SOL     OW 7836   0.320   2.496   7.424  0.5451  0.2289  0.3073
 2432SOL    HW1 7837   0.352   2.493   7.333  2.1213 -0.1570  0.8325
 2432SOL    HW2 7838   0.234   2.455   7.421  0.7128 -0.0820 -0.9558
 2433SOL     OW 7839   5.229   5.360   3.974 -0.4351 -0.0902 -0.6393
 2433SOL    HW1 7840   5.305   5.309   4.000  0.0564  0.8348 -0.2082
 2433SOL    HW2 7841   5.180   5.303   3.915  0.2074 -0.9652 -0.3409
 2434SOL     OW 7842   5.240   3.321   5.482  0.2751  0.3762 -0.0387
 2434SOL    HW1 7843   5.201   3.239   5.451  1.6216 -0.3475  0.1392
 2434SOL    HW2 7844   5.267   3.302   5.572  1.1443  0.8074 -0.1996
 2435SOL     OW 7845   5.334   3.704   5.935 -0.1676 -0.4298  0.3036
 2435SOL    HW1 7846   5.241   3.681   5.926 -0.2443  0.1619 -0.6488
 2435SOL    HW2 7847   5.363   3.719   5.845  0.3500  1.2924  0.7231
 2436SOL     OW 7848   4.971   6.001   1.600 -0.3970 -0.1220 -0.4346
 2436SOL    HW1 7849   4.964   5.907   1.585 -0.4523 -0.1952  0.0405
 2436SOL    HW2 7850   4.889   6.037   1.567 -1.1899 -0.4599  1.0654
 2437SOL     OW 7851   0.029   0.092   5.447 -0.0822 -0.1050 -0.2022
 2437SOL    HW1 7852   0.060   0.137   5.368 -0.7632  0.2633 -0.2648
 2437SOL    HW2 7853   0.109   0.063   5.491  0.2894 -0.9829 -1.4146
 2438SOL     OW 7854   4.422   4.057   3.641  0.1122  0.0296  0.3155
 2438SOL    HW1 7855   4.470   3.978   3.665  1.4409  0.7985  0.3393
 2438SOL    HW2 7856   4.406   4.101   3.724  1.3407  0.8328  0.1615
 2439SOL     OW 7857   0.718   3.835   6.512 -0.2300 -0.4772  0.3909
 2439SOL    HW1 7858   0.751   3.828   6.602  4.2639  1.3940 -0.8365
 2439SOL    HW2 7859   0.746   3.753   6.470 -0.2964 -0.3728  0.1440
 2440SOL     OW 7860   1.393   6.332   3.401  0.6305  0.1273 -0.3145
 2440SOL    HW1 7861   1.344   6.345   3.320  0.1579  0.6579  0.0472
 2440SOL    HW2 7862   1.332   6.286   3.460  0.6885  0.4488  0.0040
 2441SOL     OW 7863   6.283   7.264   2.216 -0.0692 -0.2631  0.3309
 2441SOL    HW1 7864   6.297   7.353   2.246 -1.2014 -0.5796  1.9254
 2441SOL    HW2 7865   6.298   7.268   2.121 -1.1608  1.8594  0.1862
 2442SOL     OW 7866   2.864   6.818   6.654 -0.2262 -0.2591 -0.0783
 2442SOL    HW1 7867   2.943   6.860   6.689 -1.0940  0.5656  0.9716
 2442SOL    HW2 7868   2.793   6.878   6.678 -1.0228 -0.2467 -2.2665
 2443SOL     OW 7869   5.112   1.937   7.608  0.4950 -0.0042 -0.0935
 2443SOL    HW1 7870   5.089   1.901   7.694  0.2465  0.2578 -0.0474
 2443SOL    HW2 7871   5.039   1.912   7.551  0.0213  0.9293  0.0792
 2444SOL     OW 7872   2.014   4.375   6.857 -0.4201  0.1482 -0.3504
 2444SOL    HW1 7873   1.946   4.426   6.813 -1.0143  0.2525  0.6681
 2444SOL    HW2 7874   2.033   4.425   6.936  0.0236 -0.4770 -0.0598
 2445SOL     OW 7875   1.057   1.745   4.336 -0.3373 -0.0102 -0.6944
 2445SOL    HW1 7876   1.024   1.722   4.249 -1.9627 -1.9820  0.3624
 2445SOL    HW2 7877   1.141   1.700   4.342 -1.8940 -3.0582  0.0271
 2446SOL     OW 7878   0.406   6.372   1.938  0.0115  0.1133  0.2173
 2446SOL    HW1 7879   0.410   6.363   2.033  0.9413 -0.5118  0.1348
 2446SOL    HW2 7880   0.413   6.283   1.905 -0.3265  0.3252 -0.4381
 2447SOL     OW 7881   1.572   2.852   4.949 -0.0914  0.0201  0.1560
 2447SOL    HW1 7882   1.519   2.835   5.028 -1.4942  0.1540 -0.7138
 2447SOL    HW2 7883   1.658   2.875   4.982 -1.0767  1.7232  1.7412
 2448SOL     OW 7884   6.390   3.749   2.173 -0.4976 -0.1554  0.4640
 2448SOL    HW1 7885   6.379   3.794   2.089  0.8323 -1.5039 -0.4976
 2448SOL    HW2 7886   6.390   3.656   2.150 -1.4885 -0.6061  2.1573
 2449SOL     OW 7887   6.117   2.878   0.802 -0.0933 -0.2338  0.2978
 2449SOL    HW1 7888   6.027   2.870   0.832 -0.2876 -0.8026 -0.4077
 2449SOL    HW2 7889   6.114   2.941   0.730 -0.1697 -1.2303 -0.6094
 2450SOL     OW 7890   3.325   5.689   0.324 -0.0989  0.0346  0.3085
 2450SOL    HW1 7891   3.380   5.675   0.247 -0.2087  2.1235 -0.2127
 2450SOL    HW2 7892   3.239   5.659   0.298 -0.4561  1.9794 -0.9418
 2451SOL     OW 7893   6.518   6.247   3.918 -0.1524 -0.1814 -0.0435
 2451SOL    HW1 7894   6.499   6.179   3.983 -1.6853  1.1737  1.0046
 2451SOL    HW2 7895   6.440   6.249   3.863 -0.0215  0.5482 -0.2036
 2452SOL     OW 7896   6.496   3.774   3.674 -0.0819  0.0886 -0.2895
 2452SOL    HW1 7897   6.512   3.822   3.592 -0.7917  0.3017 -0.3078
 2452SOL    HW2 7898   6.453   3.693   3.646 -1.0623  0.5217 -0.0736
 2453SOL     OW 7899   5.925   4.177   3.777 -0.0787  0.1490  0.1040
 2453SOL    HW1 7900   5.892   4.090   3.755  0.0235 -0.4239  2.0572
 2453SOL    HW2 7901   6.019   4.164   3.791  0.0697  0.7314 -0.3287
 2454SOL     OW 7902   0.644   0.607   1.773 -0.3358 -0.3235 -0.1823
 2454SOL    HW1 7903   0.715   0.544   1.781 -0.4570 -0.3250  1.0944
 2454SOL    HW2 7904   0.687   0.692   1.776 -0.2197 -0.3214 -1.4058
 2455SOL     OW 7905   1.936   4.917   1.566 -0.9881 -0.3088 -0.4964
 2455SOL    HW1 7906   1.858   4.862   1.564 -0.3691 -1.2185 -0.5368
 2455SOL    HW2 7907   1.987   4.884   1.641  0.4756 -1.3459 -1.8830
 2456SOL     OW 7908   3.609   2.932   5.240 -0.0364 -0.0184 -0.0869
 2456SOL    HW1 7909   3.618   2.991   5.165 -0.3533 -1.0330 -0.9490
 2456SOL    HW2 7910   3.537   2.874   5.216  0.8226 -1.3118  0.3515
 2457SOL     OW 7911   0.948   7.437   1.272  0.0219 -0.3434  0.3587
 2457SOL    HW1 7912   0.972   7.345   1.266  1.1711  0.0194 -2.4539
 2457SOL    HW2 7913   1.027   7.484   1.244 -1.3184  1.3473 -0.7940
 2458SOL     OW 7914   3.796   4.643   6.869  0.1748 -0.3530  0.4916
 2458SOL    HW1 7915   3.881   4.686   6.879  0.0587 -0.4772  2.4313
 2458SOL    HW2 7916   3.768   4.667   6.781  1.1779  1.6332  0.6375
 2459SOL     OW 7917   7.321   0.572   2.612 -0.1785 -0.2798  0.4351
 2459SOL    HW1 7918   7.406   0.605   2.640 -0.1632 -1.4192  1.8459
 2459SOL    HW2 7919   7.325   0.478   2.631 -1.9659 -0.2540  1.0890
 2460SOL     OW 7920   5.597   2.521   7.483 -0.4158  0.6380  0.1268
 2460SOL    HW1 7921   5.624   2.460   7.551 -0.3763  1.4829  0.8768
 2460SOL    HW2 7922   5.549   2.467   7.420 -0.2668 -0.1862  0.7072
 2461SOL     OW 7923   2.955   1.535   0.385 -0.3352 -0.4823  0.3057
 2461SOL    HW1 7924   2.992   1.448   0.395 -1.2663 -1.1674 -1.6439
 2461SOL    HW2 7925   3.018   1.594   0.427 -0.1681 -2.1438  2.5542
 2462SOL     OW 7926   3.253   1.211   5.616  0.0906 -0.1195 -0.5131
 2462SOL    HW1 7927   3.341   1.246   5.627 -0.2516  0.8647 -0.8075
 2462SOL    HW2 7928   3.260   1.151   5.541  0.6325 -0.5312 -0.1410
 2463SOL     OW 7929   4.829   6.589   5.282  0.0284  0.4849  0.2590
 2463SOL    HW1 7930   4.909   6.641   5.284 -0.6043  1.4799  0.5447
 2463SOL    HW2 7931   4.850   6.510   5.333  1.0251  0.4096 -0.2537
 2464SOL     OW 7932   4.591   3.603   5.923 -0.0706 -0.2914 -0.1249
 2464SOL    HW1 7933   4.648   3.561   5.859 -0.8574  1.3379 -1.9810
 2464SOL    HW2 7934   4.625   3.691   5.933  0.1360 -0.5466  1.8964
 2465SOL     OW 7935   5.253   5.006   5.920  0.2540 -0.0681 -0.0406
 2465SOL    HW1 7936   5.262   5.010   5.824  0.6964  1.5688  0.0343
 2465SOL    HW2 7937   5.172   5.053   5.938  0.2668 -0.2146  0.4065
 2466SOL     OW 7938   1.351   5.851   3.562 -0.6195  0.0440  0.2446
 2466SOL    HW1 7939   1.256   5.850   3.573 -0.7620 -0.1976 -0.8794
 2466SOL    HW2 7940   1.365   5.900   3.481  0.1282 -0.9094 -0.2272
 2467SOL     OW 7941   4.816   7.065   4.591 -0.0971  0.0431 -0.6563
 2467SOL    HW1 7942   4.762   7.003   4.640  1.6181 -0.0086  1.3076
 2467SOL    HW2 7943   4.905   7.033   4.601  0.9421  3.0085  0.8863
 2468SOL     OW 7944   3.657   0.617   1.503 -0.2672 -0.3292  0.6131
 2468SOL    HW1 7945   3.693   0.629   1.592 -0.2498 -0.8678  0.6857
 2468SOL    HW2 7946   3.678   0.525   1.482  2.3850  0.5480 -1.1271
 2469SOL     OW 7947   3.172   7.199   5.510  0.0612 -0.2856  0.5850
 2469SOL    HW1 7948   3.109   7.207   5.581  0.4063  1.2054  0.7714
 2469SOL    HW2 7949   3.126   7.151   5.441  0.0604 -2.7091  2.1524
 2470SOL     OW 7950   4.628   0.003   1.989  0.1967 -0.2544 -0.1368
 2470SOL    HW1 7951   4.676  -0.028   2.066 -0.5600  0.4290  0.6499
 2470SOL    HW2 7952   4.695   0.023   1.924  1.2745  2.9675  1.7372
 2471SOL     OW 7953   0.122   5.851   7.282 -0.0053 -0.1952  0.5665
 2471SOL    HW1 7954   0.213   5.881   7.278  0.0850 -0.3612  1.1787
 2471SOL    HW2 7955   0.082   5.905   7.351 -0.2295 -0.4726  0.6566
 2472SOL     OW 7956   1.613   6.053   3.970  0.0314  0.5506 -0.5024
 2472SOL    HW1 7957   1.700   6.016   3.986  0.3180  0.6811 -1.7012
 2472SOL    HW2 7958   1.559   5.979   3.944 -0.0430  0.5743 -0.4168
 2473SOL     OW 7959   2.812   4.633   2.925  0.1458 -0.3021 -0.4877
 2473SOL    HW1 7960   2.833   4.616   3.016  0.9843 -3.0605 -1.1172
 2473SOL    HW2 7961   2.736   4.578   2.907 -0.5924  0.9126 -1.2458
 2474SOL     OW 7962   3.761   3.623   4.099  0.8467  0.6010  0.1832
 2474SOL    HW1 7963   3.666   3.614   4.094  0.8518 -0.1108  1.1451
 2474SOL    HW2 7964   3.792   3.539   4.134  1.9176  0.4761 -0.9745
 2475SOL     OW 7965   0.218   3.626   3.450  0.2687 -0.1593 -0.1886
 2475SOL    HW1 7966   0.125   3.610   3.430  0.5089 -1.1327 -0.5848
 2475SOL    HW2 7967   0.223   3.719   3.469 -0.8193 -0.1189 -0.0369
 2476SOL     OW 7968   2.615   1.452   4.109 -0.6304 -0.3470 -0.6550
 2476SOL    HW1 7969   2.536   1.419   4.150 -2.0993  0.3581 -2.7579
 2476SOL    HW2 7970   2.680   1.382   4.122 -1.4606 -0.8142  1.3499
 2477SOL     OW 7971   6.565   5.000   2.026  0.0536  0.2648  0.1614
 2477SOL    HW1 7972   6.632   4.986   2.093  0.2951  1.4810  0.2090
 2477SOL    HW2 7973   6.492   5.039   2.074  0.6072  2.1028 -0.3996
 2478SOL     OW 7974   0.697   3.607   5.025 -0.1019 -0.1051  0.2849
 2478SOL    HW1 7975   0.712   3.655   4.944  1.3347  1.6641  1.5255
 2478SOL    HW2 7976   0.686   3.516   4.996 -0.3861  0.5641 -1.9327
 2479SOL     OW 7977   4.375   0.910   3.579 -0.4559  0.1775 -0.1302
 2479SOL    HW1 7978   4.380   0.982   3.643 -1.3126  0.3563 -0.2476
 2479SOL    HW2 7979   4.407   0.833   3.627 -1.2508  0.2761  0.5855
 2480SOL     OW 7980   5.227   7.562   1.739  0.0401 -0.6967  0.3313
 2480SOL    HW1 7981   5.317   7.529   1.736 -0.1698 -1.2153 -0.6939
 2480SOL    HW2 7982   5.236   7.656   1.723  0.2983 -0.9913 -1.5279
 2481SOL     OW 7983   3.165   4.006   3.413 -0.0019 -0.1519  0.2606
 2481SOL    HW1 7984   3.144   4.066   3.484  0.4664  0.6452 -0.2662
 2481SOL    HW2 7985   3.217   3.937   3.455 -1.2164 -0.6553  1.0237
 2482SOL     OW 7986   1.436   5.948   4.224 -0.5879  0.4158 -0.2262
 2482SOL    HW1 7987   1.524   5.983   4.210 -1.0572  1.3447 -0.9711
 2482SOL    HW2 7988   1.380   6.000   4.167 -1.5693 -0.4402 -0.0812
 2483SOL     OW 7989   6.994   0.109   6.043 -0.6311  0.0429  0.4077
 2483SOL    HW1 7990   6.992   0.040   6.110 -0.7056 -0.8871 -0.5214
 2483SOL    HW2 7991   7.086   0.133   6.037 -0.3139 -1.2744 -0.5090
 2484SOL     OW 7992   1.909   0.450   3.358  0.0747 -0.0387  0.7522
 2484SOL    HW1 7993   1.820   0.484   3.368  0.2178  1.4993 -2.0310
 2484SOL    HW2 7994   1.964   0.513   3.404 -0.1744 -0.2931  1.4024
 2485SOL     OW 7995   7.521   0.883   2.088 -0.6545 -0.1418  0.5623
 2485SOL    HW1 7996   7.537   0.836   2.171  0.2680 -0.1347  0.3953
 2485SOL    HW2 7997   7.606   0.885   2.045 -1.4080 -1.4434 -1.0800
 2486SOL     OW 7998   2.108   5.319   0.296 -0.3771  0.0239 -0.8934
 2486SOL    HW1 7999   2.040   5.360   0.242  0.1894  0.4297 -1.3081
 2486SOL    HW2 8000   2.070   5.235   0.322 -0.5530 -0.3190 -2.1840
 2487SOL     OW 8001   3.532   1.067   2.224  0.0064  0.2451 -0.4451
 2487SOL    HW1 8002   3.593   1.002   2.258 -0.8553 -0.2500  0.2247
 2487SOL    HW2 8003   3.477   1.018   2.162 -1.3446  0.0361  0.8624
 2488SOL     OW 8004   1.251   0.154   6.364  0.0325  0.4058 -0.7832
 2488SOL    HW1 8005   1.189   0.203   6.420 -0.7395  0.2259 -1.4626
 2488SOL    HW2 8006   1.328   0.210   6.360  1.4302 -0.8951  3.0061
 2489SOL     OW 8007   4.074   4.113   7.372  0.4747 -0.5935 -0.4907
 2489SOL    HW1 8008   4.124   4.033   7.354 -0.0840 -0.6801 -1.7435
 2489SOL    HW2 8009   3.987   4.096   7.335  0.3291  0.5637 -0.7121
 2490SOL     OW 8010   3.067   2.299   0.271  0.1587  0.2725  0.5554
 2490SOL    HW1 8011   3.048   2.362   0.340 -1.1727 -0.5916  1.0137
 2490SOL    HW2 8012   3.057   2.214   0.312  0.7465 -0.2600 -0.3606
 2491SOL     OW 8013   3.298   7.388   4.237  0.3957 -0.0157 -0.2363
 2491SOL    HW1 8014   3.332   7.348   4.317 -1.1978 -0.2758  0.3300
 2491SOL    HW2 8015   3.257   7.469   4.267  1.4710  0.8725 -1.0673
 2492SOL     OW 8016   2.665   0.228   3.532  0.1457 -0.1962  0.4860
 2492SOL    HW1 8017   2.633   0.145   3.568  0.0982 -0.9253 -1.1517
 2492SOL    HW2 8018   2.758   0.212   3.514  0.1355  0.1127  0.1613
 2493SOL     OW 8019   7.066   7.373   6.559  0.2550 -0.5588 -0.6802
 2493SOL    HW1 8020   7.096   7.339   6.475  0.3767 -1.4520 -0.2886
 2493SOL    HW2 8021   7.093   7.307   6.623 -0.4240 -0.2224 -0.0211
 2494SOL     OW 8022   6.344   2.506   2.955  0.5259  0.5013  0.4198
 2494SOL    HW1 8023   6.408   2.562   2.911  0.2962  0.8057  0.4630
 2494SOL    HW2 8024   6.376   2.417   2.942  0.4277  0.5782 -0.4237
 2495SOL     OW 8025   6.743   4.223   6.920 -1.1243 -0.1999 -0.2770
 2495SOL    HW1 8026   6.661   4.268   6.939  0.4743  2.4763  0.8413
 2495SOL    HW2 8027   6.794   4.230   7.001  0.4881 -1.1658 -1.1541
 2496SOL     OW 8028   7.333   1.965   2.220 -0.5319  0.1627 -0.3266
 2496SOL    HW1 8029   7.412   1.987   2.270  0.7534 -1.1725 -1.6424
 2496SOL    HW2 8030   7.270   1.936   2.285  1.0598 -1.4706  0.6017
 2497SOL     OW 8031   2.368   0.773   4.675 -0.1935 -0.0920  0.0857
 2497SOL    HW1 8032   2.350   0.684   4.646 -0.7860  0.2735 -0.7269
 2497SOL    HW2 8033   2.399   0.818   4.596  3.8912 -0.5077  1.2266
 2498SOL     OW 8034   3.697   0.659   2.484  0.3766  0.0139  0.3313
 2498SOL    HW1 8035   3.717   0.666   2.578  1.4326 -0.0173  0.1086
 2498SOL    HW2 8036   3.708   0.748   2.450 -0.2729  0.0820  0.2735
 2499SOL     OW 8037   5.291   5.130   0.747  0.4711  0.5897 -0.1916
 2499SOL    HW1 8038   5.376   5.090   0.727 -0.4374 -0.9465 -1.2704
 2499SOL    HW2 8039   5.268   5.097   0.834  1.6824  2.3497  0.8493
 2500SOL     OW 8040   0.282   3.277   7.580  0.6186  0.1181  0.3229
 2500SOL    HW1 8041   0.222   3.322   7.640  0.3564 -0.7204  0.7033
 2500SOL    HW2 8042   0.230   3.204   7.546  1.0621  0.0601 -0.2415
 2501SOL     OW 8043   5.696   6.823   2.453 -0.2230 -0.3150  0.1554
 2501SOL    HW1 8044   5.786   6.824   2.484 -0.5547 -1.3567  1.2248
 2501SOL    HW2 8045   5.643   6.814   2.532 -1.4139  2.2235 -0.2279
 2502SOL     OW 8046   7.145   6.071   0.878  0.4964  0.0228 -0.4744
 2502SOL    HW1 8047   7.170   5.998   0.934 -1.5501  0.8021  1.6052
 2502SOL    HW2 8048   7.081   6.034   0.818  1.5873 -0.4728 -1.3828
 2503SOL     OW 8049   4.410   7.477   2.310 -0.5102  0.0476 -0.1388
 2503SOL    HW1 8050   4.354   7.423   2.366 -0.6629  0.5336  0.1775
 2503SOL    HW2 8051   4.493   7.483   2.357 -0.5502  0.2366 -0.0924
 2504SOL     OW 8052   5.555   4.004   4.748  0.6810 -0.4598  0.2602
 2504SOL    HW1 8053   5.642   3.964   4.748  0.7437 -0.4558 -1.6805
 2504SOL    HW2 8054   5.562   4.078   4.808  1.9385 -0.6323  0.3496
 2505SOL     OW 8055   0.288   2.901   0.502 -0.6681 -0.1508 -0.3530
 2505SOL    HW1 8056   0.306   2.961   0.429  0.4332 -0.4804 -0.3715
 2505SOL    HW2 8057   0.373   2.864   0.523 -0.6651  1.0549  2.0959
 2506SOL     OW 8058   2.226   7.227   2.693  0.2003 -0.7911 -0.2361
 2506SOL    HW1 8059   2.164   7.154   2.698 -0.3487 -0.2763  0.9895
 2506SOL    HW2 8060   2.192   7.291   2.756  0.4557  0.6890 -1.5577
 2507SOL     OW 8061   0.249   5.835   0.790  0.3201 -0.0609  0.0013
 2507SOL    HW1 8062   0.320   5.840   0.854  0.3107 -1.5953  0.1538
 2507SOL    HW2 8063   0.278   5.771   0.725 -1.1198 -1.1507  0.3622
 2508SOL     OW 8064   2.294   0.879   5.273  0.3459 -0.3059 -0.0141
 2508SOL    HW1 8065   2.289   0.799   5.221  2.0711 -0.2660 -0.2986
 2508SOL    HW2 8066   2.232   0.939   5.232  0.7555 -0.7047 -1.2401
 2509SOL     OW 8067   2.587   3.998   1.016 -0.4452 -0.7865 -0.1150
 2509SOL    HW1 8068   2.635   3.966   0.939  0.4349  0.0681  0.0463
 2509SOL    HW2 8069   2.541   3.922   1.050  1.7673 -1.9739  0.4214
 2510SOL     OW 8070   6.251   5.516   3.454 -0.0340  0.0063 -0.4705
 2510SOL    HW1 8071   6.255   5.420   3.447 -0.6635 -0.0877  0.3075
 2510SOL    HW2 8072   6.194   5.543   3.382 -1.6207 -0.4165  0.5705
 2511SOL     OW 8073   0.386   3.709   7.366 -0.7252 -0.0485 -0.1645
 2511SOL    HW1 8074   0.380   3.696   7.460 -0.6533 -1.5846 -0.3532
 2511SOL    HW2 8075   0.382   3.804   7.355 -1.3460  0.1256  1.3277
 2512SOL     OW 8076   1.704   7.340   0.460 -0.1581  0.6162  0.0011
 2512SOL    HW1 8077   1.727   7.264   0.514  0.3340  0.5428 -0.2966
 2512SOL    HW2 8078   1.610   7.351   0.471 -0.4126 -0.6656 -0.7456
 2513SOL     OW 8079   5.724   1.279   4.146  0.4405 -0.0399  0.2205
 2513SOL    HW1 8080   5.724   1.299   4.240 -0.7834 -2.8215  0.8896
 2513SOL    HW2 8081   5.646   1.323   4.112 -0.0398 -0.4055  0.8454
 2514SOL     OW 8082   0.458   2.585   2.382  0.0063 -0.0208  0.0406
 2514SOL    HW1 8083   0.405   2.506   2.368  1.5758 -1.2089  0.4076
 2514SOL    HW2 8084   0.538   2.569   2.330  0.7378  0.9175  0.8389
 2515SOL     OW 8085   7.061   2.089   0.482  0.0874 -0.0149 -0.0098
 2515SOL    HW1 8086   7.057   2.112   0.389  0.9241 -0.3887 -0.1486
 2515SOL    HW2 8087   7.065   2.173   0.528 -2.8878  0.3094 -0.1120
 2516SOL     OW 8088   7.263   4.946   1.739  0.5932 -0.3861 -0.5067
 2516SOL    HW1 8089   7.189   5.003   1.720  0.9901  0.3744  0.2012
 2516SOL    HW2 8090   7.250   4.918   1.829  1.3285  0.0064 -0.2715
 2517SOL     OW 8091   6.624   2.750   4.391 -0.0633  0.4911  0.2922
 2517SOL    HW1 8092   6.651   2.841   4.377  1.6709 -0.1029 -0.4536
 2517SOL    HW2 8093   6.662   2.727   4.476  0.8816 -0.0059 -0.2492
 2518SOL     OW 8094   2.058   7.209   3.852  0.0282 -0.3073  0.1224
 2518SOL    HW1 8095   2.054   7.275   3.921 -0.2693  2.2393 -2.1528
 2518SOL    HW2 8096   2.106   7.251   3.781 -0.6204 -2.3741 -1.6630
 2519SOL     OW 8097   4.628   5.244   4.041  0.2348 -0.4945 -0.1807
 2519SOL    HW1 8098   4.548   5.294   4.057  2.2428  3.0034 -0.1983
 2519SOL    HW2 8099   4.640   5.192   4.121 -1.1046  0.2734  0.5544
 2520SOL     OW 8100   6.130   0.171   3.440  0.5194 -0.1224  0.0522
 2520SOL    HW1 8101   6.063   0.189   3.374  0.4936  0.0971  0.1365
 2520SOL    HW2 8102   6.169   0.257   3.458  0.9858 -0.2807 -0.1689
 2521SOL     OW 8103   6.826   2.137   7.081 -0.3621 -0.2299 -0.0676
 2521SOL    HW1 8104   6.809   2.108   6.991 -1.6272 -0.3529  0.1951
 2521SOL    HW2 8105   6.921   2.125   7.093 -0.3264 -1.0786 -1.0713
 2522SOL     OW 8106   1.790   2.349   5.477  0.2916 -0.3095 -0.2101
 2522SOL    HW1 8107   1.804   2.425   5.420 -0.0173  0.2051  0.3781
 2522SOL    HW2 8108   1.844   2.367   5.554 -1.9241  0.7559  1.2174
 2523SOL     OW 8109   0.030   0.444   2.536  0.3102  0.1276 -0.6157
 2523SOL    HW1 8110   0.012   0.533   2.565 -0.2374  0.1714 -1.0855
 2523SOL    HW2 8111   0.025   0.447   2.441  2.9161  0.1566 -0.8301
 2524SOL     OW 8112   3.619   2.675   0.668 -0.2639 -0.3254  0.5004
 2524SOL    HW1 8113   3.676   2.653   0.595  1.9933 -0.0299  2.0754
 2524SOL    HW2 8114   3.566   2.596   0.681  0.6519 -1.0998 -0.2412
 2525SOL     OW 8115   0.775   3.628   0.254  0.4766  0.2468  0.5046
 2525SOL    HW1 8116   0.867   3.655   0.262  0.3247  0.9509 -0.0621
 2525SOL    HW2 8117   0.734   3.698   0.203 -0.7029  0.6894  1.9948
 2526SOL     OW 8118   4.378   5.706   0.914 -0.4500  0.3531  0.5815
 2526SOL    HW1 8119   4.426   5.787   0.896 -0.3026 -0.1703 -1.8184
 2526SOL    HW2 8120   4.341   5.682   0.829 -0.6075 -2.0144  1.2518
 2527SOL     OW 8121   1.214   1.028   1.092  0.8112 -0.0446 -0.0149
 2527SOL    HW1 8122   1.241   1.059   1.005 -0.7432 -0.0502 -0.5175
 2527SOL    HW2 8123   1.126   1.062   1.104 -0.8638 -3.7036 -0.4183
 2528SOL     OW 8124   0.171   6.546   5.407 -0.4629  0.5027 -0.2134
 2528SOL    HW1 8125   0.128   6.571   5.326 -0.3086  2.2124  0.2008
 2528SOL    HW2 8126   0.249   6.499   5.379 -0.0351  1.6893 -1.1029
 2529SOL     OW 8127   7.028   4.699   1.809  0.1565 -0.2973 -0.3640
 2529SOL    HW1 8128   7.033   4.630   1.875 -0.7370  0.8647  0.9832
 2529SOL    HW2 8129   7.104   4.684   1.753  0.0621 -2.2826 -0.0548
 2530SOL     OW 8130   1.399   1.035   2.598  0.1981 -0.5599 -0.3623
 2530SOL    HW1 8131   1.320   0.982   2.589 -0.5030  0.0157  1.7471
 2530SOL    HW2 8132   1.445   1.025   2.514 -0.9496 -2.7606 -0.8057
 2531SOL     OW 8133   0.499   7.215   5.668 -0.8046  0.2091  0.2677
 2531SOL    HW1 8134   0.415   7.185   5.635  0.9111 -2.0589 -2.4488
 2531SOL    HW2 8135   0.518   7.293   5.616  0.2304 -1.2611 -1.6810
 2532SOL     OW 8136   6.007   4.643   0.929  0.0158 -0.1462  0.6828
 2532SOL    HW1 8137   5.999   4.734   0.898  0.8776 -0.3687 -0.2296
 2532SOL    HW2 8138   5.945   4.638   1.002 -3.9593 -0.2078 -2.3463
 2533SOL     OW 8139   5.877   6.776   6.752 -0.0570  0.5890  0.2030
 2533SOL    HW1 8140   5.909   6.839   6.686  1.1592 -0.1397  0.0598
 2533SOL    HW2 8141   5.954   6.757   6.805 -0.3523 -0.9003  0.1390
 2534SOL     OW 8142   0.210   4.179   6.035  0.4921 -0.8552 -0.1458
 2534SOL    HW1 8143   0.260   4.261   6.040  0.7423 -0.9959 -0.2864
 2534SOL    HW2 8144   0.251   4.122   6.100  0.9685 -1.2086 -0.7367
 2535SOL     OW 8145   3.432   6.330   5.051 -0.3837 -0.2779  0.3932
 2535SOL    HW1 8146   3.431   6.339   5.146  0.3392 -0.4041  0.4192
 2535SOL    HW2 8147   3.483   6.405   5.020  1.4575 -1.5053  0.2877
 2536SOL     OW 8148   2.834   0.221   4.353 -0.1612 -0.0163 -0.2028
 2536SOL    HW1 8149   2.745   0.188   4.361  0.0074 -0.3279  0.5093
 2536SOL    HW2 8150   2.889   0.142   4.352  0.1867  0.2081  0.6329
 2537SOL     OW 8151   1.921   4.332   0.073 -0.0636  0.3490 -0.4819
 2537SOL    HW1 8152   1.837   4.377   0.066 -0.3174 -0.0608 -0.0801
 2537SOL    HW2 8153   1.901   4.240   0.060  0.0025 -0.0102  1.6138
 2538SOL     OW 8154   0.986   0.669   3.864 -0.0113 -0.0717  0.2497
 2538SOL    HW1 8155   0.954   0.683   3.954 -0.0293  0.3645  0.1748
 2538SOL    HW2 8156   0.907   0.649   3.814  0.1016 -1.2758  0.5098
 2539SOL     OW 8157   7.573   5.783   4.336  0.4055 -0.4710 -0.3194
 2539SOL    HW1 8158   7.579   5.866   4.288 -0.3246  1.0538  2.0906
 2539SOL    HW2 8159   7.526   5.804   4.416 -0.2512 -3.3545  0.1704
 2540SOL     OW 8160   7.424   4.887   0.900  0.2036  0.5161 -0.3607
 2540SOL    HW1 8161   7.390   4.949   0.965  0.3026 -0.3053  0.5086
 2540SOL    HW2 8162   7.472   4.823   0.953  0.8268  0.1820 -1.3222
 2541SOL     OW 8163   1.692   1.554   2.010  0.3813  0.4064  0.5708
 2541SOL    HW1 8164   1.627   1.623   1.994  1.5342  1.7843  1.5435
 2541SOL    HW2 8165   1.748   1.590   2.079 -0.3020 -2.4341  2.7800
 2542SOL     OW 8166   3.858   4.186   0.257  0.8451  0.1779 -0.2685
 2542SOL    HW1 8167   3.771   4.145   0.257  0.6957  0.4482  1.0871
 2542SOL    HW2 8168   3.850   4.259   0.195 -0.7579  1.8836  1.8164
 2543SOL     OW 8169   7.328   5.854   0.780 -0.6963 -0.6261  0.2424
 2543SOL    HW1 8170   7.300   5.789   0.716  2.8370 -1.2103 -0.9633
 2543SOL    HW2 8171   7.422   5.863   0.764 -0.4762  2.4793  2.4935
 2544SOL     OW 8172   6.245   6.174   6.714 -0.0750 -0.1929  0.1534
 2544SOL    HW1 8173   6.323   6.173   6.659  0.3237  0.6347  0.6891
 2544SOL    HW2 8174   6.254   6.097   6.769 -0.2588 -0.7837 -0.6135
 2545SOL     OW 8175   0.010   4.359   5.116  0.2055 -0.6591  0.0324
 2545SOL    HW1 8176  -0.011   4.268   5.095 -0.1703 -0.9795  1.7105
 2545SOL    HW2 8177   0.091   4.376   5.067 -1.2705 -0.8831 -2.7341
 2546SOL     OW 8178   1.024   3.050   5.707 -0.0644  0.2362  0.2026
 2546SOL    HW1 8179   1.119   3.059   5.716 -0.2007  1.0337  1.0069
 2546SOL    HW2 8180   1.001   2.977   5.763 -0.0903  0.9621  1.1568
 2547SOL     OW 8181   4.921   2.948   3.616 -0.0900 -0.3970  0.1456
 2547SOL    HW1 8182   4.848   2.933   3.675 -0.0135 -0.3458  0.2532
 2547SOL    HW2 8183   4.985   2.879   3.639 -0.7384 -1.4178 -0.9778
 2548SOL     OW 8184   3.708   2.786   7.562  1.0083  0.6151 -0.5060
 2548SOL    HW1 8185   3.710   2.693   7.582  0.3427  0.6783 -0.1311
 2548SOL    HW2 8186   3.703   2.829   7.647 -0.7811  0.9152 -0.7383
 2549SOL     OW 8187   0.458   6.386   6.812 -0.0063  0.0807 -0.6848
 2549SOL    HW1 8188   0.468   6.481   6.819 -1.1325  0.1470  0.2614
 2549SOL    HW2 8189   0.542   6.351   6.843  0.5875  0.7481 -1.4692
 2550SOL     OW 8190   2.380   6.625   3.071  0.3486 -1.3059 -0.8880
 2550SOL    HW1 8191   2.348   6.535   3.067 -0.8714 -0.9828  0.6955
 2550SOL    HW2 8192   2.436   6.627   3.148 -2.2842 -0.0039  1.1667
 2551SOL     OW 8193   3.449   6.486   0.587 -0.3113 -0.0937 -0.3608
 2551SOL    HW1 8194   3.403   6.472   0.505  1.2782 -2.7315 -0.9505
 2551SOL    HW2 8195   3.386   6.462   0.655 -1.2806  1.0090 -0.8582
 2552SOL     OW 8196   3.559   1.272   7.163  0.6146  0.3945  0.4215
 2552SOL    HW1 8197   3.626   1.211   7.132  1.0546  0.0649  1.8973
 2552SOL    HW2 8198   3.546   1.333   7.091  1.9804  0.0163 -0.1816
 2553SOL     OW 8199   3.292   2.277   2.571 -0.5974 -0.1696 -0.3982
 2553SOL    HW1 8200   3.259   2.242   2.488 -0.3936  1.1302 -1.0646
 2553SOL    HW2 8201   3.225   2.341   2.597 -0.5264 -0.3802  0.2946
 2554SOL     OW 8202   5.751   1.709   7.436  0.1760  0.1106 -0.1180
 2554SOL    HW1 8203   5.720   1.735   7.349  0.3238  0.4837 -0.0605
 2554SOL    HW2 8204   5.825   1.651   7.419 -1.0366 -1.4710 -0.2756
 2555SOL     OW 8205   2.520   0.974   6.242 -0.2795 -0.2277  0.4581
 2555SOL    HW1 8206   2.572   0.904   6.280 -1.2592 -0.6576  1.0319
 2555SOL    HW2 8207   2.433   0.935   6.227  0.0344 -0.0904 -2.2085
 2556SOL     OW 8208   4.022   2.549   2.941 -0.0090 -0.6947 -1.0459
 2556SOL    HW1 8209   4.012   2.626   2.885  1.4102 -0.8875 -1.6013
 2556SOL    HW2 8210   4.056   2.584   3.023 -1.2492 -0.5194 -0.5806
 2557SOL     OW 8211   0.456   6.036   0.386 -0.9606  0.0195  0.2031
 2557SOL    HW1 8212   0.509   5.980   0.329 -1.3819 -0.8046  0.6095
 2557SOL    HW2 8213   0.513   6.109   0.407 -0.2678 -0.4429 -0.0287
 2558SOL     OW 8214   4.331   4.395   6.874 -0.2822  0.4463 -0.1086
 2558SOL    HW1 8215   4.376   4.462   6.926 -1.0776  1.8201 -1.1290
 2558SOL    HW2 8216   4.400   4.355   6.821  0.2351  0.2898  0.6654
 2559SOL     OW 8217   3.361   3.486   6.422  0.0124 -0.2278 -0.5165
 2559SOL    HW1 8218   3.368   3.579   6.399  4.4193  0.6090  2.8942
 2559SOL    HW2 8219   3.334   3.487   6.514 -0.5690 -2.4120 -0.6193
 2560SOL     OW 8220   7.084   4.920   6.188 -0.3199  0.1976  0.4633
 2560SOL    HW1 8221   7.163   4.972   6.176 -1.2204  1.4764 -0.1476
 2560SOL    HW2 8222   7.052   4.905   6.099 -0.6926 -0.4349  0.6992
 2561SOL     OW 8223   6.506   5.520   1.511 -0.1689 -0.1089  0.0084
 2561SOL    HW1 8224   6.542   5.434   1.534 -0.1683  0.0510  0.6323
 2561SOL    HW2 8225   6.583   5.573   1.489 -0.1721 -0.2788 -0.4117
 2562SOL     OW 8226   7.023   0.071   4.974  0.0073 -0.2101 -0.1544
 2562SOL    HW1 8227   7.066  -0.001   5.018  0.8509  0.9784  1.0361
 2562SOL    HW2 8228   7.015   0.043   4.883  2.3011 -0.9277 -0.1775
 2563SOL     OW 8229   1.495   1.553   6.372  0.3722  0.7731 -0.5161
 2563SOL    HW1 8230   1.466   1.540   6.281 -0.3316 -2.0608  0.0292
 2563SOL    HW2 8231   1.417   1.586   6.417 -0.0177 -0.1814 -0.4678
 2564SOL     OW 8232   3.005   1.860   5.993 -0.0191  0.1113  0.0291
 2564SOL    HW1 8233   2.932   1.822   5.944 -0.3328  0.3225  0.3267
 2564SOL    HW2 8234   2.995   1.826   6.082 -0.1677  0.6930  0.2412
 2565SOL     OW 8235   0.418   4.288   0.286 -0.1900  0.2862 -0.5026
 2565SOL    HW1 8236   0.348   4.353   0.286 -1.8614 -1.4226  0.6291
 2565SOL    HW2 8237   0.469   4.308   0.207 -1.9566  1.5851 -1.3822
 2566SOL     OW 8238   2.002   1.666   6.654 -0.5670 -0.0650 -0.1047
 2566SOL    HW1 8239   1.983   1.685   6.563  1.0447  1.4720 -0.1639
 2566SOL    HW2 8240   1.917   1.640   6.691 -1.7107  1.4710 -1.5000
 2567SOL     OW 8241   4.024   3.662   1.497  0.4086 -0.0871  0.7958
 2567SOL    HW1 8242   3.967   3.589   1.520  0.8816 -0.5871  0.4032
 2567SOL    HW2 8243   4.112   3.632   1.522  0.4539  0.8512  1.8202
 2568SOL     OW 8244   6.299   0.867   5.742 -0.5042  0.5744 -0.0063
 2568SOL    HW1 8245   6.289   0.772   5.732  1.6233  0.4833 -1.9191
 2568SOL    HW2 8246   6.384   0.878   5.785 -0.6216  1.6430 -0.0210
 2569SOL     OW 8247   0.262   5.763   4.245  0.2422 -0.7211  0.5180
 2569SOL    HW1 8248   0.283   5.845   4.290 -0.7030 -0.0267 -0.2462
 2569SOL    HW2 8249   0.181   5.733   4.287 -0.3257 -0.3710 -0.2817
 2570SOL     OW 8250   2.324   4.187   1.383 -0.3116  0.6563 -0.0505
 2570SOL    HW1 8251   2.327   4.139   1.466 -1.5424 -0.4137 -0.5868
 2570SOL    HW2 8252   2.294   4.275   1.408 -1.4659  0.1135  0.5845
 2571SOL     OW 8253   6.297   7.560   5.453 -0.0260 -0.2921  0.1431
 2571SOL    HW1 8254   6.229   7.519   5.399 -0.8328  1.2238 -0.0523
 2571SOL    HW2 8255   6.349   7.486   5.486 -2.1169 -1.5728  0.7969
 2572SOL     OW 8256   6.899   6.960   3.112  0.2331 -0.3311  0.4124
 2572SOL    HW1 8257   6.827   6.910   3.074 -0.0144 -0.8061  1.4761
 2572SOL    HW2 8258   6.933   7.012   3.039  1.3078 -2.9559 -1.1177
 2573SOL     OW 8259   4.249   4.197   4.508 -0.2119  0.4410 -0.1095
 2573SOL    HW1 8260   4.302   4.226   4.434 -0.6092  0.5635 -0.3465
 2573SOL    HW2 8261   4.178   4.260   4.513 -0.0353  0.5957  0.5532
 2574SOL     OW 8262   5.831   2.259   4.460  0.2170 -0.3096  0.3718
 2574SOL    HW1 8263   5.870   2.342   4.434  0.1273 -0.4965 -0.3822
 2574SOL    HW2 8264   5.830   2.207   4.380 -0.2968 -0.8132  0.6983
 2575SOL     OW 8265   0.948   6.658   0.684 -0.5723 -0.9582 -0.1925
 2575SOL    HW1 8266   1.044   6.653   0.680 -0.5077 -0.0742 -0.0431
 2575SOL    HW2 8267   0.928   6.666   0.777 -0.8740 -2.2184 -0.1271
 2576SOL     OW 8268   5.909   6.258   4.186  0.4138  0.2003  0.4033
 2576SOL    HW1 8269   5.968   6.186   4.206 -1.3491 -1.5609 -0.3920
 2576SOL    HW2 8270   5.869   6.280   4.270 -0.7171 -1.3790  0.3315
 2577SOL     OW 8271   7.390   7.073   6.465 -0.0905 -0.0607  0.1924
 2577SOL    HW1 8272   7.451   7.003   6.441 -0.2809 -0.5705  1.1671
 2577SOL    HW2 8273   7.315   7.027   6.503 -0.2816  0.6728  0.7066
 2578SOL     OW 8274   0.870   0.464   1.765  0.0910 -0.2311 -1.1010
 2578SOL    HW1 8275   0.948   0.519   1.766  0.1885 -0.3618  0.0404
 2578SOL    HW2 8276   0.893   0.388   1.818 -1.0186  0.0585 -0.1323
 2579SOL     OW 8277   3.887   0.435   5.825 -0.5006 -0.3194  0.3203
 2579SOL    HW1 8278   3.958   0.432   5.888 -1.3792 -1.8171  1.2929
 2579SOL    HW2 8279   3.930   0.420   5.740  0.2366 -2.7955  1.0296
 2580SOL     OW 8280   3.295   1.591   2.487  0.2230 -0.5533  0.3552
 2580SOL    HW1 8281   3.353   1.541   2.545  0.8358 -0.4100 -0.1261
 2580SOL    HW2 8282   3.342   1.595   2.404 -0.8793 -1.2296 -0.3341
 2581SOL     OW 8283   5.851   2.338   2.160  0.4311  0.0088  0.5038
 2581SOL    HW1 8284   5.879   2.250   2.133  0.1446 -0.3241  1.2776
 2581SOL    HW2 8285   5.756   2.331   2.168  0.3126  0.6269 -0.2724
 2582SOL     OW 8286   5.437   1.164   3.870  0.5234 -0.4383 -0.2823
 2582SOL    HW1 8287   5.477   1.097   3.924  1.8716 -0.5703 -1.4033
 2582SOL    HW2 8288   5.482   1.245   3.893  0.3371 -0.2916 -0.4208
 2583SOL     OW 8289   5.240   3.041   0.637 -0.1837 -0.6709 -0.2074
 2583SOL    HW1 8290   5.157   2.999   0.657 -0.8874  1.3985  1.6710
 2583SOL    HW2 8291   5.215   3.128   0.604  1.1376  0.6431  1.9884
 2584SOL     OW 8292   6.064   1.211   5.270  0.4774 -0.4984 -0.0941
 2584SOL    HW1 8293   6.136   1.200   5.332  0.0042 -0.2228  0.5143
 2584SOL    HW2 8294   6.045   1.304   5.270  1.0264 -0.3653 -1.3076
 2585SOL     OW 8295   5.922   6.597   2.114 -1.1051 -0.1856  0.3875
 2585SOL    HW1 8296   5.975   6.672   2.086  0.1926 -1.6542 -1.2887
 2585SOL    HW2 8297   5.839   6.636   2.143  0.2176  2.0491  1.4739
 2586SOL     OW 8298   6.907   1.414   2.528  0.1845  0.1428 -0.3070
 2586SOL    HW1 8299   6.883   1.417   2.621 -0.1520  0.1572 -0.3909
 2586SOL    HW2 8300   6.823   1.402   2.483  0.2776  0.7569 -0.6484
 2587SOL     OW 8301   0.660   5.215   0.891 -0.7758 -0.0504 -0.1324
 2587SOL    HW1 8302   0.579   5.206   0.941 -0.7561 -0.1311 -0.1145
 2587SOL    HW2 8303   0.695   5.126   0.887 -0.5121  0.0361  0.1628
 2588SOL     OW 8304   7.059   5.858   0.028  0.3681 -0.3593  0.6757
 2588SOL    HW1 8305   7.053   5.824  -0.061  2.6349  1.0912 -0.1247
 2588SOL    HW2 8306   7.112   5.794   0.075  0.1555 -0.5467  0.6610
 2589SOL     OW 8307   0.365   4.465   6.318  0.0151  0.3875 -0.1488
 2589SOL    HW1 8308   0.387   4.558   6.329 -2.4799  1.1503 -0.8722
 2589SOL    HW2 8309   0.318   4.461   6.235 -1.0095 -1.3147  0.4670
 2590SOL     OW 8310   5.759   0.745   1.824  0.6171  0.8075  0.2478
 2590SOL    HW1 8311   5.685   0.780   1.774  0.7126 -0.6975 -1.0318
 2590SOL    HW2 8312   5.719   0.712   1.905 -0.2273 -0.4016 -0.6236
 2591SOL     OW 8313   0.747   6.590   4.818  0.4696  0.2039 -0.1128
 2591SOL    HW1 8314   0.823   6.558   4.770  0.2282  0.1398 -0.4538
 2591SOL    HW2 8315   0.773   6.678   4.846  0.4021  0.4742 -0.8602
 2592SOL     OW 8316   5.899   4.194   6.931 -0.2631 -0.3917  0.0365
 2592SOL    HW1 8317   5.835   4.134   6.967  1.0458 -1.5404  0.5349
 2592SOL    HW2 8318   5.873   4.205   6.839 -0.8185 -1.3168  0.0732
 2593SOL     OW 8319   5.627   1.607   3.029  0.3225 -0.5246  0.1238
 2593SOL    HW1 8320   5.625   1.539   3.097  1.7927 -1.4413 -0.6934
 2593SOL    HW2 8321   5.654   1.686   3.075  0.6804 -0.9860  0.7217
 2594SOL     OW 8322   1.533   2.957   0.286  0.5437 -0.3846  0.1097
 2594SOL    HW1 8323   1.626   2.936   0.298  0.3571 -1.2326  0.1528
 2594SOL    HW2 8324   1.525   3.047   0.316  1.6270  0.1831 -1.2110
 2595SOL     OW 8325   2.151   4.734   5.785  0.1907  0.8648  0.4065
 2595SOL    HW1 8326   2.066   4.749   5.826 -0.7175 -0.3377 -0.9452
 2595SOL    HW2 8327   2.192   4.821   5.781 -0.7919  1.3987  1.4235
 2596SOL     OW 8328   0.721   2.316   0.370 -0.4909  0.5466 -0.4396
 2596SOL    HW1 8329   0.727   2.229   0.411 -0.4723  1.1249  0.8531
 2596SOL    HW2 8330   0.728   2.299   0.276 -0.2177 -0.8267 -0.1977
 2597SOL     OW 8331   6.129   7.435   1.656  0.2194 -0.8362 -0.3537
 2597SOL    HW1 8332   6.207   7.491   1.651  1.1219 -2.0961 -1.0468
 2597SOL    HW2 8333   6.142   7.384   1.736 -2.2209  2.1186  2.2185
 2598SOL     OW 8334   1.591   2.788   3.477  0.0002  0.1454  0.0822
 2598SOL    HW1 8335   1.573   2.870   3.523  1.0861 -0.7142  2.2069
 2598SOL    HW2 8336   1.509   2.740   3.480 -0.3138  0.6658 -0.1032
 2599SOL     OW 8337   2.296   6.639   6.070  0.1119 -0.6348  0.9992
 2599SOL    HW1 8338   2.245   6.564   6.040  0.9618 -0.7538 -0.2057
 2599SOL    HW2 8339   2.360   6.602   6.130  0.7859 -0.9601  0.1063
 2600SOL     OW 8340   6.316   7.434   4.857 -0.2674 -0.0467  0.2440
 2600SOL    HW1 8341   6.391   7.494   4.857 -0.4492  0.1933  1.1516
 2600SOL    HW2 8342   6.346   7.358   4.907 -0.4099 -0.2375  0.0413
 2601SOL     OW 8343   7.551   1.709   3.900 -0.1058 -0.1912  0.1601
 2601SOL    HW1 8344   7.543   1.629   3.849  1.5734 -0.1083 -0.2970
 2601SOL    HW2 8345   7.475   1.761   3.875 -0.5987 -1.1510 -0.4083
 2602SOL     OW 8346   7.349   3.254   5.764  0.2814 -0.5304 -0.0764
 2602SOL    HW1 8347   7.381   3.324   5.707  0.8352 -1.5386 -1.0417
 2602SOL    HW2 8348   7.329   3.297   5.847 -0.6124  1.0002 -1.0454
 2603SOL     OW 8349   4.831   1.194   0.962 -0.2997  0.1507 -0.0344
 2603SOL    HW1 8350   4.903   1.234   1.011  0.3639 -2.0890  0.9865
 2603SOL    HW2 8351   4.753   1.213   1.015  0.1731 -0.8148  1.0570
 2604SOL     OW 8352   2.341   4.672   6.246 -0.6968 -0.1202  0.0725
 2604SOL    HW1 8353   2.374   4.610   6.181 -0.1581  2.0907 -1.8931
 2604SOL    HW2 8354   2.277   4.726   6.198 -1.2077  0.8088  1.7143
 2605SOL     OW 8355   4.613   5.066   7.533 -0.3226  0.0499 -0.4227
 2605SOL    HW1 8356   4.569   5.146   7.503  1.8561  1.9296  1.0536
 2605SOL    HW2 8357   4.690   5.058   7.477  0.6361  0.2801  0.8080
 2606SOL     OW 8358   7.542   5.083   0.129  0.2444  0.3298  0.5359
 2606SOL    HW1 8359   7.594   5.112   0.054 -0.5612 -0.9605 -0.5764
 2606SOL    HW2 8360   7.523   4.991   0.110  1.8430 -0.7045  3.3985
 2607SOL     OW 8361   5.533   7.111   3.043  0.4693 -0.1316 -0.5035
 2607SOL    HW1 8362   5.581   7.111   3.126  0.3226 -0.3680 -0.4172
 2607SOL    HW2 8363   5.510   7.203   3.028 -1.6958 -0.3417  1.0057
 2608SOL     OW 8364   5.739   4.348   7.102  0.4697  0.1678 -0.1566
 2608SOL    HW1 8365   5.688   4.384   7.030 -0.6143 -0.1279  0.4438
 2608SOL    HW2 8366   5.820   4.317   7.061  0.5381  1.3976 -0.9974
 2609SOL     OW 8367   5.735   0.065   5.897 -0.5142  0.0134 -0.1144
 2609SOL    HW1 8368   5.791   0.138   5.923 -0.7740 -0.6530  2.6235
 2609SOL    HW2 8369   5.653   0.106   5.871  0.1142  0.7972 -0.9316
 2610SOL     OW 8370   3.682   2.643   6.886  0.8529  0.8378  0.2130
 2610SOL    HW1 8371   3.750   2.679   6.830 -0.2281  1.8900 -0.4704
 2610SOL    HW2 8372   3.626   2.592   6.826  1.4732 -0.7206  0.9009
 2611SOL     OW 8373   6.353   0.272   6.401  0.0954  0.1735 -0.8736
 2611SOL    HW1 8374   6.348   0.241   6.310  1.8838 -1.0323 -0.6057
 2611SOL    HW2 8375   6.389   0.360   6.395 -1.6856  0.9277 -1.4091
 2612SOL     OW 8376   0.968   0.956   2.072 -0.2032  0.3653  0.0917
 2612SOL    HW1 8377   0.920   0.951   1.989 -1.6463  0.2870  0.8888
 2612SOL    HW2 8378   0.923   0.894   2.130  0.1455  1.1207  1.2176
 2613SOL     OW 8379   7.363   2.522   2.797  0.1894 -0.8511  0.0067
 2613SOL    HW1 8380   7.366   2.426   2.805  0.9359 -0.7112  1.7169
 2613SOL    HW2 8381   7.437   2.543   2.741  1.2501 -1.1558  1.2512
 2614SOL     OW 8382   5.329   2.886   1.049  0.2141  0.0093 -0.0464
 2614SOL    HW1 8383   5.325   2.943   1.126  1.1779  1.0320 -0.7251
 2614SOL    HW2 8384   5.268   2.815   1.069  0.0994  0.4922  1.4585
 2615SOL     OW 8385   1.583   0.885   5.258  0.3159  0.1901 -0.0832
 2615SOL    HW1 8386   1.545   0.812   5.209 -0.2333 -0.3493  1.1041
 2615SOL    HW2 8387   1.675   0.887   5.230  0.7376 -1.9338  0.9559
 2616SOL     OW 8388   6.208   4.799   6.144  0.8663  0.2258  0.1572
 2616SOL    HW1 8389   6.115   4.801   6.165  1.0440  2.1444  0.9689
 2616SOL    HW2 8390   6.251   4.775   6.227  1.1342 -0.1806 -0.0929
 2617SOL     OW 8391   5.814   6.754   6.369 -0.4665  0.1459  0.3352
 2617SOL    HW1 8392   5.900   6.723   6.340 -0.1411 -0.6411  2.0636
 2617SOL    HW2 8393   5.773   6.678   6.410 -2.0078  0.5086 -0.4454
 2618SOL     OW 8394   5.242   1.316   7.289  0.5653  0.0264 -0.0496
 2618SOL    HW1 8395   5.208   1.239   7.242  1.0414 -0.3812  0.2701
 2618SOL    HW2 8396   5.212   1.390   7.236  1.8036 -0.4394 -1.4949
 2619SOL     OW 8397   6.502   0.309   3.364 -0.3982  0.4024 -0.6031
 2619SOL    HW1 8398   6.471   0.236   3.417  1.4819 -1.4503 -1.9046
 2619SOL    HW2 8399   6.524   0.270   3.280 -0.4606  2.7207 -1.7795
 2620SOL     OW 8400   1.375   5.389   0.305  0.1233 -0.2313  0.9264
 2620SOL    HW1 8401   1.351   5.364   0.394  0.5122  0.5192  1.2594
 2620SOL    HW2 8402   1.458   5.436   0.315  0.3772 -0.4836  0.1207
 2621SOL     OW 8403   5.731   1.230   3.390  0.0255 -0.1275  0.1166
 2621SOL    HW1 8404   5.712   1.152   3.338  1.4187 -0.0676 -0.5067
 2621SOL    HW2 8405   5.801   1.203   3.449  2.1075  1.2067 -1.6064
 2622SOL     OW 8406   0.883   5.147   0.020  0.5637 -0.4376  0.6647
 2622SOL    HW1 8407   0.957   5.091  -0.004  0.6478 -0.4988  1.0508
 2622SOL    HW2 8408   0.840   5.100   0.092  1.3534  0.5504  1.8400
 2623SOL     OW 8409   7.345   1.445   6.430 -0.1574  0.1377  0.1308
 2623SOL    HW1 8410   7.312   1.528   6.395 -0.2875  0.0326 -0.0006
 2623SOL    HW2 8411   7.268   1.404   6.469  0.5070  1.5410  3.1732
 2624SOL     OW 8412   3.204   2.398   4.868  0.0054 -0.0073  0.4391
 2624SOL    HW1 8413   3.274   2.414   4.932 -1.4111  0.7899  1.8419
 2624SOL    HW2 8414   3.224   2.457   4.795  2.7105 -2.2571 -0.8381
 2625SOL     OW 8415   4.359   1.899   6.620 -0.0583 -0.0799  0.1966
 2625SOL    HW1 8416   4.354   1.974   6.679  1.4668  0.6238 -0.5169
 2625SOL    HW2 8417   4.436   1.916   6.566 -1.8259 -0.2349 -2.5815
 2626SOL     OW 8418   7.204   4.816   0.701  0.3348  0.4053 -0.6164
 2626SOL    HW1 8419   7.290   4.844   0.734 -0.5153  1.3082  0.9605
 2626SOL    HW2 8420   7.171   4.893   0.655 -0.1733  0.5337 -0.0542
 2627SOL     OW 8421   3.171   4.455   4.093 -0.1509 -0.5089  0.1539
 2627SOL    HW1 8422   3.177   4.470   4.187 -0.9317 -1.7871  0.4367
 2627SOL    HW2 8423   3.205   4.535   4.053 -1.5376  0.8146  1.5021
 2628SOL     OW 8424   5.299   2.881   7.350  0.4727 -0.3410 -0.1960
 2628SOL    HW1 8425   5.286   2.920   7.264  1.1463  2.4065  0.8300
 2628SOL    HW2 8426   5.394   2.877   7.361  0.4092 -1.7338  0.0047
 2629SOL     OW 8427   5.404   2.128   5.297  0.3565 -0.1198  0.1121
 2629SOL    HW1 8428   5.335   2.068   5.322 -0.4439  0.5093 -0.5214
 2629SOL    HW2 8429   5.402   2.129   5.201  1.2184 -0.0613  0.0854
 2630SOL     OW 8430   3.229   6.878   3.577 -0.2682 -0.0744 -0.5108
 2630SOL    HW1 8431   3.279   6.822   3.637  2.4635  0.5154 -2.0629
 2630SOL    HW2 8432   3.138   6.852   3.590  0.5773 -2.5714  1.1632
 2631SOL     OW 8433   5.224   2.483   6.978 -0.1882  1.1162  0.1691
 2631SOL    HW1 8434   5.211   2.437   7.062  0.2056 -0.6087 -0.6586
 2631SOL    HW2 8435   5.243   2.573   7.003  1.2565  0.3878  2.0320
 2632SOL     OW 8436   6.795   0.136   1.167  0.1682 -0.2299 -0.2066
 2632SOL    HW1 8437   6.868   0.114   1.109 -0.1256  2.0823 -1.6030
 2632SOL    HW2 8438   6.728   0.173   1.109 -0.5240  1.3212  1.4550
 2633SOL     OW 8439   2.953   0.183   2.783  0.8285  0.4556  0.4571
 2633SOL    HW1 8440   2.987   0.152   2.867 -0.1259 -0.2952  0.5772
 2633SOL    HW2 8441   2.869   0.224   2.804 -0.1045 -1.0047 -0.2891
 2634SOL     OW 8442   4.767   2.123   5.898  0.1225 -0.0039  0.1620
 2634SOL    HW1 8443   4.779   2.062   5.825  0.3788  0.4917 -0.2212
 2634SOL    HW2 8444   4.829   2.194   5.879 -1.2497  1.1256 -0.2070
 2635SOL     OW 8445   5.281   3.959   2.673 -0.0224 -0.0549 -0.1662
 2635SOL    HW1 8446   5.336   4.032   2.645  0.3557 -0.1601  0.2903
 2635SOL    HW2 8447   5.195   3.979   2.637  0.1011  0.5650 -0.1290
 2636SOL     OW 8448   2.421   3.633   4.806 -0.2374  0.6292  0.5706
 2636SOL    HW1 8449   2.349   3.580   4.770 -0.4718  0.7265  0.8904
 2636SOL    HW2 8450   2.401   3.640   4.899  0.0138  0.9323  0.6021
 2637SOL     OW 8451   6.364   3.315   6.865 -0.3721  0.3235  0.3266
 2637SOL    HW1 8452   6.427   3.335   6.796 -2.0763  0.7177 -1.2022
 2637SOL    HW2 8453   6.390   3.370   6.939  1.5797 -0.2062  0.0802
 2638SOL     OW 8454   5.129   2.711   2.125  0.0596  0.1443  0.1959
 2638SOL    HW1 8455   5.120   2.661   2.206  0.0274  0.2631  0.2661
 2638SOL    HW2 8456   5.041   2.713   2.088  0.0555  0.1725  0.2072
 2639SOL     OW 8457   1.153   0.051   1.104  0.0138  0.5874  0.8181
 2639SOL    HW1 8458   1.212  -0.023   1.087 -0.7907  0.4450 -1.9740
 2639SOL    HW2 8459   1.210   0.121   1.134  0.8015 -1.0928  3.5519
 2640SOL     OW 8460   4.647   6.585   2.903  0.0363 -0.6982  0.4896
 2640SOL    HW1 8461   4.656   6.497   2.867  1.7223 -0.6171  0.6365
 2640SOL    HW2 8462   4.736   6.620   2.904 -0.5982  1.0146  0.4378
 2641SOL     OW 8463   1.650   7.597   2.054  0.5304 -0.2425  0.4447
 2641SOL    HW1 8464   1.713   7.525   2.063  0.3025 -0.4538  0.3687
 2641SOL    HW2 8465   1.657   7.644   2.137  0.7837 -0.2675  0.4403
 2642SOL     OW 8466   7.110   3.629   0.368  0.5494 -0.1724 -0.6890
 2642SOL    HW1 8467   7.196   3.610   0.332  1.1940  1.0707  0.1298
 2642SOL    HW2 8468   7.110   3.724   0.381 -0.6665 -0.2525  0.0452
 2643SOL     OW 8469   4.736   3.828   1.869 -0.2870 -0.4031  0.3373
 2643SOL    HW1 8470   4.832   3.837   1.863 -0.1135 -1.1037  1.7485
 2643SOL    HW2 8471   4.720   3.801   1.959 -1.8839  0.2834  0.2834
 2644SOL     OW 8472   5.768   3.631   3.408  0.7491  0.4310 -0.1543
 2644SOL    HW1 8473   5.724   3.547   3.400  0.5012  0.6213 -0.8556
 2644SOL    HW2 8474   5.737   3.682   3.333  0.3488  1.3944  0.6311
 2645SOL     OW 8475   0.747   0.504   6.021 -0.1827 -0.0594  0.0513
 2645SOL    HW1 8476   0.705   0.510   5.935 -0.7810  0.6788  0.3822
 2645SOL    HW2 8477   0.730   0.414   6.050  0.2521 -0.3945 -0.7082
 2646SOL     OW 8478   0.208   3.061   7.288  0.1251 -1.3647  0.0471
 2646SOL    HW1 8479   0.206   3.145   7.241 -1.0936 -0.9048  0.8498
 2646SOL    HW2 8480   0.300   3.044   7.303  0.3790  0.6222  1.1687
 2647SOL     OW 8481   3.946   3.633   4.982  0.5807  0.1248 -0.6930
 2647SOL    HW1 8482   4.018   3.672   5.031  0.3266 -0.4108  0.1186
 2647SOL    HW2 8483   3.871   3.690   5.001 -0.0038 -1.1858  1.2013
 2648SOL     OW 8484   0.670   4.271   1.214 -0.0619  0.0485 -0.2197
 2648SOL    HW1 8485   0.759   4.291   1.187 -0.2819  1.3189 -0.0441
 2648SOL    HW2 8486   0.638   4.209   1.148  1.7908 -2.5578  1.1072
 2649SOL     OW 8487   2.654   0.390   2.202 -0.6363 -0.4847  0.0463
 2649SOL    HW1 8488   2.605   0.434   2.272 -0.8124 -0.4002 -0.1312
 2649SOL    HW2 8489   2.662   0.456   2.133 -1.1736 -0.8229 -0.3504
 2650SOL     OW 8490   2.520   4.661   2.213 -0.3051 -0.1603  0.2001
 2650SOL    HW1 8491   2.431   4.693   2.199 -0.3438 -0.1043  0.5807
 2650SOL    HW2 8492   2.576   4.735   2.189 -0.2533 -0.9149 -2.3297
 2651SOL     OW 8493   5.830   0.074   1.136 -0.8358  0.0318 -0.4181
 2651SOL    HW1 8494   5.810   0.168   1.130 -1.1410  0.0560  0.7526
 2651SOL    HW2 8495   5.858   0.050   1.047 -0.8251  1.2092 -0.7547
 2652SOL     OW 8496   4.679   5.034   1.679 -0.3711 -0.7060 -0.0149
 2652SOL    HW1 8497   4.635   5.048   1.596 -0.1545  0.7873  0.0925
 2652SOL    HW2 8498   4.608   5.026   1.743 -0.5248 -0.9366 -0.2165
 2653SOL     OW 8499   1.345   1.654   4.354  0.3723 -0.6943 -0.8301
 2653SOL    HW1 8500   1.359   1.599   4.277  0.6560  0.2962 -1.5028
 2653SOL    HW2 8501   1.390   1.736   4.333 -0.8338  0.1439 -0.2527
 2654SOL     OW 8502   0.529   0.426   0.346  0.8051 -0.0702 -0.3589
 2654SOL    HW1 8503   0.616   0.390   0.362  0.2842 -0.5047  1.8557
 2654SOL    HW2 8504   0.495   0.376   0.272  2.5203  0.3327 -1.4747
 2655SOL     OW 8505   5.215   4.184   5.620 -0.2602  0.1739  0.0116
 2655SOL    HW1 8506   5.133   4.145   5.588 -0.0544  1.9373 -3.0813
 2655SOL    HW2 8507   5.192   4.274   5.642  0.7188  0.5206 -0.3321
 2656SOL     OW 8508   1.628   5.994   2.334  0.0198  0.2901 -0.1698
 2656SOL    HW1 8509   1.723   5.984   2.332 -0.1600 -1.7963 -0.3706
 2656SOL    HW2 8510   1.596   5.913   2.373 -1.7055  0.7723 -0.4937
 2657SOL     OW 8511   0.827   5.274   2.837  0.0210 -0.4777 -0.5060
 2657SOL    HW1 8512   0.758   5.336   2.817 -0.2240 -1.4023 -2.9570
 2657SOL    HW2 8513   0.787   5.188   2.823  1.1081 -1.0927  0.0242
 2658SOL     OW 8514   3.808   3.757   3.309  0.0075  0.1294  0.3357
 2658SOL    HW1 8515   3.858   3.837   3.321 -0.6208  0.4967  0.5858
 2658SOL    HW2 8516   3.865   3.700   3.259  0.2293  0.9591 -0.3795
 2659SOL     OW 8517   2.504   5.782   5.773  0.3146 -0.2009 -0.0170
 2659SOL    HW1 8518   2.422   5.832   5.762  1.1277  0.7662 -2.5773
 2659SOL    HW2 8519   2.571   5.839   5.736  2.1018 -1.2010  1.5613
 2660SOL     OW 8520   7.434   2.335   2.136 -0.1017 -0.1731 -0.0049
 2660SOL    HW1 8521   7.352   2.287   2.127  0.2890 -0.7091 -0.7926
 2660SOL    HW2 8522   7.464   2.349   2.046  1.2556 -1.0024  0.3017
 2661SOL     OW 8523   1.671   4.529   4.104 -0.6692  0.1950 -0.2044
 2661SOL    HW1 8524   1.699   4.449   4.059 -1.8240  0.3604 -1.2999
 2661SOL    HW2 8525   1.707   4.521   4.192  1.5931 -0.2169 -1.0785
 2662SOL     OW 8526   1.911   5.426   6.428 -0.1626  0.0117  0.1924
 2662SOL    HW1 8527   1.867   5.341   6.433  0.1791 -0.1571  0.3362
 2662SOL    HW2 8528   1.997   5.411   6.467 -0.4181  0.6421  1.0246
 2663SOL     OW 8529   2.723   6.145   7.041  0.1940  0.6302 -0.1304
 2663SOL    HW1 8530   2.730   6.057   7.004 -0.8116 -0.3286  1.8155
 2663SOL    HW2 8531   2.633   6.151   7.073 -0.5825  3.3593 -2.4372
 2664SOL     OW 8532   1.225   7.008   3.722 -0.1508 -0.8437  0.2691
 2664SOL    HW1 8533   1.187   6.970   3.643  2.5737 -1.4218 -0.9019
 2664SOL    HW2 8534   1.202   7.101   3.717 -1.0160 -1.0792 -0.5672
 2665SOL     OW 8535   2.993   3.576   1.278 -0.5450  0.1184  0.5958
 2665SOL    HW1 8536   3.044   3.515   1.224 -1.0454 -0.5419  0.8513
 2665SOL    HW2 8537   3.044   3.585   1.358 -0.3776  0.1876  0.4837
 2666SOL     OW 8538   1.340   1.227   5.589 -0.6401  0.1516 -0.4510
 2666SOL    HW1 8539   1.334   1.206   5.682  0.4745  3.0357  0.3999
 2666SOL    HW2 8540   1.420   1.184   5.559 -0.1307  0.4898  0.3761
 2667SOL     OW 8541   0.584   0.544   2.034 -0.2349  0.0914  0.5797
 2667SOL    HW1 8542   0.671   0.532   2.074 -0.0113  3.5050  1.4206
 2667SOL    HW2 8543   0.603   0.569   1.944 -0.3493  0.2774  0.6062
 2668SOL     OW 8544   0.288   5.322   0.496 -0.4275 -1.0575  0.1076
 2668SOL    HW1 8545   0.366   5.374   0.517 -1.9191  1.2422  0.3377
 2668SOL    HW2 8546   0.290   5.250   0.558 -0.5336  1.1896  2.9686
 2669SOL     OW 8547   0.766   0.380   3.850  0.0554 -0.1052  1.0275
 2669SOL    HW1 8548   0.800   0.326   3.779 -0.4178 -0.5018  1.0946
 2669SOL    HW2 8549   0.820   0.357   3.926  2.3812  2.2681  0.2518
 2670SOL     OW 8550   2.429   6.501   6.734 -0.3812 -1.1103 -0.1372
 2670SOL    HW1 8551   2.344   6.468   6.763 -0.7936  1.7058  2.3160
 2670SOL    HW2 8552   2.410   6.544   6.650 -1.2570 -1.1567  0.0250
 2671SOL     OW 8553   7.330   3.513   1.884 -0.1747  0.8926  0.1634
 2671SOL    HW1 8554   7.366   3.600   1.900  2.7333 -0.0753 -0.4998
 2671SOL    HW2 8555   7.381   3.479   1.811 -0.9201 -1.5508  0.6805
 2672SOL     OW 8556   4.929   1.543   1.736 -0.4366 -0.2983 -0.2474
 2672SOL    HW1 8557   4.897   1.516   1.823 -0.7188 -0.2198 -0.3240
 2672SOL    HW2 8558   4.970   1.628   1.752 -2.8719  1.0590 -0.6138
 2673SOL     OW 8559   3.905   1.677   4.070  0.2722  0.7444  0.3080
 2673SOL    HW1 8560   3.986   1.728   4.070  0.4380  0.5172 -1.0003
 2673SOL    HW2 8561   3.932   1.588   4.093  0.3333  0.7542  0.2728
 2674SOL     OW 8562   2.582   3.009   5.504 -0.0935  0.2866  0.0611
 2674SOL    HW1 8563   2.522   3.016   5.578  1.7383  1.5529  1.4868
 2674SOL    HW2 8564   2.531   3.039   5.429 -1.7709 -0.3624  0.8892
 2675SOL     OW 8565   4.951   1.097   2.886  0.1375  0.1220  0.2589
 2675SOL    HW1 8566   4.994   1.014   2.865 -0.8408 -0.4286  0.3839
 2675SOL    HW2 8567   4.910   1.124   2.803 -1.2152 -0.5416  0.6858
 2676SOL     OW 8568   1.132   1.404   0.060  0.2181  0.0422  0.2029
 2676SOL    HW1 8569   1.086   1.470   0.112 -0.1369  0.2233 -0.3304
 2676SOL    HW2 8570   1.062   1.354   0.017  0.3978 -1.9032  2.0220
 2677SOL     OW 8571   4.469   1.990   1.839 -0.3924 -0.1614 -0.6951
 2677SOL    HW1 8572   4.439   2.079   1.859 -3.1775 -1.4000  1.1676
 2677SOL    HW2 8573   4.562   1.990   1.862 -0.9117  1.6064  1.7735
 2678SOL     OW 8574   2.806   5.013   2.240 -0.2450  0.1189  0.2837
 2678SOL    HW1 8575   2.870   4.944   2.259 -1.0302 -0.7117 -0.0338
 2678SOL    HW2 8576   2.848   5.093   2.272  1.5822 -0.1616 -1.2106
 2679SOL     OW 8577   4.668   3.147   5.493 -0.1558 -0.2852 -0.1127
 2679SOL    HW1 8578   4.695   3.239   5.485  1.2819 -0.6947 -0.3766
 2679SOL    HW2 8579   4.646   3.121   5.404 -0.0199 -0.3460 -0.1289
 2680SOL     OW 8580   6.736   4.887   2.186 -0.1123  0.1711 -0.3294
 2680SOL    HW1 8581   6.661   4.868   2.242  0.2512  2.6453  1.1139
 2680SOL    HW2 8582   6.812   4.874   2.243  0.5084 -0.6468 -1.2942
 2681SOL     OW 8583   4.887   1.449   2.473  0.3533  0.5516 -0.8097
 2681SOL    HW1 8584   4.798   1.459   2.439 -0.5443  0.3443  1.2659
 2681SOL    HW2 8585   4.918   1.367   2.437 -1.5492 -0.9788  0.8029
 2682SOL     OW 8586   5.458   2.947   6.084 -0.0777  0.7560 -0.1907
 2682SOL    HW1 8587   5.371   2.957   6.045  0.2046  2.4261 -0.4620
 2682SOL    HW2 8588   5.469   2.853   6.094 -1.4641  0.4568 -1.1953
 2683SOL     OW 8589   4.486   6.390   1.503  0.6716 -0.1168  0.2829
 2683SOL    HW1 8590   4.578   6.414   1.489  0.2775  2.3439  1.3959
 2683SOL    HW2 8591   4.438   6.440   1.436  0.0822 -0.9605  0.0599
 2684SOL     OW 8592   7.202   7.041   1.231  0.0409 -0.4114 -0.3934
 2684SOL    HW1 8593   7.283   7.091   1.244 -0.4306  0.0328  1.0164
 2684SOL    HW2 8594   7.231   6.949   1.228  0.7693 -0.1550 -1.6817
 2685SOL     OW 8595   1.493   5.453   3.850  0.6977  0.2640  0.1646
 2685SOL    HW1 8596   1.510   5.384   3.914  0.5464  0.8064  0.7980
 2685SOL    HW2 8597   1.398   5.454   3.841  0.6710  0.6846  0.4877
 2686SOL     OW 8598   6.680   2.094   6.360 -0.6270  0.6840  0.0272
 2686SOL    HW1 8599   6.616   2.031   6.327 -1.4834  1.6083 -0.1155
 2686SOL    HW2 8600   6.669   2.171   6.305  0.7409  0.8105 -0.1108
 2687SOL     OW 8601   7.229   7.127   5.747 -0.4982  0.3012  0.3321
 2687SOL    HW1 8602   7.237   7.050   5.804 -2.2920 -1.0479 -1.1178
 2687SOL    HW2 8603   7.257   7.200   5.802  1.6397 -1.3921  1.6584
 2688SOL     OW 8604   3.599   5.380   5.707  0.4526 -0.3673 -0.5530
 2688SOL    HW1 8605   3.575   5.462   5.664  0.4685  0.1535  0.4023
 2688SOL    HW2 8606   3.664   5.341   5.649 -0.0445 -0.0324 -1.3559
 2689SOL     OW 8607   6.294   3.027   1.659 -0.1625  0.2275 -0.4786
 2689SOL    HW1 8608   6.254   3.113   1.670  0.3848  0.3199  1.0642
 2689SOL    HW2 8609   6.317   3.000   1.748 -0.5451 -1.6249 -0.9030
 2690SOL     OW 8610   4.068   6.977   1.829 -1.0188  0.1433  0.5380
 2690SOL    HW1 8611   4.061   6.884   1.807 -2.5779  0.4429 -0.3547
 2690SOL    HW2 8612   3.998   6.992   1.893 -1.0711  0.8023  0.3323
 2691SOL     OW 8613   6.564   6.579   6.392 -0.3981 -0.5393  0.5668
 2691SOL    HW1 8614   6.503   6.575   6.465 -1.5521 -0.6561 -0.3793
 2691SOL    HW2 8615   6.615   6.498   6.399 -1.1566 -1.0163  0.6948
 2692SOL     OW 8616   0.825   6.780   5.299 -0.4871  0.0916  0.4650
 2692SOL    HW1 8617   0.917   6.778   5.323 -0.0759  2.1409 -0.7043
 2692SOL    HW2 8618   0.790   6.697   5.332  2.3040 -1.9671 -1.2653
 2693SOL     OW 8619   2.977   7.132   5.021 -0.0395  0.5939 -0.1542
 2693SOL    HW1 8620   2.902   7.110   4.967  0.5171  0.0527 -0.7247
 2693SOL    HW2 8621   3.053   7.111   4.967  0.5836 -1.5391  1.4006
 2694SOL     OW 8622   5.973   5.800   4.100 -0.7307  0.4921 -0.0538
 2694SOL    HW1 8623   6.033   5.794   4.026 -0.3322  1.0686  0.2195
 2694SOL    HW2 8624   5.886   5.794   4.061 -0.5789  2.1283 -0.7253
 2695SOL     OW 8625   5.195   3.595   2.947  0.1892  0.2482 -0.6881
 2695SOL    HW1 8626   5.245   3.672   2.974 -1.5487  1.1604  0.1343
 2695SOL    HW2 8627   5.213   3.529   3.014  0.2495  0.5839 -0.3703
 2696SOL     OW 8628   6.186   0.077   0.746 -0.3360  0.0037  0.1574
 2696SOL    HW1 8629   6.232  -0.001   0.777  2.2610  1.3302 -0.0711
 2696SOL    HW2 8630   6.231   0.100   0.664 -0.5777  2.0729  0.5513
 2697SOL     OW 8631   0.348   6.491   3.322 -0.4831 -0.3979 -0.3994
 2697SOL    HW1 8632   0.332   6.582   3.349  1.5006 -0.2760  0.5376
 2697SOL    HW2 8633   0.262   6.459   3.295 -1.2426  1.7513 -0.7697
 2698SOL     OW 8634   3.627   4.874   1.484 -0.0873 -0.1664 -0.9750
 2698SOL    HW1 8635   3.563   4.848   1.417 -0.6342 -0.3071 -0.4051
 2698SOL    HW2 8636   3.579   4.938   1.538 -0.6723 -2.2411  1.0869
 2699SOL     OW 8637   3.548   3.182   2.324 -0.3760  0.3607 -0.0146
 2699SOL    HW1 8638   3.558   3.136   2.407 -2.2848  1.0897  0.6881
 2699SOL    HW2 8639   3.493   3.124   2.271 -0.8381  0.7713  0.0052
 2700SOL     OW 8640   5.048   1.764   0.195 -0.2905  0.6985  0.0633
 2700SOL    HW1 8641   5.096   1.686   0.167  0.6222  0.6783  1.5866
 2700SOL    HW2 8642   5.085   1.786   0.280 -4.0936 -0.2955  2.2298
 2701SOL     OW 8643   2.537   2.285   1.504  0.1524 -0.2657  0.0859
 2701SOL    HW1 8644   2.501   2.288   1.415  0.2076  0.0950  0.0755
 2701SOL    HW2 8645   2.549   2.191   1.521 -0.8843 -0.4081  0.1231
 2702SOL     OW 8646   1.704   2.953   5.441 -0.2191  0.4528  0.4345
 2702SOL    HW1 8647   1.779   2.991   5.487  1.0236 -1.5112  0.1458
 2702SOL    HW2 8648   1.650   2.917   5.511 -1.6009  2.8940  0.7435
 2703SOL     OW 8649   2.632   6.368   2.157 -0.3341  0.3071  0.0376
 2703SOL    HW1 8650   2.567   6.405   2.216 -0.6431  1.2595 -0.8571
 2703SOL    HW2 8651   2.716   6.382   2.200 -0.6587 -0.2912  0.8796
 2704SOL     OW 8652   5.870   2.809   4.101 -0.0890 -0.2352 -0.2423
 2704SOL    HW1 8653   5.920   2.746   4.153 -0.3284  0.3763  0.7522
 2704SOL    HW2 8654   5.828   2.866   4.166  0.2102  1.0259 -1.1162
 2705SOL     OW 8655   5.633   0.460   2.244 -0.2866  0.0433 -0.4080
 2705SOL    HW1 8656   5.544   0.492   2.253 -1.1611 -2.4010  0.5188
 2705SOL    HW2 8657   5.669   0.462   2.333 -0.0792 -0.6422 -0.4659
 2706SOL     OW 8658   5.606   5.860   1.424  0.2156  0.1131 -0.5511
 2706SOL    HW1 8659   5.565   5.944   1.443  0.7981  0.0778  0.9927
 2706SOL    HW2 8660   5.547   5.818   1.362 -0.7462  1.1137 -0.3442
 2707SOL     OW 8661   2.279   4.173   0.853 -0.0842  0.1064 -0.6454
 2707SOL    HW1 8662   2.294   4.196   0.945 -1.4641 -0.3061 -0.2927
 2707SOL    HW2 8663   2.189   4.201   0.835 -0.0521 -0.3920 -1.6859
 2708SOL     OW 8664   6.829   2.251   1.334  0.2025  0.4984 -0.4268
 2708SOL    HW1 8665   6.733   2.257   1.335  0.2371  1.1502  0.4428
 2708SOL    HW2 8666   6.855   2.305   1.259 -0.0911  0.7120 -0.3762
 2709SOL     OW 8667   7.540   2.133   5.660 -0.5966  0.3983 -0.2122
 2709SOL    HW1 8668   7.536   2.217   5.707  0.3987 -0.1227  0.8429
 2709SOL    HW2 8669   7.560   2.069   5.728 -0.6121 -0.5967 -1.1356
 2710SOL     OW 8670   2.110   1.016   3.793  0.2498 -0.0029 -0.4322
 2710SOL    HW1 8671   2.155   1.042   3.873  0.5998  0.0795 -0.6550
 2710SOL    HW2 8672   2.090   1.098   3.748  1.3976 -0.1025 -1.1589
 2711SOL     OW 8673   0.880   1.500   2.346  0.4847  0.3534  0.1403
 2711SOL    HW1 8674   0.942   1.563   2.383  1.4005  0.4441 -1.4557
 2711SOL    HW2 8675   0.873   1.525   2.253 -0.3875 -0.9126 -0.1580
 2712SOL     OW 8676   7.555   6.067   0.499  0.1011  0.1736 -0.0401
 2712SOL    HW1 8677   7.506   6.041   0.421 -0.1001  0.2438  0.0608
 2712SOL    HW2 8678   7.487   6.091   0.562  0.2795  0.9080 -0.1185
 2713SOL     OW 8679   3.729   5.554   3.269  0.3407 -1.0310  0.1918
 2713SOL    HW1 8680   3.704   5.597   3.187  1.4864 -0.7686 -0.0403
 2713SOL    HW2 8681   3.646   5.531   3.311 -0.2914 -2.1048 -1.5392
 2714SOL     OW 8682   6.403   1.906   1.974  0.2130 -0.4484 -0.4466
 2714SOL    HW1 8683   6.412   1.973   1.906 -0.9051 -1.7102 -1.9269
 2714SOL    HW2 8684   6.486   1.859   1.973 -0.3749 -1.5875 -2.2919
 2715SOL     OW 8685   5.662   0.071   5.028 -0.0484 -0.1355  0.3899
 2715SOL    HW1 8686   5.685   0.125   5.104  0.4290  0.0761  0.1002
 2715SOL    HW2 8687   5.688   0.124   4.953  0.5562 -0.8264  0.1042
 2716SOL     OW 8688   5.029   3.661   5.007 -0.8776  0.2868  0.1638
 2716SOL    HW1 8689   5.086   3.733   4.980 -1.0507  0.3100 -0.1396
 2716SOL    HW2 8690   4.992   3.691   5.090  1.6164 -0.8420  1.7853
 2717SOL     OW 8691   4.734   1.761   2.642 -0.1518 -0.3457 -0.0395
 2717SOL    HW1 8692   4.720   1.764   2.547 -0.9792  0.6764  0.1056
 2717SOL    HW2 8693   4.686   1.684   2.671 -1.6131  0.4868 -0.1870
 2718SOL     OW 8694   4.385   1.448   7.194  0.4840 -0.3688  0.1842
 2718SOL    HW1 8695   4.401   1.475   7.104  0.1790 -1.2648 -0.1470
 2718SOL    HW2 8696   4.471   1.418   7.225  0.4440 -0.7590 -0.0640
 2719SOL     OW 8697   6.171   7.269   3.328 -0.2628 -0.4908  0.1888
 2719SOL    HW1 8698   6.081   7.288   3.301 -0.4991 -0.2077  1.1336
 2719SOL    HW2 8699   6.222   7.341   3.292 -0.3979 -0.6735 -0.3894
 2720SOL     OW 8700   7.090   6.776   4.448 -0.6302 -0.1953 -0.2489
 2720SOL    HW1 8701   7.130   6.843   4.394 -0.7520  0.7421  0.7827
 2720SOL    HW2 8702   7.068   6.821   4.530  1.6921 -2.0727  1.5480
 2721SOL     OW 8703   1.823   2.996   2.130  0.0931  0.0747  0.7694
 2721SOL    HW1 8704   1.765   3.050   2.076 -3.2518 -1.9822  1.9573
 2721SOL    HW2 8705   1.839   2.918   2.077  0.5531 -0.0082  1.0272
 2722SOL     OW 8706   2.772   0.608   3.771 -0.1282  0.0291  0.2793
 2722SOL    HW1 8707   2.760   0.639   3.861 -2.3070 -0.2687  0.1388
 2722SOL    HW2 8708   2.765   0.513   3.777  0.0862 -0.0173 -0.1616
 2723SOL     OW 8709   4.167   6.452   4.863  0.3938 -0.0626  0.1367
 2723SOL    HW1 8710   4.163   6.397   4.786  1.3679 -0.5060  0.3945
 2723SOL    HW2 8711   4.257   6.483   4.867 -0.1402  1.6413 -0.0524
 2724SOL     OW 8712   3.161   2.623   4.692  0.3905  0.6386  0.2759
 2724SOL    HW1 8713   3.208   2.702   4.664  3.0735 -0.7061  0.7284
 2724SOL    HW2 8714   3.113   2.651   4.771  1.4574  1.7684  0.5621
 2725SOL     OW 8715   7.478   1.567   1.557  0.0658 -0.0211  0.0075
 2725SOL    HW1 8716   7.514   1.570   1.646  0.3108  2.4836 -0.1125
 2725SOL    HW2 8717   7.399   1.513   1.566  0.3579 -0.2539  1.6243
 2726SOL     OW 8718   1.528   4.270   5.277  0.0493 -0.6897  0.2869
 2726SOL    HW1 8719   1.552   4.225   5.358  0.8060  1.5109  1.3427
 2726SOL    HW2 8720   1.602   4.253   5.218  0.7324 -0.1689  0.9683
 2727SOL     OW 8721   4.529   2.610   2.349 -0.5301 -0.0960 -0.8149
 2727SOL    HW1 8722   4.577   2.553   2.288  0.7755  0.5628 -0.4366
 2727SOL    HW2 8723   4.511   2.554   2.425 -0.5849 -0.4209 -1.0661
 2728SOL     OW 8724   0.198   0.618   1.903 -0.1675  0.3252 -0.7424
 2728SOL    HW1 8725   0.282   0.602   1.859  0.7687 -0.0534  1.0504
 2728SOL    HW2 8726   0.133   0.576   1.847  1.0641 -0.9258 -1.3203
 2729SOL     OW 8727   6.852   0.607   5.576 -0.2879  0.1436  0.1000
 2729SOL    HW1 8728   6.776   0.597   5.633 -0.0214 -0.1812  0.4012
 2729SOL    HW2 8729   6.925   0.572   5.626 -0.0943 -0.4112 -0.5493
 2730SOL     OW 8730   2.820   0.539   2.904  0.2820 -0.2960  0.1226
 2730SOL    HW1 8731   2.801   0.446   2.894  0.3816 -0.2008 -1.2537
 2730SOL    HW2 8732   2.900   0.552   2.854 -0.2551  0.6915 -0.5224
 2731SOL     OW 8733   4.045   6.999   0.225  0.1678  0.1982  0.7214
 2731SOL    HW1 8734   3.956   7.001   0.261 -0.0703 -1.2181  0.2656
 2731SOL    HW2 8735   4.083   6.917   0.258  0.8410  0.1476 -0.1455
 2732SOL     OW 8736   3.340   5.094   0.889  0.6346 -0.0204  0.1435
 2732SOL    HW1 8737   3.273   5.085   0.821  0.9271  0.5935 -0.2425
 2732SOL    HW2 8738   3.293   5.129   0.965  0.7603  1.9945 -0.6344
 2733SOL     OW 8739   1.581   4.251   2.285 -0.1026  0.2146  0.3799
 2733SOL    HW1 8740   1.498   4.269   2.328 -1.0052  0.4138 -1.3429
 2733SOL    HW2 8741   1.626   4.189   2.342  0.2845  2.9313  3.2892
 2734SOL     OW 8742   4.046   7.021   4.541 -0.3180 -0.3042 -0.6260
 2734SOL    HW1 8743   3.999   6.939   4.557 -1.6148  0.1221 -1.9619
 2734SOL    HW2 8744   4.053   7.027   4.446  1.5743  0.1787 -0.5071
 2735SOL     OW 8745   1.279   3.913   3.263  0.1870 -0.5445 -0.0704
 2735SOL    HW1 8746   1.249   3.991   3.310 -0.6217 -1.0788  0.3233
 2735SOL    HW2 8747   1.365   3.894   3.301  1.5242  1.5457 -1.8557
 2736SOL     OW 8748   2.616   1.791   2.235 -0.4867  0.2168  0.0428
 2736SOL    HW1 8749   2.603   1.721   2.171 -0.4029  0.0419  0.2164
 2736SOL    HW2 8750   2.711   1.794   2.247 -0.4717  0.5239 -0.1470
 2737SOL     OW 8751   3.404   7.169   5.066  0.4548  0.3501 -0.4121
 2737SOL    HW1 8752   3.404   7.161   5.162 -0.9419  0.4282 -0.3853
 2737SOL    HW2 8753   3.442   7.086   5.036  0.6058  0.1883  0.1967
 2738SOL     OW 8754   6.476   0.538   6.290  0.2567 -0.3297  0.0408
 2738SOL    HW1 8755   6.528   0.618   6.281  0.9870 -0.5069  2.0608
 2738SOL    HW2 8756   6.433   0.527   6.205  0.9437  1.6312 -0.6160
 2739SOL     OW 8757   0.916   4.411   5.042  0.1686  0.2039  0.2387
 2739SOL    HW1 8758   0.916   4.331   5.094 -2.7141 -0.9618 -1.3218
 2739SOL    HW2 8759   0.940   4.382   4.954 -1.4304  0.9206 -0.4648
 2740SOL     OW 8760   5.105   1.563   3.028 -0.2476 -0.2081 -0.2236
 2740SOL    HW1 8761   5.195   1.589   3.049 -0.4393  1.2239 -1.0977
 2740SOL    HW2 8762   5.116   1.486   2.972  0.5024  0.5856 -1.2255
 2741SOL     OW 8763   1.354   2.279   0.811 -0.3882 -0.2412 -0.0696
 2741SOL    HW1 8764   1.355   2.372   0.832 -2.7043 -0.1644 -0.0370
 2741SOL    HW2 8765   1.302   2.272   0.731  2.1141 -1.2895 -1.7633
 2742SOL     OW 8766   1.580   5.480   4.548  0.4062  0.0943  0.1219
 2742SOL    HW1 8767   1.587   5.387   4.530  0.4073 -0.2269  1.6656
 2742SOL    HW2 8768   1.630   5.522   4.478  1.8312 -1.1508  0.3444
 2743SOL     OW 8769   6.596   3.885   7.290  0.2496 -0.2371 -0.6953
 2743SOL    HW1 8770   6.608   3.961   7.348  0.7749 -1.5989  1.0665
 2743SOL    HW2 8771   6.665   3.894   7.224  0.5564  0.6109 -0.2797
 2744SOL     OW 8772   1.173   1.225   6.424  0.3586 -0.3244 -0.1565
 2744SOL    HW1 8773   1.113   1.279   6.476  2.3243  1.9017 -0.0442
 2744SOL    HW2 8774   1.171   1.264   6.337 -0.3887 -1.9628 -0.9136
 2745SOL     OW 8775   7.279   5.020   3.765  0.4875  0.0952 -0.4537
 2745SOL    HW1 8776   7.336   5.084   3.807  1.1026 -1.0908  0.6126
 2745SOL    HW2 8777   7.331   4.939   3.766 -0.1270 -0.3481 -2.0538
 2746SOL     OW 8778   0.130   3.054   6.474 -0.2163 -0.2444  0.0549
 2746SOL    HW1 8779   0.149   3.048   6.380  0.9849 -1.3763  0.3427
 2746SOL    HW2 8780   0.208   3.094   6.512  0.0603 -1.4591  0.8000
 2747SOL     OW 8781   6.761   7.398   5.303  0.1700 -0.4344 -0.2827
 2747SOL    HW1 8782   6.678   7.405   5.351 -0.6346 -0.2070 -1.6415
 2747SOL    HW2 8783   6.814   7.470   5.337 -0.1107 -0.6785  0.7215
 2748SOL     OW 8784   5.996   2.557   1.845 -0.7533  0.4413 -0.1084
 2748SOL    HW1 8785   5.937   2.485   1.821 -2.2978  1.0619  1.5611
 2748SOL    HW2 8786   6.020   2.538   1.935  3.7189 -1.0878 -1.3727
 2749SOL     OW 8787   1.146   0.610   0.383 -0.3181  0.3182 -0.4456
 2749SOL    HW1 8788   1.126   0.694   0.423  0.5899 -0.1451  1.0718
 2749SOL    HW2 8789   1.241   0.604   0.386 -0.4044 -1.1160  0.2810
 2750SOL     OW 8790   6.093   7.014   2.728  0.1059  0.1921  0.2629
 2750SOL    HW1 8791   6.093   6.998   2.822  0.3716  0.0832  0.2461
 2750SOL    HW2 8792   6.119   6.931   2.689 -1.1156 -0.0873  0.0287
 2751SOL     OW 8793   2.680   0.719   7.212 -0.2004  0.0158 -0.1565
 2751SOL    HW1 8794   2.752   0.781   7.197  0.0591  0.3482  2.0989
 2751SOL    HW2 8795   2.614   0.771   7.258 -1.5458 -0.5299 -1.3758
 2752SOL     OW 8796   3.954   5.391   1.369 -0.3173 -0.2263  0.2565
 2752SOL    HW1 8797   3.946   5.320   1.432  1.1077 -0.3873  0.2970
 2752SOL    HW2 8798   3.875   5.385   1.315 -1.6979  0.0885  2.1593
 2753SOL     OW 8799   4.298   4.395   5.587  0.7438 -0.2145  0.4555
 2753SOL    HW1 8800   4.251   4.355   5.514 -0.5387  0.7725  0.6996
 2753SOL    HW2 8801   4.253   4.478   5.601  0.7355 -0.5316  2.5784
 2754SOL     OW 8802   6.734   1.254   0.528 -0.4771  0.4138  0.1895
 2754SOL    HW1 8803   6.811   1.263   0.584 -0.6977 -0.2392  0.6222
 2754SOL    HW2 8804   6.765   1.275   0.440  0.1236  0.4567  0.4064
 2755SOL     OW 8805   3.518   1.764   5.414 -0.1392 -0.0537 -0.1317
 2755SOL    HW1 8806   3.543   1.784   5.324 -1.4232  0.7139 -0.3360
 2755SOL    HW2 8807   3.597   1.782   5.465  0.5145 -0.2140 -1.0577
 2756SOL     OW 8808   3.387   4.408   5.136  0.3610 -0.0310  0.2821
 2756SOL    HW1 8809   3.445   4.369   5.070 -0.2783 -1.5563  0.5697
 2756SOL    HW2 8810   3.414   4.366   5.218 -0.0936  0.4510  0.6785
 2757SOL     OW 8811   0.036   3.952   1.926  0.3714  0.7916  0.2232
 2757SOL    HW1 8812   0.102   3.970   1.993  1.7073  0.4489 -0.9456
 2757SOL    HW2 8813   0.063   3.869   1.887 -1.1696  0.2817  0.1770
 2758SOL     OW 8814   6.881   1.505   2.786  0.0071 -0.3692  0.6393
 2758SOL    HW1 8815   6.808   1.452   2.820  0.0564  0.3601  1.9615
 2758SOL    HW2 8816   6.894   1.572   2.852  1.3511  0.0169  0.0162
 2759SOL     OW 8817   6.630   6.376   7.587 -0.5560  0.0230 -0.6043
 2759SOL    HW1 8818   6.548   6.331   7.567 -1.1811  0.7734  0.1923
 2759SOL    HW2 8819   6.661   6.409   7.502 -1.3282  0.1456 -0.8482
 2760SOL     OW 8820   0.818   3.097   4.531  0.2858  0.1040 -0.6044
 2760SOL    HW1 8821   0.869   3.166   4.490 -1.3168  1.9740  0.3681
 2760SOL    HW2 8822   0.763   3.062   4.461  1.6580 -0.7874 -1.2770
 2761SOL     OW 8823   5.709   6.627   4.953  0.3462 -0.8735 -0.1859
 2761SOL    HW1 8824   5.695   6.669   4.868 -3.0253 -2.4861 -0.5897
 2761SOL    HW2 8825   5.646   6.669   5.012  0.9490 -1.4430  0.8969
 2762SOL     OW 8826   6.126   7.089   3.533 -0.0289 -0.4801 -0.2170
 2762SOL    HW1 8827   6.030   7.092   3.524  0.1461  0.9765 -2.4064
 2762SOL    HW2 8828   6.158   7.136   3.456  2.5092 -2.1207 -0.2509
 2763SOL     OW 8829   2.330   5.076   4.740 -0.0272 -0.2274 -0.1535
 2763SOL    HW1 8830   2.426   5.072   4.739  0.0263  0.6836 -0.5341
 2763SOL    HW2 8831   2.307   5.103   4.651 -0.5939  0.2500  0.1332
 2764SOL     OW 8832   0.189   4.853   0.166  0.2654 -0.1376  0.4326
 2764SOL    HW1 8833   0.203   4.888   0.254  2.9968  0.5525 -0.1631
 2764SOL    HW2 8834   0.275   4.818   0.141 -0.5640 -0.7438 -1.7672
 2765SOL     OW 8835   2.499   3.979   3.274 -0.8122 -0.3873 -0.4031
 2765SOL    HW1 8836   2.418   3.997   3.320  0.1968  2.0986  0.6044
 2765SOL    HW2 8837   2.513   3.885   3.283 -2.8709 -0.6334  0.5598
 2766SOL     OW 8838   2.933   5.076   4.313 -0.3992 -0.7716  0.4347
 2766SOL    HW1 8839   2.972   5.105   4.231 -1.3573 -0.8724 -0.0737
 2766SOL    HW2 8840   2.851   5.126   4.320 -0.2806 -0.6928  1.3765
 2767SOL     OW 8841   4.367   3.656   7.085  0.5131  0.1468 -0.1134
 2767SOL    HW1 8842   4.390   3.631   6.995 -0.3447  0.6743 -0.4966
 2767SOL    HW2 8843   4.450   3.661   7.131  0.9362 -0.4888 -0.7893
 2768SOL     OW 8844   6.257   6.449   3.810 -0.1216 -0.0664 -0.0916
 2768SOL    HW1 8845   6.249   6.363   3.852  0.4265  0.2095  0.5940
 2768SOL    HW2 8846   6.176   6.459   3.760  0.4755 -1.6570 -1.4558
 2769SOL     OW 8847   2.100   1.887   3.683 -0.1022 -0.6530  0.7581
 2769SOL    HW1 8848   2.143   1.857   3.763  1.2461  0.4026  0.4757
 2769SOL    HW2 8849   2.123   1.821   3.617  0.7018 -0.3761  0.7401
 2770SOL     OW 8850   5.031   3.185   3.436 -0.0336  0.3591  0.6108
 2770SOL    HW1 8851   5.064   3.096   3.449 -0.0480  0.5040  1.6659
 2770SOL    HW2 8852   5.016   3.219   3.524 -1.2751  0.9530  0.1937
 2771SOL     OW 8853   5.978   2.434   6.326  0.5326 -0.3392  0.1159
 2771SOL    HW1 8854   5.983   2.502   6.258 -0.2755  0.0497  0.4369
 2771SOL    HW2 8855   5.886   2.408   6.327  0.7364 -1.0815  0.3601
 2772SOL     OW 8856   3.343   4.966   7.205 -0.4883  0.1577  0.9039
 2772SOL    HW1 8857   3.369   4.880   7.174  1.3299  1.0899 -0.3897
 2772SOL    HW2 8858   3.371   4.968   7.296  1.6479  0.1384  0.3023
 2773SOL     OW 8859   6.376   0.917   2.664  0.0859  0.4334 -0.2318
 2773SOL    HW1 8860   6.433   0.873   2.602 -0.9680 -1.6963  0.2085
 2773SOL    HW2 8861   6.294   0.931   2.616 -0.2598  0.0549  0.2364
 2774SOL     OW 8862   6.733   1.830   1.545  0.0609  0.2125  0.3226
 2774SOL    HW1 8863   6.765   1.887   1.474  0.8516  0.4902  0.8894
 2774SOL    HW2 8864   6.796   1.842   1.616 -1.7552  1.4777  1.8354
 2775SOL     OW 8865   4.601   4.736   1.002  0.4285 -0.1969 -0.3677
 2775SOL    HW1 8866   4.685   4.764   1.040  0.6602 -0.5550 -0.6132
 2775SOL    HW2 8867   4.607   4.641   0.999  0.1851 -0.1966 -0.7891
 2776SOL     OW 8868   2.120   5.180   4.842  0.4702  0.5908 -0.2661
 2776SOL    HW1 8869   2.094   5.115   4.907 -1.2859 -0.4857 -1.9252
 2776SOL    HW2 8870   2.206   5.150   4.812  0.7677  0.4470  0.6974
 2777SOL     OW 8871   4.221   0.781   5.989 -0.7921  0.1002 -0.2730
 2777SOL    HW1 8872   4.175   0.864   6.000 -0.9058 -0.1727  1.6815
 2777SOL    HW2 8873   4.189   0.746   5.906  0.1956  2.5648 -1.7863
 2778SOL     OW 8874   6.643   3.220   4.839  0.5329  0.0379  0.2925
 2778SOL    HW1 8875   6.555   3.225   4.877  0.5328 -0.0198  0.2994
 2778SOL    HW2 8876   6.698   3.272   4.897  0.5547 -0.1435  0.4352
 2779SOL     OW 8877   1.931   1.889   1.378  0.5074 -0.2281 -0.2293
 2779SOL    HW1 8878   1.979   1.807   1.396 -2.0544 -1.4056  1.8221
 2779SOL    HW2 8879   1.904   1.881   1.286  1.1397 -1.2043 -0.3482
 2780SOL     OW 8880   7.414   6.199   1.721 -0.3273  0.3319 -0.1194
 2780SOL    HW1 8881   7.343   6.137   1.704 -0.3570  0.4151 -0.3137
 2780SOL    HW2 8882   7.423   6.247   1.638  2.4653 -2.1933 -1.4883
 2781SOL     OW 8883   2.856   4.352   1.452 -0.2146  0.0416 -0.2113
 2781SOL    HW1 8884   2.933   4.295   1.440  0.3641  0.7822 -0.1223
 2781SOL    HW2 8885   2.781   4.295   1.437  0.1981 -1.6513  3.1495
 2782SOL     OW 8886   3.105   3.594   1.790  0.0894 -0.4242 -0.2798
 2782SOL    HW1 8887   3.115   3.499   1.800 -1.1373 -0.5569 -0.2460
 2782SOL    HW2 8888   3.011   3.609   1.791  0.2738  0.8250 -0.1124
 2783SOL     OW 8889   2.723   6.082   3.879  0.5694  0.5444  0.2168
 2783SOL    HW1 8890   2.680   6.015   3.825 -0.4737  1.0692  0.3780
 2783SOL    HW2 8891   2.703   6.057   3.969  2.9939 -0.7977  0.4756
 2784SOL     OW 8892   6.113   5.817   3.530  0.1531 -0.0931 -0.6026
 2784SOL    HW1 8893   6.104   5.879   3.602  1.1375  1.1138 -1.4968
 2784SOL    HW2 8894   6.168   5.747   3.565  0.2537  0.2618 -0.0475
 2785SOL     OW 8895   5.606   0.439   1.046  0.6179  0.7525 -0.6757
 2785SOL    HW1 8896   5.667   0.513   1.047  0.7773  0.6524 -1.9830
 2785SOL    HW2 8897   5.636   0.384   0.974 -3.0179  2.4199 -3.8014
 2786SOL     OW 8898   6.598   1.572   1.429 -0.1982 -0.2586 -0.0873
 2786SOL    HW1 8899   6.522   1.543   1.480  0.8947  0.8805  2.3804
 2786SOL    HW2 8900   6.596   1.668   1.435  1.4485 -0.2057  0.1172
 2787SOL     OW 8901   1.430   4.607   4.409  0.0806  0.0441 -0.2161
 2787SOL    HW1 8902   1.370   4.572   4.343  0.6754  0.7049 -1.1467
 2787SOL    HW2 8903   1.424   4.702   4.397  0.5687  0.1454  0.3534
 2788SOL     OW 8904   5.991   7.090   4.046  0.0693  0.1300 -0.1402
 2788SOL    HW1 8905   6.063   7.029   4.030 -0.5221 -1.0245  1.3125
 2788SOL    HW2 8906   5.920   7.058   3.990 -0.1901 -0.4509  0.5050
 2789SOL     OW 8907   3.073   0.618   1.147  0.9340  0.0358  0.6577
 2789SOL    HW1 8908   3.039   0.589   1.232  0.4696 -1.3312  0.0332
 2789SOL    HW2 8909   3.166   0.593   1.150  0.0278 -4.6468 -0.9831
 2790SOL     OW 8910   0.084   7.459   0.413  0.4683  0.0794  0.0262
 2790SOL    HW1 8911   0.125   7.484   0.496 -0.0905 -0.5009  0.4919
 2790SOL    HW2 8912  -0.007   7.489   0.421  0.5130  0.3933 -0.5536
 2791SOL     OW 8913   4.369   7.410   2.800 -0.0519 -0.7181  0.2370
 2791SOL    HW1 8914   4.458   7.445   2.807  0.0164 -0.9664  0.6858
 2791SOL    HW2 8915   4.350   7.409   2.706 -0.8021  2.3758  0.2268
 2792SOL     OW 8916   0.461   1.551   2.151  0.1049  0.4731  0.3587
 2792SOL    HW1 8917   0.411   1.478   2.115  0.9055  0.7344 -1.4173
 2792SOL    HW2 8918   0.416   1.575   2.231 -1.7049 -0.2731 -0.3896
 2793SOL     OW 8919   0.594   2.775   1.758  0.1330  0.7420  0.6588
 2793SOL    HW1 8920   0.617   2.757   1.667  2.8634  0.4298  1.3094
 2793SOL    HW2 8921   0.524   2.840   1.753 -3.1272 -2.5482 -1.6410
 2794SOL     OW 8922   2.964   0.471   6.313 -0.6121  0.2054 -0.3657
 2794SOL    HW1 8923   3.025   0.462   6.386 -1.3771 -0.0803  0.2555
 2794SOL    HW2 8924   3.004   0.536   6.255  1.0118 -1.0846 -0.7440
 2795SOL     OW 8925   2.321   2.353   3.350 -0.1140  0.2009 -0.1048
 2795SOL    HW1 8926   2.235   2.326   3.319 -0.4037 -0.0056  0.8559
 2795SOL    HW2 8927   2.377   2.277   3.335 -0.5708 -0.4104  1.1380
 2796SOL     OW 8928   0.619   7.046   4.320 -0.3367 -0.2975 -0.1322
 2796SOL    HW1 8929   0.675   7.121   4.340  0.9840 -1.5176  1.0177
 2796SOL    HW2 8930   0.535   7.067   4.360 -0.2167  0.8716 -0.4694
 2797SOL     OW 8931   3.245   2.187   7.008  0.0696 -0.3268 -0.1249
 2797SOL    HW1 8932   3.314   2.228   6.955 -0.7304  0.7369 -0.3789
 2797SOL    HW2 8933   3.172   2.249   7.004  0.2903  0.2978  3.0287
 2798SOL     OW 8934   2.602   0.160   6.016  0.0470 -0.2957  0.2974
 2798SOL    HW1 8935   2.663   0.143   6.088  1.4944 -0.5847 -0.9353
 2798SOL    HW2 8936   2.629   0.099   5.947 -1.6454 -0.4081 -0.3127
 2799SOL     OW 8937   0.716   3.346   4.716  0.1734 -0.2260 -0.5065
 2799SOL    HW1 8938   0.775   3.275   4.693  0.9751  0.4965 -0.7062
 2799SOL    HW2 8939   0.673   3.369   4.634  2.3769  1.7451 -1.2225
 2800SOL     OW 8940   5.437   7.089   4.527 -0.1025  0.6363 -0.1715
 2800SOL    HW1 8941   5.465   7.144   4.600  2.4942  1.9721 -2.0353
 2800SOL    HW2 8942   5.359   7.132   4.493 -0.9127  0.3987  1.3018
 2801SOL     OW 8943   2.915   3.507   6.068 -0.0174  0.2009  0.5060
 2801SOL    HW1 8944   2.827   3.490   6.100  0.2024 -1.5486  0.3066
 2801SOL    HW2 8945   2.915   3.473   5.978  0.4302  1.5935 -0.0401
 2802SOL     OW 8946   0.650   2.146   5.277 -0.5501 -0.1129 -0.3686
 2802SOL    HW1 8947   0.707   2.201   5.225  1.4540 -0.8401  0.9381
 2802SOL    HW2 8948   0.603   2.207   5.334  0.6961  0.3690  0.1814
 2803SOL     OW 8949   6.567   6.372   5.071 -0.2713  0.4015 -0.8827
 2803SOL    HW1 8950   6.611   6.331   5.145 -0.2636  0.6933 -0.7233
 2803SOL    HW2 8951   6.492   6.418   5.110 -1.1263 -0.6615 -1.2314
 2804SOL     OW 8952   1.803   1.024   3.621 -0.4378  0.1204  0.3866
 2804SOL    HW1 8953   1.869   1.087   3.594  0.0674 -0.7494 -0.4578
 2804SOL    HW2 8954   1.732   1.078   3.658 -0.0912  1.1903 -0.4613
 2805SOL     OW 8955   1.175   2.738   1.311  0.4789 -0.4545  0.9148
 2805SOL    HW1 8956   1.103   2.801   1.310  0.6752 -0.2309  0.3885
 2805SOL    HW2 8957   1.173   2.701   1.399  0.6352  0.6170  1.3933
 2806SOL     OW 8958   4.863   4.368   3.962  0.0722  0.0915 -0.2553
 2806SOL    HW1 8959   4.927   4.299   3.940 -0.5693 -1.1711  1.5921
 2806SOL    HW2 8960   4.916   4.446   3.977  0.9071 -0.2149 -1.4307
 2807SOL     OW 8961   1.025   5.899   5.953 -0.2356  0.1895  0.5918
 2807SOL    HW1 8962   0.946   5.912   5.900 -1.3431 -0.6019  1.9698
 2807SOL    HW2 8963   1.070   5.983   5.949 -1.6277  0.9655  0.5258
 2808SOL     OW 8964   0.483   2.643   0.375 -0.4540 -0.0711  0.0901
 2808SOL    HW1 8965   0.461   2.592   0.297 -1.1735 -0.5385  0.5843
 2808SOL    HW2 8966   0.541   2.585   0.426 -1.2031 -0.3870  0.6107
 2809SOL     OW 8967   3.822   2.371   1.880 -0.2910  0.7499 -0.5372
 2809SOL    HW1 8968   3.810   2.372   1.975  0.5851  0.3596 -0.4170
 2809SOL    HW2 8969   3.740   2.408   1.846 -0.6670  0.7818  0.3576
 2810SOL     OW 8970   7.140   1.279   6.592  0.0793  0.4228  0.9089
 2810SOL    HW1 8971   7.119   1.188   6.613  0.7818 -0.0745 -0.4179
 2810SOL    HW2 8972   7.206   1.303   6.656 -1.2290  0.5334  2.2615
 2811SOL     OW 8973   2.222   1.093   6.768 -0.0456 -0.5752  0.1069
 2811SOL    HW1 8974   2.152   1.029   6.783  0.4267 -1.1833 -0.2420
 2811SOL    HW2 8975   2.252   1.075   6.679 -0.8839  1.1071 -0.5603
 2812SOL     OW 8976   6.535   7.132   2.372  0.3590  0.2543  0.1627
 2812SOL    HW1 8977   6.456   7.100   2.416  1.0937 -2.2050 -0.1217
 2812SOL    HW2 8978   6.523   7.106   2.281  2.0402 -1.4609  0.3627
 2813SOL     OW 8979   1.416   2.691   6.666  0.4086 -0.3319  0.1040
 2813SOL    HW1 8980   1.370   2.767   6.629  0.1989 -1.2798 -1.6902
 2813SOL    HW2 8981   1.464   2.727   6.741 -0.3814  1.3905 -0.1559
 2814SOL     OW 8982   2.406   5.424   4.136 -0.5585  0.0126  0.0675
 2814SOL    HW1 8983   2.438   5.344   4.177  0.6784 -0.5521 -1.8331
 2814SOL    HW2 8984   2.317   5.403   4.107  0.0008 -0.9662 -1.0305
 2815SOL     OW 8985   6.519   0.501   0.808  0.2697 -0.2509  0.2824
 2815SOL    HW1 8986   6.609   0.474   0.825 -0.0619 -1.4670  0.2021
 2815SOL    HW2 8987   6.523   0.545   0.723  0.8223 -0.1139  0.3763
 2816SOL     OW 8988   2.994   1.708   1.061  0.1107  0.4094  0.6077
 2816SOL    HW1 8989   3.026   1.649   1.129 -0.5838  0.6801  1.1899
 2816SOL    HW2 8990   2.904   1.678   1.044  0.1224  0.6340  0.1455
 2817SOL     OW 8991   6.783   5.872   3.465  0.5014  0.4453  0.1435
 2817SOL    HW1 8992   6.834   5.858   3.544  1.5717  1.9049 -0.2538
 2817SOL    HW2 8993   6.826   5.818   3.398  1.0007  0.9959  0.0171
 2818SOL     OW 8994   2.337   5.243   1.922 -0.5251  0.1665  0.9837
 2818SOL    HW1 8995   2.393   5.167   1.937  1.7369  1.2293 -1.2484
 2818SOL    HW2 8996   2.340   5.291   2.005 -0.1596 -1.0189  1.6884
 2819SOL     OW 8997   0.643   5.194   3.478  0.2596  0.9839  0.1223
 2819SOL    HW1 8998   0.706   5.146   3.426 -0.7100 -0.9305  0.6184
 2819SOL    HW2 8999   0.625   5.273   3.428 -0.1704 -0.4762 -2.1322
 2820SOL     OW 9000   4.074   6.997   4.212  0.0277 -0.3337 -0.0478
 2820SOL    HW1 9001   4.000   6.939   4.195 -1.1722  1.3850 -0.9449
 2820SOL    HW2 9002   4.088   7.044   4.130  1.2724  0.3252  0.5018
 2821SOL     OW 9003   6.897   2.937   3.302 -0.0036 -0.3303  0.0344
 2821SOL    HW1 9004   6.967   2.992   3.336 -1.4584  2.4447 -1.1716
 2821SOL    HW2 9005   6.854   2.901   3.381  0.6135  0.7469  0.8839
 2822SOL     OW 9006   5.363   1.611   1.269 -0.0606  0.2293  0.9009
 2822SOL    HW1 9007   5.437   1.672   1.271 -0.6166  0.8948  2.1748
 2822SOL    HW2 9008   5.325   1.623   1.182  1.6983 -0.6218 -0.0423
 2823SOL     OW 9009   7.401   6.946   4.872 -0.1577 -0.2681  0.0338
 2823SOL    HW1 9010   7.417   6.974   4.962 -0.3032  1.4393 -0.4408
 2823SOL    HW2 9011   7.396   7.027   4.822 -4.0875 -0.8699 -0.8811
 2824SOL     OW 9012   3.695   2.415   1.279  0.3638  0.0505  0.4368
 2824SOL    HW1 9013   3.740   2.457   1.206 -1.4886 -0.1743 -0.9074
 2824SOL    HW2 9014   3.652   2.487   1.326  2.1567  0.2860  1.8206
 2825SOL     OW 9015   1.879   4.692   4.903  0.0992 -0.0365  0.3943
 2825SOL    HW1 9016   1.956   4.719   4.952 -1.4476 -0.3897  3.2413
 2825SOL    HW2 9017   1.901   4.605   4.870  1.9832  1.1039 -1.5325
 2826SOL     OW 9018   0.264   0.170   0.493  0.5465 -0.2208 -0.0353
 2826SOL    HW1 9019   0.226   0.152   0.407 -0.7327  2.8419 -0.2560
 2826SOL    HW2 9020   0.197   0.139   0.555 -0.2932  0.9505 -0.3097
 2827SOL     OW 9021   4.086   5.590   1.227 -0.0752 -0.3524  0.7474
 2827SOL    HW1 9022   4.139   5.634   1.293 -1.0801 -0.0713  1.3891
 2827SOL    HW2 9023   4.030   5.531   1.276 -1.1261  0.1543  0.2070
 2828SOL     OW 9024   6.562   5.799   3.094  0.4492 -0.0598 -0.8179
 2828SOL    HW1 9025   6.615   5.862   3.144  0.1753 -0.7994  0.4688
 2828SOL    HW2 9026   6.474   5.808   3.132  0.4032 -1.1839 -0.6194
 2829SOL     OW 9027   4.151   1.957   3.557 -0.5947 -0.0184  0.5779
 2829SOL    HW1 9028   4.125   1.909   3.478 -1.1096  0.6883  0.3058
 2829SOL    HW2 9029   4.071   2.000   3.587 -0.1065  0.8428  0.6943
 2830SOL     OW 9030   1.357   2.471   0.333  0.5358  0.3491 -0.1597
 2830SOL    HW1 9031   1.371   2.378   0.315 -1.2464 -0.3530  1.6895
 2830SOL    HW2 9032   1.331   2.508   0.249  0.3380 -1.0331 -0.7330
 2831SOL     OW 9033   6.289   6.560   5.841 -0.3114  0.1989  0.1242
 2831SOL    HW1 9034   6.265   6.652   5.855 -0.4707  0.1513  0.1619
 2831SOL    HW2 9035   6.342   6.537   5.918 -0.3931  0.2162  0.1854
 2832SOL     OW 9036   4.874   2.956   7.257 -0.5346 -0.3102 -0.4090
 2832SOL    HW1 9037   4.925   2.931   7.334 -0.3770  0.3080 -0.3033
 2832SOL    HW2 9038   4.941   2.975   7.190 -0.6684 -0.7894 -0.6828
 2833SOL     OW 9039   7.069   6.153   4.301 -0.0964 -0.5260  0.2559
 2833SOL    HW1 9040   7.044   6.244   4.316 -3.4143 -1.1648 -0.6209
 2833SOL    HW2 9041   7.131   6.157   4.228  0.8338  1.0651  1.0763
 2834SOL     OW 9042   2.321   3.179   6.615 -0.2001  0.5871  0.1818
 2834SOL    HW1 9043   2.352   3.264   6.584  0.8044  0.5367  0.9774
 2834SOL    HW2 9044   2.389   3.150   6.676 -0.1069 -1.1480 -0.6641
 2835SOL     OW 9045   3.267   6.750   0.130 -0.0282 -0.0514  0.0242
 2835SOL    HW1 9046   3.174   6.734   0.113 -0.2969  2.4156 -1.4157
 2835SOL    HW2 9047   3.271   6.771   0.223 -0.7636 -1.0072  0.2813
 2836SOL     OW 9048   0.957   7.297   2.653 -0.0895  0.0745 -0.1455
 2836SOL    HW1 9049   0.980   7.252   2.572 -2.5679 -0.5386 -0.5984
 2836SOL    HW2 9050   1.039   7.304   2.701  1.3729  0.0546 -2.4944
 2837SOL     OW 9051   6.860   1.398   1.445 -0.7854 -0.6269  0.2368
 2837SOL    HW1 9052   6.791   1.459   1.469 -1.8017 -1.1501 -1.2017
 2837SOL    HW2 9053   6.937   1.452   1.432 -0.8934 -0.0343  1.9148
 2838SOL     OW 9054   2.333   3.263   1.514 -0.2718 -0.0268  0.2188
 2838SOL    HW1 9055   2.317   3.169   1.511  0.1710 -0.0848 -1.0409
 2838SOL    HW2 9056   2.377   3.283   1.431  1.5634  0.9320  1.3373
 2839SOL     OW 9057   4.092   0.860   2.734  0.3102 -0.2408  0.4422
 2839SOL    HW1 9058   4.171   0.842   2.786 -0.5574 -1.4294  1.3939
 2839SOL    HW2 9059   4.058   0.773   2.712 -0.9812  0.2596  0.4209
 2840SOL     OW 9060   3.165   6.889   1.189  0.2319 -0.2971  0.0302
 2840SOL    HW1 9061   3.135   6.809   1.233 -1.0857  0.6164  0.8594
 2840SOL    HW2 9062   3.086   6.929   1.153  1.0266  0.0352 -1.4553
 2841SOL     OW 9063   3.541   3.762   3.288  0.2076 -0.3984 -0.6271
 2841SOL    HW1 9064   3.516   3.834   3.346  0.5953  0.8790 -1.9568
 2841SOL    HW2 9065   3.636   3.763   3.288  0.2254  0.1561 -1.8614
 2842SOL     OW 9066   6.306   5.265   4.351 -0.0791 -0.1286  0.5834
 2842SOL    HW1 9067   6.303   5.327   4.277 -0.3154 -0.6325  0.1612
 2842SOL    HW2 9068   6.323   5.180   4.310  3.0565 -0.0038  1.3620
 2843SOL     OW 9069   3.211   0.406   3.888  0.0500 -0.3556 -0.1333
 2843SOL    HW1 9070   3.197   0.494   3.923  1.3618  0.0040 -0.4718
 2843SOL    HW2 9071   3.301   0.406   3.857 -0.8861 -0.7382 -3.1960
 2844SOL     OW 9072   2.904   5.401   5.434  0.4560 -0.0623 -0.4238
 2844SOL    HW1 9073   2.935   5.474   5.487  1.0621 -0.3511 -0.3731
 2844SOL    HW2 9074   2.968   5.332   5.448 -1.2740 -1.4223  1.3161
 2845SOL     OW 9075   1.212   2.380   2.185  0.0866  0.0903  0.1878
 2845SOL    HW1 9076   1.273   2.314   2.216  1.7400  1.1340 -0.6810
 2845SOL    HW2 9077   1.216   2.373   2.089 -1.2936  0.0955  0.0992
 2846SOL     OW 9078   3.378   1.330   1.313  0.0920 -0.3623 -0.3129
 2846SOL    HW1 9079   3.363   1.360   1.223 -1.6671 -0.6075 -0.1453
 2846SOL    HW2 9080   3.381   1.234   1.306  0.7712 -0.3545 -0.2027
 2847SOL     OW 9081   3.053   6.022   1.640  0.3309  0.1716  0.1251
 2847SOL    HW1 9082   3.013   6.068   1.714  1.1264 -0.6123  1.0701
 2847SOL    HW2 9083   2.999   6.046   1.565 -0.1922  1.3933  0.8621
 2848SOL     OW 9084   3.710   0.047   1.686  0.1003  0.0301 -0.0687
 2848SOL    HW1 9085   3.629   0.061   1.636 -1.3035 -0.8992  1.8266
 2848SOL    HW2 9086   3.738   0.135   1.711 -1.1963  0.2971  0.5284
 2849SOL     OW 9087   4.839   7.574   2.183  0.1673  0.0968  0.0755
 2849SOL    HW1 9088   4.883   7.608   2.261 -0.5677  1.0132  0.1050
 2849SOL    HW2 9089   4.885   7.492   2.164  1.5610  0.7710  0.3862
 2850SOL     OW 9090   1.657   0.793   5.505 -0.1592 -0.3218 -0.4301
 2850SOL    HW1 9091   1.624   0.813   5.417  0.3820  0.1917 -0.5239
 2850SOL    HW2 9092   1.579   0.791   5.560 -0.4376  0.0322 -0.8053
 2851SOL     OW 9093   4.717   2.063   2.420  0.2636 -0.1819 -0.3449
 2851SOL    HW1 9094   4.689   1.972   2.431  0.8392 -0.4061 -0.6710
 2851SOL    HW2 9095   4.753   2.067   2.331 -0.0549  0.4501 -0.4548
 2852SOL     OW 9096   1.356   6.829   2.283  0.1388 -0.0329  0.7521
 2852SOL    HW1 9097   1.312   6.866   2.207  0.4029 -0.7074  0.2581
 2852SOL    HW2 9098   1.310   6.746   2.299 -0.4273  0.4650  1.8193
 2853SOL     OW 9099   0.940   1.133   3.068 -0.0834  0.0410  0.2296
 2853SOL    HW1 9100   1.036   1.138   3.074 -0.0803 -0.0790  0.2855
 2853SOL    HW2 9101   0.913   1.221   3.041  0.0706 -0.0133 -0.1183
 2854SOL     OW 9102   5.189   6.416   1.106 -0.1189 -0.0478  0.0085
 2854SOL    HW1 9103   5.278   6.450   1.092 -0.0750 -0.5065 -0.8550
 2854SOL    HW2 9104   5.160   6.461   1.185  1.3663 -0.8548  1.0658
 2855SOL     OW 9105   6.455   0.753   7.617 -0.7154  0.3725  0.3830
 2855SOL    HW1 9106   6.528   0.783   7.563 -0.6659  0.9389  0.7608
 2855SOL    HW2 9107   6.390   0.722   7.555  0.3629 -1.3861  0.0488
 2856SOL     OW 9108   4.887   5.198   2.442  0.3551  0.0095  0.3730
 2856SOL    HW1 9109   4.922   5.148   2.515  0.5933 -1.5645 -0.7561
 2856SOL    HW2 9110   4.962   5.247   2.409  0.7108 -0.7144  0.0671
 2857SOL     OW 9111   1.771   7.008   4.830  0.1270 -0.0021  0.0397
 2857SOL    HW1 9112   1.825   6.929   4.824  0.0028 -0.0852  0.0091
 2857SOL    HW2 9113   1.681   6.976   4.825  0.0938  0.2249 -0.8610
 2858SOL     OW 9114   5.881   3.655   5.157 -0.2743 -0.3133  0.3660
 2858SOL    HW1 9115   5.831   3.590   5.206  0.3150 -0.9240  0.1739
 2858SOL    HW2 9116   5.922   3.709   5.224  0.1077 -0.8192  0.5490
 2859SOL     OW 9117   1.003   1.469   4.340  0.4238 -0.2210 -0.2588
 2859SOL    HW1 9118   0.972   1.528   4.408  2.3825  1.0240 -0.3664
 2859SOL    HW2 9119   1.040   1.394   4.388 -0.8188 -0.7382 -0.0792
 2860SOL     OW 9120   4.006   5.933   5.275  0.4101  0.5301  0.3807
 2860SOL    HW1 9121   4.017   5.970   5.188 -0.9589 -0.3802 -0.2216
 2860SOL    HW2 9122   4.093   5.903   5.300  0.7812  0.6401 -0.7586
 2861SOL     OW 9123   2.117   1.458   1.599  0.4500  0.4810 -0.7610
 2861SOL    HW1 9124   2.151   1.373   1.628  1.3184  0.7585 -0.9383
 2861SOL    HW2 9125   2.096   1.504   1.680 -1.7974 -0.5779 -0.6790
 2862SOL     OW 9126   2.360   5.075   5.524 -0.0451 -0.0424 -0.2065
 2862SOL    HW1 9127   2.405   5.087   5.440 -0.8521 -0.3566 -0.6952
 2862SOL    HW2 9128   2.271   5.048   5.500 -0.7174  1.2637  0.7314
 2863SOL     OW 9129   7.607   4.632   4.985  0.2354  0.6368 -0.4679
 2863SOL    HW1 9130   7.591   4.538   4.995  1.8574  0.3988  0.2835
 2863SOL    HW2 9131   7.654   4.639   4.902  0.1936  0.7748 -0.4797
 2864SOL     OW 9132   4.568   2.209   0.229  0.2193  0.2437  0.1534
 2864SOL    HW1 9133   4.499   2.274   0.217 -1.0163 -0.9407  0.4441
 2864SOL    HW2 9134   4.624   2.245   0.298 -0.7998  0.7281  0.7497
 2865SOL     OW 9135   2.067   2.493   1.586 -0.1389 -0.3279 -0.4869
 2865SOL    HW1 9136   2.092   2.428   1.520 -1.7215  0.3478 -1.8132
 2865SOL    HW2 9137   2.132   2.563   1.575 -1.5304  0.7173 -2.8352
 2866SOL     OW 9138   5.670   3.369   0.618 -0.5650  0.1048 -0.2806
 2866SOL    HW1 9139   5.639   3.458   0.630  0.7998  0.7065 -0.9623
 2866SOL    HW2 9140   5.759   3.369   0.654 -1.5378 -1.7706  2.3875
 2867SOL     OW 9141   5.982   3.290   0.712  0.5872 -0.6516  0.1843
 2867SOL    HW1 9142   5.948   3.213   0.757 -0.7067 -0.6994 -0.8118
 2867SOL    HW2 9143   6.072   3.299   0.744  0.6329 -2.3304  0.6299
 2868SOL     OW 9144   3.065   6.237   6.753  0.1404  0.0187 -0.2270
 2868SOL    HW1 9145   2.983   6.240   6.803  0.5777 -0.1660  0.5098
 2868SOL    HW2 9146   3.125   6.294   6.801  1.2213 -1.8053  0.6771
 2869SOL     OW 9147   3.545   5.522   2.094 -0.2776 -0.0717  0.0817
 2869SOL    HW1 9148   3.588   5.602   2.064  0.5466 -0.8498 -0.8795
 2869SOL    HW2 9149   3.604   5.488   2.161 -1.3323  0.8362  1.5227
 2870SOL     OW 9150   1.834   3.229   3.346 -0.7831 -0.5199  0.0404
 2870SOL    HW1 9151   1.890   3.153   3.328 -0.5184  0.0215 -1.5136
 2870SOL    HW2 9152   1.889   3.287   3.398 -0.2934 -0.5076 -0.4849
 2871SOL     OW 9153   2.173   4.011   2.113  0.3644  0.1150 -0.1981
 2871SOL    HW1 9154   2.239   3.968   2.168  0.3725  0.5080  0.1016
 2871SOL    HW2 9155   2.176   4.103   2.138 -1.8548 -0.1747  1.4671
 2872SOL     OW 9156   0.826   3.462   4.346  0.2424 -0.5906  0.1825
 2872SOL    HW1 9157   0.822   3.557   4.336 -0.3620 -0.5370  0.8857
 2872SOL    HW2 9158   0.903   3.436   4.295  0.5537  0.2982  0.1835
 2873SOL     OW 9159   5.954   5.640   5.167  0.2543  1.1075 -0.1748
 2873SOL    HW1 9160   5.946   5.690   5.249 -0.2778  2.8368 -1.2398
 2873SOL    HW2 9161   5.925   5.701   5.099 -2.3182 -1.2797 -1.3700
 2874SOL     OW 9162   7.206   0.194   2.373 -0.3939  0.1824  0.4815
 2874SOL    HW1 9163   7.173   0.283   2.385 -1.3633 -0.2465  1.1349
 2874SOL    HW2 9164   7.149   0.140   2.428  0.1102 -0.8574  0.0060
 2875SOL     OW 9165   4.002   4.344   4.548  0.2812  0.0309 -0.2150
 2875SOL    HW1 9166   3.964   4.367   4.462 -1.2782  1.3501  0.7671
 2875SOL    HW2 9167   3.927   4.315   4.599  0.6868  1.8699  1.5422
 2876SOL     OW 9168   2.442   2.037   4.131 -0.0744 -0.4319  0.6541
 2876SOL    HW1 9169   2.510   1.971   4.138 -0.5471 -1.0947 -0.6655
 2876SOL    HW2 9170   2.431   2.051   4.037 -0.4162  1.0902  0.8845
 2877SOL     OW 9171   7.047   1.223   2.231 -0.0954 -0.2832  0.4497
 2877SOL    HW1 9172   7.022   1.196   2.142  0.0528 -0.9439  0.6060
 2877SOL    HW2 9173   7.113   1.159   2.258  1.0119  0.8076  0.4509
 2878SOL     OW 9174   0.572   4.203   0.944 -0.0778 -0.4363 -0.1055
 2878SOL    HW1 9175   0.547   4.151   0.868  0.7536  0.6292 -1.1422
 2878SOL    HW2 9176   0.489   4.237   0.978 -0.5216 -1.5112 -0.0696
 2879SOL     OW 9177   2.797   3.141   6.185  0.0971 -0.0736  0.1445
 2879SOL    HW1 9178   2.818   3.050   6.206  1.7773 -0.1010 -1.3325
 2879SOL    HW2 9179   2.877   3.175   6.145 -0.5174  2.0447  0.5864
 2880SOL     OW 9180   2.226   0.629   5.171 -0.2891  0.2532 -0.4250
 2880SOL    HW1 9181   2.137   0.621   5.205  0.2379 -0.1629  0.8707
 2880SOL    HW2 9182   2.221   0.589   5.084 -0.7256 -2.3960  0.7399
 2881SOL     OW 9183   6.261   3.871   1.357  0.1240  0.4714 -0.3133
 2881SOL    HW1 9184   6.254   3.966   1.349 -1.4979  0.4012 -0.1214
 2881SOL    HW2 9185   6.354   3.854   1.372  0.3568  2.0718  0.1933
 2882SOL     OW 9186   0.916   2.354   1.698  0.5763  0.2769  0.3150
 2882SOL    HW1 9187   0.859   2.430   1.708  0.5304  0.2903 -0.0258
 2882SOL    HW2 9188   0.856   2.282   1.680  0.6520  0.2489  0.1751
 2883SOL     OW 9189   0.123   6.299   1.768 -0.6820 -0.2345 -0.9506
 2883SOL    HW1 9190   0.122   6.333   1.679  0.5761  0.2449 -0.8008
 2883SOL    HW2 9191   0.185   6.356   1.815 -2.2839  0.3594  0.5618
 2884SOL     OW 9192   0.629   0.785   2.678 -0.0135 -0.6484  0.0434
 2884SOL    HW1 9193   0.692   0.729   2.633  0.4198  0.3239 -0.5967
 2884SOL    HW2 9194   0.622   0.747   2.765  2.2358 -0.2312  0.4856
 2885SOL     OW 9195   0.499   2.157   0.954  0.0932 -0.3692  0.1057
 2885SOL    HW1 9196   0.497   2.062   0.953 -0.7125 -0.3557  0.1731
 2885SOL    HW2 9197   0.536   2.179   1.040  0.0652 -0.6169  0.1808
 2886SOL     OW 9198   6.625   4.865   0.323 -0.6488  0.7223 -0.8873
 2886SOL    HW1 9199   6.707   4.895   0.363 -1.1992 -0.1317  0.9801
 2886SOL    HW2 9200   6.624   4.770   0.339 -2.5702  0.8833  0.2971
 2887SOL     OW 9201   5.379   5.282   6.770 -0.5632  0.2650 -0.0471
 2887SOL    HW1 9202   5.403   5.345   6.838 -2.1682  0.8623  0.0087
 2887SOL    HW2 9203   5.411   5.198   6.801 -0.4912  0.6805  1.0260
 2888SOL     OW 9204   2.090   2.755   0.452 -0.4568  0.0676  0.0136
 2888SOL    HW1 9205   2.076   2.661   0.435  1.9987 -0.4405  0.4740
 2888SOL    HW2 9206   2.185   2.764   0.460 -0.6061  2.7236 -0.5466
 2889SOL     OW 9207   0.211   1.410   3.349  0.7341  0.2553 -0.1951
 2889SOL    HW1 9208   0.298   1.373   3.333  0.4838 -0.8859  0.9463
 2889SOL    HW2 9209   0.153   1.335   3.350 -1.1936  1.2264 -5.7838
 2890SOL     OW 9210   1.864   2.920   3.029  0.7564  0.4752  0.1333
 2890SOL    HW1 9211   1.856   2.843   3.086 -1.5838  1.0408  0.6989
 2890SOL    HW2 9212   1.851   2.885   2.940 -0.2749  0.1830  0.3844
 2891SOL     OW 9213   2.681   5.326   1.966  0.3301  0.1802  0.2193
 2891SOL    HW1 9214   2.721   5.412   1.981 -1.9461  1.1227  1.3415
 2891SOL    HW2 9215   2.685   5.282   2.051 -0.0784 -0.1308  0.0781
 2892SOL     OW 9216   4.904   2.774   0.547  0.8844  0.3422 -0.0372
 2892SOL    HW1 9217   4.865   2.744   0.465  1.0686 -0.2042  0.0681
 2892SOL    HW2 9218   4.837   2.756   0.613  0.9443  0.2746  0.0061
 2893SOL     OW 9219   7.232   3.729   5.369 -0.0511 -0.3007 -0.5312
 2893SOL    HW1 9220   7.186   3.671   5.430 -0.2463 -1.1026 -1.4086
 2893SOL    HW2 9221   7.299   3.771   5.423 -0.8906 -0.1738  0.4608
 2894SOL     OW 9222   4.753   0.632   6.196 -0.1736 -0.0590  0.2425
 2894SOL    HW1 9223   4.810   0.598   6.127  0.7936 -0.5831  1.2683
 2894SOL    HW2 9224   4.714   0.554   6.235  1.1666  0.0180  1.8556
 2895SOL     OW 9225   2.746   2.951   2.741 -0.3163  0.0439 -0.1108
 2895SOL    HW1 9226   2.668   2.957   2.797  0.2769  0.8819  0.6572
 2895SOL    HW2 9227   2.814   2.996   2.791 -0.0281  1.8068 -1.9577
 2896SOL     OW 9228   3.661   4.778   0.831  0.4476 -0.6561  0.4830
 2896SOL    HW1 9229   3.755   4.788   0.812  0.5129 -0.3900  0.9101
 2896SOL    HW2 9230   3.646   4.840   0.903 -0.0146 -0.8422  0.5438
 2897SOL     OW 9231   3.317   3.545   7.144  0.1903  0.6627  0.0378
 2897SOL    HW1 9232   3.277   3.602   7.210 -0.3151 -0.5935  0.8625
 2897SOL    HW2 9233   3.407   3.534   7.174 -0.5971 -1.6877  1.8606
 2898SOL     OW 9234   2.947   1.171   5.916  0.3536  0.4721  0.7029
 2898SOL    HW1 9235   2.940   1.245   5.857  1.0978  0.6526  0.8319
 2898SOL    HW2 9236   2.857   1.146   5.935  0.0935  1.5324  0.9023
 2899SOL     OW 9237   4.612   2.140   4.879  0.4168  0.0046  0.0176
 2899SOL    HW1 9238   4.705   2.145   4.900  0.2411  1.6313  0.5188
 2899SOL    HW2 9239   4.608   2.089   4.798  1.5836 -1.5507  0.8822
 2900SOL     OW 9240   2.187   4.016   2.499 -0.1597  0.1132 -0.1417
 2900SOL    HW1 9241   2.138   4.014   2.581  0.5852 -3.3300  0.3444
 2900SOL    HW2 9242   2.140   3.957   2.441  1.7139 -0.9672 -0.6465
 2901SOL     OW 9243   2.181   5.476   6.863  0.1064 -0.5187 -0.3582
 2901SOL    HW1 9244   2.186   5.571   6.872 -1.4282 -0.4479  0.0624
 2901SOL    HW2 9245   2.271   5.445   6.875  0.3463  0.7341  1.4027
 2902SOL     OW 9246   3.665   2.940   3.362 -0.1044 -0.5311 -0.1134
 2902SOL    HW1 9247   3.753   2.923   3.394  0.1105  0.4577 -0.1458
 2902SOL    HW2 9248   3.655   2.881   3.286  1.2479  0.6786 -1.2810
 2903SOL     OW 9249   3.953   6.137   3.630  0.1887 -0.0500 -0.0965
 2903SOL    HW1 9250   4.018   6.165   3.565 -0.0620 -1.8113 -1.1833
 2903SOL    HW2 9251   3.869   6.166   3.594  0.2628  1.9401  1.1529
 2904SOL     OW 9252   2.592   0.996   4.781  0.2394 -0.0138  0.3287
 2904SOL    HW1 9253   2.547   1.049   4.716 -0.0942 -1.8170 -0.9701
 2904SOL    HW2 9254   2.526   0.936   4.815  1.3313 -2.0201 -0.8749
 2905SOL     OW 9255   0.182   4.472   0.154 -0.3143 -0.4710 -0.0014
 2905SOL    HW1 9256   0.135   4.395   0.184 -1.7561 -0.1986 -1.4409
 2905SOL    HW2 9257   0.126   4.546   0.179 -0.8479 -0.1571 -1.9330
 2906SOL     OW 9258   6.761   1.375   5.908 -0.1208 -0.3419 -0.3831
 2906SOL    HW1 9259   6.739   1.412   5.994  0.4680 -0.9332  0.0253
 2906SOL    HW2 9260   6.846   1.413   5.887 -0.0609 -0.5443 -0.5049
 2907SOL     OW 9261   6.681   5.710   0.639 -0.1969 -0.5827  0.3756
 2907SOL    HW1 9262   6.612   5.672   0.693  0.7554 -3.1216 -0.0827
 2907SOL    HW2 9263   6.757   5.655   0.655  0.9299  0.3982 -1.3255
 2908SOL     OW 9264   6.563   1.089   1.497 -0.0817  0.5572  0.2600
 2908SOL    HW1 9265   6.572   1.134   1.413  1.3600 -2.0018 -1.0850
 2908SOL    HW2 9266   6.653   1.067   1.522 -0.6841 -1.0770  1.1082
 2909SOL     OW 9267   4.528   0.310   3.689 -0.3421 -0.0808  0.1693
 2909SOL    HW1 9268   4.616   0.290   3.721 -0.5597  1.6641  2.0480
 2909SOL    HW2 9269   4.542   0.359   3.609  0.6504  3.0934  2.1083
 2910SOL     OW 9270   5.563   1.370   6.675  0.0663  0.2664 -0.0878
 2910SOL    HW1 9271   5.484   1.320   6.653 -1.1917  1.0774  2.2798
 2910SOL    HW2 9272   5.627   1.303   6.698 -1.2831 -0.4220  2.0336
 2911SOL     OW 9273   3.198   7.605   2.065  0.0012  0.3266 -0.7506
 2911SOL    HW1 9274   3.172   7.617   2.156 -0.1625  0.6030 -0.8328
 2911SOL    HW2 9275   3.225   7.692   2.036 -0.4029  0.3365 -1.1051
 2912SOL     OW 9276   5.329   4.795   5.371 -0.2338  0.3310 -0.7975
 2912SOL    HW1 9277   5.330   4.814   5.277 -1.6972  0.2031 -0.8643
 2912SOL    HW2 9278   5.240   4.764   5.388  0.3068 -0.6105  0.4554
 2913SOL     OW 9279   1.536   2.549   2.676 -0.1676  0.7241 -0.2654
 2913SOL    HW1 9280   1.464   2.493   2.705  0.4475  0.6500  1.2286
 2913SOL    HW2 9281   1.528   2.627   2.732  0.4676  1.0336 -0.6061
 2914SOL     OW 9282   7.053   0.305   3.889 -0.0399 -0.1820  0.0027
 2914SOL    HW1 9283   7.137   0.351   3.892 -0.3203  0.3520 -0.2897
 2914SOL    HW2 9284   6.988   0.373   3.870 -0.3847 -0.7811 -1.1013
 2915SOL     OW 9285   1.337   1.643   6.981  0.8250 -0.1111 -0.5029
 2915SOL    HW1 9286   1.388   1.592   6.918  0.0932 -0.3949 -0.8703
 2915SOL    HW2 9287   1.333   1.731   6.942  0.6251 -0.2108 -0.7095
 2916SOL     OW 9288   7.604   5.770   1.610  0.3510 -0.0147 -0.9982
 2916SOL    HW1 9289   7.594   5.828   1.686  0.4386  0.5182 -1.3870
 2916SOL    HW2 9290   7.515   5.742   1.590  0.5327 -1.8333  0.5749
 2917SOL     OW 9291   7.289   3.442   0.893  0.1014  0.0994 -0.2555
 2917SOL    HW1 9292   7.204   3.483   0.910  0.5274  1.1810 -0.6375
 2917SOL    HW2 9293   7.270   3.375   0.827 -0.6236 -0.4141  0.4502
 2918SOL     OW 9294   0.909   7.008   3.701 -0.0011  0.1654  0.3537
 2918SOL    HW1 9295   0.960   6.970   3.629 -0.3391 -1.6203  1.0123
 2918SOL    HW2 9296   0.974   7.048   3.758  0.5079 -0.5364  0.2797
 2919SOL     OW 9297   6.867   1.328   0.275  0.1756 -0.2167 -0.3795
 2919SOL    HW1 9298   6.868   1.421   0.300  0.0416 -0.1948 -0.4598
 2919SOL    HW2 9299   6.886   1.329   0.181  1.7575 -0.3538 -0.1013
 2920SOL     OW 9300   5.688   5.507   6.133 -0.7978 -0.0628  0.5005
 2920SOL    HW1 9301   5.748   5.580   6.145 -0.9153 -0.0732  1.2034
 2920SOL    HW2 9302   5.739   5.441   6.086 -0.6405  0.3989  0.0123
 2921SOL     OW 9303   6.769   2.339   3.093 -0.2464 -0.1149 -0.3382
 2921SOL    HW1 9304   6.691   2.390   3.113 -1.6018 -1.7179 -1.2234
 2921SOL    HW2 9305   6.842   2.400   3.105 -1.4993  1.0734  1.8251
 2922SOL     OW 9306   3.871   1.589   4.948  0.4544  0.2034 -0.1446
 2922SOL    HW1 9307   3.780   1.611   4.928  1.0078  0.5931 -2.4927
 2922SOL    HW2 9308   3.874   1.493   4.943  0.3004  0.2235 -0.6192
 2923SOL     OW 9309   4.683   5.932   5.692 -0.3789 -0.3727  0.6391
 2923SOL    HW1 9310   4.675   5.891   5.778 -0.2509  0.9559  1.2966
 2923SOL    HW2 9311   4.661   5.861   5.631  0.3175 -1.5611  1.7008
 2924SOL     OW 9312   2.036   1.503   3.641 -0.3180  0.3004 -0.7753
 2924SOL    HW1 9313   2.065   1.591   3.617  0.4073  1.9143  4.5767
 2924SOL    HW2 9314   1.942   1.512   3.656 -0.3450  0.0317 -0.7801
 2925SOL     OW 9315   5.768   4.486   0.238  0.1088 -0.4363  0.1431
 2925SOL    HW1 9316   5.715   4.565   0.229 -0.6910 -0.6470  2.3532
 2925SOL    HW2 9317   5.749   4.435   0.160 -3.4340 -0.7212  1.0142
 2926SOL     OW 9318   6.099   3.481   4.058  0.0595 -0.1694 -0.2023
 2926SOL    HW1 9319   6.075   3.462   3.968  0.4267  0.9952 -0.5671
 2926SOL    HW2 9320   6.055   3.563   4.078  1.3541  0.4787  0.0930
 2927SOL     OW 9321   0.633   4.623   3.371  0.0740  0.3830 -0.0884
 2927SOL    HW1 9322   0.677   4.629   3.287  1.5195 -0.8497  0.5310
 2927SOL    HW2 9323   0.635   4.712   3.406  0.1540  0.7479 -1.0035
 2928SOL     OW 9324   6.030   7.412   6.703  0.5624  0.1231 -0.2417
 2928SOL    HW1 9325   5.969   7.470   6.747  2.1526  1.6806  0.0284
 2928SOL    HW2 9326   5.997   7.324   6.720 -0.5527  0.8278  1.4497
 2929SOL     OW 9327   1.075   1.690   5.670  0.1901  0.3928 -0.3578
 2929SOL    HW1 9328   1.139   1.660   5.735  0.7735  6.2451  2.3889
 2929SOL    HW2 9329   1.123   1.753   5.616 -2.4586  3.0472  0.1062
 2930SOL     OW 9330   3.619   3.998   0.874  0.0327  0.0247  0.1449
 2930SOL    HW1 9331   3.578   3.974   0.957 -0.5033 -0.5194 -0.2744
 2930SOL    HW2 9332   3.562   4.067   0.839  0.8728  1.0590  0.7448
 2931SOL     OW 9333   6.019   2.222   6.767 -0.1797  0.5963  0.3934
 2931SOL    HW1 9334   5.960   2.147   6.763  0.1856  0.3321 -0.0811
 2931SOL    HW2 9335   6.104   2.185   6.793 -0.3188  1.0318  1.5382
 2932SOL     OW 9336   6.845   5.480   7.581 -0.3348 -0.2821 -0.0160
 2932SOL    HW1 9337   6.753   5.499   7.561 -1.2477 -1.7572  2.3204
 2932SOL    HW2 9338   6.879   5.561   7.618 -1.7575 -0.6365  2.2568
 2933SOL     OW 9339   2.266   3.285   5.346  0.2330 -0.3439 -0.3573
 2933SOL    HW1 9340   2.193   3.268   5.287 -0.4556 -0.4926  0.5140
 2933SOL    HW2 9341   2.264   3.379   5.361  0.0581 -0.3841 -0.1282
 2934SOL     OW 9342   5.295   4.798   6.868  0.2779 -0.7127  0.4183
 2934SOL    HW1 9343   5.332   4.718   6.831  0.9466  0.3871 -1.4045
 2934SOL    HW2 9344   5.208   4.805   6.828  1.6691  1.3991 -2.5375
 2935SOL     OW 9345   1.720   1.259   6.140 -0.8486 -0.0763 -0.8047
 2935SOL    HW1 9346   1.777   1.182   6.142 -0.5868  0.1053 -1.1023
 2935SOL    HW2 9347   1.648   1.234   6.082 -0.8788 -0.1734 -0.7264
 2936SOL     OW 9348   6.897   4.405   5.413 -0.0583 -0.1811  0.3605
 2936SOL    HW1 9349   6.870   4.354   5.337 -0.4639 -0.1846  0.5063
 2936SOL    HW2 9350   6.950   4.344   5.465  2.2557  0.4763 -1.0636
 2937SOL     OW 9351   5.304   4.340   7.280 -0.0095 -0.1885 -0.1666
 2937SOL    HW1 9352   5.223   4.309   7.320  0.5312  0.6354  1.6865
 2937SOL    HW2 9353   5.277   4.382   7.199 -1.3902 -0.2263  0.2592
 2938SOL     OW 9354   6.207   1.404   1.887 -0.1013 -0.4708 -0.1003
 2938SOL    HW1 9355   6.249   1.470   1.832 -0.6048  0.1590  0.2531
 2938SOL    HW2 9356   6.113   1.422   1.880 -0.1572 -0.0663  1.3187
 2939SOL     OW 9357   1.203   3.107   0.513 -0.6352 -0.7644  0.5302
 2939SOL    HW1 9358   1.229   3.199   0.506 -0.1521 -0.9908 -1.5877
 2939SOL    HW2 9359   1.124   3.101   0.459 -0.3539 -1.6853  0.2089
 2940SOL     OW 9360   2.120   0.958   1.300 -0.4428 -0.0875  0.3179
 2940SOL    HW1 9361   2.127   0.907   1.381  1.8486 -0.4216 -0.0217
 2940SOL    HW2 9362   2.033   0.999   1.305 -1.1838 -1.6965  1.9647
 2941SOL     OW 9363   5.469   4.721   2.347  0.1679 -0.3280 -0.6728
 2941SOL    HW1 9364   5.410   4.647   2.358 -0.1742  0.2002  1.4439
 2941SOL    HW2 9365   5.415   4.789   2.307 -0.3219 -0.2737  0.0649
 2942SOL     OW 9366   2.097   2.058   0.271 -0.3236 -0.4915 -0.3687
 2942SOL    HW1 9367   2.123   2.150   0.267  1.3716 -0.9497 -0.5226
 2942SOL    HW2 9368   2.002   2.060   0.256 -0.5527  1.3270  0.9283
 2943SOL     OW 9369   7.185   3.646   4.171 -0.0783  0.4565 -0.3142
 2943SOL    HW1 9370   7.267   3.693   4.184  0.3814 -0.3032 -0.4204
 2943SOL    HW2 9371   7.194   3.604   4.086 -0.6847  0.5678 -0.4413
 2944SOL     OW 9372   2.947   5.476   6.702 -0.2181 -0.0489  0.3618
 2944SOL    HW1 9373   2.885   5.548   6.714 -0.4223 -0.2689  0.6434
 2944SOL    HW2 9374   3.021   5.515   6.655  0.5573  0.8127  2.2362
 2945SOL     OW 9375   0.941   2.947   6.227  0.0937  0.0663 -0.0852
 2945SOL    HW1 9376   0.853   2.945   6.263 -0.7017  4.6504 -1.1513
 2945SOL    HW2 9377   0.999   2.944   6.303 -0.8721 -2.9036  0.6252
 2946SOL     OW 9378   3.211   3.150   7.250  0.4150 -0.3238  0.5303
 2946SOL    HW1 9379   3.145   3.199   7.298  0.3646 -0.5136  0.6550
 2946SOL    HW2 9380   3.162   3.083   7.203  0.4132  0.1465 -0.1469
 2947SOL     OW 9381   5.891   2.900   4.752  0.2610  0.3998  0.7207
 2947SOL    HW1 9382   5.933   2.975   4.711  2.8645 -1.3217  0.0323
 2947SOL    HW2 9383   5.889   2.921   4.845  0.8857  1.3335  0.5357
 2948SOL     OW 9384   2.370   7.386   7.348 -0.0487  0.0522 -0.0224
 2948SOL    HW1 9385   2.335   7.305   7.384  0.3460  0.0087  0.2716
 2948SOL    HW2 9386   2.443   7.358   7.293  0.5634  0.2564  0.6729
 2949SOL     OW 9387   0.656   2.897   3.229 -0.4007 -0.2397 -0.5657
 2949SOL    HW1 9388   0.719   2.957   3.189 -0.1558 -0.1000  0.0084
 2949SOL    HW2 9389   0.704   2.859   3.303 -0.9453 -0.2269 -0.1970
 2950SOL     OW 9390   6.913   1.089   1.111 -0.3332 -0.1279 -0.0052
 2950SOL    HW1 9391   6.896   1.152   1.041 -1.1945 -1.2949 -0.8948
 2950SOL    HW2 9392   6.897   1.003   1.070  1.0679 -0.9572  1.0790
 2951SOL     OW 9393   7.253   2.089   1.652 -0.0811 -0.4416  0.0346
 2951SOL    HW1 9394   7.288   2.000   1.647 -3.5091 -1.9981  0.9463
 2951SOL    HW2 9395   7.210   2.102   1.568 -0.3518  0.0098  0.2408
 2952SOL     OW 9396   4.692   5.060   7.165  0.4647  0.1390 -0.3711
 2952SOL    HW1 9397   4.709   5.146   7.205  0.2683 -0.2127  0.4887
 2952SOL    HW2 9398   4.602   5.065   7.133  0.8713  0.6834 -1.4727
 2953SOL     OW 9399   7.154   7.297   6.304  0.5956 -0.6113  0.0576
 2953SOL    HW1 9400   7.248   7.313   6.296  0.1272  1.8564 -1.2785
 2953SOL    HW2 9401   7.140   7.216   6.255  1.7727  0.0526 -1.4666
 2954SOL     OW 9402   5.711   2.629   4.367 -0.2535 -0.3870 -0.3559
 2954SOL    HW1 9403   5.717   2.688   4.442  1.4030 -0.2555 -0.5595
 2954SOL    HW2 9404   5.791   2.577   4.371 -1.5229 -2.4870 -0.3253
 2955SOL     OW 9405   4.755   4.353   5.306 -0.3610 -0.2790  0.0924
 2955SOL    HW1 9406   4.665   4.364   5.274 -0.7382  1.1777  1.5126
 2955SOL    HW2 9407   4.747   4.299   5.384 -0.1598  0.7179  0.8204
 2956SOL     OW 9408   3.841   3.346   0.373 -0.5134  0.2718  0.4317
 2956SOL    HW1 9409   3.755   3.356   0.332 -0.6613 -0.6623  0.4935
 2956SOL    HW2 9410   3.896   3.411   0.330 -1.6834  2.1684  1.6480
 2957SOL     OW 9411   3.921   4.212   6.100 -0.2411  0.0699  0.2090
 2957SOL    HW1 9412   3.916   4.158   6.179 -1.0374 -1.0101 -0.5377
 2957SOL    HW2 9413   3.873   4.292   6.122  0.1217  0.0667  1.0319
 2958SOL     OW 9414   7.231   6.828   6.341  0.0137 -0.0208 -0.5661
 2958SOL    HW1 9415   7.152   6.875   6.315 -0.1530 -0.9595 -1.8812
 2958SOL    HW2 9416   7.217   6.738   6.311  0.8425 -0.6355  0.7757
 2959SOL     OW 9417   5.194   3.240   7.039  0.4587 -0.5608 -0.2068
 2959SOL    HW1 9418   5.099   3.244   7.029  0.5488 -0.5629 -1.1125
 2959SOL    HW2 9419   5.228   3.304   6.976  1.0702 -0.7874 -0.1184
 2960SOL     OW 9420   0.896   5.362   2.193 -0.7079  0.0458 -0.6614
 2960SOL    HW1 9421   0.920   5.275   2.224 -2.9289 -0.6240 -0.6508
 2960SOL    HW2 9422   0.948   5.422   2.248 -0.7464 -1.2207  0.8422
 2961SOL     OW 9423   1.086   3.722   6.160 -0.5463 -0.2468  0.2368
 2961SOL    HW1 9424   1.042   3.644   6.126  0.1155 -0.5123 -0.0470
 2961SOL    HW2 9425   1.125   3.762   6.082  1.2117 -0.9987  0.6804
 2962SOL     OW 9426   5.546   6.551   6.488 -0.0117  0.7079 -0.0327
 2962SOL    HW1 9427   5.614   6.487   6.465 -2.0455 -3.1989  3.3848
 2962SOL    HW2 9428   5.576   6.589   6.570  0.9818  4.2199 -1.8407
 2963SOL     OW 9429   4.430   4.495   6.016  0.3865  0.1476 -0.0706
 2963SOL    HW1 9430   4.335   4.503   6.028  0.3881  1.5956 -0.7567
 2963SOL    HW2 9431   4.440   4.437   5.941 -0.1194  2.1677 -1.8209
 2964SOL     OW 9432   0.475   6.885   5.451 -0.0105  0.1020  0.3936
 2964SOL    HW1 9433   0.464   6.797   5.487 -0.3508  0.1697  0.4621
 2964SOL    HW2 9434   0.555   6.918   5.491  1.3817 -1.0288 -1.3556
 2965SOL     OW 9435   7.030   5.067   3.011  0.2656 -0.4464  0.1374
 2965SOL    HW1 9436   7.090   5.037   3.079 -0.6341 -1.2810  0.5778
 2965SOL    HW2 9437   6.952   5.012   3.021 -0.6937  0.8022 -0.2466
 2966SOL     OW 9438   5.782   5.460   1.356  0.3493  0.6338 -0.6124
 2966SOL    HW1 9439   5.792   5.410   1.274  0.1737 -0.9063  0.2737
 2966SOL    HW2 9440   5.863   5.510   1.363  0.0336  1.4477 -2.1261
 2967SOL     OW 9441   3.447   5.659   1.548 -0.7559 -0.5222  0.5261
 2967SOL    HW1 9442   3.365   5.708   1.543 -0.1022  0.7369  1.7519
 2967SOL    HW2 9443   3.454   5.632   1.640 -0.1605 -1.2851  0.2723
 2968SOL     OW 9444   1.008   2.885   5.426  0.5369 -0.1420 -0.0390
 2968SOL    HW1 9445   1.019   2.858   5.517 -1.1912  1.6355  0.7719
 2968SOL    HW2 9446   1.097   2.890   5.391  1.2638 -0.3892  1.6807
 2969SOL     OW 9447   2.585   1.574   2.974 -0.5943  0.2162  0.8774
 2969SOL    HW1 9448   2.555   1.603   2.888  0.2000  0.3585  0.6380
 2969SOL    HW2 9449   2.605   1.481   2.962  0.6252  0.4887  0.5720
 2970SOL     OW 9450   0.268   1.095   0.911  0.1603  0.0497  0.0556
 2970SOL    HW1 9451   0.314   1.142   0.981  2.6089 -0.8699 -0.8131
 2970SOL    HW2 9452   0.305   1.007   0.914 -0.5285 -0.3240 -1.6360
 2971SOL     OW 9453   4.673   1.400   0.507  0.0089 -0.0601  0.6584
 2971SOL    HW1 9454   4.630   1.464   0.449  1.0862 -0.4289 -0.5959
 2971SOL    HW2 9455   4.627   1.318   0.488  0.9203 -0.3635 -0.3639
 2972SOL     OW 9456   7.286   6.555   4.391 -0.7595 -0.5505 -0.2307
 2972SOL    HW1 9457   7.214   6.612   4.417  0.3944  0.3793  0.9813
 2972SOL    HW2 9458   7.351   6.613   4.353  0.5212 -0.9767  1.2085
 2973SOL     OW 9459   4.152   4.533   5.962 -0.5783  0.1110  0.5837
 2973SOL    HW1 9460   4.157   4.567   5.873 -1.0840 -0.9123  0.1385
 2973SOL    HW2 9461   4.077   4.473   5.960  0.3024 -1.0695  1.2820
 2974SOL     OW 9462   2.420   5.658   3.947  0.1259 -0.7965 -0.2857
 2974SOL    HW1 9463   2.441   5.596   4.016  1.9701  0.1066  0.0167
 2974SOL    HW2 9464   2.382   5.605   3.878 -1.2355 -1.8061  1.1594
 2975SOL     OW 9465   6.694   0.892   4.524  0.0574  0.2171 -0.2413
 2975SOL    HW1 9466   6.774   0.863   4.569  0.0411  0.2720 -0.1762
 2975SOL    HW2 9467   6.707   0.866   4.433  0.4113  0.7576 -0.3476
 2976SOL     OW 9468   6.906   3.941   0.604 -0.1818 -0.2868 -0.1655
 2976SOL    HW1 9469   6.822   3.894   0.606 -0.3293 -0.0463  2.2888
 2976SOL    HW2 9470   6.889   4.022   0.652  1.6507 -0.6437  1.2085
 2977SOL     OW 9471   1.212   4.307   0.022  0.3809  0.4156 -0.5659
 2977SOL    HW1 9472   1.223   4.268   0.109 -0.6749  0.3110 -0.4599
 2977SOL    HW2 9473   1.289   4.362   0.011 -0.3127  1.8800  1.2448
 2978SOL     OW 9474   5.430   5.751   7.044 -0.2539 -0.3851 -0.0738
 2978SOL    HW1 9475   5.361   5.782   7.103  0.5752  0.1075  0.6735
 2978SOL    HW2 9476   5.418   5.802   6.964 -1.2458 -0.8893 -0.2597
 2979SOL     OW 9477   4.986   5.166   7.175 -0.9663  0.2463 -0.6551
 2979SOL    HW1 9478   4.917   5.212   7.223 -1.4154 -1.0305 -0.0424
 2979SOL    HW2 9479   4.966   5.073   7.186  0.9882 -0.1776 -0.2397
 2980SOL     OW 9480   5.855   1.013   5.742  0.8188  0.2982 -0.1170
 2980SOL    HW1 9481   5.804   0.995   5.664 -3.1232 -0.0087  2.2512
 2980SOL    HW2 9482   5.918   1.080   5.715  0.0411 -0.1926 -3.6006
 2981SOL     OW 9483   0.885   1.778   6.119  0.4862 -0.2956  0.1277
 2981SOL    HW1 9484   0.837   1.708   6.163 -0.4087  0.2254  0.0165
 2981SOL    HW2 9485   0.954   1.802   6.180 -0.4661  0.1135  1.0730
 2982SOL     OW 9486   7.260   6.708   7.107  0.6835  0.2247  0.4545
 2982SOL    HW1 9487   7.223   6.746   7.186  0.0608 -0.8226  0.6859
 2982SOL    HW2 9488   7.185   6.696   7.049  1.1052  0.8121 -0.2336
 2983SOL     OW 9489   3.249   1.016   5.408 -0.6055  0.0398 -0.2857
 2983SOL    HW1 9490   3.296   0.937   5.381 -0.5216  0.6574 -2.1296
 2983SOL    HW2 9491   3.157   0.997   5.389 -0.7715 -0.1622  0.7042
 2984SOL     OW 9492   3.151   1.409   2.216  0.0742 -0.3042  0.4927
 2984SOL    HW1 9493   3.160   1.326   2.263 -2.6260 -0.0829  1.5536
 2984SOL    HW2 9494   3.083   1.392   2.151  0.0288  0.8711  0.2232
 2985SOL     OW 9495   4.151   6.461   2.460  0.0908  0.6237 -0.2911
 2985SOL    HW1 9496   4.228   6.497   2.416  0.0442  2.0283  0.7016
 2985SOL    HW2 9497   4.078   6.485   2.403  0.1578  1.3126 -0.0935
 2986SOL     OW 9498   1.230   7.080   4.393  0.5340  0.1063  0.0675
 2986SOL    HW1 9499   1.234   7.135   4.315  2.4504  1.0315  0.7398
 2986SOL    HW2 9500   1.162   7.120   4.447  3.1364  3.1829  1.3906
 2987SOL     OW 9501   1.881   1.215   6.827  0.1801 -0.2822 -0.1405
 2987SOL    HW1 9502   1.949   1.158   6.791 -0.3249 -2.9485  2.6969
 2987SOL    HW2 9503   1.925   1.264   6.896 -0.2677 -0.2927  0.1577
 2988SOL     OW 9504   3.367   3.391   6.913 -0.2396  0.0465  0.3140
 2988SOL    HW1 9505   3.412   3.309   6.928  0.7817  0.2724 -1.2848
 2988SOL    HW2 9506   3.351   3.427   7.000 -1.8819 -2.4151  1.1299
 2989SOL     OW 9507   7.362   5.635   6.632 -0.1196 -0.0811 -0.5788
 2989SOL    HW1 9508   7.440   5.664   6.679  0.5839 -0.8973 -1.2095
 2989SOL    HW2 9509   7.322   5.570   6.690 -0.7658  0.8886  0.0833
 2990SOL     OW 9510   4.176   1.521   5.939  0.5526  0.5659  0.0572
 2990SOL    HW1 9511   4.153   1.590   6.000  2.7136  0.1507  1.4726
 2990SOL    HW2 9512   4.272   1.523   5.936  0.5742 -0.5245 -2.0735
 2991SOL     OW 9513   1.966   5.774   6.034 -0.3681  0.2939 -0.3736
 2991SOL    HW1 9514   1.871   5.782   6.020 -0.5842 -1.1299  0.0530
 2991SOL    HW2 9515   1.973   5.719   6.113  0.8093 -0.4722 -0.9884
 2992SOL     OW 9516   0.563   2.549   5.980 -0.2298  0.0206 -0.1370
 2992SOL    HW1 9517   0.561   2.572   6.073 -0.7913 -0.1037 -0.1136
 2992SOL    HW2 9518   0.571   2.453   5.980  0.9409  0.1053 -0.2266
 2993SOL     OW 9519   1.579   5.528   2.751 -0.5915  0.4073  0.3122
 2993SOL    HW1 9520   1.613   5.611   2.717 -0.2434  1.0414  2.1067
 2993SOL    HW2 9521   1.581   5.469   2.676  0.6784  1.5621 -0.6159
 2994SOL     OW 9522   1.918   5.446   0.134  0.2430 -0.1185 -0.2202
 2994SOL    HW1 9523   2.004   5.474   0.102  0.8631 -1.1326  0.5263
 2994SOL    HW2 9524   1.861   5.451   0.056  0.7965  1.1729 -0.5803
 2995SOL     OW 9525   4.377   3.190   7.366  0.6713 -0.4477  0.2701
 2995SOL    HW1 9526   4.428   3.262   7.330 -0.4677  0.4575  0.4125
 2995SOL    HW2 9527   4.326   3.157   7.292 -0.9750  0.8092  0.7936
 2996SOL     OW 9528   0.082   2.467   1.102  0.1425 -0.2313 -0.0802
 2996SOL    HW1 9529   0.142   2.428   1.165 -0.5365 -2.5519 -0.7635
 2996SOL    HW2 9530  -0.005   2.449   1.137 -0.2043  0.9581 -0.2913
 2997SOL     OW 9531   6.475   5.078   7.283 -0.1568  0.2931 -0.6674
 2997SOL    HW1 9532   6.570   5.067   7.292  0.0379  0.0055 -2.6650
 2997SOL    HW2 9533   6.438   5.004   7.331  0.6388  0.2805 -0.0525
 2998SOL     OW 9534   5.535   4.941   3.148  0.3836  0.2441  0.1371
 2998SOL    HW1 9535   5.471   5.004   3.113  0.1480  0.2214  0.5205
 2998SOL    HW2 9536   5.519   4.941   3.242 -1.4244 -2.3495 -0.0754
 2999SOL     OW 9537   7.057   0.636   2.616 -0.2475 -0.2299 -0.4366
 2999SOL    HW1 9538   7.047   0.702   2.548 -0.3996  0.8407  0.5942
 2999SOL    HW2 9539   7.148   0.646   2.645 -0.7223  0.6824  0.8398
 3000SOL     OW 9540   7.526   0.266   0.437 -0.0185  0.0979 -0.2047
 3000SOL    HW1 9541   7.478   0.336   0.481  1.2528  0.1516  1.1499
 3000SOL    HW2 9542   7.615   0.299   0.429  0.3935 -1.0072 -0.3654
 3001SOL     OW 9543   2.848   0.784   5.323  0.2680  0.5606  0.0232
 3001SOL    HW1 9544   2.841   0.702   5.273 -3.4015  0.4562  0.4907
 3001SOL    HW2 9545   2.768   0.788   5.375  1.5364  3.2392  2.0148
 3002SOL     OW 9546   5.339   0.726   7.212 -0.1483  0.2793 -1.1516
 3002SOL    HW1 9547   5.307   0.757   7.297 -0.8722 -0.9943 -0.9211
 3002SOL    HW2 9548   5.302   0.787   7.149 -1.2596  0.1241 -0.6897
 3003SOL     OW 9549   7.354   1.679   1.158 -0.0970 -0.2805  0.6020
 3003SOL    HW1 9550   7.372   1.589   1.184  0.8772 -0.0200  0.8955
 3003SOL    HW2 9551   7.374   1.682   1.065  2.0596  0.1221  1.0181
 3004SOL     OW 9552   7.111   4.532   6.337  0.0709  0.3785  0.0894
 3004SOL    HW1 9553   7.206   4.521   6.341 -0.1727 -1.7108  2.0844
 3004SOL    HW2 9554   7.093   4.605   6.395  0.4229  0.5840 -0.0550
 3005SOL     OW 9555   3.774   1.628   7.330  1.1198 -0.1371  0.3760
 3005SOL    HW1 9556   3.859   1.595   7.360  1.0478  0.6573  1.5002
 3005SOL    HW2 9557   3.709   1.573   7.375  1.0113  1.0904  1.8083
 3006SOL     OW 9558   2.940   5.947   6.415  0.4196 -0.0404  0.0816
 3006SOL    HW1 9559   2.882   5.934   6.340  0.6914  2.6523 -0.7030
 3006SOL    HW2 9560   3.028   5.944   6.378  0.5456  1.6840  0.1484
 3007SOL     OW 9561   4.589   4.933   0.445  0.9044  0.2958 -0.2530
 3007SOL    HW1 9562   4.622   4.843   0.454 -2.6444 -1.0403  1.3462
 3007SOL    HW2 9563   4.582   4.946   0.350  1.8510 -0.9618 -0.5248
 3008SOL     OW 9564   6.147   2.818   4.970 -0.0913 -0.1382 -0.1007
 3008SOL    HW1 9565   6.216   2.879   4.998 -0.1080  0.2506 -0.8688
 3008SOL    HW2 9566   6.066   2.857   5.001  0.0651 -0.8969  1.3258
 3009SOL     OW 9567   6.891   3.650   0.163  0.1780  0.4408  1.1716
 3009SOL    HW1 9568   6.967   3.598   0.137 -1.6569 -0.8974 -2.0681
 3009SOL    HW2 9569   6.901   3.661   0.258  3.8174 -0.5039  1.0489
 3010SOL     OW 9570   5.717   0.067   6.504  0.5804 -0.0914 -0.4944
 3010SOL    HW1 9571   5.753  -0.016   6.535  1.9760  0.2072 -1.2547
 3010SOL    HW2 9572   5.641   0.043   6.452 -0.4747 -0.7303  1.2655
 3011SOL     OW 9573   0.642   4.822   7.298 -0.0672 -0.0594  0.1234
 3011SOL    HW1 9574   0.631   4.915   7.321 -1.0603  0.3016 -1.6006
 3011SOL    HW2 9575   0.556   4.795   7.267 -0.1073 -1.9300  1.6983
 3012SOL     OW 9576   0.062   3.433   7.440  0.5790 -0.3953  0.2290
 3012SOL    HW1 9577   0.070   3.441   7.535  2.1464  0.1088  0.0880
 3012SOL    HW2 9578   0.004   3.505   7.415 -0.9339 -1.3398  0.9137
 3013SOL     OW 9579   7.111   4.485   7.148 -0.6941  0.2325  0.0141
 3013SOL    HW1 9580   7.153   4.562   7.185  0.0092 -0.0526 -0.1825
 3013SOL    HW2 9581   7.039   4.520   7.096  1.4795  1.0386 -2.6986
 3014SOL     OW 9582   2.228   2.889   0.047 -1.1765 -0.3245 -0.8203
 3014SOL    HW1 9583   2.315   2.852   0.033 -1.1067  0.2346 -1.9097
 3014SOL    HW2 9584   2.243   2.973   0.089 -1.3528 -1.6190  2.1276
 3015SOL     OW 9585   1.252   7.189   6.023 -0.0350  0.0573 -0.1249
 3015SOL    HW1 9586   1.201   7.266   6.050 -0.3452 -0.3992  0.6151
 3015SOL    HW2 9587   1.311   7.222   5.956  2.5424  1.8559  2.7526
 3016SOL     OW 9588   0.705   0.383   3.046  0.4290  0.1051 -0.4133
 3016SOL    HW1 9589   0.771   0.317   3.025  1.4266  0.1224  2.3182
 3016SOL    HW2 9590   0.756   0.461   3.069 -0.5539  0.4385  0.7277
 3017SOL     OW 9591   5.406   6.684   1.852 -0.0162  0.0823 -0.6768
 3017SOL    HW1 9592   5.417   6.589   1.852  1.3937  0.2269 -1.2916
 3017SOL    HW2 9593   5.438   6.713   1.767  1.0811  1.2470  0.0835
 3018SOL     OW 9594   4.211   2.925   3.757  0.0018  0.2421 -0.2172
 3018SOL    HW1 9595   4.251   3.005   3.723 -1.0836  0.4876 -0.9753
 3018SOL    HW2 9596   4.285   2.868   3.777  0.7362  0.5466 -1.9179
 3019SOL     OW 9597   3.639   7.413   4.998  0.1569 -0.9385 -0.7155
 3019SOL    HW1 9598   3.649   7.319   5.014  0.2760 -0.5998  1.5320
 3019SOL    HW2 9599   3.572   7.440   5.061  1.9728  0.8949  0.5639
 3020SOL     OW 9600   1.702   1.073   1.473 -0.6533 -0.2088  0.2369
 3020SOL    HW1 9601   1.642   1.122   1.529 -1.1116 -0.0456 -0.3765
 3020SOL    HW2 9602   1.686   0.981   1.494 -0.2214 -0.1250  0.9643
 3021SOL     OW 9603   3.822   7.416   2.183 -0.1250  0.3938 -0.3833
 3021SOL    HW1 9604   3.756   7.403   2.115 -1.0544 -0.6010  0.6480
 3021SOL    HW2 9605   3.783   7.480   2.243 -0.4483 -0.6248  0.5389
 3022SOL     OW 9606   2.458   5.679   4.718  0.2765 -0.1004 -0.4166
 3022SOL    HW1 9607   2.479   5.585   4.723 -0.2249 -0.1468  2.6931
 3022SOL    HW2 9608   2.542   5.721   4.702  0.9684 -0.9442  0.8289
 3023SOL     OW 9609   3.233   4.345   2.771 -0.0118 -0.6183 -0.2612
 3023SOL    HW1 9610   3.143   4.370   2.750  0.1404 -0.6989 -1.0589
 3023SOL    HW2 9611   3.253   4.273   2.711  1.6012  1.3983 -2.3822
 3024SOL     OW 9612   4.508   6.759   6.045  0.6026 -0.6505 -0.1863
 3024SOL    HW1 9613   4.431   6.801   6.006  1.3629  1.2125  0.2364
 3024SOL    HW2 9614   4.572   6.756   5.974  1.2249  0.7234  0.2998
 3025SOL     OW 9615   0.021   7.372   5.958 -0.0831  0.0244  0.3442
 3025SOL    HW1 9616   0.094   7.313   5.975  1.1333  1.1124 -0.7903
 3025SOL    HW2 9617   0.027   7.391   5.864 -2.1122 -0.1972  0.1408
 3026SOL     OW 9618   1.667   5.865   1.453 -0.0103 -0.1596 -0.1587
 3026SOL    HW1 9619   1.612   5.870   1.532  1.1813 -4.3430  1.1808
 3026SOL    HW2 9620   1.745   5.915   1.476 -0.4008  0.1166  0.6282
 3027SOL     OW 9621   5.671   0.393   0.799 -0.5026  0.5389  0.7718
 3027SOL    HW1 9622   5.744   0.336   0.822 -1.6982 -0.9307  1.1152
 3027SOL    HW2 9623   5.636   0.357   0.718 -1.0842  0.9781  0.8128
 3028SOL     OW 9624   7.423   4.779   1.625  0.3342 -0.2355 -0.0137
 3028SOL    HW1 9625   7.377   4.853   1.666 -0.7087 -1.1381  0.5031
 3028SOL    HW2 9626   7.356   4.735   1.573  0.3822 -2.0033  1.3354
 3029SOL     OW 9627   3.839   5.249   5.349  0.6511  0.6406  0.2735
 3029SOL    HW1 9628   3.811   5.218   5.263  0.5824 -0.5543  0.7150
 3029SOL    HW2 9629   3.828   5.344   5.345  0.1035  0.5402 -0.8390
 3030SOL     OW 9630   5.957   2.255   4.771 -0.0238  0.3633  0.1909
 3030SOL    HW1 9631   5.951   2.160   4.765  0.2896  0.2899  0.8654
 3030SOL    HW2 9632   5.911   2.287   4.694 -1.9763 -0.2871  1.0299
 3031SOL     OW 9633   2.185   7.197   5.691 -0.0644  0.0708 -0.5463
 3031SOL    HW1 9634   2.152   7.183   5.780  2.6749  1.0186  0.7352
 3031SOL    HW2 9635   2.126   7.262   5.653 -1.4231 -0.5270  0.4596
 3032SOL     OW 9636   4.477   2.487   5.329 -0.3109  0.9840 -0.4459
 3032SOL    HW1 9637   4.558   2.516   5.370 -1.0176  0.8723  1.1035
 3032SOL    HW2 9638   4.503   2.415   5.272  0.7887  1.5378 -0.6715
 3033SOL     OW 9639   1.191   5.564   2.813 -0.5756 -0.2771  0.6998
 3033SOL    HW1 9640   1.108   5.603   2.841 -0.2838  1.4964 -0.6931
 3033SOL    HW2 9641   1.240   5.637   2.776  1.2852 -1.4519  0.7145
 3034SOL     OW 9642   2.111   3.414   4.482 -0.0935 -0.2404 -0.5287
 3034SOL    HW1 9643   2.189   3.373   4.445  1.0913  1.8394 -0.4597
 3034SOL    HW2 9644   2.100   3.495   4.432 -1.6996 -0.0465  0.0734
 3035SOL     OW 9645   3.689   0.937   4.680  0.1605  0.4369  0.1118
 3035SOL    HW1 9646   3.603   0.908   4.650  1.1525 -0.0584 -2.4816
 3035SOL    HW2 9647   3.738   0.956   4.600  1.6133  3.3937  1.5281
 3036SOL     OW 9648   1.465   5.900   0.667  0.0587  0.0939 -0.3336
 3036SOL    HW1 9649   1.538   5.913   0.727 -1.7043 -0.3924  2.0747
 3036SOL    HW2 9650   1.403   5.969   0.690 -1.4907 -1.2889 -0.1849
 3037SOL     OW 9651   3.665   1.424   5.092  0.2457 -0.1816 -0.0336
 3037SOL    HW1 9652   3.595   1.400   5.032  0.3477 -1.0751  0.1770
 3037SOL    HW2 9653   3.654   1.517   5.107 -0.2969 -0.1200 -0.7719
 3038SOL     OW 9654   6.733   5.644   2.261 -0.2173  0.4322  0.0694
 3038SOL    HW1 9655   6.751   5.738   2.254  0.4002  0.2912 -0.3403
 3038SOL    HW2 9656   6.806   5.602   2.215 -1.7635 -0.1536 -2.0131
 3039SOL     OW 9657   1.600   6.539   2.849 -0.3678  0.4934 -0.0998
 3039SOL    HW1 9658   1.550   6.508   2.924 -0.8281  1.6106  0.0821
 3039SOL    HW2 9659   1.671   6.591   2.887  0.9710 -1.0875 -0.3572
 3040SOL     OW 9660   3.432   1.594   4.363 -0.1208  0.1929 -0.1858
 3040SOL    HW1 9661   3.441   1.685   4.333  0.5112 -0.7953 -3.3428
 3040SOL    HW2 9662   3.338   1.576   4.356 -0.6993  1.3192  3.1211
 3041SOL     OW 9663   5.761   5.842   3.757  0.5122 -0.1804 -0.1355
 3041SOL    HW1 9664   5.726   5.759   3.789  0.6347 -0.3803 -0.5115
 3041SOL    HW2 9665   5.763   5.832   3.662  0.9501  0.0829 -0.1589
 3042SOL     OW 9666   6.720   5.421   4.337  1.0461 -0.3127  0.7727
 3042SOL    HW1 9667   6.814   5.429   4.352  1.7128 -3.3619 -0.9204
 3042SOL    HW2 9668   6.691   5.359   4.404  0.9351 -1.8065 -0.5961
 3043SOL     OW 9669   1.608   1.010   6.640 -0.3324 -0.1452  0.0166
 3043SOL    HW1 9670   1.637   0.920   6.627 -2.4452 -1.0397  1.0393
 3043SOL    HW2 9671   1.539   1.023   6.575 -0.4420  0.5186  0.2564
 3044SOL     OW 9672   3.123   5.305   7.601 -0.3097 -0.1643  0.5539
 3044SOL    HW1 9673   3.072   5.341   7.674  1.3558  1.0628  1.1852
 3044SOL    HW2 9674   3.182   5.376   7.576  0.7496 -1.3505 -0.4533
 3045SOL     OW 9675   7.142   6.107   0.110 -0.3355 -0.2727 -0.0667
 3045SOL    HW1 9676   7.086   6.036   0.079 -0.0710 -0.6811  0.3714
 3045SOL    HW2 9677   7.196   6.131   0.035 -1.2163  0.2456 -0.5418
 3046SOL     OW 9678   2.788   0.267   1.095 -0.8918 -0.4343  0.2220
 3046SOL    HW1 9679   2.780   0.261   1.190 -0.2916 -0.2124  0.2949
 3046SOL    HW2 9680   2.699   0.260   1.062 -0.9905 -1.6786  0.7311
 3047SOL     OW 9681   3.407   5.434   4.101 -0.1489  0.4663 -0.3579
 3047SOL    HW1 9682   3.428   5.417   4.010 -0.3972 -0.3739 -0.2612
 3047SOL    HW2 9683   3.400   5.348   4.142 -0.8705  0.7983  0.2611
 3048SOL     OW 9684   2.758   6.176   7.352  0.0608 -0.0127 -0.2688
 3048SOL    HW1 9685   2.853   6.174   7.335  0.1931 -0.2395  0.4806
 3048SOL    HW2 9686   2.736   6.269   7.351 -0.0733 -0.0022 -2.3317
 3049SOL     OW 9687   0.803   4.799   2.488 -0.8886  0.4202 -0.0808
 3049SOL    HW1 9688   0.823   4.892   2.497  1.0585 -0.0841  1.4218
 3049SOL    HW2 9689   0.784   4.769   2.576  2.1372 -1.2862  0.1404
 3050SOL     OW 9690   1.341   2.630   0.558  0.2477 -0.5882  1.2151
 3050SOL    HW1 9691   1.360   2.566   0.490  1.2188  0.4030  0.5261
 3050SOL    HW2 9692   1.348   2.715   0.514  1.7514  0.1214  2.7213
 3051SOL     OW 9693   6.415   6.183   1.812 -0.3591  0.0846 -0.5018
 3051SOL    HW1 9694   6.369   6.125   1.873 -0.6808  0.4840 -0.3633
 3051SOL    HW2 9695   6.502   6.144   1.805 -0.0916  0.4008  0.7438
 3052SOL     OW 9696   6.732   3.720   1.044  1.3407 -0.3928  0.0327
 3052SOL    HW1 9697   6.754   3.641   0.995  0.5083 -1.5671  1.4889
 3052SOL    HW2 9698   6.727   3.692   1.135 -2.3160  0.5185  0.2691
 3053SOL     OW 9699   3.002   1.732   3.947 -0.0335  0.3762 -0.3762
 3053SOL    HW1 9700   3.036   1.645   3.966  0.6828 -0.0066 -2.9395
 3053SOL    HW2 9701   3.062   1.792   3.991  0.0013 -0.3886  0.6514
 3054SOL     OW 9702   6.916   3.174   6.705 -0.3629  0.0966  0.0423
 3054SOL    HW1 9703   6.877   3.117   6.639  2.1810 -1.1007 -0.5430
 3054SOL    HW2 9704   6.941   3.115   6.776  2.3721  0.3456 -0.5989
 3055SOL     OW 9705   7.283   3.116   5.277 -0.5485 -0.3587  0.0058
 3055SOL    HW1 9706   7.344   3.072   5.335 -0.7968  0.1441  0.6692
 3055SOL    HW2 9707   7.276   3.205   5.312 -2.8028 -0.8046  0.8968
 3056SOL     OW 9708   4.459   0.236   5.299 -0.6009  0.7274  1.0747
 3056SOL    HW1 9709   4.390   0.290   5.259  1.1522  4.1453  2.2114
 3056SOL    HW2 9710   4.415   0.193   5.373 -1.8768  1.4859  0.7969
 3057SOL     OW 9711   6.691   4.068   5.430  0.8214 -0.1425 -0.8861
 3057SOL    HW1 9712   6.786   4.080   5.423  0.8412  0.1654 -0.1232
 3057SOL    HW2 9713   6.656   4.158   5.429  0.4726 -0.2686 -1.9169
 3058SOL     OW 9714   2.210   5.291   7.231 -0.3295 -0.3166  0.5213
 3058SOL    HW1 9715   2.225   5.197   7.235 -1.9513 -0.6096  0.3503
 3058SOL    HW2 9716   2.294   5.328   7.205 -0.0348 -1.8529 -0.8926
 3059SOL     OW 9717   1.270   6.513   2.966  0.2199  0.2873  0.0291
 3059SOL    HW1 9718   1.264   6.458   3.044 -0.8293  1.2281  0.6477
 3059SOL    HW2 9719   1.179   6.527   2.939  0.4641  1.4980 -0.2451
 3060SOL     OW 9720   1.012   4.950   7.505 -0.7018 -0.3901 -0.4453
 3060SOL    HW1 9721   0.944   4.883   7.513 -1.2014  0.3270  1.9900
 3060SOL    HW2 9722   0.992   4.994   7.422 -0.8209 -2.6752 -1.7189
 3061SOL     OW 9723   7.197   5.662   1.387 -0.5066 -0.1052  0.4622
 3061SOL    HW1 9724   7.273   5.660   1.329 -0.1482 -0.6002  0.9426
 3061SOL    HW2 9725   7.173   5.755   1.391  0.9988  0.2836  1.4823
 3062SOL     OW 9726   4.087   3.483   0.258  0.4108  0.7211 -0.0723
 3062SOL    HW1 9727   4.152   3.418   0.231  2.0361  1.8040  1.1140
 3062SOL    HW2 9728   4.065   3.529   0.177 -2.5609 -2.6685 -1.4731
 3063SOL     OW 9729   6.799   3.130   0.618 -0.0963  0.6549  0.1697
 3063SOL    HW1 9730   6.867   3.085   0.668 -0.3977 -0.9355 -0.7706
 3063SOL    HW2 9731   6.726   3.140   0.679  0.0616  0.0311  0.4703
 3064SOL     OW 9732   0.263   1.595   4.405  0.1633 -0.6243  0.1098
 3064SOL    HW1 9733   0.169   1.610   4.411 -0.1368 -2.1607 -0.3130
 3064SOL    HW2 9734   0.299   1.679   4.378 -1.1999 -0.2531 -0.6317
 3065SOL     OW 9735   2.106   4.306   1.574 -0.0686 -0.0100  0.3151
 3065SOL    HW1 9736   2.060   4.383   1.539  0.1711 -1.1480 -2.9150
 3065SOL    HW2 9737   2.038   4.258   1.621 -1.3058  0.2062 -1.1440
 3066SOL     OW 9738   3.009   0.476   7.131 -0.0550 -0.5920  0.3980
 3066SOL    HW1 9739   3.058   0.523   7.198  1.5665 -0.9650 -0.4789
 3066SOL    HW2 9740   2.989   0.543   7.065  0.3058 -0.6835  0.1969
 3067SOL     OW 9741   3.263   0.260   2.099  0.2093  0.1946  0.2902
 3067SOL    HW1 9742   3.175   0.255   2.062 -0.2126  1.5501  1.0166
 3067SOL    HW2 9743   3.261   0.200   2.173 -0.0383  0.0683  0.1824
 3068SOL     OW 9744   5.086   0.037   6.453 -0.6123 -0.6708 -0.4448
 3068SOL    HW1 9745   5.147  -0.021   6.408  0.3296  0.8755 -1.2711
 3068SOL    HW2 9746   5.093   0.120   6.405 -0.6823  0.6155  1.6545
 3069SOL     OW 9747   6.872   0.141   1.829 -0.7284  0.8447  0.4122
 3069SOL    HW1 9748   6.926   0.217   1.811  0.6266 -0.5028 -1.5554
 3069SOL    HW2 9749   6.919   0.068   1.790 -1.4955 -1.2081  3.0316
 3070SOL     OW 9750   4.976   3.900   0.301 -0.4770  0.1922 -0.1895
 3070SOL    HW1 9751   5.063   3.862   0.310 -0.9052 -0.5672  1.0018
 3070SOL    HW2 9752   4.990   3.995   0.300  0.5348  0.0832 -2.3439
 3071SOL     OW 9753   6.167   3.186   3.109 -0.0410 -0.0670 -0.2427
 3071SOL    HW1 9754   6.200   3.105   3.147 -1.3002 -0.7366 -0.5064
 3071SOL    HW2 9755   6.244   3.243   3.102  0.6283 -0.7398  1.1754
 3072SOL     OW 9756   0.625   4.200   4.012  0.5736  0.2732  0.3266
 3072SOL    HW1 9757   0.679   4.230   3.939  0.4576  0.9856  0.5228
 3072SOL    HW2 9758   0.540   4.241   3.999 -1.0473 -3.2864 -1.7102
 3073SOL     OW 9759   1.416   0.497   5.567 -0.3101 -0.0420 -0.4021
 3073SOL    HW1 9760   1.393   0.458   5.652  0.2654  0.8761  0.1891
 3073SOL    HW2 9761   1.430   0.422   5.509 -0.5809 -0.6827  0.3519
 3074SOL     OW 9762   5.275   0.088   4.327  0.5257  0.1618 -0.1897
 3074SOL    HW1 9763   5.328   0.078   4.406 -0.8746  0.5661  0.8297
 3074SOL    HW2 9764   5.272   0.183   4.313  0.2995  0.1222 -0.4068
 3075SOL     OW 9765   4.045   5.824   1.963 -0.2442  0.3041 -0.1139
 3075SOL    HW1 9766   3.965   5.802   1.915 -0.8489 -0.0201  0.9913
 3075SOL    HW2 9767   4.062   5.747   2.017 -0.7415  1.3865  1.6710
 3076SOL     OW 9768   0.836   3.716   4.806  0.1961 -0.2253 -0.3083
 3076SOL    HW1 9769   0.862   3.801   4.771 -0.3921 -0.8546 -2.4958
 3076SOL    HW2 9770   0.892   3.653   4.760 -0.3283 -1.0937  0.2192
 3077SOL     OW 9771   4.810   1.312   5.456 -0.2152  0.3158  0.1877
 3077SOL    HW1 9772   4.793   1.406   5.451 -0.8342  0.2388  0.6945
 3077SOL    HW2 9773   4.756   1.275   5.387  0.7348  0.4071 -0.6277
 3078SOL     OW 9774   1.221   4.784   4.998 -0.8022  0.4548 -0.2702
 3078SOL    HW1 9775   1.222   4.810   4.906  0.0095 -1.6596 -0.9188
 3078SOL    HW2 9776   1.311   4.792   5.027 -0.8336  0.0059 -0.0249
 3079SOL     OW 9777   0.049   3.363   1.616 -0.0537 -0.1924  0.1797
 3079SOL    HW1 9778   0.076   3.292   1.557 -1.5742 -0.1877 -0.5643
 3079SOL    HW2 9779   0.109   3.435   1.596 -0.8117 -0.0349 -1.7161
 3080SOL     OW 9780   3.018   1.654   5.024  0.2254 -0.4417 -0.1518
 3080SOL    HW1 9781   3.059   1.642   4.938  2.0027 -0.3523  0.6271
 3080SOL    HW2 9782   3.058   1.733   5.059  0.2462 -0.9949  1.1365
 3081SOL     OW 9783   1.308   6.652   6.858  0.4248 -0.5409  0.2894
 3081SOL    HW1 9784   1.337   6.633   6.769  0.6911 -1.6620  0.6051
 3081SOL    HW2 9785   1.342   6.580   6.911  0.5815  0.3009  1.3679
 3082SOL     OW 9786   6.196   3.277   5.159  0.0317  0.0765  0.0502
 3082SOL    HW1 9787   6.135   3.308   5.093  0.1967 -0.4705 -0.3678
 3082SOL    HW2 9788   6.142   3.223   5.217 -0.2113  0.9387  0.6545
 3083SOL     OW 9789   6.925   4.406   2.993  0.1222  0.1225  0.2356
 3083SOL    HW1 9790   6.867   4.401   2.917 -2.1340  0.3226  1.8115
 3083SOL    HW2 9791   6.871   4.374   3.066  2.0369  0.3263  1.8312
 3084SOL     OW 9792   3.821   0.283   1.724  0.4034  0.0556 -0.3014
 3084SOL    HW1 9793   3.782   0.347   1.785  1.8481  1.9354 -1.2426
 3084SOL    HW2 9794   3.876   0.336   1.666  0.9918 -1.9813 -1.6998
 3085SOL     OW 9795   5.888   3.048   2.364  0.1254 -0.1897 -0.4108
 3085SOL    HW1 9796   5.817   3.073   2.305 -0.5144 -1.2889 -0.1251
 3085SOL    HW2 9797   5.906   3.128   2.414 -1.7016 -0.1837  0.3112
 3086SOL     OW 9798   3.349   4.213   5.831  0.1057  0.1126  0.4339
 3086SOL    HW1 9799   3.441   4.194   5.852 -0.3240 -1.6343  0.9563
 3086SOL    HW2 9800   3.320   4.274   5.899  1.4077  2.4081 -0.9501
 3087SOL     OW 9801   2.499   4.069   6.636  0.5695  0.4065 -0.0656
 3087SOL    HW1 9802   2.517   4.157   6.603 -1.2200  0.5686 -0.7122
 3087SOL    HW2 9803   2.431   4.035   6.579  0.0771 -0.7777  1.1646
 3088SOL     OW 9804   3.590   5.456   2.655  0.3306  0.8091  0.0363
 3088SOL    HW1 9805   3.605   5.540   2.697  0.9710  1.3233 -1.1751
 3088SOL    HW2 9806   3.526   5.412   2.711  0.5400  1.7918  1.0787
 3089SOL     OW 9807   5.680   6.691   1.434 -0.2057  0.4925 -0.4991
 3089SOL    HW1 9808   5.675   6.608   1.482  1.2792  0.6175 -0.0964
 3089SOL    HW2 9809   5.748   6.676   1.368  1.1456  1.8469  0.5310
 3090SOL     OW 9810   2.137   6.778   2.994 -0.3179 -0.4365  0.2047
 3090SOL    HW1 9811   2.132   6.732   2.910 -0.2059  0.4562 -0.3032
 3090SOL    HW2 9812   2.229   6.772   3.019 -0.5228 -1.5178  0.7420
 3091SOL     OW 9813   5.849   2.992   0.341 -0.2634  0.1537 -0.2813
 3091SOL    HW1 9814   5.792   2.946   0.402 -0.2552 -1.9417 -1.7249
 3091SOL    HW2 9815   5.899   2.922   0.298 -0.5717  1.4436 -2.9351
 3092SOL     OW 9816   1.973   2.071   4.473 -0.2923  0.4791  0.2235
 3092SOL    HW1 9817   1.953   2.064   4.380  2.3589 -0.2601 -0.3662
 3092SOL    HW2 9818   1.996   2.163   4.487  3.1650 -0.0656 -0.8544
 3093SOL     OW 9819   5.943   2.417   2.995 -0.6524 -0.2708  0.4503
 3093SOL    HW1 9820   5.966   2.372   2.914  1.5203  2.1732 -0.4432
 3093SOL    HW2 9821   6.003   2.381   3.060 -1.2355 -1.0281  0.5786
 3094SOL     OW 9822   4.359   4.709   2.105  0.2029 -0.7046  0.3037
 3094SOL    HW1 9823   4.285   4.671   2.152 -0.0467 -0.9370 -0.2792
 3094SOL    HW2 9824   4.330   4.715   2.014 -0.0205  1.4647  0.4536
 3095SOL     OW 9825   7.568   6.991   0.615 -0.4867  0.1940 -0.3337
 3095SOL    HW1 9826   7.580   7.006   0.521 -0.0897 -0.2746 -0.3605
 3095SOL    HW2 9827   7.608   6.906   0.631 -1.3512 -0.1478  0.0949
 3096SOL     OW 9828   2.700   2.706   3.429  0.3566 -0.0827 -0.0712
 3096SOL    HW1 9829   2.748   2.635   3.472 -1.1915 -0.9105  0.3683
 3096SOL    HW2 9830   2.641   2.739   3.497 -0.8875 -0.2272 -1.0428
 3097SOL     OW 9831   1.262   4.804   1.208 -0.4459  0.5554 -0.1671
 3097SOL    HW1 9832   1.352   4.834   1.195 -0.8560  1.6163 -0.7516
 3097SOL    HW2 9833   1.258   4.776   1.299  0.3558  0.9362 -0.0101
 3098SOL     OW 9834   3.952   3.918   0.425  0.6429  0.0524 -0.2210
 3098SOL    HW1 9835   3.951   3.982   0.354 -1.4846 -0.1263 -0.4213
 3098SOL    HW2 9836   3.883   3.855   0.401  1.8558 -1.6474  0.5699
 3099SOL     OW 9837   1.125   6.848   5.412  0.8818  0.1049 -0.1117
 3099SOL    HW1 9838   1.078   6.931   5.422  0.7066  0.0083 -0.1345
 3099SOL    HW2 9839   1.161   6.831   5.499 -0.4778 -0.6330  0.3227
 3100SOL     OW 9840   5.308   0.129   6.621  0.2627  0.5655  0.5747
 3100SOL    HW1 9841   5.281   0.211   6.664  1.1429  0.9751  0.3699
 3100SOL    HW2 9842   5.226   0.090   6.590 -0.1325  1.6599  0.1795
 3101SOL     OW 9843   6.294   1.940   5.424 -0.0953  0.1356 -0.1518
 3101SOL    HW1 9844   6.223   1.877   5.412 -1.1604  0.4092  3.4818
 3101SOL    HW2 9845   6.253   2.025   5.409 -0.1843  0.2116  0.4818
 3102SOL     OW 9846   0.270   7.509   3.903 -0.4680 -0.0650 -1.1451
 3102SOL    HW1 9847   0.190   7.559   3.915 -0.3523 -0.1825  0.3108
 3102SOL    HW2 9848   0.328   7.539   3.974  0.4759 -0.5534 -1.6869
 3103SOL     OW 9849   1.731   0.916   5.747 -0.9386  0.1339  0.0005
 3103SOL    HW1 9850   1.733   0.868   5.664  1.7109  1.4064 -0.7910
 3103SOL    HW2 9851   1.820   0.907   5.782 -1.3657  1.4883  1.5820
 3104SOL     OW 9852   2.650   4.631   6.730 -0.5626  0.1709  0.5537
 3104SOL    HW1 9853   2.644   4.719   6.766  0.4336  0.4671  0.0190
 3104SOL    HW2 9854   2.692   4.643   6.645  0.0730 -0.8822  0.7054
 3105SOL     OW 9855   4.493   3.979   1.941  0.2472 -0.2585 -0.3560
 3105SOL    HW1 9856   4.556   4.048   1.919  0.1865  0.2735  1.0120
 3105SOL    HW2 9857   4.526   3.901   1.896  2.2383 -0.1432  0.7665
 3106SOL     OW 9858   4.600   1.676   1.711 -0.5913 -0.4453 -0.5796
 3106SOL    HW1 9859   4.571   1.763   1.683  0.5656 -0.0821 -0.6806
 3106SOL    HW2 9860   4.644   1.640   1.634  3.7942  1.0600  0.9063
 3107SOL     OW 9861   3.246   7.250   3.192  0.2207 -0.0678 -0.1216
 3107SOL    HW1 9862   3.183   7.257   3.120  1.3466  1.4211 -1.0001
 3107SOL    HW2 9863   3.295   7.170   3.173  0.4431  0.2564 -0.9710
 3108SOL     OW 9864   4.834   1.119   5.844  0.6392 -0.1198 -0.1644
 3108SOL    HW1 9865   4.929   1.109   5.837  0.7072  0.2722  0.2120
 3108SOL    HW2 9866   4.812   1.079   5.928  0.3388 -1.1267 -0.7089
 3109SOL     OW 9867   2.730   2.602   0.796 -0.2839  0.3371 -0.1076
 3109SOL    HW1 9868   2.822   2.585   0.817  0.0737  0.1764 -1.6805
 3109SOL    HW2 9869   2.725   2.593   0.701 -2.2128 -0.9617  0.0572
 3110SOL     OW 9870   6.108   6.992   1.593 -0.6225  0.0281  0.2225
 3110SOL    HW1 9871   6.057   6.934   1.649 -0.6623  2.0084  2.3769
 3110SOL    HW2 9872   6.054   7.070   1.584 -0.1104  0.2218 -1.7147
 3111SOL     OW 9873   4.374   3.097   0.373 -0.2801  0.4662 -0.2112
 3111SOL    HW1 9874   4.436   3.138   0.313  0.6241  0.7275  0.8559
 3111SOL    HW2 9875   4.348   3.168   0.432 -0.3673  0.0042  0.3188
 3112SOL     OW 9876   2.854   3.897   3.617 -0.0872 -0.2724  0.0284
 3112SOL    HW1 9877   2.865   3.843   3.539 -1.4504 -0.9726  0.2839
 3112SOL    HW2 9878   2.856   3.835   3.690 -1.3115  0.0309  0.3520
 3113SOL     OW 9879   2.105   3.584   6.023 -0.1208 -0.3592 -0.1422
 3113SOL    HW1 9880   2.079   3.585   6.115 -2.1435 -0.0241 -0.6739
 3113SOL    HW2 9881   2.160   3.506   6.015 -0.7383 -0.9641  1.1420
 3114SOL     OW 9882   3.632   5.822   0.270  0.5069  0.2850  0.1587
 3114SOL    HW1 9883   3.689   5.798   0.198  1.2728  1.4768  0.3400
 3114SOL    HW2 9884   3.616   5.916   0.259 -0.7577  0.1516  0.5793
 3115SOL     OW 9885   5.516   5.977   1.892 -0.0212 -0.4142 -0.0639
 3115SOL    HW1 9886   5.435   6.015   1.927  0.2428  1.0668 -1.0197
 3115SOL    HW2 9887   5.507   5.883   1.909 -1.7732 -0.2328  0.1762
 3116SOL     OW 9888   1.704   7.278   4.105  0.3750 -0.3418  0.6756
 3116SOL    HW1 9889   1.765   7.274   4.178  1.0727 -1.9069  0.0587
 3116SOL    HW2 9890   1.747   7.229   4.035 -0.0061  1.5724 -1.0118
 3117SOL     OW 9891   1.527   3.789   2.348 -0.2798 -0.2134  0.1065
 3117SOL    HW1 9892   1.487   3.875   2.353 -0.4290 -0.2461 -0.5146
 3117SOL    HW2 9893   1.563   3.775   2.436  0.8674  1.0242 -0.1290
 3118SOL     OW 9894   1.409   5.247   2.745  0.2283  0.1576  0.1926
 3118SOL    HW1 9895   1.445   5.175   2.796  0.7441  0.4342  0.2249
 3118SOL    HW2 9896   1.393   5.316   2.809 -0.3207  0.0502  0.1713
 3119SOL     OW 9897   3.087   7.437   4.846  0.6013  0.1803  0.1239
 3119SOL    HW1 9898   3.182   7.433   4.857  0.6548  1.2333  0.1166
 3119SOL    HW2 9899   3.062   7.521   4.883 -0.2093  0.3375 -0.7598
 3120SOL     OW 9900   2.892   1.804   3.474  1.0044 -0.1083 -0.4339
 3120SOL    HW1 9901   2.985   1.782   3.482  1.6115  1.9427 -1.2744
 3120SOL    HW2 9902   2.878   1.817   3.380  0.2066  0.9612 -0.1849
 3121SOL     OW 9903   7.600   6.973   5.869 -0.0516 -0.4513 -0.3453
 3121SOL    HW1 9904   7.677   6.918   5.878 -0.3157 -1.0867 -1.6435
 3121SOL    HW2 9905   7.585   6.978   5.774 -1.6505 -0.4365 -0.1240
 3122SOL     OW 9906   2.108   5.890   2.124  0.4163  0.1536 -0.4668
 3122SOL    HW1 9907   2.192   5.846   2.111  0.5438 -0.0996  1.0803
 3122SOL    HW2 9908   2.050   5.852   2.058  1.3371 -0.1299 -1.1277
 3123SOL     OW 9909   2.546   7.349   3.322  0.1537 -0.6636 -0.1545
 3123SOL    HW1 9910   2.499   7.398   3.253 -0.5139 -0.1152  0.6670
 3123SOL    HW2 9911   2.598   7.416   3.366  0.8884 -1.0880 -0.3732
 3124SOL     OW 9912   0.231   4.283   6.510  0.3829 -0.0847  0.3723
 3124SOL    HW1 9913   0.198   4.344   6.575  0.6339 -0.7066  1.0982
 3124SOL    HW2 9914   0.297   4.333   6.461  1.6094 -0.1558  1.8753
 3125SOL     OW 9915   5.247   0.998   2.703  0.3011  0.0139  0.2640
 3125SOL    HW1 9916   5.174   0.952   2.744  0.0801  0.2024  0.0831
 3125SOL    HW2 9917   5.210   1.083   2.677 -0.0688 -0.7702 -1.9992
 3126SOL     OW 9918   1.283   3.713   5.202  0.5374 -0.3893  0.4216
 3126SOL    HW1 9919   1.250   3.729   5.113 -0.3124  1.3641  0.9895
 3126SOL    HW2 9920   1.226   3.645   5.237  0.4236 -0.5884 -0.1366
 3127SOL     OW 9921   4.415   7.363   4.967 -0.7483  0.3991 -0.1339
 3127SOL    HW1 9922   4.479   7.333   4.903 -0.7506  3.2403 -1.6523
 3127SOL    HW2 9923   4.331   7.335   4.932 -0.7024  1.4221 -1.1213
 3128SOL     OW 9924   1.437   0.434   6.790 -0.3839 -0.4110 -0.1794
 3128SOL    HW1 9925   1.391   0.488   6.725  0.9747  0.6249 -0.3263
 3128SOL    HW2 9926   1.407   0.468   6.874 -1.2637 -0.9801 -0.2460
 3129SOL     OW 9927   0.854   5.450   1.679 -0.2613  0.3472  0.0969
 3129SOL    HW1 9928   0.896   5.534   1.660 -1.1208  1.0185  1.0638
 3129SOL    HW2 9929   0.882   5.429   1.768 -0.5794 -0.0610  0.1024
 3130SOL     OW 9930   2.342   6.361   3.020 -0.8767 -0.0648  0.1201
 3130SOL    HW1 9931   2.248   6.368   3.004 -1.2445 -2.8749  0.5684
 3130SOL    HW2 9932   2.378   6.322   2.941 -0.2240  0.1544  0.2995
 3131SOL     OW 9933   3.489   6.887   5.861  0.2653  0.1759  0.0707
 3131SOL    HW1 9934   3.457   6.840   5.785  2.4615 -1.3543  0.0014
 3131SOL    HW2 9935   3.412   6.933   5.896 -1.1725 -0.5927 -1.9423
 3132SOL     OW 9936   4.766   6.861   2.910 -0.0844  0.2705 -0.1352
 3132SOL    HW1 9937   4.820   6.790   2.876 -2.1243 -1.0856 -0.7495
 3132SOL    HW2 9938   4.765   6.848   3.004 -0.5220 -0.6080 -0.2542
 3133SOL     OW 9939   1.642   3.476   3.618  0.2171 -0.2273 -0.8436
 3133SOL    HW1 9940   1.597   3.505   3.539  0.1172 -0.8826 -1.0398
 3133SOL    HW2 9941   1.573   3.469   3.684  0.4080  0.9753 -0.4980
 3134SOL     OW 9942   0.698   3.171   0.792 -0.2487 -0.1182  0.3878
 3134SOL    HW1 9943   0.734   3.117   0.722  0.3821  0.9047 -0.1065
 3134SOL    HW2 9944   0.722   3.126   0.873  0.4874 -0.4448 -0.0057
 3135SOL     OW 9945   3.444   0.667   4.446 -0.3006  0.3885  0.1651
 3135SOL    HW1 9946   3.537   0.679   4.466 -0.2285 -0.4866  0.4066
 3135SOL    HW2 9947   3.420   0.586   4.492 -1.0261  0.2743 -0.3964
 3136SOL     OW 9948   4.770   3.731   5.588 -0.7622  0.3962 -0.3285
 3136SOL    HW1 9949   4.777   3.649   5.638 -0.9118  1.7129  1.9915
 3136SOL    HW2 9950   4.844   3.784   5.619 -3.1146  2.8055  1.6224
 3137SOL     OW 9951   4.256   1.472   6.439 -0.4948 -0.5955 -0.3324
 3137SOL    HW1 9952   4.212   1.507   6.516 -0.5129 -1.1356 -0.0916
 3137SOL    HW2 9953   4.305   1.546   6.404 -0.6311 -0.2985  0.0914
 3138SOL     OW 9954   6.688   5.180   6.384 -0.7106  0.4374 -0.2387
 3138SOL    HW1 9955   6.714   5.244   6.450  0.5459 -0.0285 -0.2514
 3138SOL    HW2 9956   6.689   5.096   6.430 -3.6856  0.5030  0.1453
 3139SOL     OW 9957   1.121   0.233   2.146  0.9882  0.2837 -0.6885
 3139SOL    HW1 9958   1.132   0.321   2.182  1.2673  0.4162 -1.0924
 3139SOL    HW2 9959   1.190   0.225   2.080  1.9557 -0.7895  0.3883
 3140SOL     OW 9960   5.192   6.134   4.360  0.2339 -0.0456  0.0523
 3140SOL    HW1 9961   5.125   6.203   4.369  0.7264  0.4739 -0.1590
 3140SOL    HW2 9962   5.144   6.059   4.325  0.1202  1.0069 -2.2746
 3141SOL     OW 9963   0.460   3.518   1.142  0.4516  0.0041 -0.3584
 3141SOL    HW1 9964   0.497   3.589   1.195 -0.8928 -0.1781  0.9008
 3141SOL    HW2 9965   0.427   3.455   1.206  0.6781 -1.2732 -1.4495
 3142SOL     OW 9966   4.739   2.342   2.477  0.7220  0.3827  0.1127
 3142SOL    HW1 9967   4.715   2.249   2.476 -0.6468  0.6939 -1.3123
 3142SOL    HW2 9968   4.665   2.386   2.519  0.5953  0.9808 -0.7077
 3143SOL     OW 9969   6.695   2.896   5.018 -0.3445 -0.3473  0.0441
 3143SOL    HW1 9970   6.610   2.859   4.993 -0.2368 -0.1864 -0.5822
 3143SOL    HW2 9971   6.679   2.935   5.104 -1.1538  0.4975 -0.4661
 3144SOL     OW 9972   2.030   1.809   0.376 -0.4632  0.0496 -0.2778
 3144SOL    HW1 9973   2.089   1.883   0.387 -0.4995  0.0449 -0.0441
 3144SOL    HW2 9974   1.963   1.821   0.444  1.4239 -2.0286  2.1228
 3145SOL     OW 9975   3.727   7.164   5.074 -0.4091  0.1636 -0.4761
 3145SOL    HW1 9976   3.766   7.097   5.018 -0.0055 -0.4988  0.5701
 3145SOL    HW2 9977   3.669   7.116   5.133 -1.4050  0.9320 -0.7878
 3146SOL     OW 9978   1.116   7.276   7.329  0.2606 -0.5325 -0.2115
 3146SOL    HW1 9979   1.123   7.263   7.424 -0.9497  1.4240  0.2280
 3146SOL    HW2 9980   1.033   7.235   7.306 -0.4015  0.6466 -0.0195
 3147SOL     OW 9981   7.481   0.454   7.559  0.0023 -0.0338 -0.2772
 3147SOL    HW1 9982   7.562   0.410   7.585  0.4787  0.5918 -0.6794
 3147SOL    HW2 9983   7.447   0.401   7.486  1.1372  0.8255 -1.4827
 3148SOL     OW 9984   4.705   2.431   6.129 -0.7268 -0.3451 -0.0948
 3148SOL    HW1 9985   4.770   2.380   6.177 -2.0382 -0.5312  1.5557
 3148SOL    HW2 9986   4.623   2.383   6.140 -1.1605 -0.1783 -2.2385
 3149SOL     OW 9987   1.991   3.971   4.109 -0.0437  0.7492 -0.4994
 3149SOL    HW1 9988   2.051   3.945   4.040 -1.4427  1.2579 -1.9807
 3149SOL    HW2 9989   1.917   3.911   4.100  0.7074 -0.7028  2.1096
 3150SOL     OW 9990   3.948   4.693   3.869 -0.4026  0.2433 -0.0313
 3150SOL    HW1 9991   3.946   4.769   3.811 -1.0961  0.3928  0.1870
 3150SOL    HW2 9992   3.906   4.722   3.950  1.2577  0.2918  0.8718
 3151SOL     OW 9993   7.245   2.842   0.680  0.2205  0.5195  0.1599
 3151SOL    HW1 9994   7.318   2.901   0.701 -0.5584  0.8467  2.1737
 3151SOL    HW2 9995   7.268   2.759   0.721 -0.8486  0.8506  1.5158
 3152SOL     OW 9996   1.198   3.302   1.481  0.5000  0.4863 -0.2220
 3152SOL    HW1 9997   1.208   3.241   1.407  2.1038  0.8440 -0.3269
 3152SOL    HW2 9998   1.112   3.341   1.467 -0.7746 -1.9991  0.0614
 3153SOL     OW 9999   7.374   5.422   3.944  0.2542  0.9648  0.0965
 3153SOL    HW110000   7.446   5.476   3.978  0.0556  0.7251  0.9182
 3153SOL    HW210001   7.300   5.441   4.001 -0.2093  0.8502 -0.4538
 3154SOL     OW10002   5.127   1.306   2.898 -0.5048  0.4297 -0.4171
 3154SOL    HW110003   5.055   1.244   2.893 -0.6243  0.5462 -0.1744
 3154SOL    HW210004   5.149   1.325   2.807 -1.2387  0.9166 -0.4999
 3155SOL     OW10005   6.929   1.382   5.554  0.1117  0.4726 -0.7345
 3155SOL    HW110006   6.926   1.433   5.635  0.1457 -0.4768 -0.1252
 3155SOL    HW210007   6.837   1.366   5.532  0.1035  0.7071 -0.8783
 3156SOL     OW10008   2.840   1.795   4.213  0.3403  0.8665 -0.1772
 3156SOL    HW110009   2.757   1.835   4.241  0.4204  0.3317  0.8511
 3156SOL    HW210010   2.834   1.704   4.242  1.4789  0.9348  0.3232
 3157SOL     OW10011   5.666   6.611   1.099  0.1293  0.1350  0.2262
 3157SOL    HW110012   5.674   6.531   1.046 -0.4270 -1.4296  2.3966
 3157SOL    HW210013   5.757   6.634   1.120  0.3807  0.9525 -1.5660
 3158SOL     OW10014   3.908   5.528   5.214  0.1596 -0.4716  0.5101
 3158SOL    HW110015   3.927   5.581   5.137  0.6308  0.8153  1.4867
 3158SOL    HW210016   3.993   5.501   5.246 -0.0598 -1.4541  0.2943
 3159SOL     OW10017   3.606   2.710   3.567 -0.1258  0.0079 -0.2708
 3159SOL    HW110018   3.511   2.696   3.558  0.0515 -1.0143 -0.6593
 3159SOL    HW210019   3.619   2.800   3.538 -0.6342 -0.6786 -2.9415
 3160SOL     OW10020   3.923   6.783   4.626  0.0041 -0.2741  0.2094
 3160SOL    HW110021   3.889   6.707   4.578 -2.1156  0.7972 -0.0742
 3160SOL    HW210022   3.953   6.747   4.709  0.9198 -1.7020 -0.6905
 3161SOL     OW10023   3.933   2.249   1.301 -0.4365 -0.4384 -0.1199
 3161SOL    HW110024   3.970   2.264   1.214  0.5862  0.6061  0.4773
 3161SOL    HW210025   3.851   2.298   1.301  0.8144  1.7424  0.3599
 3162SOL     OW10026   6.040   3.330   5.721 -0.4807  0.6990  0.8741
 3162SOL    HW110027   6.093   3.269   5.671  0.3990  1.9934  0.1520
 3162SOL    HW210028   5.956   3.333   5.676 -0.3795  0.3334  0.6641
 3163SOL     OW10029   7.012   3.180   6.059 -0.1795  0.3616 -0.2227
 3163SOL    HW110030   6.932   3.160   6.011 -0.7243 -0.1421  0.8397
 3163SOL    HW210031   7.069   3.223   5.996  0.0952 -2.4153 -2.0264
 3164SOL     OW10032   2.596   7.201   6.080 -0.5815 -0.2210  0.0256
 3164SOL    HW110033   2.533   7.253   6.030  1.0846  0.7135 -1.2029
 3164SOL    HW210034   2.672   7.258   6.090  0.0430 -1.2553  1.5922
 3165SOL     OW10035   3.063   3.289   5.434 -0.1554 -0.3461 -0.3202
 3165SOL    HW110036   3.128   3.286   5.504  0.5182 -0.2009 -0.9432
 3165SOL    HW210037   2.998   3.223   5.461 -0.9592  1.0664  1.4541
 3166SOL     OW10038   3.554   3.212   1.803  0.3393 -0.6465 -0.1222
 3166SOL    HW110039   3.515   3.284   1.853 -1.8658 -1.1128 -1.0502
 3166SOL    HW210040   3.607   3.164   1.866 -1.9310 -0.9317  1.7140
 3167SOL     OW10041   5.891   6.038   5.856  0.1848 -0.1391 -0.4109
 3167SOL    HW110042   5.817   5.986   5.885 -0.1644 -0.0093 -1.0407
 3167SOL    HW210043   5.956   5.973   5.828  1.1223 -0.3066  1.9918
 3168SOL     OW10044   1.228   5.964   0.367  0.4434  0.3584  0.0675
 3168SOL    HW110045   1.191   5.894   0.421  0.1284  1.0129  0.7275
 3168SOL    HW210046   1.323   5.954   0.378  0.5914 -1.8620 -2.3173
 3169SOL     OW10047   0.805   3.213   3.531  0.5220  0.6838 -0.0202
 3169SOL    HW110048   0.784   3.172   3.447  0.7414 -0.4962  0.4895
 3169SOL    HW210049   0.841   3.143   3.584 -0.4080  1.2151  1.3675
 3170SOL     OW10050   0.838   1.444   5.943  0.2681  0.2286  0.3024
 3170SOL    HW110051   0.770   1.398   5.994 -1.6865 -0.0748 -2.3559
 3170SOL    HW210052   0.919   1.400   5.967 -0.8551 -1.2578  1.6249
 3171SOL     OW10053   0.594   3.313   4.441  0.1539 -0.2580 -0.0230
 3171SOL    HW110054   0.670   3.348   4.395 -0.5113  0.2902 -0.7198
 3171SOL    HW210055   0.522   3.322   4.379 -0.8901  1.0084  1.2980
 3172SOL     OW10056   5.639   1.538   3.806  0.1244  0.1838  0.1656
 3172SOL    HW110057   5.585   1.600   3.757 -0.8113  0.5443  1.5835
 3172SOL    HW210058   5.685   1.487   3.739 -2.0928 -0.2574 -1.0982
 3173SOL     OW10059   4.543   0.276   2.039  0.0225 -0.0753  0.5617
 3173SOL    HW110060   4.495   0.322   2.108 -1.5607 -0.3177 -0.3373
 3173SOL    HW210061   4.531   0.183   2.058  0.3785 -0.1422  0.4785
 3174SOL     OW10062   7.036   5.249   4.800  0.4178  0.1674 -0.2117
 3174SOL    HW110063   7.061   5.164   4.836 -1.9803  0.0013  1.3308
 3174SOL    HW210064   7.096   5.311   4.841  3.0939 -0.8024 -2.3796
 3175SOL     OW10065   1.843   3.661   2.334 -0.1476  0.2660 -0.0157
 3175SOL    HW110066   1.921   3.606   2.332 -1.8166 -2.2346 -1.8948
 3175SOL    HW210067   1.787   3.622   2.402 -0.2716  1.3117  0.5010
 3176SOL     OW10068   7.137   4.387   1.409  0.0264 -0.4867 -0.0227
 3176SOL    HW110069   7.161   4.366   1.499  0.0273  0.2100  0.1478
 3176SOL    HW210070   7.041   4.392   1.411  0.0352 -0.3072 -0.0206
 3177SOL     OW10071   6.117   5.588   0.911 -0.5695  0.4277  0.6862
 3177SOL    HW110072   6.136   5.669   0.958 -1.3219  1.0708 -0.0714
 3177SOL    HW210073   6.201   5.560   0.876 -0.7688  2.8596 -2.0858
 3178SOL     OW10074   3.491   2.443   0.714 -0.1507 -0.1415 -0.0881
 3178SOL    HW110075   3.427   2.390   0.667  0.5910 -2.4388  1.3662
 3178SOL    HW210076   3.492   2.408   0.803  0.7312  2.0317  0.8330
 3179SOL     OW10077   1.800   7.447   7.306  0.2597  0.0549 -0.0187
 3179SOL    HW110078   1.863   7.518   7.320  1.3846 -0.9082 -0.0175
 3179SOL    HW210079   1.838   7.372   7.351 -1.6534 -0.1946  1.2997
 3180SOL     OW10080   0.388   2.991   4.187  0.4735 -0.6048 -0.0148
 3180SOL    HW110081   0.300   2.989   4.226  0.0808 -1.4221 -0.9120
 3180SOL    HW210082   0.372   2.994   4.093  1.3991  2.1153 -0.1749
 3181SOL     OW10083   6.532   4.153   1.165 -0.2387 -0.0169 -0.0682
 3181SOL    HW110084   6.509   4.067   1.131 -0.2056  0.1512 -0.5214
 3181SOL    HW210085   6.600   4.136   1.230  1.2894 -0.1585 -1.6545
 3182SOL     OW10086   4.981   0.228   2.251 -0.0075 -0.4783  0.2323
 3182SOL    HW110087   4.975   0.279   2.171 -0.1288  0.9146  1.0947
 3182SOL    HW210088   5.037   0.154   2.228 -1.3606 -1.0253 -1.5646
 3183SOL     OW10089   5.870   5.136   6.521 -0.4385  0.8664  0.6344
 3183SOL    HW110090   5.845   5.228   6.510 -2.0553  0.3028 -1.0115
 3183SOL    HW210091   5.919   5.114   6.442 -0.4134  0.2249  0.8187
 3184SOL     OW10092   5.780   6.884   7.307  0.7215  0.2854  0.7256
 3184SOL    HW110093   5.718   6.861   7.376  0.6941 -2.2867 -0.0562
 3184SOL    HW210094   5.740   6.959   7.262  0.2761  1.3658  2.8219
 3185SOL     OW10095   1.632   7.403   0.767  0.1002  0.1362 -0.3680
 3185SOL    HW110096   1.581   7.444   0.697  0.7037  2.7877  0.6152
 3185SOL    HW210097   1.698   7.468   0.790  2.2192 -2.1090  0.2620
 3186SOL     OW10098   2.566   5.112   0.071  0.3081  0.1235 -0.2962
 3186SOL    HW110099   2.529   5.061  -0.001 -0.5373  0.2353  0.0467
 3186SOL    HW210100   2.596   5.048   0.134  0.6758  0.0297 -0.5665
 3187SOL     OW10101   2.675   1.093   3.245 -0.5577  0.0812  0.0957
 3187SOL    HW110102   2.681   1.028   3.315  2.0909 -0.0514 -0.1301
 3187SOL    HW210103   2.663   1.041   3.166  0.1902 -0.0776  0.0725
 3188SOL     OW10104   3.590   5.356   4.691 -0.1026  0.2640  0.1011
 3188SOL    HW110105   3.628   5.310   4.766 -0.7208  1.2606  1.0565
 3188SOL    HW210106   3.643   5.327   4.616  0.5210 -0.7629  0.9081
 3189SOL     OW10107   4.944   0.203   4.966  0.6905 -0.6525  0.5254
 3189SOL    HW110108   4.894   0.181   5.045  0.3405 -0.2394  0.4227
 3189SOL    HW210109   4.879   0.239   4.905  1.1633  0.2960  0.5490
 3190SOL     OW10110   7.094   6.439   1.116 -0.1801 -0.4620  0.3536
 3190SOL    HW110111   7.155   6.378   1.157  0.8472 -0.9184 -1.7448
 3190SOL    HW210112   7.147   6.489   1.054 -1.6415  0.2165 -0.4121
 3191SOL     OW10113   2.351   6.647   4.174  0.4047  0.3518 -0.6375
 3191SOL    HW110114   2.420   6.678   4.114 -1.3328  1.0007 -2.3993
 3191SOL    HW210115   2.287   6.605   4.117 -0.4799 -0.6217  1.0094
 3192SOL     OW10116   4.452   5.611   7.593  0.0207 -0.5219 -0.4275
 3192SOL    HW110117   4.357   5.615   7.585 -0.0750  1.2030  0.8406
 3192SOL    HW210118   4.468   5.578   7.681  0.5926 -0.4320 -0.4881
 3193SOL     OW10119   4.638   1.462   3.600 -0.0439  0.0436  0.6090
 3193SOL    HW110120   4.624   1.368   3.605 -0.1502  0.1118  1.7600
 3193SOL    HW210121   4.733   1.473   3.610 -0.1525  0.1173  1.6857
 3194SOL     OW10122   1.329   0.781   1.827  0.0150 -0.0530 -0.3325
 3194SOL    HW110123   1.304   0.842   1.896  1.3768 -0.3030  0.4147
 3194SOL    HW210124   1.422   0.798   1.812 -0.1743 -0.2268 -1.8910
 3195SOL     OW10125   2.761   6.942   3.226  0.2083  0.4983 -0.6121
 3195SOL    HW110126   2.818   6.901   3.161  0.1156  0.2078 -0.5113
 3195SOL    HW210127   2.769   6.886   3.304 -2.0992 -0.9731 -1.3644
 3196SOL     OW10128   5.224   1.635   3.540  0.0294 -0.0426  0.4029
 3196SOL    HW110129   5.142   1.678   3.566 -1.8090 -1.9200 -1.8103
 3196SOL    HW210130   5.227   1.643   3.445  0.9417 -2.4038  0.1568
 3197SOL     OW10131   3.342   1.758   0.231  0.9482 -0.4116 -0.9585
 3197SOL    HW110132   3.312   1.838   0.189  0.0025 -0.2710 -0.0546
 3197SOL    HW210133   3.276   1.692   0.209  1.2687 -0.7294 -0.9863
 3198SOL     OW10134   3.029   2.128   0.690  0.1606 -0.4711 -0.1592
 3198SOL    HW110135   3.056   2.081   0.769  3.2224  0.7654 -0.3270
 3198SOL    HW210136   3.102   2.187   0.671 -1.7592  1.4585 -2.2344
 3199SOL     OW10137   2.975   7.328   5.202  0.3502  0.2008 -0.3281
 3199SOL    HW110138   2.998   7.284   5.119  0.9912 -2.3410  1.0775
 3199SOL    HW210139   3.058   7.364   5.233  0.8294 -1.6254  0.6680
 3200SOL     OW10140   1.550   1.289   5.928  0.3556  0.3519  0.0588
 3200SOL    HW110141   1.523   1.380   5.933 -0.4032  0.1709 -0.4836
 3200SOL    HW210142   1.469   1.241   5.914  0.6332 -0.4972  1.1843
 3201SOL     OW10143   7.205   3.438   2.826 -0.6688 -0.4357 -0.5089
 3201SOL    HW110144   7.248   3.523   2.832 -0.0083 -0.7430 -0.7916
 3201SOL    HW210145   7.116   3.454   2.856 -0.2199  0.1056  0.5705
 3202SOL     OW10146   1.952   3.598   2.012  0.1049 -0.6143 -0.2485
 3202SOL    HW110147   1.883   3.661   2.030 -0.2024 -0.2334 -2.5716
 3202SOL    HW210148   2.029   3.651   1.990 -0.0034 -1.0015 -1.6564
 3203SOL     OW10149   4.136   4.257   0.358 -0.4070 -0.2002 -0.0241
 3203SOL    HW110150   4.042   4.258   0.339 -0.2456  2.0938 -0.8883
 3203SOL    HW210151   4.158   4.347   0.379  1.8662 -0.4360 -1.0977
 3204SOL     OW10152   3.128   0.293   5.301  0.3228 -0.0583 -0.4267
 3204SOL    HW110153   3.180   0.213   5.314 -1.0891 -0.5754  3.0957
 3204SOL    HW210154   3.040   0.269   5.330 -1.2655  1.6504 -3.3429
 3205SOL     OW10155   2.409   1.316   6.013 -0.2501 -0.4124 -0.0316
 3205SOL    HW110156   2.433   1.323   6.105 -0.8835  1.3448  0.0321
 3205SOL    HW210157   2.383   1.224   6.002  0.1349 -0.7207  1.4535
 3206SOL     OW10158   6.843   4.471   0.646  0.1161 -0.7272  0.4116
 3206SOL    HW110159   6.810   4.561   0.653  1.7239 -0.1654  1.2063
 3206SOL    HW210160   6.930   4.481   0.606  0.4445 -1.9021  0.8133
 3207SOL     OW10161   4.293   0.621   0.926  0.4303 -0.3764  0.3682
 3207SOL    HW110162   4.311   0.570   0.846 -0.2183  0.2508 -0.1888
 3207SOL    HW210163   4.316   0.562   0.998  1.1782 -0.8972 -0.2834
 3208SOL     OW10164   3.112   2.957   5.795 -0.0386 -0.4371 -0.6368
 3208SOL    HW110165   3.190   2.991   5.751 -0.0415  0.1292 -0.2059
 3208SOL    HW210166   3.088   2.880   5.743  2.9264 -2.8628  1.2056
 3209SOL     OW10167   7.030   0.528   5.781 -0.1848  0.1612  0.1093
 3209SOL    HW110168   7.105   0.493   5.830 -0.7041  0.6539  1.2933
 3209SOL    HW210169   6.957   0.523   5.843 -0.6860  1.5756 -0.3442
 3210SOL     OW10170   2.124   4.146   7.242  0.5400 -0.1060 -0.4902
 3210SOL    HW110171   2.129   4.233   7.281 -0.6975 -0.3498  0.2727
 3210SOL    HW210172   2.091   4.162   7.153 -1.0774  0.1274  0.1150
 3211SOL     OW10173   4.660   6.344   5.790  0.1068  0.0118  0.3950
 3211SOL    HW110174   4.648   6.332   5.884  0.3466 -0.7848  0.3301
 3211SOL    HW210175   4.582   6.305   5.751  0.2431 -0.0979  0.2346
 3212SOL     OW10176   2.430   1.481   3.746 -0.0482  0.4851 -1.1478
 3212SOL    HW110177   2.493   1.409   3.745  0.1478  0.6588 -1.5463
 3212SOL    HW210178   2.458   1.536   3.820 -0.5326 -0.1317 -0.4904
 3213SOL     OW10179   5.134   3.559   3.588  0.0780  0.0947 -0.4720
 3213SOL    HW110180   5.173   3.475   3.612  0.7361  0.2458 -0.9634
 3213SOL    HW210181   5.092   3.542   3.503 -0.0722  0.1764 -0.4136
 3214SOL     OW10182   3.340   6.452   0.318 -0.0932 -0.4963 -0.5784
 3214SOL    HW110183   3.311   6.442   0.228 -0.8328 -0.7514 -0.3208
 3214SOL    HW210184   3.332   6.365   0.357  1.5164 -0.6927 -0.6193
 3215SOL     OW10185   6.561   7.085   4.216 -0.7865  0.0266 -0.0816
 3215SOL    HW110186   6.505   7.013   4.247 -0.2058 -1.0193 -1.3560
 3215SOL    HW210187   6.616   7.107   4.291 -1.1254 -0.7076  0.3909
 3216SOL     OW10188   6.424   1.333   3.001  0.1088 -0.6358  0.6749
 3216SOL    HW110189   6.369   1.256   3.014 -1.5637  0.5749  1.0604
 3216SOL    HW210190   6.394   1.395   3.068 -1.1144  1.6944 -1.8410
 3217SOL     OW10191   2.431   7.575   6.338  0.0863 -0.4828  0.3098
 3217SOL    HW110192   2.520   7.539   6.334  0.6354  0.9157 -0.7572
 3217SOL    HW210193   2.387   7.522   6.405  1.0743 -2.5805 -0.6044
 3218SOL     OW10194   2.211   5.909   0.497 -0.4063  0.1304  0.4861
 3218SOL    HW110195   2.291   5.916   0.446 -1.9764  1.2239 -2.0559
 3218SOL    HW210196   2.167   5.831   0.463 -1.6055  1.0178 -0.0762
 3219SOL     OW10197   1.085   0.704   2.356 -0.5067 -0.4189 -0.2610
 3219SOL    HW110198   1.128   0.622   2.331  1.7292  0.5811  0.0730
 3219SOL    HW210199   1.148   0.748   2.413 -2.4326  0.7200  1.1029
 3220SOL     OW10200   3.837   2.035   1.456 -0.1326  0.5070 -0.0512
 3220SOL    HW110201   3.756   2.029   1.404 -1.0721  3.8126  0.7450
 3220SOL    HW210202   3.898   2.081   1.399 -0.0202  1.1201  0.5537
 3221SOL     OW10203   4.240   0.405   0.515  0.2209  0.2535 -0.1256
 3221SOL    HW110204   4.189   0.410   0.596  0.8690 -0.1079  0.3171
 3221SOL    HW210205   4.267   0.495   0.498  1.8027  0.0659  1.2012
 3222SOL     OW10206   0.335   0.084   2.575  0.0491 -0.2614  0.2644
 3222SOL    HW110207   0.324   0.179   2.578 -1.4831 -0.2158 -2.5993
 3222SOL    HW210208   0.414   0.071   2.523  1.1075 -0.6117  1.8997
 3223SOL     OW10209   1.248   2.394   4.444  0.3689  0.0316 -0.4588
 3223SOL    HW110210   1.168   2.445   4.439  0.4734  0.0827 -1.9856
 3223SOL    HW210211   1.219   2.303   4.438  0.2544 -0.0886  1.4062
 3224SOL     OW10212   2.525   1.568   5.563  0.1467 -0.2418 -0.3743
 3224SOL    HW110213   2.493   1.499   5.621 -0.6739  0.8708  0.5541
 3224SOL    HW210214   2.616   1.545   5.546 -0.0303 -1.3831  0.1488
 3225SOL     OW10215   3.992   5.389   2.506 -0.7644  0.3517  0.0377
 3225SOL    HW110216   3.975   5.313   2.561  1.2876 -0.3785 -0.2464
 3225SOL    HW210217   4.087   5.395   2.501 -0.8567  2.5196 -0.5585
 3226SOL     OW10218   5.482   2.849   4.150 -0.5593 -0.2418  0.0247
 3226SOL    HW110219   5.445   2.816   4.068 -1.1813  0.3837  0.0405
 3226SOL    HW210220   5.556   2.791   4.169 -0.7495 -0.7249 -0.6892
 3227SOL     OW10221   6.918   5.544   3.757  0.6641  0.1063  0.3863
 3227SOL    HW110222   7.000   5.573   3.717  1.0005  1.2372  1.8232
 3227SOL    HW210223   6.850   5.586   3.705  1.0671  0.9357  0.5110
 3228SOL     OW10224   7.514   5.051   5.784 -0.8731 -0.5009  0.2822
 3228SOL    HW110225   7.437   5.050   5.840 -0.9059  0.6007  0.2843
 3228SOL    HW210226   7.586   5.075   5.842 -0.9434  0.8645 -0.1619
 3229SOL     OW10227   7.052   4.087   2.872  0.0158 -0.2541 -0.0266
 3229SOL    HW110228   7.085   4.033   2.800  1.9821  0.8710 -0.0512
 3229SOL    HW210229   6.965   4.114   2.843  0.1318 -1.1041 -1.2677
 3230SOL     OW10230   7.083   0.939   3.445  0.0080  0.0963 -0.2579
 3230SOL    HW110231   6.990   0.930   3.425  0.1762 -0.3160 -0.8844
 3230SOL    HW210232   7.124   0.862   3.404  0.8943  1.2874 -1.6950
 3231SOL     OW10233   1.556   3.250   4.368  0.6731 -0.4036 -0.0887
 3231SOL    HW110234   1.605   3.289   4.295  1.2780 -0.5037  0.2631
 3231SOL    HW210235   1.614   3.182   4.403  0.4027 -0.3319  0.5094
 3232SOL     OW10236   4.607   1.943   6.449  0.3553 -0.5470 -0.3331
 3232SOL    HW110237   4.698   1.972   6.454 -0.4965  2.6427 -1.1927
 3232SOL    HW210238   4.587   1.942   6.355 -0.3809 -1.7743 -0.1906
 3233SOL     OW10239   2.687   7.370   1.099 -0.6404 -0.4913  0.1344
 3233SOL    HW110240   2.687   7.275   1.093  2.8649 -0.7441  1.7683
 3233SOL    HW210241   2.771   7.396   1.063 -0.2902  1.7092  2.2823
 3234SOL     OW10242   2.917   0.793   4.793  0.1650  0.1783  0.1498
 3234SOL    HW110243   2.827   0.760   4.792  0.1710  0.1661 -0.6559
 3234SOL    HW210244   2.922   0.845   4.873 -0.8217  0.8657 -0.2069
 3235SOL     OW10245   5.495   3.118   2.491 -0.6746 -0.2344  0.5566
 3235SOL    HW110246   5.458   3.176   2.557 -0.1991 -1.1099  1.6062
 3235SOL    HW210247   5.525   3.177   2.422 -0.4621  0.7577  1.4732
 3236SOL     OW10248   5.647   3.306   7.295  0.2055  0.6587  0.1167
 3236SOL    HW110249   5.679   3.310   7.385  2.4059 -0.3133 -0.5482
 3236SOL    HW210250   5.683   3.385   7.254 -0.8858  1.1579  0.0927
 3237SOL     OW10251   4.944   4.540   5.207  0.0223 -0.2691 -0.4133
 3237SOL    HW110252   4.987   4.584   5.280 -1.1459  1.0082 -0.4530
 3237SOL    HW210253   4.890   4.472   5.247  0.0492 -0.1354 -0.1489
 3238SOL     OW10254   3.737   6.022   7.390  0.6250  0.2752 -0.1116
 3238SOL    HW110255   3.747   6.081   7.315  1.2813  0.1518 -0.1334
 3238SOL    HW210256   3.676   5.954   7.360 -1.9058  2.0805  0.6252
 3239SOL     OW10257   5.913   5.454   5.699  0.0934 -0.2965 -0.3073
 3239SOL    HW110258   5.899   5.524   5.763 -0.1678 -0.1042 -0.5711
 3239SOL    HW210259   6.006   5.460   5.677  0.6827 -1.6313  1.5148
 3240SOL     OW10260   2.176   2.336   6.261  0.3612 -0.5441 -0.5124
 3240SOL    HW110261   2.126   2.257   6.240  0.2260 -0.6711  0.2586
 3240SOL    HW210262   2.227   2.312   6.338 -2.2399  1.1029  1.9321
 3241SOL     OW10263   5.068   2.944   5.475 -0.5352  0.7947  0.3684
 3241SOL    HW110264   5.018   2.881   5.526 -0.5117  0.3592 -0.1390
 3241SOL    HW210265   5.152   2.900   5.459 -0.2156  1.2751  0.6933
 3242SOL     OW10266   5.454   6.997   5.029 -0.3572  0.3683  0.4416
 3242SOL    HW110267   5.371   7.031   5.064  0.7859  3.2184  0.6930
 3242SOL    HW210268   5.458   7.030   4.940  0.7197  0.7257  0.6038
 3243SOL     OW10269   5.454   0.539   6.571  0.4550 -0.5605 -0.0044
 3243SOL    HW110270   5.482   0.507   6.485  2.2329 -2.0717  1.0647
 3243SOL    HW210271   5.519   0.606   6.593  1.4557 -1.8502  1.1317
 3244SOL     OW10272   4.198   1.514   2.118 -0.8872 -0.1567 -0.2067
 3244SOL    HW110273   4.215   1.525   2.025  0.5020 -0.6091 -0.0394
 3244SOL    HW210274   4.155   1.429   2.125  1.7310 -1.5997 -0.2287
 3245SOL     OW10275   0.824   4.483   6.447 -0.0553  1.2646  0.2783
 3245SOL    HW110276   0.833   4.412   6.385 -1.7434  0.8512  0.4688
 3245SOL    HW210277   0.901   4.538   6.432  0.3810  0.3290 -1.0453
 3246SOL     OW10278   0.936   4.413   2.927  0.3832 -0.7499 -0.7814
 3246SOL    HW110279   0.930   4.506   2.951  2.5745 -0.3208 -1.6802
 3246SOL    HW210280   0.929   4.413   2.832  0.0257 -1.5589 -0.7558
 3247SOL     OW10281   0.873   2.740   1.437 -0.2298  0.3358 -0.3668
 3247SOL    HW110282   0.780   2.728   1.456 -0.2391  0.7703 -0.1089
 3247SOL    HW210283   0.884   2.835   1.433  0.4418  0.3407  0.8920
 3248SOL     OW10284   4.152   0.250   3.602 -0.4356  0.0236  0.5882
 3248SOL    HW110285   4.156   0.240   3.507 -0.9662 -0.9431  0.6482
 3248SOL    HW210286   4.194   0.334   3.619 -1.2877  0.7197 -0.5860
 3249SOL     OW10287   2.043   3.897   1.078  0.2091  0.5443  0.2269
 3249SOL    HW110288   2.076   3.915   1.165  0.4860 -2.1639  0.7523
 3249SOL    HW210289   2.037   3.802   1.073  0.5557  0.5816 -2.8462
 3250SOL     OW10290   1.749   1.805   4.186 -0.0574 -0.3244 -0.3871
 3250SOL    HW110291   1.799   1.885   4.173  0.5257 -0.4833  0.8057
 3250SOL    HW210292   1.809   1.746   4.232 -0.8415 -1.0582 -0.2832
 3251SOL     OW10293   3.240   3.169   6.656 -0.1092  0.1333  0.0378
 3251SOL    HW110294   3.325   3.176   6.612 -0.8049  0.8662 -1.2326
 3251SOL    HW210295   3.236   3.244   6.715 -0.3766  0.7978 -0.8151
 3252SOL     OW10296   0.213   1.672   7.118 -0.2474  0.6843  0.4735
 3252SOL    HW110297   0.184   1.591   7.075 -0.1110  1.6547 -1.6039
 3252SOL    HW210298   0.303   1.683   7.089 -0.7508  2.3639 -0.6524
 3253SOL     OW10299   5.580   3.413   0.299  0.1770 -0.0831 -0.3996
 3253SOL    HW110300   5.627   3.369   0.227 -0.1909 -0.4675 -0.4100
 3253SOL    HW210301   5.640   3.481   0.328  0.1569  0.3771 -1.3724
 3254SOL     OW10302   1.622   6.410   1.878  0.1770  0.1758 -0.1888
 3254SOL    HW110303   1.700   6.378   1.924 -0.4298 -0.7239  0.2336
 3254SOL    HW210304   1.657   6.465   1.807  1.2007  4.1242  2.9529
 3255SOL     OW10305   2.871   3.047   4.360  0.1141  0.4784 -0.0523
 3255SOL    HW110306   2.924   3.006   4.428  1.5931  2.0464 -0.1929
 3255SOL    HW210307   2.822   3.115   4.406 -1.5399 -0.6679 -0.0032
 3256SOL     OW10308   2.123   1.210   3.305 -0.2925 -0.0326 -0.5622
 3256SOL    HW110309   2.099   1.186   3.215  0.2255 -0.4430 -0.5996
 3256SOL    HW210310   2.219   1.202   3.306 -0.3146 -0.2231  0.0808
 3257SOL     OW10311   3.206   2.845   3.595  0.1117 -0.3704  0.5884
 3257SOL    HW110312   3.115   2.833   3.567  0.9173  1.1303 -3.3224
 3257SOL    HW210313   3.249   2.762   3.574  0.0155 -0.4319  0.6347
 3258SOL     OW10314   2.411   2.391   4.035  0.2515 -0.3553 -0.0719
 3258SOL    HW110315   2.461   2.363   3.958  1.6186 -0.8032  0.9349
 3258SOL    HW210316   2.457   2.351   4.109  0.1335  1.6161  1.1435
 3259SOL     OW10317   4.393   4.628   4.118  0.1986 -0.1956  0.0393
 3259SOL    HW110318   4.463   4.648   4.056 -1.8953  0.2278 -2.3447
 3259SOL    HW210319   4.361   4.542   4.090 -2.8520  1.3237 -1.7163
 3260SOL     OW10320   4.883   0.772   3.864 -0.0486  0.0083  0.1350
 3260SOL    HW110321   4.892   0.849   3.919 -0.9984  0.2832 -0.0726
 3260SOL    HW210322   4.943   0.787   3.791  0.3344  0.1912  0.4867
 3261SOL     OW10323   2.637   5.631   6.003 -0.1047 -0.1676  0.3500
 3261SOL    HW110324   2.562   5.691   5.996 -0.2261  0.3313  4.0766
 3261SOL    HW210325   2.608   5.564   6.064  1.7818 -1.2260  0.1459
 3262SOL     OW10326   4.382   3.921   6.249  0.1819 -0.7137 -0.3094
 3262SOL    HW110327   4.454   3.965   6.294  0.7269 -0.3489 -1.4781
 3262SOL    HW210328   4.322   3.992   6.226 -0.3061 -0.9515  0.2177
 3263SOL     OW10329   2.861   5.736   6.700  0.5437 -0.3150 -0.1500
 3263SOL    HW110330   2.768   5.750   6.678  0.1741  1.0984  2.0386
 3263SOL    HW210331   2.908   5.796   6.643 -0.0225  0.2235 -0.0594
 3264SOL     OW10332   5.013   6.774   4.299  0.1108 -0.2677 -0.4012
 3264SOL    HW110333   4.965   6.849   4.263  0.5367 -0.6325 -1.7870
 3264SOL    HW210334   5.040   6.724   4.222  0.6375 -1.3551  0.4661
 3265SOL     OW10335   3.534   4.934   5.198 -0.0377 -0.0927  0.0894
 3265SOL    HW110336   3.533   4.839   5.188  0.9965  0.0190 -1.2520
 3265SOL    HW210337   3.520   4.948   5.292 -3.1643 -1.4466 -0.0242
 3266SOL     OW10338   2.068   5.561   0.759  0.5793 -0.2319  0.1849
 3266SOL    HW110339   2.084   5.468   0.741 -0.3990  0.0805 -2.8123
 3266SOL    HW210340   1.975   5.564   0.785  0.1613  0.0470 -1.2830
 3267SOL     OW10341   4.199   4.382   1.352  0.2299 -0.4468  0.4122
 3267SOL    HW110342   4.119   4.429   1.377  0.6279  0.9550 -0.8138
 3267SOL    HW210343   4.168   4.308   1.300 -0.3637 -1.0512  1.5976
 3268SOL     OW10344   2.380   1.284   6.833 -0.1504 -0.1113  0.0259
 3268SOL    HW110345   2.303   1.228   6.820  0.1353 -0.1832 -1.5522
 3268SOL    HW210346   2.448   1.244   6.779  1.4044 -0.7421  2.2979
 3269SOL     OW10347   6.035   4.264   4.141 -0.1876  0.6155 -0.1286
 3269SOL    HW110348   5.996   4.279   4.227  0.4729  0.3261  0.2342
 3269SOL    HW210349   5.996   4.330   4.084  3.1289  4.4214  1.5114
 3270SOL     OW10350   5.921   6.217   3.161  0.0591  0.1564  0.3203
 3270SOL    HW110351   5.944   6.291   3.217  1.5337 -0.6161  0.7879
 3270SOL    HW210352   6.003   6.168   3.151 -0.7364 -1.0594 -0.5072
 3271SOL     OW10353   5.385   3.110   6.616 -0.3295  0.4257 -0.3624
 3271SOL    HW110354   5.374   3.057   6.538  1.4123 -0.9362  0.2461
 3271SOL    HW210355   5.302   3.101   6.664 -0.6363 -0.4476 -1.0371
 3272SOL     OW10356   6.692   4.871   2.477  0.0696  0.4900  0.6996
 3272SOL    HW110357   6.721   4.896   2.565  0.2520 -0.8157  1.0313
 3272SOL    HW210358   6.770   4.879   2.423  0.8371 -1.7934  1.3392
 3273SOL     OW10359   1.908   0.259   1.674 -0.0874 -0.1633  0.0306
 3273SOL    HW110360   1.982   0.279   1.731 -0.0629 -1.3117  0.4396
 3273SOL    HW210361   1.935   0.180   1.627 -0.5048  0.2112 -0.8603
 3274SOL     OW10362   4.814   5.114   0.542 -0.4023 -0.0224 -0.0508
 3274SOL    HW110363   4.739   5.084   0.594 -1.1886  1.1119 -0.4830
 3274SOL    HW210364   4.811   5.060   0.464 -1.5503  0.8211 -0.6313
 3275SOL     OW10365   0.223   6.642   3.821 -0.4687  0.0861 -0.2684
 3275SOL    HW110366   0.271   6.683   3.749  1.1525 -0.4001  0.5043
 3275SOL    HW210367   0.170   6.575   3.778  0.1771  0.0615 -1.0623
 3276SOL     OW10368   5.232   2.151   6.918  1.2292 -0.0854  0.1329
 3276SOL    HW110369   5.313   2.152   6.970  1.2087 -0.4155  0.1727
 3276SOL    HW210370   5.166   2.190   6.976  0.9994 -1.2794  0.7045
 3277SOL     OW10371   4.404   3.501   4.521 -0.3638  0.0558 -0.0944
 3277SOL    HW110372   4.486   3.544   4.500 -0.4200  0.2366  0.0606
 3277SOL    HW210373   4.384   3.528   4.610 -0.7419  0.2462 -0.2364
 3278SOL     OW10374   2.499   5.172   5.318 -0.0407  0.2802  0.3827
 3278SOL    HW110375   2.501   5.262   5.349 -1.6581  0.6327 -0.4510
 3278SOL    HW210376   2.590   5.143   5.323  0.3439  1.5810  1.7056
 3279SOL     OW10377   4.840   1.804   7.458 -0.2557 -0.2442 -0.3299
 3279SOL    HW110378   4.746   1.808   7.476  0.0986  0.4198  1.5981
 3279SOL    HW210379   4.848   1.832   7.367 -1.9294 -0.4184 -0.5602
 3280SOL     OW10380   6.782   5.939   0.779 -0.1910 -0.3873 -0.0408
 3280SOL    HW110381   6.759   5.938   0.871 -0.4626 -0.0425 -0.1046
 3280SOL    HW210382   6.742   5.860   0.743  0.5555 -0.9244  0.2882
 3281SOL     OW10383   5.893   2.923   5.031 -0.3825  0.4239  0.0631
 3281SOL    HW110384   5.935   2.998   5.073 -1.2679  0.8153  0.2711
 3281SOL    HW210385   5.821   2.899   5.090  0.7978 -1.5718  0.7915
 3282SOL     OW10386   4.644   3.350   2.895  0.0301  0.3788 -0.2390
 3282SOL    HW110387   4.704   3.406   2.944 -0.4231  0.8480 -0.2071
 3282SOL    HW210388   4.621   3.280   2.955  1.1196 -0.2331 -0.4966
 3283SOL     OW10389   1.940   4.859   3.052  0.5159 -0.4120  0.0380
 3283SOL    HW110390   1.925   4.856   3.147  1.2489  0.8542  0.2143
 3283SOL    HW210391   1.951   4.767   3.027  0.1996 -0.7779  1.1611
 3284SOL     OW10392   3.123   5.291   0.805 -0.1362  0.6137 -0.3853
 3284SOL    HW110393   3.102   5.225   0.870 -0.8267 -0.5755 -1.7679
 3284SOL    HW210394   3.161   5.242   0.732  0.2146  1.8482 -1.0667
 3285SOL     OW10395   5.690   4.496   6.626  0.2638  1.2651 -0.4865
 3285SOL    HW110396   5.720   4.583   6.602  1.1532  1.8554  2.4429
 3285SOL    HW210397   5.770   4.449   6.649 -0.3214  0.0021 -0.9166
 3286SOL     OW10398   0.144   3.195   5.631  0.1402  0.1145  0.2548
 3286SOL    HW110399   0.236   3.218   5.641  0.4174  0.0922 -1.6852
 3286SOL    HW210400   0.098   3.249   5.695  1.3819  1.2005  0.2786
 3287SOL     OW10401   6.208   4.972   0.503  0.1091  0.0840  0.9185
 3287SOL    HW110402   6.298   4.991   0.478  0.2724  0.0430  1.4574
 3287SOL    HW210403   6.196   4.880   0.479 -0.1481  0.3932 -0.1624
 3288SOL     OW10404   1.744   0.377   4.818  0.1064 -0.2526 -0.4506
 3288SOL    HW110405   1.701   0.365   4.903 -1.0249 -0.9396 -1.1068
 3288SOL    HW210406   1.764   0.288   4.789  2.7463  0.0443  0.1888
 3289SOL     OW10407   7.505   0.926   2.519 -0.7457  0.2718 -0.4967
 3289SOL    HW110408   7.598   0.922   2.541 -0.2132  3.0069 -1.7383
 3289SOL    HW210409   7.495   0.865   2.445  0.5850  1.4254 -1.6945
 3290SOL     OW10410   6.151   3.192   7.202 -0.0460  0.4842  0.1922
 3290SOL    HW110411   6.227   3.222   7.253  0.2819  1.2932 -0.7434
 3290SOL    HW210412   6.102   3.271   7.183  0.9575  0.5532 -2.5253
 3291SOL     OW10413   4.878   4.975   0.073 -0.0323 -0.0079 -0.5513
 3291SOL    HW110414   4.913   4.896   0.031  1.3084  0.7724 -0.9635
 3291SOL    HW210415   4.827   5.018   0.005 -1.6282 -1.0045 -0.0316
 3292SOL     OW10416   3.043   5.016   5.287  0.2130  0.2463 -0.4538
 3292SOL    HW110417   3.086   4.972   5.213 -0.8132 -0.8589 -0.4211
 3292SOL    HW210418   3.002   5.094   5.248  1.3265  0.7514 -0.6639
 3293SOL     OW10419   3.571   0.846   2.717  0.1725 -0.5069  0.0314
 3293SOL    HW110420   3.602   0.929   2.681  0.4931 -0.6301  0.0228
 3293SOL    HW210421   3.651   0.796   2.736 -0.0084 -0.6708  0.3746
 3294SOL     OW10422   1.523   3.836   0.336  0.0797 -0.1931  0.4974
 3294SOL    HW110423   1.557   3.905   0.393  2.2574  0.8058 -1.8469
 3294SOL    HW210424   1.577   3.760   0.355 -1.6692 -1.0850  2.3507
 3295SOL     OW10425   6.867   2.067   2.705 -0.2993  0.3052 -0.0804
 3295SOL    HW110426   6.928   2.001   2.737  0.5038  0.3306 -1.4590
 3295SOL    HW210427   6.915   2.150   2.714 -0.4656  0.4329 -0.3499
 3296SOL     OW10428   5.047   6.273   6.556 -0.2224  0.6455  0.0719
 3296SOL    HW110429   5.067   6.333   6.484  0.6500 -0.5648 -0.7190
 3296SOL    HW210430   5.130   6.231   6.576 -0.9482 -0.8254  0.1236
 3297SOL     OW10431   4.496   2.213   6.162 -0.4198  0.1354  0.9981
 3297SOL    HW110432   4.540   2.169   6.089 -0.6201 -0.7466  1.3922
 3297SOL    HW210433   4.424   2.154   6.186 -0.0984  0.1842  2.1810
 3298SOL     OW10434   6.853   3.946   5.162  0.0703 -0.2129 -0.1400
 3298SOL    HW110435   6.871   4.016   5.099  0.5617 -1.7000 -1.7440
 3298SOL    HW210436   6.908   3.967   5.237 -0.8148  1.8239  0.0166
 3299SOL     OW10437   2.017   1.840   7.326  0.0145 -0.1568 -0.2388
 3299SOL    HW110438   1.979   1.814   7.410 -0.6503 -0.0339 -0.4951
 3299SOL    HW210439   2.035   1.934   7.335 -2.5001  0.4795 -1.1011
 3300SOL     OW10440   4.728   2.405   1.726 -0.4296 -0.1997 -0.5840
 3300SOL    HW110441   4.659   2.401   1.661 -0.4339  1.8837 -0.7937
 3300SOL    HW210442   4.690   2.366   1.805 -0.3556 -2.9416 -1.8005
 3301SOL     OW10443   3.038   6.782   2.652 -0.1915 -0.1632 -0.2232
 3301SOL    HW110444   2.962   6.837   2.666  0.4701  0.3013  1.8805
 3301SOL    HW210445   3.005   6.692   2.659 -0.3841  0.0254  2.1776
 3302SOL     OW10446   7.080   0.596   4.299  0.0238 -0.2331 -0.1368
 3302SOL    HW110447   7.157   0.539   4.300  0.8173  0.7548 -1.6248
 3302SOL    HW210448   7.038   0.579   4.215 -1.5902 -0.9772  0.7782
 3303SOL     OW10449   6.678   5.615   2.662  0.0718  0.1535  0.1359
 3303SOL    HW110450   6.650   5.554   2.730 -1.2275  0.3510 -0.1956
 3303SOL    HW210451   6.606   5.615   2.599  1.0163  0.3841 -0.9749
 3304SOL     OW10452   2.150   5.308   7.528 -0.6744  0.6076 -0.1837
 3304SOL    HW110453   2.170   5.231   7.581 -4.0467 -1.1331 -1.1343
 3304SOL    HW210454   2.169   5.281   7.438 -2.6533  0.5019 -0.6124
 3305SOL     OW10455   4.956   5.968   6.875 -0.7184 -0.9232 -0.4197
 3305SOL    HW110456   4.928   6.045   6.825  0.2193 -0.0762  0.3125
 3305SOL    HW210457   4.880   5.945   6.928 -1.0976 -0.6778 -0.8480
 3306SOL     OW10458   4.120   5.313   0.501  0.0861  0.4180  0.3645
 3306SOL    HW110459   4.042   5.266   0.531  0.1962  0.3892  0.6085
 3306SOL    HW210460   4.123   5.296   0.407  0.3468 -0.3909  0.5192
 3307SOL     OW10461   5.687   1.990   2.229 -0.7057  0.1018  0.5479
 3307SOL    HW110462   5.700   1.916   2.289 -2.1400 -0.2650  0.4592
 3307SOL    HW210463   5.621   1.959   2.167 -0.3202  0.9916 -0.3384
 3308SOL     OW10464   6.152   0.751   3.434 -0.3438 -0.0478  0.1662
 3308SOL    HW110465   6.243   0.727   3.415 -0.8723 -0.8768 -1.5112
 3308SOL    HW210466   6.158   0.841   3.468  1.1963 -0.5705  1.4127
 3309SOL     OW10467   1.780   5.999   1.831 -0.3759 -0.3331 -0.3738
 3309SOL    HW110468   1.850   5.933   1.838 -0.2108 -0.5228 -2.8339
 3309SOL    HW210469   1.702   5.949   1.808 -0.8613  0.0996  0.2952
 3310SOL     OW10470   2.198   6.602   5.381  0.5161 -0.0500  0.3253
 3310SOL    HW110471   2.192   6.510   5.355  0.6578  0.0432 -0.0480
 3310SOL    HW210472   2.190   6.601   5.477 -0.5694 -0.3446  0.2383
 3311SOL     OW10473   7.307   6.417   7.038  0.6027 -0.0925 -0.0688
 3311SOL    HW110474   7.333   6.377   7.121  0.6888 -0.7770 -0.4189
 3311SOL    HW210475   7.279   6.506   7.062 -0.4305 -0.6413  0.8434
 3312SOL     OW10476   2.355   2.189   7.149 -0.1776 -0.2527  0.0778
 3312SOL    HW110477   2.442   2.217   7.121  0.1717 -1.7514 -0.4298
 3312SOL    HW210478   2.342   2.231   7.234 -0.1107  2.1731 -1.0117
 3313SOL     OW10479   1.414   7.461   6.013  0.0523 -0.5426 -0.3953
 3313SOL    HW110480   1.424   7.536   6.072  1.3864 -0.1195 -1.1120
 3313SOL    HW210481   1.323   7.464   5.984  0.1837  1.0212 -0.7063
 3314SOL     OW10482   6.215   6.306   0.349  0.4611 -0.1962 -0.5562
 3314SOL    HW110483   6.212   6.247   0.424 -1.7901  1.3890  0.7258
 3314SOL    HW210484   6.299   6.350   0.355 -0.0994  0.6923  1.7484
 3315SOL     OW10485   2.278   7.040   1.243  0.0665 -0.2261 -0.0467
 3315SOL    HW110486   2.315   7.001   1.322  0.6943  0.5841  0.0819
 3315SOL    HW210487   2.187   7.061   1.266 -0.0759 -0.9891  0.0923
 3316SOL     OW10488   1.611   6.885   2.946  0.2915 -0.1967  0.0125
 3316SOL    HW110489   1.652   6.966   2.977  0.9805 -0.1887 -0.8673
 3316SOL    HW210490   1.587   6.904   2.856 -1.5956 -0.2519  0.4604
 3317SOL     OW10491   3.612   1.186   5.449 -0.0436  0.1008 -0.1909
 3317SOL    HW110492   3.680   1.249   5.428  0.9901 -0.2098  1.9443
 3317SOL    HW210493   3.617   1.121   5.380  1.4700  0.3872 -0.3876
 3318SOL     OW10494   1.856   7.400   2.903 -0.0599  0.0323  0.2928
 3318SOL    HW110495   1.820   7.437   2.984 -1.0140 -2.1266  0.9097
 3318SOL    HW210496   1.783   7.400   2.842 -0.7149 -2.6143  0.9546
 3319SOL     OW10497   6.264   7.188   6.091  0.0696 -0.2348 -0.8552
 3319SOL    HW110498   6.189   7.224   6.043 -0.2870 -0.9863 -0.8719
 3319SOL    HW210499   6.276   7.248   6.165 -0.3527  0.0607 -1.0207
 3320SOL     OW10500   1.556   2.053   2.407 -0.4555 -0.3077  0.0876
 3320SOL    HW110501   1.593   1.974   2.447  0.2201 -0.0760 -0.0662
 3320SOL    HW210502   1.614   2.072   2.333 -0.3184  0.6127  0.4223
 3321SOL     OW10503   2.983   0.694   6.935 -0.0019  0.8304  0.3704
 3321SOL    HW110504   3.074   0.721   6.948  0.8969 -1.5449 -0.5045
 3321SOL    HW210505   2.947   0.761   6.876  1.3889  1.4062  0.1072
 3322SOL     OW10506   2.650   5.450   0.284  0.3513 -0.2527  0.0218
 3322SOL    HW110507   2.558   5.473   0.277  0.3916 -0.5731 -2.2627
 3322SOL    HW210508   2.691   5.488   0.206  1.6166 -2.3657 -0.4473
 3323SOL     OW10509   4.001   3.123   4.022  0.0904 -0.2085  0.0954
 3323SOL    HW110510   4.077   3.114   3.965 -0.5192  0.9580 -0.9532
 3323SOL    HW210511   4.012   3.208   4.065  0.0450 -0.6330  0.9766
 3324SOL     OW10512   5.586   4.165   5.887  0.1826  0.0570  0.6018
 3324SOL    HW110513   5.603   4.143   5.796  0.2694 -0.2222  0.6856
 3324SOL    HW210514   5.537   4.248   5.883  0.8008  0.4156  0.3280
 3325SOL     OW10515   7.528   6.215   3.335  0.3404  0.0252  0.1983
 3325SOL    HW110516   7.576   6.283   3.289  0.5561 -0.7672 -0.7651
 3325SOL    HW210517   7.595   6.155   3.367  0.0724 -0.4126 -0.0510
 3326SOL     OW10518   3.537   0.792   5.046 -0.1822  0.0005  0.5472
 3326SOL    HW110519   3.618   0.750   5.015  0.1960 -1.6345  3.4359
 3326SOL    HW210520   3.473   0.772   4.978  0.9850 -1.8002 -0.1028
 3327SOL     OW10521   5.871   1.732   4.707  0.1593  0.1035  0.1411
 3327SOL    HW110522   5.959   1.714   4.673  0.1272 -0.5169  0.3612
 3327SOL    HW210523   5.837   1.802   4.651  0.0250 -1.0216 -1.2734
 3328SOL     OW10524   0.440   6.856   6.024  0.4485 -0.6119  0.3406
 3328SOL    HW110525   0.402   6.843   5.936  0.6470  1.3113 -0.0760
 3328SOL    HW210526   0.534   6.859   6.009  0.6829 -2.8339  1.0271
 3329SOL     OW10527   4.816   1.507   7.450  0.5567 -0.1781  0.6383
 3329SOL    HW110528   4.829   1.602   7.452  0.0757 -0.1000  0.2391
 3329SOL    HW210529   4.800   1.483   7.541 -1.4112  0.4382  0.4967
 3330SOL     OW10530   1.556   6.154   6.029 -0.0485  0.7055 -0.1220
 3330SOL    HW110531   1.497   6.090   6.068  0.4770 -0.8855 -1.7900
 3330SOL    HW210532   1.551   6.230   6.087 -2.8409  0.2265  0.4242
 3331SOL     OW10533   0.678   1.169   1.898 -0.2300 -0.2853  0.0604
 3331SOL    HW110534   0.682   1.208   1.811  0.5976 -1.2067 -0.3272
 3331SOL    HW210535   0.709   1.079   1.886  0.3880 -0.2737  1.3894
 3332SOL     OW10536   0.426   2.986   1.754  0.0975 -0.0439 -0.1546
 3332SOL    HW110537   0.352   3.043   1.777  0.4677  0.3490  0.0783
 3332SOL    HW210538   0.500   3.046   1.744  0.2204 -0.3470 -1.1523
 3333SOL     OW10539   3.411   4.638   2.609 -0.0124  0.7051  0.2575
 3333SOL    HW110540   3.437   4.616   2.698 -1.0554 -4.1732 -0.3636
 3333SOL    HW210541   3.481   4.600   2.554 -0.1157  2.3360 -1.0869
 3334SOL     OW10542   6.287   6.341   6.318  0.1450 -0.2061  0.2939
 3334SOL    HW110543   6.236   6.307   6.245 -1.4687 -0.5842  1.5441
 3334SOL    HW210544   6.242   6.422   6.344  1.7549  0.9275 -0.2435
 3335SOL     OW10545   2.136   1.440   5.286 -0.6051  0.0304  0.3542
 3335SOL    HW110546   2.084   1.379   5.339 -0.0091  1.0286  2.1710
 3335SOL    HW210547   2.224   1.434   5.323  0.4527 -0.9427 -2.0675
 3336SOL     OW10548   6.761   1.784   5.176  0.4585 -0.6056  0.1377
 3336SOL    HW110549   6.792   1.700   5.211  1.1006 -0.7140 -0.6411
 3336SOL    HW210550   6.772   1.775   5.081 -0.1504  0.0966 -0.0067
 3337SOL     OW10551   6.892   5.228   6.146  0.2082  0.0414  0.0463
 3337SOL    HW110552   6.844   5.311   6.148 -0.3460 -0.2818  0.7001
 3337SOL    HW210553   6.825   5.161   6.164  0.6598 -0.5390 -0.4100
 3338SOL     OW10554   5.962   7.163   6.145  0.4639  0.0073 -0.0431
 3338SOL    HW110555   5.883   7.137   6.192 -2.1670  2.0525 -2.9476
 3338SOL    HW210556   5.967   7.258   6.157  2.2657 -0.0329 -0.2480
 3339SOL     OW10557   4.870   1.537   6.494  0.5648  0.4245 -0.0981
 3339SOL    HW110558   4.824   1.600   6.550  0.5514  0.3218  0.0073
 3339SOL    HW210559   4.962   1.551   6.513  0.5262 -0.2255  0.6214
 3340SOL     OW10560   2.416   6.779   0.127  0.7425  0.0835 -0.2243
 3340SOL    HW110561   2.418   6.736   0.213 -0.9284 -0.7750 -0.5602
 3340SOL    HW210562   2.346   6.844   0.135  1.9986  1.4996 -0.3081
 3341SOL     OW10563   6.247   6.771   2.076 -0.1817  0.0630 -0.8596
 3341SOL    HW110564   6.268   6.737   2.163 -0.2427  3.8348  0.7948
 3341SOL    HW210565   6.332   6.773   2.031  0.5133  1.1954  0.3996
 3342SOL     OW10566   2.848   5.074   6.813 -0.1746 -0.2622  0.2930
 3342SOL    HW110567   2.937   5.100   6.789  0.0453 -0.0341  1.3031
 3342SOL    HW210568   2.793   5.110   6.744  0.5157 -0.4475 -0.3753
 3343SOL     OW10569   6.166   4.854   4.302  0.4044 -0.4193  0.4512
 3343SOL    HW110570   6.089   4.912   4.302  1.2297  0.7454  1.9105
 3343SOL    HW210571   6.142   4.783   4.242 -1.0905  0.8427 -0.5308
 3344SOL     OW10572   4.016   2.545   4.866  0.2065  0.1277 -0.0834
 3344SOL    HW110573   4.090   2.536   4.926  0.9989 -1.7591 -1.2425
 3344SOL    HW210574   4.025   2.634   4.830  2.3079 -0.2544 -0.6296
 3345SOL     OW10575   3.965   6.316   6.127 -0.7551 -0.0673 -0.2981
 3345SOL    HW110576   4.046   6.302   6.079 -1.0419 -1.2415 -0.4658
 3345SOL    HW210577   3.897   6.280   6.069 -1.2653 -0.1633  0.3520
 3346SOL     OW10578   2.429   4.834   0.937  0.9567 -0.2843  0.5803
 3346SOL    HW110579   2.524   4.834   0.931  0.9532  1.4566  0.0963
 3346SOL    HW210580   2.410   4.845   1.030  1.2697  1.1162  0.4997
 3347SOL     OW10581   2.124   7.130   4.316 -0.4060  0.0331  0.0280
 3347SOL    HW110582   2.085   7.049   4.349 -0.2737 -0.0934 -0.1217
 3347SOL    HW210583   2.050   7.186   4.294 -0.5738 -1.0501 -2.3866
 3348SOL     OW10584   5.672   3.630   1.059 -1.1268 -0.2221 -0.6364
 3348SOL    HW110585   5.654   3.546   1.100 -0.7896 -0.4187 -0.8921
 3348SOL    HW210586   5.762   3.650   1.085 -1.7712  0.8881  0.8803
 3349SOL     OW10587   4.057   5.230   6.868  0.7874  0.1922  0.2738
 3349SOL    HW110588   3.973   5.270   6.847  0.1471 -1.1856  0.1660
 3349SOL    HW210589   4.064   5.238   6.963 -0.8293 -2.1912  0.6829
 3350SOL     OW10590   0.629   2.980   0.369 -0.3343  0.1675  0.3512
 3350SOL    HW110591   0.541   2.966   0.405 -0.7407 -0.5595 -0.8928
 3350SOL    HW210592   0.631   2.929   0.289  0.4511  1.9988 -0.8635
 3351SOL     OW10593   1.968   1.550   4.137  0.2952 -0.4843  0.2356
 3351SOL    HW110594   1.882   1.513   4.155  0.9157 -2.1963 -0.1709
 3351SOL    HW210595   1.994   1.512   4.053  2.1103 -1.3162  1.1185
 3352SOL     OW10596   4.059   7.494   6.187 -0.2336 -0.1090  0.9599
 3352SOL    HW110597   4.010   7.576   6.177  1.5167  0.8492 -0.2761
 3352SOL    HW210598   4.111   7.507   6.267  0.4939  0.2704  0.4414
 3353SOL     OW10599   5.170   5.148   3.826 -0.4648  0.3434 -0.7638
 3353SOL    HW110600   5.123   5.065   3.835  1.1059 -0.5745 -0.6162
 3353SOL    HW210601   5.253   5.134   3.873 -0.2401  2.0689 -0.5694
 3354SOL     OW10602   0.833   0.502   2.151  0.7754 -0.6547 -0.0977
 3354SOL    HW110603   0.852   0.415   2.187  1.0056  0.8795  3.9614
 3354SOL    HW210604   0.913   0.552   2.166 -0.0200  0.8199 -0.5489
 3355SOL     OW10605   0.380   7.350   7.481  0.6583  0.1383  0.0054
 3355SOL    HW110606   0.306   7.386   7.432  2.2046  3.4645 -0.0971
 3355SOL    HW210607   0.395   7.264   7.441 -1.6225  0.3591 -1.5330
 3356SOL     OW10608   3.320   5.633   1.131 -0.0196 -0.3118  0.0047
 3356SOL    HW110609   3.384   5.650   1.062 -0.9730 -1.7666 -1.3082
 3356SOL    HW210610   3.367   5.578   1.194  0.3525 -0.4403 -0.3795
 3357SOL     OW10611   0.045   0.887   1.133  0.4315 -0.0468 -0.3778
 3357SOL    HW110612  -0.013   0.923   1.200 -0.5240 -1.1998 -0.5467
 3357SOL    HW210613   0.022   0.935   1.054  1.2288  0.9861 -0.0036
 3358SOL     OW10614   0.649   1.205   5.112 -0.3610  0.7508  0.2181
 3358SOL    HW110615   0.721   1.261   5.137  0.8752  0.2562 -1.9923
 3358SOL    HW210616   0.588   1.262   5.066  0.5287  0.4650 -1.3545
 3359SOL     OW10617   5.698   7.226   2.389 -0.1178  0.3292 -0.5041
 3359SOL    HW110618   5.731   7.286   2.322  1.9584 -0.2003 -0.0133
 3359SOL    HW210619   5.776   7.184   2.425 -1.0652  1.1875  2.8739
 3360SOL     OW10620   3.382   2.292   2.161  0.3257 -0.1695  0.6623
 3360SOL    HW110621   3.298   2.262   2.195 -0.1907  1.1488  0.5783
 3360SOL    HW210622   3.380   2.270   2.068  0.4538 -0.9300  0.8285
 3361SOL     OW10623   5.507   5.629   7.507  0.3572  0.4792  0.3416
 3361SOL    HW110624   5.536   5.543   7.537 -1.9346 -0.5648 -0.2525
 3361SOL    HW210625   5.524   5.629   7.413 -0.8746  0.1065  0.1014
 3362SOL     OW10626   3.904   1.054   4.823  0.0292  0.3456  0.2260
 3362SOL    HW110627   3.834   1.006   4.778  0.8277 -1.2598  0.6324
 3362SOL    HW210628   3.929   1.123   4.761 -1.9701  1.0585  0.1339
 3363SOL     OW10629   1.863   6.063   4.560  0.0613 -0.4876  0.5472
 3363SOL    HW110630   1.842   6.148   4.521  0.2097  0.0864  1.6892
 3363SOL    HW210631   1.858   6.078   4.654  0.2223 -1.7184  0.7624
 3364SOL     OW10632   1.902   4.079   5.800 -0.1709 -0.2221  0.1826
 3364SOL    HW110633   1.922   4.119   5.884 -1.5604  2.3486 -0.5982
 3364SOL    HW210634   1.987   4.071   5.756  0.6764 -2.3193  2.0221
 3365SOL     OW10635   4.695   5.930   1.538  0.1281  0.0358  0.1496
 3365SOL    HW110636   4.611   5.934   1.584 -0.0369  0.0040 -0.1508
 3365SOL    HW210637   4.673   5.943   1.446  0.4893  0.3762  0.1092
 3366SOL     OW10638   6.204   1.358   4.593 -0.0581  0.2488 -0.0453
 3366SOL    HW110639   6.141   1.418   4.553 -1.7082 -1.1110  0.3710
 3366SOL    HW210640   6.208   1.284   4.533  1.1212  0.2820 -0.0264
 3367SOL     OW10641   7.210   0.287   6.519  0.1124  0.4022  0.1389
 3367SOL    HW110642   7.195   0.307   6.612 -0.4987 -0.1878  0.1793
 3367SOL    HW210643   7.176   0.198   6.508 -1.0392  0.9405 -0.9286
 3368SOL     OW10644   2.192   3.484   3.067  0.1034  0.1254  0.0134
 3368SOL    HW110645   2.192   3.400   3.112  2.0063 -0.3085 -0.7201
 3368SOL    HW210646   2.164   3.463   2.978  2.8059 -0.2151 -0.8514
 3369SOL     OW10647   5.862   7.252   1.906 -0.6694 -0.1072 -0.3496
 3369SOL    HW110648   5.798   7.194   1.864 -1.1589  0.4048 -0.3238
 3369SOL    HW210649   5.859   7.332   1.854 -1.8559  0.8414  1.0720
 3370SOL     OW10650   6.301   1.597   4.745 -0.1348  0.2269  0.6449
 3370SOL    HW110651   6.286   1.525   4.683 -0.3489 -0.4056  1.4190
 3370SOL    HW210652   6.386   1.577   4.785 -0.0019  0.6305  0.5757
 3371SOL     OW10653   7.092   4.201   2.504 -0.1115 -0.4426  0.1616
 3371SOL    HW110654   7.125   4.116   2.534 -0.6134 -0.6771  0.0594
 3371SOL    HW210655   7.013   4.180   2.455  0.3716 -0.0146 -0.8435
 3372SOL     OW10656   6.426   7.460   0.755  0.3130 -0.4690 -0.3405
 3372SOL    HW110657   6.419   7.371   0.789 -0.5452 -0.6193 -0.8858
 3372SOL    HW210658   6.520   7.472   0.740  0.9535  0.0708  3.2177
 3373SOL     OW10659   2.156   6.716   4.636  0.0885 -0.3065 -0.2137
 3373SOL    HW110660   2.097   6.673   4.574  0.1064  0.3540 -0.7030
 3373SOL    HW210661   2.157   6.658   4.713 -1.1775 -0.3467 -0.2053
 3374SOL     OW10662   4.299   5.006   2.226  0.1319 -0.5342 -0.3821
 3374SOL    HW110663   4.300   4.923   2.178  0.1388 -1.3996  1.0787
 3374SOL    HW210664   4.382   5.047   2.204  0.0004 -0.7606 -1.3608
 3375SOL     OW10665   3.189   4.623   3.841  0.0476 -0.1199 -0.1281
 3375SOL    HW110666   3.136   4.544   3.832  0.7744 -1.0304  2.7111
 3375SOL    HW210667   3.128   4.695   3.821 -1.3682 -1.2635 -0.0667
 3376SOL     OW10668   2.065   0.639   6.925 -0.0877  0.5072  0.3034
 3376SOL    HW110669   2.093   0.555   6.963  0.0862 -0.3612 -1.6321
 3376SOL    HW210670   1.973   0.626   6.905 -0.2486  1.0593  0.6739
 3377SOL     OW10671   2.994   1.324   2.009 -0.3691  0.2857  0.3765
 3377SOL    HW110672   3.054   1.298   1.939 -0.0892  2.8825 -0.4249
 3377SOL    HW210673   2.907   1.303   1.973 -0.1273 -0.6452  0.2906
 3378SOL     OW10674   2.354   5.473   0.020 -0.1063 -0.3985  0.0214
 3378SOL    HW110675   2.304   5.391   0.012 -1.3659  0.3394  0.1673
 3378SOL    HW210676   2.445   5.446   0.004 -0.6190 -1.6486 -1.0597
 3379SOL     OW10677   7.509   4.193   3.890  0.4098  0.5145  0.1866
 3379SOL    HW110678   7.434   4.180   3.831  0.9204  1.4721 -0.7264
 3379SOL    HW210679   7.580   4.143   3.850 -0.2287 -2.2814  2.2510
 3380SOL     OW10680   3.913   4.763   4.524 -0.4658 -0.4934  0.1737
 3380SOL    HW110681   3.835   4.796   4.480 -0.3720  1.8466  1.6327
 3380SOL    HW210682   3.881   4.720   4.603 -0.4594 -2.7107 -0.9415
 3381SOL     OW10683   4.838   5.314   2.933  0.4890  0.7548 -0.0332
 3381SOL    HW110684   4.851   5.219   2.931 -0.7179  0.5868 -0.7286
 3381SOL    HW210685   4.926   5.349   2.917  1.5264 -0.1428  2.9848
 3382SOL     OW10686   1.704   2.703   6.598  0.2514 -0.1409  0.1185
 3382SOL    HW110687   1.633   2.639   6.599  1.1239 -1.3089 -2.5197
 3382SOL    HW210688   1.663   2.785   6.624 -1.8551 -0.9632 -0.3901
 3383SOL     OW10689   0.980   3.914   1.636  0.5656 -0.2772  0.1621
 3383SOL    HW110690   1.073   3.932   1.649  0.4881 -0.0604  0.4196
 3383SOL    HW210691   0.942   3.998   1.612  0.3569 -0.2770  0.4965
 3384SOL     OW10692   6.094   0.962   4.900 -0.2694  0.0371 -0.4145
 3384SOL    HW110693   6.014   0.970   4.952 -0.6979  0.4445 -1.1057
 3384SOL    HW210694   6.121   1.053   4.883  0.7261 -0.0948  0.3729
 3385SOL     OW10695   0.385   6.677   1.997 -0.4027  0.9002 -0.2038
 3385SOL    HW110696   0.361   6.589   1.969 -0.5599  0.8218  0.1617
 3385SOL    HW210697   0.338   6.736   1.938  0.9224  0.7498 -1.4646
 3386SOL     OW10698   6.121   2.943   3.267 -0.1161 -0.5787 -0.2572
 3386SOL    HW110699   6.065   2.872   3.236 -0.9066  0.5173 -1.4513
 3386SOL    HW210700   6.092   2.958   3.357 -1.7598 -0.0561 -0.8462
 3387SOL     OW10701   1.256   1.064   3.519  0.0743 -0.0468 -0.1985
 3387SOL    HW110702   1.344   1.028   3.529 -0.3287 -0.5891  2.0676
 3387SOL    HW210703   1.208   0.997   3.469 -0.3005 -2.2595  2.8204
 3388SOL     OW10704   7.138   6.852   7.328 -0.2802 -0.1562  1.0512
 3388SOL    HW110705   7.048   6.857   7.360 -0.2175  1.5868  1.0675
 3388SOL    HW210706   7.192   6.853   7.406 -0.2364 -1.5013  1.0519
 3389SOL     OW10707   1.107   6.134   2.018  0.6430 -0.1943  0.3368
 3389SOL    HW110708   1.057   6.068   1.970  1.1942 -0.5645  0.2570
 3389SOL    HW210709   1.190   6.090   2.038  0.6321  0.1484  1.1354
 3390SOL     OW10710   0.077   1.133   3.393  0.4463 -0.4073 -0.2051
 3390SOL    HW110711   0.131   1.073   3.342  0.4632 -0.3554 -0.2481
 3390SOL    HW210712   0.066   1.089   3.478  2.4365  0.5666  0.6215
 3391SOL     OW10713   2.559   0.092   5.060 -0.0338  0.5852  0.1263
 3391SOL    HW110714   2.496   0.111   4.991  0.0634  0.6662  0.0605
 3391SOL    HW210715   2.538   0.003   5.088  0.9358 -0.0602 -1.0917
 3392SOL     OW10716   0.754   7.392   5.072  0.1178  0.0955 -0.5202
 3392SOL    HW110717   0.739   7.361   4.982  0.7843  1.7073 -1.2161
 3392SOL    HW210718   0.734   7.485   5.069 -0.4726  0.0523  1.1860
 3393SOL     OW10719   4.138   6.599   6.042 -0.4413  0.9044  0.0002
 3393SOL    HW110720   4.136   6.622   6.134  0.7253  0.4774  0.1542
 3393SOL    HW210721   4.047   6.602   6.014 -0.8949  0.2940  1.3535
 3394SOL     OW10722   5.280   5.300   2.030  0.0480 -0.9848  0.2325
 3394SOL    HW110723   5.366   5.265   2.006  1.3254  2.5530 -1.0997
 3394SOL    HW210724   5.300   5.378   2.081 -2.4028 -0.1252  0.0001
 3395SOL     OW10725   3.819   5.923   3.786  0.0992  0.4954  0.5455
 3395SOL    HW110726   3.864   6.002   3.756  2.0434 -0.9785 -0.6292
 3395SOL    HW210727   3.753   5.907   3.717 -0.5692  1.2598  0.9836
 3396SOL     OW10728   4.854   1.278   0.708  0.3035  0.9558 -0.2766
 3396SOL    HW110729   4.940   1.242   0.687  0.1821  0.3693  0.2217
 3396SOL    HW210730   4.827   1.233   0.788 -0.3041  1.4038 -0.2184
 3397SOL     OW10731   1.612   6.370   7.430 -0.7526 -0.5700  0.0984
 3397SOL    HW110732   1.613   6.419   7.513  3.5149  0.8162 -0.4982
 3397SOL    HW210733   1.621   6.438   7.363 -1.4347 -1.8323 -1.3105
 3398SOL     OW10734   2.669   4.173   3.838 -0.2422  0.1525 -0.4865
 3398SOL    HW110735   2.711   4.097   3.879 -1.2381 -0.8793 -1.3233
 3398SOL    HW210736   2.590   4.188   3.890 -1.2861 -0.8945 -1.7276
 3399SOL     OW10737   5.110   4.874   4.113 -0.3062 -0.0793 -0.0150
 3399SOL    HW110738   5.083   4.962   4.137  1.6194  0.0665  1.9516
 3399SOL    HW210739   5.109   4.873   4.017 -1.1144  1.8007 -0.0576
 3400SOL     OW10740   5.662   1.161   1.563 -0.1209 -0.3418  0.4196
 3400SOL    HW110741   5.703   1.134   1.481 -0.0246  0.4460  0.2068
 3400SOL    HW210742   5.734   1.199   1.614 -0.3418 -0.0830  0.5387
 3401SOL     OW10743   4.832   0.803   5.755 -0.1883  0.0645  0.4061
 3401SOL    HW110744   4.923   0.780   5.773 -0.8717 -0.9644  2.8867
 3401SOL    HW210745   4.838   0.883   5.702  2.1701  0.9327  1.8171
 3402SOL     OW10746   3.008   1.425   2.752  0.7156 -0.1488 -0.1979
 3402SOL    HW110747   2.981   1.416   2.844  2.0518 -1.9223  0.0880
 3402SOL    HW210748   2.935   1.469   2.709 -0.4654 -0.3959  1.4729
 3403SOL     OW10749   4.614   2.030   1.187 -0.0610 -0.2023  0.1605
 3403SOL    HW110750   4.596   1.969   1.258 -1.6677 -0.7985 -0.7208
 3403SOL    HW210751   4.638   1.975   1.113  1.6238  0.4139  0.1829
 3404SOL     OW10752   5.666   2.367   2.513  0.3188 -0.3851 -0.6744
 3404SOL    HW110753   5.662   2.461   2.527  0.7352 -0.3032 -1.0825
 3404SOL    HW210754   5.749   2.352   2.467  1.0766 -1.1449  0.8734
 3405SOL     OW10755   5.356   1.366   0.417 -0.0020 -0.4542  0.1456
 3405SOL    HW110756   5.355   1.298   0.350  1.3572 -0.3312 -0.0376
 3405SOL    HW210757   5.449   1.378   0.438  0.1313  3.0118 -1.5800
 3406SOL     OW10758   3.063   0.446   1.649  0.4525  0.0370  0.2093
 3406SOL    HW110759   2.983   0.412   1.689 -0.3196  0.1875 -1.1434
 3406SOL    HW210760   3.095   0.512   1.711 -0.2211 -0.3397  0.9743
 3407SOL     OW10761   2.369   3.524   4.128 -0.1494  0.5445  0.0271
 3407SOL    HW110762   2.397   3.539   4.037  1.8926  0.9804  0.6626
 3407SOL    HW210763   2.274   3.528   4.125 -0.2258 -1.0866 -2.3637
 3408SOL     OW10764   4.927   0.427   5.517 -0.2077  0.8688  0.3179
 3408SOL    HW110765   4.994   0.435   5.450 -1.0045 -0.2279 -0.6402
 3408SOL    HW210766   4.854   0.479   5.485 -0.4954  0.5559  0.4554
 3409SOL     OW10767   4.279   0.357   1.069  0.1437  0.6853 -0.0595
 3409SOL    HW110768   4.293   0.311   0.986 -0.3632  1.5552 -0.6429
 3409SOL    HW210769   4.206   0.311   1.110 -0.4339  1.0253 -0.6905
 3410SOL     OW10770   7.586   3.210   3.229 -0.1966  0.1702 -0.0949
 3410SOL    HW110771   7.674   3.238   3.203  0.0291 -0.5486 -0.1249
 3410SOL    HW210772   7.533   3.223   3.151  0.6599 -2.8324 -1.3272
 3411SOL     OW10773   7.358   4.309   4.627 -0.0982 -0.1270 -0.1642
 3411SOL    HW110774   7.268   4.306   4.660 -0.8937  0.7467 -2.0831
 3411SOL    HW210775   7.356   4.255   4.548  0.7289  0.8887 -0.9042
 3412SOL     OW10776   1.822   0.422   6.707  0.1991 -0.5580 -0.4010
 3412SOL    HW110777   1.805   0.454   6.795  0.1419 -0.8271 -0.3136
 3412SOL    HW210778   1.765   0.346   6.697  1.2477 -1.4098 -0.1386
 3413SOL     OW10779   1.336   7.062   6.503  0.1002  0.6234  0.0394
 3413SOL    HW110780   1.303   7.141   6.547  2.2495  1.1960  0.7859
 3413SOL    HW210781   1.393   7.021   6.568  2.6613  0.9835 -1.8228
 3414SOL     OW10782   2.840   0.955   7.196  0.1905 -0.5483  0.1311
 3414SOL    HW110783   2.823   1.035   7.146 -0.2348 -0.9171 -0.3174
 3414SOL    HW210784   2.799   0.971   7.281 -0.0018 -0.3389  0.0020
 3415SOL     OW10785   5.824   4.641   2.943  0.4048 -0.0834  0.9790
 3415SOL    HW110786   5.835   4.558   2.896  1.4303  0.4196  0.2953
 3415SOL    HW210787   5.763   4.691   2.889 -0.2802 -0.4107  1.4354
 3416SOL     OW10788   7.113   2.719   5.657  0.3987  0.1594 -0.2879
 3416SOL    HW110789   7.099   2.684   5.569 -1.2868  1.1913 -0.4888
 3416SOL    HW210790   7.100   2.814   5.647  1.1577  0.4074  0.8955
 3417SOL     OW10791   6.362   4.519   6.740  0.4139  0.1424 -0.2826
 3417SOL    HW110792   6.455   4.500   6.731 -0.2762 -3.3726 -1.5223
 3417SOL    HW210793   6.327   4.512   6.651 -1.3274 -0.7645  0.4190
 3418SOL     OW10794   5.033   1.762   1.860 -0.1731 -0.5806  0.4251
 3418SOL    HW110795   5.094   1.835   1.874 -0.7254 -0.1776  0.7765
 3418SOL    HW210796   4.956   1.786   1.911 -0.3961 -1.3731  0.4601
 3419SOL     OW10797   4.299   5.896   0.291  0.0743 -0.3078 -0.2720
 3419SOL    HW110798   4.210   5.917   0.321  0.6922 -0.0496  1.5159
 3419SOL    HW210799   4.346   5.874   0.371  1.3797 -1.4245 -1.2978
 3420SOL     OW10800   2.016   2.430   0.603  0.3863  0.7917  0.3758
 3420SOL    HW110801   1.941   2.471   0.646 -0.3317 -0.1616  0.0652
 3420SOL    HW210802   1.984   2.344   0.577  1.1704  0.8919 -0.9992
 3421SOL     OW10803   4.064   1.790   5.017  0.0558  0.5840 -0.2402
 3421SOL    HW110804   4.018   1.860   5.064 -0.6713  0.9328 -1.4100
 3421SOL    HW210805   3.994   1.732   4.987  0.6982 -1.0020  1.2236
 3422SOL     OW10806   0.450   1.847   0.913 -0.2763  0.2424 -0.0014
 3422SOL    HW110807   0.542   1.849   0.887 -0.1057 -1.3229  0.3513
 3422SOL    HW210808   0.446   1.782   0.983 -1.5349  0.8127  0.4922
 3423SOL     OW10809   5.775   2.178   0.121  0.0791 -0.2227  0.2409
 3423SOL    HW110810   5.681   2.160   0.120  0.1877 -0.7725 -1.2021
 3423SOL    HW210811   5.795   2.191   0.214 -1.3354 -0.5307  0.6156
 3424SOL     OW10812   4.926   2.892   1.691  0.2439  0.6333 -0.3739
 3424SOL    HW110813   4.910   2.977   1.731 -0.7411  1.0378 -1.5812
 3424SOL    HW210814   5.010   2.864   1.727  0.1482  1.6891  0.7298
 3425SOL     OW10815   6.559   5.694   4.035  0.2548 -0.2411  0.3106
 3425SOL    HW110816   6.654   5.686   4.041  0.4775  1.8343  0.3455
 3425SOL    HW210817   6.539   5.676   3.943  0.8569  0.6136 -0.0010
 3426SOL     OW10818   7.057   2.941   5.470  0.4101 -0.3505 -0.0918
 3426SOL    HW110819   7.091   3.028   5.488 -0.3515  0.3431 -1.7708
 3426SOL    HW210820   6.966   2.956   5.442 -0.2343 -1.8370  1.0983
 3427SOL     OW10821   6.983   3.816   1.070  0.0423  0.0842  0.1280
 3427SOL    HW110822   7.008   3.908   1.065 -0.1799  0.2495  1.7838
 3427SOL    HW210823   6.893   3.813   1.037  0.5146  0.2119 -1.2663
 3428SOL     OW10824   2.114   5.138   6.274 -0.0090  0.1033  0.5501
 3428SOL    HW110825   2.129   5.117   6.366 -3.2688  1.0532  1.4595
 3428SOL    HW210826   2.025   5.106   6.257  0.5740 -0.2281 -2.3682
 3429SOL     OW10827   3.092   7.310   0.289 -0.1137  0.1249 -0.6850
 3429SOL    HW110828   3.046   7.320   0.206 -1.3928 -0.0459 -0.0281
 3429SOL    HW210829   3.121   7.399   0.311 -1.9388  0.6359 -0.1446
 3430SOL     OW10830   3.624   4.512   2.084 -0.1955 -0.5084  0.0236
 3430SOL    HW110831   3.706   4.555   2.059  0.0221 -0.7859  0.2513
 3430SOL    HW210832   3.556   4.577   2.066  0.2303  0.3438  1.3983
 3431SOL     OW10833   4.004   5.775   4.240  0.0356  0.8196  0.5000
 3431SOL    HW110834   4.080   5.777   4.181 -0.5997 -0.9258 -0.4846
 3431SOL    HW210835   3.947   5.844   4.208  0.9578  1.7980  0.9165
 3432SOL     OW10836   3.303   0.334   7.141 -0.0160 -0.0402 -0.1401
 3432SOL    HW110837   3.393   0.302   7.136 -0.3437 -1.3152  1.3679
 3432SOL    HW210838   3.290   0.381   7.058  1.7318 -0.5910 -0.7823
 3433SOL     OW10839   6.171   5.802   6.391 -0.0352  0.3714 -0.8687
 3433SOL    HW110840   6.251   5.755   6.368 -1.2972 -1.4594 -1.7004
 3433SOL    HW210841   6.167   5.874   6.328  1.2259  0.8231 -0.4558
 3434SOL     OW10842   6.512   7.394   3.577 -0.2760 -0.0088  0.1374
 3434SOL    HW110843   6.418   7.380   3.589  0.0800 -2.4363  0.6596
 3434SOL    HW210844   6.523   7.403   3.482 -0.9337 -0.7789 -0.0239
 3435SOL     OW10845   1.417   4.721   3.672  0.4557  0.4384 -0.1821
 3435SOL    HW110846   1.350   4.777   3.713  0.9264  0.3867  0.6920
 3435SOL    HW210847   1.493   4.778   3.664  1.2279 -0.2957  1.5490
 3436SOL     OW10848   1.830   5.431   0.860 -0.2680  0.1589 -0.2737
 3436SOL    HW110849   1.761   5.366   0.843 -0.0282  0.0442 -0.8345
 3436SOL    HW210850   1.842   5.429   0.955  0.1007 -1.0011 -0.3317
 3437SOL     OW10851   2.324   4.502   4.056  0.3764  0.0671  0.0000
 3437SOL    HW110852   2.378   4.519   3.979 -0.1398  0.9949 -0.1767
 3437SOL    HW210853   2.363   4.556   4.125 -0.1910  0.5897 -0.0774
 3438SOL     OW10854   4.141   1.004   4.969  0.0455 -0.2980  0.2956
 3438SOL    HW110855   4.115   0.923   5.012  0.1124 -1.1302 -1.1416
 3438SOL    HW210856   4.069   1.022   4.908 -0.2559  1.0702  1.0235
 3439SOL     OW10857   5.714   0.477   2.793 -0.1943  0.1315 -0.1594
 3439SOL    HW110858   5.779   0.526   2.743  0.0413 -0.3348 -0.3220
 3439SOL    HW210859   5.765   0.413   2.842 -0.5205 -0.1870 -0.2279
 3440SOL     OW10860   3.161   2.028   2.927  0.0347  0.2404  0.1501
 3440SOL    HW110861   3.148   2.114   2.966 -1.3028  0.1902 -0.1342
 3440SOL    HW210862   3.256   2.017   2.925  0.2062  1.3225  1.0073
 3441SOL     OW10863   5.031   3.242   4.027 -0.6351 -0.1812  0.0548
 3441SOL    HW110864   5.078   3.160   4.041 -1.3886 -0.4168  1.3531
 3441SOL    HW210865   5.056   3.297   4.101 -3.5203 -0.8652  1.7077
 3442SOL     OW10866   3.623   5.871   4.444 -0.2506 -0.3839 -0.1349
 3442SOL    HW110867   3.548   5.816   4.466 -0.0284 -1.2447 -1.3843
 3442SOL    HW210868   3.660   5.829   4.366  0.9113  0.6172 -0.1377
 3443SOL     OW10869   4.214   3.810   5.554 -0.1872  0.1677  0.3392
 3443SOL    HW110870   4.130   3.804   5.600 -0.1371  1.8480  0.7317
 3443SOL    HW210871   4.198   3.768   5.470 -1.3849  0.3027  0.4729
 3444SOL     OW10872   1.677   4.254   2.565 -0.6836  0.1621  0.0523
 3444SOL    HW110873   1.718   4.170   2.545  0.3172  0.3825  1.0664
 3444SOL    HW210874   1.602   4.232   2.621 -0.1309 -0.0383  0.7324
 3445SOL     OW10875   0.749   4.374   5.560 -0.3044  0.0703  0.0946
 3445SOL    HW110876   0.674   4.409   5.608 -1.6998 -0.9631 -1.2236
 3445SOL    HW210877   0.724   4.381   5.468  1.1566 -0.4555 -0.3669
 3446SOL     OW10878   3.802   4.501   6.043  0.4173  0.1112 -0.0315
 3446SOL    HW110879   3.715   4.507   6.003  0.5659  1.0566 -0.2413
 3446SOL    HW210880   3.859   4.473   5.971  0.4094  0.2545 -0.0963
 3447SOL     OW10881   2.453   7.522   1.100  0.2799  0.1152 -0.0398
 3447SOL    HW110882   2.510   7.448   1.121  0.7376  0.2000 -0.9142
 3447SOL    HW210883   2.494   7.597   1.144  0.9735  0.2131 -0.8322
 3448SOL     OW10884   3.226   3.112   7.615  0.2235  0.2948  0.0337
 3448SOL    HW110885   3.318   3.134   7.622  0.3926 -0.5739  0.7073
 3448SOL    HW210886   3.225   3.017   7.600 -0.5859  0.0585  1.3805
 3449SOL     OW10887   0.330   2.473   2.664 -0.4897 -0.2681  0.1099
 3449SOL    HW110888   0.311   2.432   2.580 -0.5029 -0.1579  0.0593
 3449SOL    HW210889   0.304   2.564   2.653 -1.6509 -0.5193  0.6322
 3450SOL     OW10890   2.237   5.130   3.090  0.3363 -0.3953  0.2019
 3450SOL    HW110891   2.160   5.178   3.061  0.2832 -0.5363  0.1100
 3450SOL    HW210892   2.207   5.080   3.166  0.8572  1.2206  1.5611
 3451SOL     OW10893   6.942   5.309   5.687  0.0840 -0.4468 -0.2322
 3451SOL    HW110894   6.901   5.370   5.625 -0.2114  1.1074  1.4136
 3451SOL    HW210895   6.869   5.274   5.737  0.4838  0.1653  0.8159
 3452SOL     OW10896   3.012   6.329   4.860 -0.0326 -0.1654 -0.4120
 3452SOL    HW110897   2.999   6.402   4.921 -2.6888 -0.5713 -0.3867
 3452SOL    HW210898   3.023   6.252   4.917  1.5907 -0.0135 -0.4604
 3453SOL     OW10899   5.128   3.806   0.831  0.4408 -0.2724 -0.4478
 3453SOL    HW110900   5.130   3.846   0.744  1.1013 -0.5545 -0.5635
 3453SOL    HW210901   5.167   3.719   0.818 -0.8807 -0.9380 -0.1832
 3454SOL     OW10902   1.958   6.550   5.778  0.4726  0.4003 -0.5189
 3454SOL    HW110903   2.048   6.531   5.751 -0.0892 -1.1467 -1.4582
 3454SOL    HW210904   1.967   6.592   5.863  2.1090  1.0402 -0.9679
 3455SOL     OW10905   5.287   6.607   3.534  0.1145  0.5194  0.4438
 3455SOL    HW110906   5.309   6.657   3.455  0.4085  0.6972  0.6371
 3455SOL    HW210907   5.365   6.553   3.551  0.2135  0.7862  0.8498
 3456SOL     OW10908   4.409   5.029   3.992  0.4300 -0.0637  0.5844
 3456SOL    HW110909   4.450   5.009   4.076  1.3114  1.4791  0.5659
 3456SOL    HW210910   4.424   5.123   3.980 -0.3544 -0.1010 -0.9402
 3457SOL     OW10911   6.472   3.771   5.423 -0.0824 -0.1095 -0.2073
 3457SOL    HW110912   6.436   3.693   5.465  2.5092 -1.4030 -0.1999
 3457SOL    HW210913   6.511   3.739   5.342 -1.7766  1.7640 -1.8588
 3458SOL     OW10914   6.017   2.285   2.776  0.3813 -0.1799 -0.0437
 3458SOL    HW110915   6.048   2.312   2.690  0.4451  1.4776  0.4629
 3458SOL    HW210916   6.064   2.204   2.795 -0.3166 -1.0971 -1.9335
 3459SOL     OW10917   1.250   2.545   3.152 -0.1408 -0.5060 -0.3326
 3459SOL    HW110918   1.161   2.579   3.160 -0.0735  0.0480 -1.6141
 3459SOL    HW210919   1.301   2.619   3.120  1.0867 -0.4325  1.6119
 3460SOL     OW10920   7.157   6.862   5.119 -0.5799 -0.5319 -0.1214
 3460SOL    HW110921   7.169   6.951   5.085  0.7787  0.2264  2.1010
 3460SOL    HW210922   7.065   6.859   5.145 -0.0016  1.4412  2.6464
 3461SOL     OW10923   7.119   5.820   5.462 -0.2431 -0.4340 -0.3295
 3461SOL    HW110924   7.181   5.804   5.534 -0.0374 -0.4147 -0.5034
 3461SOL    HW210925   7.174   5.833   5.385 -0.2342  3.4183  0.1413
 3462SOL     OW10926   1.208   5.449   3.790 -0.1306  0.0442  0.5248
 3462SOL    HW110927   1.166   5.512   3.849  0.0454  1.1180 -0.4778
 3462SOL    HW210928   1.135   5.397   3.755 -0.5611  1.2369 -0.4319
 3463SOL     OW10929   4.815   3.737   2.369 -0.1257 -0.3647 -0.2681
 3463SOL    HW110930   4.862   3.774   2.443 -0.3253  1.0092 -0.7945
 3463SOL    HW210931   4.883   3.695   2.316  0.5064  1.3189 -0.8600
 3464SOL     OW10932   5.024   6.286   3.309 -0.2387  0.0925  0.0148
 3464SOL    HW110933   4.959   6.218   3.328  0.8907 -1.0414 -0.0102
 3464SOL    HW210934   5.067   6.302   3.393 -1.2237  1.6254  0.2748
 3465SOL     OW10935   6.741   4.144   0.383  0.0539 -0.2365  0.6086
 3465SOL    HW110936   6.696   4.059   0.382  0.8234 -0.6495  0.6741
 3465SOL    HW210937   6.761   4.159   0.476  2.8347 -1.5632  0.3097
 3466SOL     OW10938   1.424   7.536   2.806  0.1930  0.6313  0.2442
 3466SOL    HW110939   1.378   7.484   2.871 -1.3082  1.0018 -0.4872
 3466SOL    HW210940   1.494   7.478   2.774  1.1092  0.5243  2.2833
 3467SOL     OW10941   4.867   5.002   3.250 -0.0253 -0.2313  0.2162
 3467SOL    HW110942   4.812   5.079   3.240  0.0492  0.0197  1.6414
 3467SOL    HW210943   4.816   4.931   3.210 -1.7019 -0.1303  2.0283
 3468SOL     OW10944   5.610   2.278   4.578  0.4650  0.4483  0.3134
 3468SOL    HW110945   5.593   2.195   4.621 -1.0112 -0.1363 -1.2997
 3468SOL    HW210946   5.694   2.266   4.534  0.0139 -0.3779 -0.3335
 3469SOL     OW10947   3.281   3.133   4.395  0.7337  0.4158 -0.1095
 3469SOL    HW110948   3.354   3.142   4.456  0.7528 -0.6887  0.0488
 3469SOL    HW210949   3.205   3.169   4.442  0.8981  0.2487  0.2885
 3470SOL     OW10950   0.480   6.994   6.736 -0.4576  0.3401  0.1957
 3470SOL    HW110951   0.444   7.051   6.804  0.5381  1.3918 -0.1288
 3470SOL    HW210952   0.468   7.043   6.655  0.4392  0.1104 -0.0852
 3471SOL     OW10953   0.444   1.460   6.096  0.3964  0.0956 -0.0070
 3471SOL    HW110954   0.415   1.431   6.182 -0.7266  1.1939  0.0094
 3471SOL    HW210955   0.504   1.533   6.114  0.5061  0.0432 -0.1524
 3472SOL     OW10956   3.392   3.620   4.473 -0.4345  0.5822  0.0957
 3472SOL    HW110957   3.437   3.676   4.536 -0.4537 -0.6764  1.2831
 3472SOL    HW210958   3.300   3.629   4.494 -0.4133 -0.1676  0.5638
 3473SOL     OW10959   5.261   7.193   2.425  0.4067 -0.5625  0.1163
 3473SOL    HW110960   5.283   7.237   2.343  0.3951  1.2891  1.0725
 3473SOL    HW210961   5.235   7.105   2.398  1.3563 -0.3214 -1.7704
 3474SOL     OW10962   1.679   1.527   1.334 -0.0970 -0.1816 -0.0491
 3474SOL    HW110963   1.707   1.526   1.243  1.8363  1.1572  0.4741
 3474SOL    HW210964   1.725   1.601   1.373 -1.3972 -0.2981  1.8716
 3475SOL     OW10965   3.318   2.460   6.194 -0.1645 -0.2031  0.5865
 3475SOL    HW110966   3.235   2.500   6.222 -1.6946 -2.8150  0.1066
 3475SOL    HW210967   3.324   2.482   6.101 -0.1029  0.3127  0.7094
 3476SOL     OW10968   5.799   7.017   3.839 -0.0683  0.0602 -0.6865
 3476SOL    HW110969   5.713   6.992   3.873 -0.1869 -0.7444 -1.5328
 3476SOL    HW210970   5.794   7.112   3.829  0.0474  0.3607  1.6678
 3477SOL     OW10971   4.706   2.551   6.436  0.1481 -0.4779 -0.0489
 3477SOL    HW110972   4.739   2.570   6.348 -0.4269  0.8508  0.0036
 3477SOL    HW210973   4.752   2.471   6.462 -0.4868 -1.5441 -1.9985
 3478SOL     OW10974   6.069   1.769   2.751  0.5433  0.3500  0.2530
 3478SOL    HW110975   6.011   1.837   2.715  0.5408  0.9473  1.3350
 3478SOL    HW210976   6.011   1.695   2.768  0.5377  0.0836 -0.8981
 3479SOL     OW10977   3.145   4.725   7.288  0.1591 -0.0625  0.6662
 3479SOL    HW110978   3.075   4.729   7.223  0.1217 -0.9415  0.6476
 3479SOL    HW210979   3.191   4.643   7.270  1.6881  0.8568  0.1969
 3480SOL     OW10980   2.321   6.461   4.592 -0.7380  0.2397 -0.4636
 3480SOL    HW110981   2.227   6.473   4.600 -0.3874  3.4147  0.2592
 3480SOL    HW210982   2.335   6.443   4.499 -2.1188 -2.0223 -0.3003
 3481SOL     OW10983   6.978   2.517   7.297  0.3394 -0.4040 -0.0839
 3481SOL    HW110984   6.916   2.571   7.345  0.1316  0.4529 -1.2651
 3481SOL    HW210985   6.943   2.514   7.208  0.5196 -2.2415 -0.1312
 3482SOL     OW10986   5.068   2.367   6.758  0.2032 -0.2671 -0.1611
 3482SOL    HW110987   5.077   2.273   6.774  0.4088 -0.2927 -0.4383
 3482SOL    HW210988   5.106   2.408   6.836 -0.2326 -0.4157  0.1359
 3483SOL     OW10989   4.372   1.228   0.038  0.1030  0.1031  0.3094
 3483SOL    HW110990   4.425   1.305   0.016 -0.2518  0.2170 -0.1900
 3483SOL    HW210991   4.434   1.155   0.039  0.2122  0.1564 -0.7346
 3484SOL     OW10992   0.522   5.377   6.076 -0.0198 -0.2657 -0.2158
 3484SOL    HW110993   0.488   5.465   6.063  2.3936  0.9821  1.2279
 3484SOL    HW210994   0.565   5.355   5.994 -2.2737 -0.9947 -1.2879
 3485SOL     OW10995   4.713   5.709   0.340 -0.5940  0.2598 -0.0692
 3485SOL    HW110996   4.627   5.679   0.311 -0.0161 -1.7716  0.2256
 3485SOL    HW210997   4.730   5.661   0.420  0.4862  1.2628  0.3368
 3486SOL     OW10998   7.163   4.283   4.403 -0.0636  0.0863 -0.2152
 3486SOL    HW110999   7.236   4.342   4.386  0.5401 -0.2794  0.9984
 3486SOL    HW211000   7.131   4.308   4.490 -1.3412  0.1795 -0.6844
 3487SOL     OW11001   3.547   5.993   6.366 -0.0703 -0.1567  0.2218
 3487SOL    HW111002   3.620   6.048   6.397 -0.9154  0.5627  0.9929
 3487SOL    HW211003   3.583   5.904   6.364  0.7742  0.1620  0.7670
 3488SOL     OW11004   4.633   6.677   4.449 -0.4841  0.5199 -0.6797
 3488SOL    HW111005   4.654   6.592   4.410 -0.5646  0.4605 -0.5931
 3488SOL    HW211006   4.538   6.683   4.442 -0.6461 -0.0826  0.7298
 3489SOL     OW11007   1.621   1.169   0.941  0.1374  0.2243  0.3756
 3489SOL    HW111008   1.587   1.137   1.025  0.0047  3.3513  1.6270
 3489SOL    HW211009   1.704   1.210   0.962  1.3167 -1.0379 -1.5061
 3490SOL     OW11010   4.299   4.765   7.475 -0.7003  0.0370 -0.3878
 3490SOL    HW111011   4.341   4.785   7.558  1.8459 -0.3734 -1.4884
 3490SOL    HW211012   4.210   4.738   7.499 -0.1076  0.1180  2.1491
 3491SOL     OW11013   5.197   2.904   5.735 -0.1157  0.3032 -0.3218
 3491SOL    HW111014   5.259   2.977   5.728  0.9294 -0.4956  0.2989
 3491SOL    HW211015   5.215   2.849   5.658 -0.5851  0.4602 -0.5470
 3492SOL     OW11016   7.403   4.447   6.253  0.3030  0.2078 -0.2298
 3492SOL    HW111017   7.450   4.363   6.255 -2.6882 -1.5885  0.8632
 3492SOL    HW211018   7.451   4.502   6.315  2.4054 -0.6090 -1.0477
 3493SOL     OW11019   5.544   4.696   7.107 -0.1789  0.0599  0.4606
 3493SOL    HW111020   5.626   4.666   7.066  0.8838 -0.0313  2.4610
 3493SOL    HW211021   5.485   4.712   7.035  1.4696 -0.3266 -1.0552
 3494SOL     OW11022   0.972   7.601   7.162  0.0583  0.0581  0.1414
 3494SOL    HW111023   0.967   7.584   7.068  0.4540  2.3816 -0.3701
 3494SOL    HW211024   1.062   7.580   7.185  0.1517  0.1162 -0.1627
 3495SOL     OW11025   5.313   1.818   3.333  0.3733 -0.3585 -0.5849
 3495SOL    HW111026   5.336   1.868   3.255 -0.3447 -1.4132 -1.5042
 3495SOL    HW211027   5.382   1.752   3.342  0.8089  0.1700  0.0737
 3496SOL     OW11028   1.647   2.614   1.439 -0.0245  0.3418  0.0456
 3496SOL    HW111029   1.602   2.688   1.397 -1.3033 -0.3174  0.2382
 3496SOL    HW211030   1.735   2.648   1.456 -0.9924  2.3431  1.4788
 3497SOL     OW11031   6.976   0.750   0.226 -0.4333 -0.1878 -0.2805
 3497SOL    HW111032   7.028   0.675   0.197 -0.3771  1.1290 -4.0912
 3497SOL    HW211033   6.885   0.723   0.214 -0.4326 -0.0299 -0.6672
 3498SOL     OW11034   6.348   2.315   3.562 -0.4152 -0.4633  0.0777
 3498SOL    HW111035   6.376   2.231   3.599  1.7656  0.7576  1.4133
 3498SOL    HW211036   6.389   2.319   3.476 -1.4493 -1.2160 -0.4656
 3499SOL     OW11037   2.840   4.453   3.838  0.0659 -0.1874  0.7677
 3499SOL    HW111038   2.774   4.397   3.798 -0.6110 -0.2650  1.9256
 3499SOL    HW211039   2.835   4.535   3.790 -0.0029 -0.6100  0.0451
 3500SOL     OW11040   6.743   1.157   3.066  0.4074 -0.1427 -0.3155
 3500SOL    HW111041   6.662   1.123   3.028  1.2013 -2.9528  0.2327
 3500SOL    HW211042   6.811   1.132   3.003  0.9462  1.7331 -0.5344
 3501SOL     OW11043   7.609   1.578   5.425 -0.3019 -0.5377 -0.5389
 3501SOL    HW111044   7.544   1.514   5.398  0.5080 -1.3264 -0.6541
 3501SOL    HW211045   7.563   1.634   5.487 -1.6037  0.0373 -1.9498
 3502SOL     OW11046   4.206   5.977   0.951 -0.0830  0.2164  0.1095
 3502SOL    HW111047   4.207   5.982   1.047 -0.0806  0.2354  0.1085
 3502SOL    HW211048   4.282   6.029   0.924 -1.3397  2.0981  0.0163
 3503SOL     OW11049   6.765   0.172   5.605  0.2882 -0.5600  0.5660
 3503SOL    HW111050   6.674   0.160   5.633  0.8699 -0.0653  2.8542
 3503SOL    HW211051   6.810   0.207   5.682  1.9937  1.2369 -1.1166
 3504SOL     OW11052   1.773   3.162   6.517  0.2292  0.4272  0.3973
 3504SOL    HW111053   1.734   3.077   6.495 -0.4276  1.0089 -0.7775
 3504SOL    HW211054   1.739   3.222   6.451  1.5307  1.3946  0.5557
 3505SOL     OW11055   1.548   7.623   0.013  0.7217  0.6176 -0.3545
 3505SOL    HW111056   1.541   7.718   0.023  0.3280  0.4480  1.3078
 3505SOL    HW211057   1.582   7.593   0.097  2.4159 -0.5789 -1.4117
 3506SOL     OW11058   7.193   5.977   1.683 -0.1557 -0.6310  0.1393
 3506SOL    HW111059   7.166   5.973   1.591 -2.2412 -0.9398  0.6951
 3506SOL    HW211060   7.111   5.994   1.731  1.1648  1.5737  1.8006
 3507SOL     OW11061   7.264   2.314   3.558 -0.1297  0.0338  0.8484
 3507SOL    HW111062   7.188   2.345   3.607  0.0624  0.0885  1.1127
 3507SOL    HW211063   7.230   2.245   3.502 -1.0259  2.0853 -1.3337
 3508SOL     OW11064   0.292   2.015   5.855  0.1130 -0.0842  0.6480
 3508SOL    HW111065   0.332   1.929   5.865 -2.5201 -1.2157  2.6865
 3508SOL    HW211066   0.199   1.997   5.840 -0.3968  2.4029  0.4097
 3509SOL     OW11067   2.391   3.824   1.137 -0.0796 -0.3121 -0.0875
 3509SOL    HW111068   2.357   3.843   1.050 -0.5894 -1.2074 -0.0939
 3509SOL    HW211069   2.314   3.802   1.190  0.3609 -1.2772  0.1825
 3510SOL     OW11070   1.904   5.110   7.048  0.7839  0.2481 -0.0301
 3510SOL    HW111071   1.899   5.096   7.142  2.1074  0.5887  0.1109
 3510SOL    HW211072   1.917   5.204   7.038 -1.1778  0.4924 -0.6601
 3511SOL     OW11073   5.454   4.948   7.261 -0.4609  0.0928 -0.4271
 3511SOL    HW111074   5.416   4.862   7.245  0.7457 -0.7935  1.1408
 3511SOL    HW211075   5.409   5.006   7.200  0.5428 -2.0723 -3.4625
 3512SOL     OW11076   5.700   3.390   7.598 -0.1609 -0.2544  0.2956
 3512SOL    HW111077   5.658   3.462   7.550 -0.6174 -0.4990  0.3232
 3512SOL    HW211078   5.646   3.314   7.580  0.2273 -0.5590  0.4057
 3513SOL     OW11079   0.574   6.886   3.105  0.5498 -0.5015  0.7690
 3513SOL    HW111080   0.543   6.957   3.049 -3.0375 -2.3276  0.1783
 3513SOL    HW211081   0.528   6.901   3.189 -0.0393 -1.9078  0.7169
 3514SOL     OW11082   5.715   4.186   2.604  0.1507 -0.5187 -0.0862
 3514SOL    HW111083   5.727   4.206   2.697 -0.0616  2.2717 -0.5626
 3514SOL    HW211084   5.803   4.168   2.572  0.6568  1.2946  0.1530
 3515SOL     OW11085   5.401   3.629   0.232  0.2507 -0.2676 -0.0821
 3515SOL    HW111086   5.362   3.574   0.164 -0.8239  1.0962 -0.6068
 3515SOL    HW211087   5.492   3.600   0.236  0.5687  0.1226 -2.6691
 3516SOL     OW11088   5.980   1.388   6.048 -0.2317  0.4359 -0.3552
 3516SOL    HW111089   6.052   1.328   6.026 -1.2720 -1.6039  1.4145
 3516SOL    HW211090   5.947   1.419   5.964  0.0572 -1.8888 -1.3883
 3517SOL     OW11091   3.183   5.567   0.828  0.4583 -0.4396 -0.0688
 3517SOL    HW111092   3.240   5.493   0.809 -0.6720 -1.4514  0.3386
 3517SOL    HW211093   3.137   5.542   0.908  1.1401  1.3603  0.9415
 3518SOL     OW11094   7.275   3.478   7.328 -0.3825 -0.0139 -0.3094
 3518SOL    HW111095   7.318   3.396   7.304  1.3515  0.5034  0.8118
 3518SOL    HW211096   7.329   3.514   7.399 -1.2307  1.9635 -0.5787
 3519SOL     OW11097   3.885   0.771   4.299 -0.6018  0.6830 -0.4948
 3519SOL    HW111098   3.976   0.761   4.271 -0.0481  1.2935  0.9621
 3519SOL    HW211099   3.886   0.851   4.352 -1.5256 -0.4303  1.2846
 3520SOL     OW11100   0.610   1.837   5.735 -0.3836 -0.3297 -0.0054
 3520SOL    HW111101   0.623   1.881   5.819  0.4928 -0.8048  0.1161
 3520SOL    HW211102   0.671   1.763   5.737  0.8320  0.5736 -1.7289
 3521SOL     OW11103   5.153   5.942   4.596  0.1682  0.3962 -0.3025
 3521SOL    HW111104   5.150   5.999   4.519 -0.8312  0.3607 -0.3024
 3521SOL    HW211105   5.071   5.892   4.592  1.0310 -1.0702 -0.3112
 3522SOL     OW11106   0.110   0.351   6.346 -0.3032  0.1500  0.2987
 3522SOL    HW111107   0.174   0.379   6.412 -0.8752 -0.2924  1.0633
 3522SOL    HW211108   0.147   0.379   6.263 -0.2373  1.9980  0.9021
 3523SOL     OW11109   6.815   4.888   5.675 -0.2809  0.0106  0.4494
 3523SOL    HW111110   6.738   4.854   5.720 -0.1945  1.9695  2.2193
 3523SOL    HW211111   6.878   4.816   5.678 -0.6001 -0.2403  2.7367
 3524SOL     OW11112   5.303   0.269   1.666  0.3876 -0.3207  0.1242
 3524SOL    HW111113   5.255   0.325   1.604 -0.4923 -1.6847 -0.5001
 3524SOL    HW211114   5.377   0.235   1.616 -0.9250 -2.2973 -0.6422
 3525SOL     OW11115   3.555   6.132   7.589  0.0773  0.2141 -0.1248
 3525SOL    HW111116   3.598   6.093   7.514 -0.9360  0.2777 -0.7558
 3525SOL    HW211117   3.471   6.085   7.596 -0.3304  0.9769  0.2594
 3526SOL     OW11118   0.707   2.912   1.096 -0.7045  0.0402 -0.7244
 3526SOL    HW111119   0.639   2.960   1.049 -1.6209  0.8017  1.3025
 3526SOL    HW211120   0.669   2.890   1.181  1.5618  0.5543  0.5275
 3527SOL     OW11121   7.138   7.425   0.392 -0.3452  0.4339 -1.1402
 3527SOL    HW111122   7.194   7.502   0.379  0.8004 -0.2898 -0.5813
 3527SOL    HW211123   7.184   7.354   0.347  0.4907 -0.7123  1.3914
 3528SOL     OW11124   3.448   3.631   0.883  0.3841 -0.5194  0.0212
 3528SOL    HW111125   3.518   3.605   0.824 -0.9079  0.2093 -1.9568
 3528SOL    HW211126   3.369   3.627   0.829 -0.8111  0.6737  1.5716
 3529SOL     OW11127   3.359   6.747   5.666 -0.1990  0.2673 -0.0460
 3529SOL    HW111128   3.267   6.740   5.694 -0.1529  0.2077  0.0917
 3529SOL    HW211129   3.400   6.667   5.699 -0.5456 -0.7265 -1.9101
 3530SOL     OW11130   1.424   0.155   4.494 -0.2256  0.3033  0.2145
 3530SOL    HW111131   1.488   0.114   4.552 -0.3935  0.3012  0.4009
 3530SOL    HW211132   1.446   0.123   4.407  0.2150  0.5479  0.2378
 3531SOL     OW11133   3.049   4.018   0.709 -0.2516 -0.6053  0.3273
 3531SOL    HW111134   3.104   4.096   0.722  0.0412 -0.2354 -2.4438
 3531SOL    HW211135   2.966   4.040   0.751  0.4910  0.3407  1.3726
 3532SOL     OW11136   3.805   4.538   0.173 -0.8719  0.0959 -0.6756
 3532SOL    HW111137   3.817   4.487   0.253  0.4376  1.1498 -0.1522
 3532SOL    HW211138   3.731   4.596   0.192  0.8611  2.0122  0.7597
 3533SOL     OW11139   4.614   3.260   2.447 -0.3941  0.3044 -0.3763
 3533SOL    HW111140   4.571   3.186   2.405 -1.0463  0.6704 -0.3618
 3533SOL    HW211141   4.683   3.286   2.386 -0.2874 -0.1846 -0.4696
 3534SOL     OW11142   4.508   6.335   4.796 -0.9019 -0.2585 -0.3200
 3534SOL    HW111143   4.498   6.342   4.701 -1.2167 -0.8798 -0.3332
 3534SOL    HW211144   4.506   6.426   4.827 -1.0781 -0.0689 -0.8799
 3535SOL     OW11145   3.563   2.586   6.620 -0.1861 -0.3617 -0.2141
 3535SOL    HW111146   3.538   2.605   6.530 -0.8708 -0.3021 -0.0215
 3535SOL    HW211147   3.526   2.500   6.638  0.3381 -0.5707 -0.1337
 3536SOL     OW11148   6.357   2.324   3.850  0.1412 -0.7327  0.7602
 3536SOL    HW111149   6.330   2.369   3.770 -1.4232  0.7211  2.0109
 3536SOL    HW211150   6.296   2.251   3.858 -0.8000  0.1023  1.4426
 3537SOL     OW11151   2.988   2.921   1.218 -0.7540 -0.9581 -0.0222
 3537SOL    HW111152   2.919   2.911   1.153 -2.6528  1.2819  1.4472
 3537SOL    HW211153   2.991   3.016   1.234 -1.1262 -1.4298  3.7880
 3538SOL     OW11154   0.072   3.000   2.918 -0.0070  0.1516  0.0313
 3538SOL    HW111155   0.103   3.090   2.925 -0.1701  0.1376  1.0750
 3538SOL    HW211156   0.024   2.984   3.000 -3.7292  0.5102 -1.8698
 3539SOL     OW11157   5.578   1.813   0.158  0.3680 -0.8308 -0.4130
 3539SOL    HW111158   5.630   1.737   0.130 -1.3127 -1.5658 -1.7407
 3539SOL    HW211159   5.523   1.833   0.083 -2.5262 -1.2342  1.4493
 3540SOL     OW11160   1.103   6.778   2.116  0.1168  0.4682  0.0196
 3540SOL    HW111161   1.028   6.745   2.164 -0.2107  0.7138 -0.3154
 3540SOL    HW211162   1.065   6.835   2.049  0.4839 -0.5591 -1.1095
 3541SOL     OW11163   4.899   5.806   3.082  0.2406  0.4427  0.0156
 3541SOL    HW111164   4.877   5.720   3.117  2.1137  0.0559  0.3610
 3541SOL    HW211165   4.936   5.788   2.996 -0.6646  1.0447 -0.5094
 3542SOL     OW11166   0.038   6.276   2.053  0.1342 -0.0655 -0.0401
 3542SOL    HW111167  -0.032   6.341   2.057 -0.8945 -1.1946  0.9414
 3542SOL    HW211168   0.069   6.279   1.963 -1.6698 -0.0268 -0.6889
 3543SOL     OW11169   5.540   6.775   3.927 -0.2755  0.4646 -0.4500
 3543SOL    HW111170   5.599   6.812   3.993 -0.4853 -0.7848  0.4561
 3543SOL    HW211171   5.466   6.740   3.976 -0.4515 -0.4605 -1.3346
 3544SOL     OW11172   3.522   4.632   0.201 -0.2056 -0.1453 -0.5330
 3544SOL    HW111173   3.429   4.643   0.221 -1.0950 -2.8518 -2.6997
 3544SOL    HW211174   3.550   4.718   0.169 -2.2714  0.3798 -1.0466
 3545SOL     OW11175   4.171   7.330   4.843  0.0048  0.4537 -0.4707
 3545SOL    HW111176   4.104   7.399   4.838  0.4176  0.8068 -1.6888
 3545SOL    HW211177   4.149   7.280   4.921 -0.6074  1.6691  0.1591
 3546SOL     OW11178   0.153   4.775   6.586 -0.0450  0.0261 -0.5115
 3546SOL    HW111179   0.090   4.749   6.654  1.1345 -0.9578  0.2414
 3546SOL    HW211180   0.224   4.817   6.635  0.2100  0.5004 -1.2842
 3547SOL     OW11181   5.150   1.160   3.863  0.2207 -0.3487  0.2068
 3547SOL    HW111182   5.105   1.076   3.856 -0.2687  0.0339 -2.0703
 3547SOL    HW211183   5.243   1.137   3.857  0.0587 -0.6490 -3.2172
 3548SOL     OW11184   0.839   1.830   7.349 -0.0479  0.1405  0.2226
 3548SOL    HW111185   0.879   1.819   7.435 -0.1934  0.4178  0.3283
 3548SOL    HW211186   0.799   1.917   7.353 -1.3236 -0.4308  0.3918
 3549SOL     OW11187   4.760   1.561   1.513 -0.3201 -0.2803  0.1751
 3549SOL    HW111188   4.803   1.521   1.589  0.6478  1.0745  0.3643
 3549SOL    HW211189   4.829   1.610   1.469 -1.3189  0.6013 -0.4464
 3550SOL     OW11190   5.242   7.343   6.429  0.1344  0.4242  0.4282
 3550SOL    HW111191   5.284   7.393   6.359  2.2248 -0.2711  1.1124
 3550SOL    HW211192   5.171   7.296   6.385  0.2595  1.3695 -0.8654
 3551SOL     OW11193   0.269   6.080   1.108  0.7000 -0.5983 -0.0099
 3551SOL    HW111194   0.221   6.083   1.025  1.0559  4.1189 -0.3412
 3551SOL    HW211195   0.354   6.042   1.085  0.3112 -0.6266 -1.5247
 3552SOL     OW11196   2.994   5.123   4.710  0.1601 -0.3498 -0.0116
 3552SOL    HW111197   3.057   5.068   4.756  0.6077 -0.0091 -0.2018
 3552SOL    HW211198   2.913   5.072   4.708  0.5030 -0.8958  0.0169
 3553SOL     OW11199   1.662   7.406   1.348  0.0369  0.1435  0.9013
 3553SOL    HW111200   1.642   7.374   1.436  2.8446  0.7628  1.8590
 3553SOL    HW211201   1.654   7.328   1.292 -2.7635 -0.0560  1.4290
 3554SOL     OW11202   1.622   2.688   3.987  0.2091  0.2195  0.2997
 3554SOL    HW111203   1.585   2.770   4.020  0.3581  0.6386 -0.5766
 3554SOL    HW211204   1.627   2.699   3.893  2.8801  0.3099  0.3778
 3555SOL     OW11205   2.065   1.551   6.957  0.2114  0.1028  0.4572
 3555SOL    HW111206   2.087   1.521   6.869 -0.0043  1.2768 -0.0182
 3555SOL    HW211207   1.991   1.497   6.983 -0.8377  0.8703 -0.7861
 3556SOL     OW11208   2.584   3.271   5.641  0.2487  0.4393  0.1854
 3556SOL    HW111209   2.571   3.335   5.711 -1.1864 -0.5194  0.8420
 3556SOL    HW211210   2.501   3.224   5.636  0.1177  0.7986 -2.5392
 3557SOL     OW11211   1.985   2.881   0.674 -0.0814 -0.4748 -0.0798
 3557SOL    HW111212   1.896   2.851   0.657  0.8042 -2.9128 -0.7668
 3557SOL    HW211213   2.040   2.830   0.614  2.0260 -1.0187  2.1371
 3558SOL     OW11214   4.931   5.338   0.422  0.3732 -0.2213 -0.1989
 3558SOL    HW111215   4.880   5.290   0.487  1.9243 -1.2314  0.3377
 3558SOL    HW211216   4.942   5.277   0.349 -0.2981  0.4645 -0.8964
 3559SOL     OW11217   2.313   4.175   7.022 -0.4683  0.5395  0.4843
 3559SOL    HW111218   2.340   4.229   6.948 -0.6375 -2.9563 -2.3961
 3559SOL    HW211219   2.233   4.133   6.994  0.0119 -1.7251  2.2081
 3560SOL     OW11220   2.115   5.972   4.495  0.1479 -0.0434  0.0083
 3560SOL    HW111221   2.048   6.030   4.531  0.2894 -0.8859  1.7009
 3560SOL    HW211222   2.133   5.909   4.564  1.1062 -1.1930 -1.2215
 3561SOL     OW11223   0.730   4.351   3.810 -0.0890  0.6542 -0.3094
 3561SOL    HW111224   0.675   4.316   3.740 -0.5101  0.6306  0.0297
 3561SOL    HW211225   0.798   4.401   3.764  0.9804 -1.1858 -0.8485
 3562SOL     OW11226   5.391   4.379   0.446 -0.0934  0.0830  0.1186
 3562SOL    HW111227   5.400   4.432   0.524  2.2826 -0.5669  0.3536
 3562SOL    HW211228   5.318   4.320   0.465 -0.0062  0.4102  1.5528
 3563SOL     OW11229   2.732   2.183   2.487  0.6678  0.6289  0.2854
 3563SOL    HW111230   2.707   2.165   2.578  2.4913  0.9841  0.8952
 3563SOL    HW211231   2.699   2.271   2.470  2.3066  1.5361  1.4464
 3564SOL     OW11232   6.882   6.771   5.149  0.2895 -0.0001 -0.4381
 3564SOL    HW111233   6.802   6.811   5.181 -0.3236 -2.5943  1.6209
 3564SOL    HW211234   6.853   6.698   5.095  1.3347  0.6799 -1.9804
 3565SOL     OW11235   6.670   3.924   7.010 -0.1161  0.1009 -0.5911
 3565SOL    HW111236   6.760   3.956   7.017 -0.1982  0.2070  0.0552
 3565SOL    HW211237   6.678   3.835   6.977  0.2761 -0.1547  0.1767
 3566SOL     OW11238   1.258   4.260   5.227  0.0669 -0.5242 -0.1855
 3566SOL    HW111239   1.345   4.231   5.255  0.7402  1.5301  0.0276
 3566SOL    HW211240   1.201   4.242   5.302  0.3786 -1.4752 -0.1643
 3567SOL     OW11241   0.746   0.295   0.420  0.5821  0.0354  0.3621
 3567SOL    HW111242   0.757   0.234   0.493  0.4009  0.1988  0.5268
 3567SOL    HW211243   0.832   0.299   0.379  0.4417 -0.8508 -0.0563
 3568SOL     OW11244   2.674   0.664   4.826  0.1509  0.0794  0.0338
 3568SOL    HW111245   2.665   0.695   4.916  1.7258  0.3649  0.1132
 3568SOL    HW211246   2.672   0.569   4.833  0.0754  0.1035  0.3301
 3569SOL     OW11247   4.655   7.611   4.763 -0.3440 -0.7020  0.0467
 3569SOL    HW111248   4.749   7.605   4.745  0.1931  1.4753  1.6893
 3569SOL    HW211249   4.649   7.614   4.858 -2.0087  0.1603 -0.0498
 3570SOL     OW11250   1.447   3.861   5.363  0.4195 -0.6431  0.3478
 3570SOL    HW111251   1.371   3.828   5.315 -0.3361  1.1742  0.1853
 3570SOL    HW211252   1.495   3.913   5.299  1.1565 -0.7984  0.7598
 3571SOL     OW11253   1.665   3.706   0.604 -0.2690  0.5275 -0.4991
 3571SOL    HW111254   1.574   3.719   0.632  0.5363  0.4380  2.4711
 3571SOL    HW211255   1.695   3.793   0.579 -0.4359  1.0545  1.0452
 3572SOL     OW11256   1.012   6.547   1.296 -0.0615  0.1119 -0.4390
 3572SOL    HW111257   1.026   6.491   1.372 -1.6787 -0.6433 -0.6543
 3572SOL    HW211258   0.950   6.499   1.242 -0.6793  1.6422 -1.1403
 3573SOL     OW11259   7.556   2.335   6.068 -0.0056  0.7002  0.3435
 3573SOL    HW111260   7.638   2.287   6.056 -0.4077 -0.2388  1.2298
 3573SOL    HW211261   7.567   2.381   6.151 -0.5330  0.2181  0.6872
 3574SOL     OW11262   0.993   6.511   2.012  0.2503  0.0211  0.4807
 3574SOL    HW111263   0.925   6.449   1.984  0.2807  0.0928  0.2450
 3574SOL    HW211264   1.061   6.502   1.946  0.9609 -0.8581  1.3108
 3575SOL     OW11265   6.758   6.792   2.489 -0.1101  0.1692  0.2992
 3575SOL    HW111266   6.683   6.788   2.430  0.1760 -0.3699 -0.0427
 3575SOL    HW211267   6.764   6.883   2.516 -0.8468  0.2269  0.2752
 3576SOL     OW11268   6.945   5.740   4.639 -0.2521  0.7177  0.1377
 3576SOL    HW111269   6.948   5.763   4.546  0.1300 -1.9366 -0.5986
 3576SOL    HW211270   7.035   5.746   4.669  0.0619 -0.8612 -0.3898
 3577SOL     OW11271   2.809   2.690   6.484  0.0040  0.0172  0.0899
 3577SOL    HW111272   2.787   2.768   6.534  0.7967  0.6255 -0.4934
 3577SOL    HW211273   2.873   2.719   6.420 -0.7150 -0.8242 -1.0470
 3578SOL     OW11274   3.844   3.352   3.896 -0.1301  0.2429 -0.0951
 3578SOL    HW111275   3.869   3.267   3.859 -0.0589  0.9955 -1.8928
 3578SOL    HW211276   3.766   3.334   3.948 -0.5462 -0.8231 -1.0584
 3579SOL     OW11277   6.348   6.838   5.746  0.7923  0.2814 -0.2199
 3579SOL    HW111278   6.289   6.913   5.754  0.0771 -0.3153  0.2072
 3579SOL    HW211279   6.432   6.870   5.778  0.9562  1.4114 -1.7069
 3580SOL     OW11280   5.837   1.847   3.830 -0.2325  0.1692 -0.7390
 3580SOL    HW111281   5.790   1.771   3.795  0.3345 -0.4652 -0.1517
 3580SOL    HW211282   5.883   1.813   3.906  0.3234  1.0286 -0.6872
 3581SOL     OW11283   2.508   3.139   6.823  0.1988  0.2208  0.1124
 3581SOL    HW111284   2.597   3.119   6.792  0.2652 -2.2553  1.5738
 3581SOL    HW211285   2.520   3.156   6.917 -1.0856 -3.6902  1.2078
 3582SOL     OW11286   5.996   1.975   5.448  0.2858 -0.3096 -0.0996
 3582SOL    HW111287   5.913   2.005   5.412  1.6347  0.2182 -3.0868
 3582SOL    HW211288   6.037   2.054   5.483 -0.2933 -0.5239  1.1247
 3583SOL     OW11289   2.962   0.319   3.959  0.1771 -0.0848 -0.4368
 3583SOL    HW111290   2.930   0.368   4.035 -0.7489  1.1235 -1.5727
 3583SOL    HW211291   3.052   0.350   3.946 -0.2955  1.1415 -0.9564
 3584SOL     OW11292   5.943   1.290   5.698 -0.3987  0.3361  0.2902
 3584SOL    HW111293   6.030   1.251   5.699 -0.4817  0.1472  0.6883
 3584SOL    HW211294   5.958   1.384   5.692 -0.1866  0.2667 -0.3141
 3585SOL     OW11295   0.676   3.197   2.015 -0.1239 -0.2989 -0.3842
 3585SOL    HW111296   0.742   3.144   1.971  0.0275 -0.5199  0.1053
 3585SOL    HW211297   0.623   3.232   1.944  0.2482 -0.4792 -0.7554
 3586SOL     OW11298   0.048   2.871   1.501  0.4603 -0.1519 -0.3626
 3586SOL    HW111299  -0.012   2.834   1.566 -0.5421  1.5854 -0.2465
 3586SOL    HW211300   0.029   2.822   1.421  0.1792 -0.8474  0.1197
 3587SOL     OW11301   1.386   3.699   7.130  0.2443  0.5071  0.0552
 3587SOL    HW111302   1.474   3.708   7.095  1.1183 -1.7279  1.5320
 3587SOL    HW211303   1.334   3.670   7.055  0.9338  0.8810 -0.5898
 3588SOL     OW11304   2.600   1.786   2.557  0.4143  0.1567 -0.1827
 3588SOL    HW111305   2.558   1.785   2.471 -1.5160  1.6142  0.6548
 3588SOL    HW211306   2.626   1.877   2.571  1.0110 -0.1228  0.6487
 3589SOL     OW11307   2.572   6.675   6.899  0.2079  0.0405 -0.1831
 3589SOL    HW111308   2.539   6.753   6.854 -3.4253 -0.7380  0.8373
 3589SOL    HW211309   2.538   6.601   6.848 -0.7119 -0.8506  1.6510
 3590SOL     OW11310   6.083   1.275   7.288 -0.3027 -0.2715 -0.0350
 3590SOL    HW111311   6.076   1.197   7.344 -0.2770  0.3348  0.8269
 3590SOL    HW211312   6.069   1.241   7.199  1.0274 -1.4799  0.1682
 3591SOL     OW11313   1.909   1.307   0.737 -0.4919 -0.4247  0.2944
 3591SOL    HW111314   1.867   1.222   0.725  1.5843 -1.5736  0.8545
 3591SOL    HW211315   1.914   1.319   0.832  0.2193 -0.1812  0.2294
 3592SOL     OW11316   1.997   6.762   5.272  0.1686 -0.4084  0.4047
 3592SOL    HW111317   2.065   6.711   5.316 -0.6843  0.3611  2.7518
 3592SOL    HW211318   1.974   6.831   5.335 -3.9795 -1.6147  0.5091
 3593SOL     OW11319   5.216   6.473   0.423 -0.2947  0.1304  0.0343
 3593SOL    HW111320   5.172   6.397   0.462 -0.3186 -0.0871 -0.4105
 3593SOL    HW211321   5.200   6.464   0.329 -0.8206  1.0158  0.0260
 3594SOL     OW11322   3.956   0.349   4.781 -0.7543  0.2663  0.4853
 3594SOL    HW111323   4.033   0.291   4.779 -2.3328 -1.9895 -1.8097
 3594SOL    HW211324   3.965   0.405   4.704 -0.4609  1.4275  1.3375
 3595SOL     OW11325   3.576   7.283   1.686  0.3577  0.5833  0.1613
 3595SOL    HW111326   3.501   7.329   1.724 -0.4775 -1.0217  0.5390
 3595SOL    HW211327   3.644   7.349   1.680 -0.6659  1.7637  1.0573
 3596SOL     OW11328   0.252   2.316   6.443  0.2942  0.5805  0.3947
 3596SOL    HW111329   0.222   2.314   6.352 -1.2269 -0.6230  0.8743
 3596SOL    HW211330   0.327   2.376   6.442  0.2848  0.6426 -1.6235
 3597SOL     OW11331   3.083   4.131   2.602  0.1607 -0.0938 -0.2340
 3597SOL    HW111332   3.070   4.099   2.691 -0.6132 -2.6807 -1.2020
 3597SOL    HW211333   3.022   4.204   2.594 -1.4968 -1.3158  0.6495
 3598SOL     OW11334   4.410   5.366   6.382 -0.6741  0.8737 -0.1369
 3598SOL    HW111335   4.501   5.346   6.361  0.0993  3.1609  0.7457
 3598SOL    HW211336   4.360   5.321   6.315  0.9957 -1.4764  0.0772
 3599SOL     OW11337   7.109   0.587   0.661 -1.0801  0.1890  0.1950
 3599SOL    HW111338   7.138   0.616   0.574  0.8214 -0.0140  0.7233
 3599SOL    HW211339   7.183   0.605   0.719 -1.4215 -1.7931  1.3572
 3600SOL     OW11340   1.205   7.160   6.994  0.3202  0.2312  0.5690
 3600SOL    HW111341   1.292   7.128   7.018  0.3662  0.4126  0.6405
 3600SOL    HW211342   1.155   7.080   6.978  0.7129  0.1360 -0.2349
 3601SOL     OW11343   7.075   2.420   3.714  0.5604  0.0999  0.1859
 3601SOL    HW111344   7.029   2.447   3.635  1.8619 -1.0804 -1.0330
 3601SOL    HW211345   7.006   2.397   3.776 -0.5205  2.6892  0.0655
 3602SOL     OW11346   4.545   6.232   2.383 -0.7631  0.5154  0.2495
 3602SOL    HW111347   4.586   6.168   2.441 -0.0350  0.7687  0.0243
 3602SOL    HW211348   4.457   6.197   2.366  0.7726 -2.3968 -2.8302
 3603SOL     OW11349   6.865   7.077   7.110  0.0263 -0.2490 -0.0619
 3603SOL    HW111350   6.888   7.046   7.022  1.4022  1.0546 -0.2096
 3603SOL    HW211351   6.949   7.082   7.156 -0.5693 -0.0189  1.0284
 3604SOL     OW11352   4.848   0.067   3.788  0.0795 -0.3333  0.6297
 3604SOL    HW111353   4.756   0.040   3.785 -0.1393  0.3272  1.0857
 3604SOL    HW211354   4.893  -0.004   3.834 -0.1268 -0.8452  0.0557
 3605SOL     OW11355   6.564   5.673   3.761 -0.1646  0.3745  1.1905
 3605SOL    HW111356   6.615   5.643   3.685 -2.1131  2.3574 -1.0857
 3605SOL    HW211357   6.589   5.765   3.771  0.0982  0.1278  3.0695
 3606SOL     OW11358   4.647   0.865   0.838  0.3867 -0.2145 -0.0549
 3606SOL    HW111359   4.709   0.868   0.911  0.3183 -0.4469  0.0130
 3606SOL    HW211360   4.699   0.831   0.765  0.3950 -0.2105 -0.0510
 3607SOL     OW11361   4.585   5.897   6.374 -0.0869 -0.0192 -0.7972
 3607SOL    HW111362   4.600   5.803   6.361  1.6076  0.2987 -1.4088
 3607SOL    HW211363   4.504   5.915   6.326  0.0530 -1.0048 -1.4482
 3608SOL     OW11364   5.142   4.700   6.412 -0.1832 -1.0817 -0.5182
 3608SOL    HW111365   5.121   4.695   6.505 -0.4848 -0.5483 -0.5536
 3608SOL    HW211366   5.234   4.727   6.410 -1.0124  2.2158 -0.3368
 3609SOL     OW11367   4.821   4.447   5.826  0.1184 -0.1049 -0.1809
 3609SOL    HW111368   4.787   4.532   5.856  0.4188 -0.3131  0.7700
 3609SOL    HW211369   4.851   4.404   5.906 -0.7769 -1.4578 -0.5415
 3610SOL     OW11370   2.054   5.717   0.256  0.3703  0.8029  0.3718
 3610SOL    HW111371   2.089   5.672   0.179 -2.9695 -0.5437 -0.5347
 3610SOL    HW211372   2.107   5.684   0.328  2.9968  1.3803 -1.1538
 3611SOL     OW11373   3.376   1.752   6.950  0.1756 -0.0847  0.2102
 3611SOL    HW111374   3.319   1.822   6.918  1.1576 -0.1152 -1.7390
 3611SOL    HW211375   3.389   1.773   7.042  0.9205  2.6710 -0.4354
 3612SOL     OW11376   6.273   6.892   0.552  0.5704 -0.0415  0.2114
 3612SOL    HW111377   6.194   6.914   0.504  0.7749  1.8603  0.6547
 3612SOL    HW211378   6.345   6.921   0.496  0.9053 -0.6247  0.3334
 3613SOL     OW11379   1.789   5.854   4.376  0.1257 -0.0597 -0.0578
 3613SOL    HW111380   1.788   5.873   4.470 -1.6963  0.9744 -0.2341
 3613SOL    HW211381   1.841   5.925   4.338  0.8568 -0.4743  0.1728
 3614SOL     OW11382   1.425   3.535   3.829 -0.2363  0.0186 -0.1530
 3614SOL    HW111383   1.384   3.577   3.904 -0.2363  1.2267 -0.8075
 3614SOL    HW211384   1.381   3.573   3.753  0.7929 -0.0630 -0.8083
 3615SOL     OW11385   1.544   5.527   1.822 -0.8795 -0.4421 -0.6371
 3615SOL    HW111386   1.576   5.510   1.911 -0.1084 -0.7586 -0.9599
 3615SOL    HW211387   1.565   5.619   1.806  1.2513 -0.9755 -1.3492
 3616SOL     OW11388   2.995   2.220   7.303 -0.5136 -0.7432 -0.2212
 3616SOL    HW111389   3.063   2.175   7.354 -0.2209 -0.1817 -0.0991
 3616SOL    HW211390   2.994   2.309   7.339 -0.5732 -0.4490 -0.9303
 3617SOL     OW11391   5.783   0.053   0.742  0.1411  0.3084 -0.4791
 3617SOL    HW111392   5.847   0.020   0.805 -0.5419 -2.2484 -0.9757
 3617SOL    HW211393   5.832   0.111   0.685  1.1024  1.5336  1.4734
 3618SOL     OW11394   2.951   3.849   2.404 -0.2703 -0.3098 -0.4969
 3618SOL    HW111395   2.986   3.768   2.442 -2.2825 -1.4910 -1.0198
 3618SOL    HW211396   2.937   3.828   2.312  1.7799  1.5829 -1.3407
 3619SOL     OW11397   1.221   5.546   5.482 -0.7884  0.4014  0.3135
 3619SOL    HW111398   1.198   5.466   5.530 -0.5110  0.2320  0.1662
 3619SOL    HW211399   1.316   5.541   5.470 -0.7567  0.7998  0.3849
 3620SOL     OW11400   2.798   1.360   4.595 -0.3239 -0.6552 -0.6586
 3620SOL    HW111401   2.805   1.289   4.658 -1.6684  0.1516  0.4551
 3620SOL    HW211402   2.714   1.344   4.550 -0.1871 -0.2847 -1.0565
 3621SOL     OW11403   3.122   3.636   2.419  0.4874  0.3644  0.6338
 3621SOL    HW111404   3.097   3.549   2.448  0.4659 -0.0073 -0.4414
 3621SOL    HW211405   3.206   3.624   2.376  0.5959  0.9192  0.6762
 3622SOL     OW11406   2.175   5.951   6.683  0.0316 -0.1984 -0.1391
 3622SOL    HW111407   2.138   5.892   6.617 -1.4149  0.9093 -0.3667
 3622SOL    HW211408   2.115   6.026   6.685  1.1398  0.7068  1.0206
 3623SOL     OW11409   0.947   5.487   1.155 -0.3126  0.1586 -0.5794
 3623SOL    HW111410   0.971   5.416   1.096 -1.0744  0.2655 -1.0308
 3623SOL    HW211411   0.856   5.469   1.179  0.4315 -0.7864  1.8861
 3624SOL     OW11412   3.860   0.155   3.602  0.0879  0.5004 -0.3255
 3624SOL    HW111413   3.834   0.173   3.512  2.1883 -0.0266 -1.0875
 3624SOL    HW211414   3.953   0.179   3.606  1.5622 -4.2376  0.1948
 3625SOL     OW11415   0.970   0.314   7.295  0.4108 -0.0376  0.3866
 3625SOL    HW111416   1.034   0.259   7.340  0.2355 -0.4099  0.1791
 3625SOL    HW211417   0.900   0.254   7.270  0.1953  0.2887  0.2052
 3626SOL     OW11418   6.851   1.376   6.597  0.1862 -0.1311 -0.2985
 3626SOL    HW111419   6.826   1.463   6.566 -1.2028 -0.3014  0.2834
 3626SOL    HW211420   6.947   1.374   6.588  0.3441  1.7673  0.4680
 3627SOL     OW11421   2.160   1.767   7.109 -0.5037  0.1064  0.3569
 3627SOL    HW111422   2.088   1.797   7.165 -1.4714  0.6869 -1.1506
 3627SOL    HW211423   2.131   1.682   7.075 -0.1030 -0.0482  0.3941
 3628SOL     OW11424   2.851   3.075   5.464  0.0720 -0.3084 -0.4729
 3628SOL    HW111425   2.886   2.986   5.461  0.3342 -0.3237  1.3554
 3628SOL    HW211426   2.759   3.064   5.487 -0.2598 -0.1500 -1.7067
 3629SOL     OW11427   1.274   5.306   5.620  0.5799  0.0764 -0.3980
 3629SOL    HW111428   1.361   5.318   5.658  0.2443 -0.1095  0.4535
 3629SOL    HW211429   1.217   5.293   5.695 -0.0107 -0.9328 -0.9994
 3630SOL     OW11430   1.540   2.047   6.120  0.3948 -0.3978 -0.4639
 3630SOL    HW111431   1.510   2.007   6.202  0.6105 -0.5613 -0.4631
 3630SOL    HW211432   1.497   2.132   6.118  0.0702 -0.5577 -0.3781
 3631SOL     OW11433   7.405   1.116   4.610 -0.1780  0.0114  0.0436
 3631SOL    HW111434   7.336   1.129   4.544 -0.3479 -0.8026  0.0574
 3631SOL    HW211435   7.436   1.027   4.595  2.6223  1.1085 -1.6219
 3632SOL     OW11436   1.001   4.024   4.191 -0.2054  0.1878  0.3188
 3632SOL    HW111437   1.066   4.060   4.251  0.2919 -0.5427  0.2225
 3632SOL    HW211438   0.918   4.029   4.240  0.0930  0.1585  0.8347
 3633SOL     OW11439   1.979   2.549   2.124 -0.1348  0.0983  0.0939
 3633SOL    HW111440   1.966   2.457   2.100 -2.4950 -0.6996  3.6166
 3633SOL    HW211441   1.909   2.596   2.079 -0.1175 -0.1474 -0.1898
 3634SOL     OW11442   2.602   6.891   2.864  0.0106  0.0601 -0.2138
 3634SOL    HW111443   2.509   6.868   2.866 -0.1812  0.8117 -0.1158
 3634SOL    HW211444   2.607   6.972   2.915  0.6941  0.1130 -0.3641
 3635SOL     OW11445   1.121   1.246   4.443  0.1358  0.4997  0.0988
 3635SOL    HW111446   1.086   1.182   4.380 -0.2681  1.1455 -0.3499
 3635SOL    HW211447   1.206   1.210   4.468  0.1351  0.0310 -0.5252
 3636SOL     OW11448   2.680   4.104   3.567 -0.2393 -0.9432 -0.0042
 3636SOL    HW111449   2.673   4.145   3.653 -0.3179  0.6543 -0.7520
 3636SOL    HW211450   2.736   4.027   3.582  0.0800 -0.4694  1.3806
 3637SOL     OW11451   1.899   4.145   6.489  0.6216  0.2848 -0.0858
 3637SOL    HW111452   1.882   4.212   6.423 -0.1783 -1.6103 -1.9117
 3637SOL    HW211453   1.991   4.123   6.478  0.6867  0.5205 -0.0210
 3638SOL     OW11454   2.736   5.130   1.751 -0.0025 -0.5735  0.6234
 3638SOL    HW111455   2.739   5.036   1.767 -1.3074 -0.7139  0.1814
 3638SOL    HW211456   2.747   5.170   1.837  2.0469 -1.0698  0.6312
 3639SOL     OW11457   7.442   4.394   0.590 -0.0315  0.0014 -0.1519
 3639SOL    HW111458   7.355   4.365   0.618 -1.7810  1.6875 -3.2553
 3639SOL    HW211459   7.450   4.482   0.625  0.0624  0.1267 -0.4785
 3640SOL     OW11460   6.280   5.150   5.393 -0.5620  0.3271 -0.5724
 3640SOL    HW111461   6.227   5.074   5.370  0.9575 -1.3517  1.1640
 3640SOL    HW211462   6.370   5.121   5.382  0.2399  0.3839  3.9359
 3641SOL     OW11463   2.940   7.130   6.868 -0.3509  0.2136 -0.5666
 3641SOL    HW111464   2.898   7.132   6.954 -0.7419  1.2304 -0.7678
 3641SOL    HW211465   3.003   7.058   6.874 -3.3552 -2.6912 -0.8756
 3642SOL     OW11466   2.495   5.981   1.964 -0.3850 -0.2000 -0.5802
 3642SOL    HW111467   2.527   5.896   1.932 -0.2344 -0.9440  1.3848
 3642SOL    HW211468   2.412   5.994   1.919 -0.9769 -1.9695 -0.0879
 3643SOL     OW11469   5.768   0.604   5.214  0.2770  0.5340  0.4477
 3643SOL    HW111470   5.693   0.641   5.260 -0.5996  1.1419 -1.3598
 3643SOL    HW211471   5.803   0.677   5.163  1.1346 -0.1301  0.0673
 3644SOL     OW11472   2.343   3.451   6.577 -0.1706  0.2291  0.2323
 3644SOL    HW111473   2.274   3.511   6.603 -2.9247 -2.4609 -0.2173
 3644SOL    HW211474   2.420   3.478   6.627 -1.9199  2.5190  1.8838
 3645SOL     OW11475   5.691   6.799   4.706  0.3488 -0.3509  0.4458
 3645SOL    HW111476   5.753   6.750   4.652  1.1224  1.0011  0.0732
 3645SOL    HW211477   5.736   6.881   4.727 -1.0906  0.4248  0.6510
 3646SOL     OW11478   1.473   7.449   3.201 -0.2418 -0.0135  0.1820
 3646SOL    HW111479   1.432   7.473   3.284 -0.1398  0.1357  0.1894
 3646SOL    HW211480   1.411   7.481   3.134 -0.5890 -0.6171  0.2059
 3647SOL     OW11481   1.436   2.790   4.624  0.2964 -0.4449 -0.1271
 3647SOL    HW111482   1.506   2.848   4.653  0.1692 -1.5851  2.8155
 3647SOL    HW211483   1.455   2.707   4.667 -1.6047 -1.4622 -1.1361
 3648SOL     OW11484   2.706   0.796   2.224 -0.4441  0.9092  0.3666
 3648SOL    HW111485   2.788   0.748   2.218 -0.7283  0.2720  1.2988
 3648SOL    HW211486   2.646   0.748   2.167 -0.5169  0.6030  0.6971
 3649SOL     OW11487   7.493   1.276   7.371 -0.5671 -0.2255 -0.2253
 3649SOL    HW111488   7.499   1.183   7.394  1.5590 -0.1166 -0.1680
 3649SOL    HW211489   7.424   1.280   7.305 -0.2882 -1.9222 -0.6589
 3650SOL     OW11490   4.269   4.868   0.427 -0.5827  0.1773  0.0679
 3650SOL    HW111491   4.361   4.892   0.415 -0.7193  0.9603  0.5347
 3650SOL    HW211492   4.243   4.911   0.508 -1.5243  0.4558 -0.3619
 3651SOL     OW11493   5.178   3.555   1.317 -0.4484 -0.1777 -0.2155
 3651SOL    HW111494   5.240   3.592   1.379 -1.2613  0.4912  0.2281
 3651SOL    HW211495   5.095   3.599   1.337 -0.9543 -0.6833 -1.1123
 3652SOL     OW11496   2.687   5.166   7.349  0.4110 -0.0447 -0.5173
 3652SOL    HW111497   2.757   5.223   7.379  0.9213 -0.7544 -0.3387
 3652SOL    HW211498   2.727   5.079   7.343 -0.7806 -0.7228  0.8431
 3653SOL     OW11499   2.026   0.176   2.290 -0.4849  0.4357 -0.3951
 3653SOL    HW111500   1.976   0.194   2.370 -0.6022 -0.4952 -0.2508
 3653SOL    HW211501   2.006   0.249   2.232 -0.0232  1.3838  0.6005
 3654SOL     OW11502   0.201   3.144   4.604  0.5965 -0.2994 -0.5169
 3654SOL    HW111503   0.183   3.181   4.691  1.7342  2.2842 -1.2647
 3654SOL    HW211504   0.297   3.134   4.602  0.4726 -1.4965 -1.0677
 3655SOL     OW11505   2.956   1.669   6.205 -0.1384 -0.8005 -0.0284
 3655SOL    HW111506   2.951   1.573   6.206  0.7170 -0.8917 -1.7998
 3655SOL    HW211507   3.032   1.689   6.260 -2.3901 -0.8525  3.4464
 3656SOL     OW11508   7.061   7.364   4.731 -0.0186 -0.2216 -0.3423
 3656SOL    HW111509   7.057   7.384   4.825  0.2694 -0.9962 -0.1649
 3656SOL    HW211510   6.975   7.326   4.712  0.2030 -0.7870 -0.2236
 3657SOL     OW11511   0.005   1.337   4.550  0.2733  0.2899 -0.0829
 3657SOL    HW111512  -0.077   1.290   4.532  1.2386 -1.4054 -0.2690
 3657SOL    HW211513  -0.019   1.402   4.615 -1.5527  0.9201 -1.3094
 3658SOL     OW11514   3.616   1.391   6.004 -0.5994  0.0633  0.5440
 3658SOL    HW111515   3.549   1.398   5.936 -0.8755  0.4574  0.8504
 3658SOL    HW211516   3.637   1.298   6.008 -2.5892 -0.3795  1.8225
 3659SOL     OW11517   2.862   6.951   2.399  0.1153  0.1020  0.4945
 3659SOL    HW111518   2.788   6.918   2.347 -0.7767  2.7573 -0.0500
 3659SOL    HW211519   2.829   6.954   2.488 -1.1029  2.7260  0.0536
 3660SOL     OW11520   6.671   5.146   1.216  0.0771 -0.1940  0.0992
 3660SOL    HW111521   6.583   5.129   1.181  0.1008 -0.7880  0.3160
 3660SOL    HW211522   6.680   5.241   1.213 -0.5703 -0.1307  0.0641
 3661SOL     OW11523   3.248   5.024   1.674 -0.0364 -0.0505  0.1424
 3661SOL    HW111524   3.339   4.994   1.675 -0.6985 -2.3663 -1.1538
 3661SOL    HW211525   3.243   5.085   1.748  2.2813 -0.7296  0.9782
 3662SOL     OW11526   0.823   1.859   4.908  0.2530 -0.6641 -0.2358
 3662SOL    HW111527   0.764   1.904   4.848 -0.7627 -2.0710 -0.3285
 3662SOL    HW211528   0.853   1.928   4.968  0.2598  0.5017 -1.5200
 3663SOL     OW11529   1.967   0.653   1.269  0.0185  0.4831 -0.0551
 3663SOL    HW111530   1.945   0.570   1.311  0.8026 -0.4219 -1.3529
 3663SOL    HW211531   2.015   0.702   1.336 -0.3874 -0.1300  0.7017
 3664SOL     OW11532   6.776   1.313   4.560  0.3517 -0.1362  0.0735
 3664SOL    HW111533   6.795   1.375   4.490 -0.5613  0.6697  0.5024
 3664SOL    HW211534   6.680   1.306   4.559  0.2431  0.6344  1.8364
 3665SOL     OW11535   1.437   6.218   1.820 -0.1874  0.0592  0.1076
 3665SOL    HW111536   1.457   6.215   1.913  0.4714  0.2603 -0.0268
 3665SOL    HW211537   1.485   6.294   1.787  1.0017 -1.0325 -0.7352
 3666SOL     OW11538   2.806   0.359   6.968 -0.2932 -0.0627  0.6504
 3666SOL    HW111539   2.782   0.452   6.964 -1.0175 -0.2635 -0.1540
 3666SOL    HW211540   2.824   0.343   7.060  1.6445  1.2962  0.5638
 3667SOL     OW11541   5.246   6.938   2.317  0.1111  0.3030 -0.4243
 3667SOL    HW111542   5.257   6.900   2.229  0.1697  1.6430 -1.0200
 3667SOL    HW211543   5.333   6.970   2.340 -0.0277  0.4513 -0.1042
 3668SOL     OW11544   3.894   5.530   0.882 -0.6094  0.6242  1.1299
 3668SOL    HW111545   3.914   5.558   0.793 -0.3723 -1.5940  0.4255
 3668SOL    HW211546   3.977   5.542   0.929  0.4670 -1.7550  0.0257
 3669SOL     OW11547   5.818   3.977   6.459 -0.0052 -0.3063  0.5316
 3669SOL    HW111548   5.776   4.056   6.493 -0.2489 -0.2464  0.1025
 3669SOL    HW211549   5.875   3.947   6.530 -1.1340 -0.6721  1.3232
 3670SOL     OW11550   0.661   4.828   5.544  0.0854  0.3823 -0.2957
 3670SOL    HW111551   0.704   4.769   5.482  0.7207 -1.8386  2.0989
 3670SOL    HW211552   0.641   4.906   5.492  1.0077 -1.1129 -3.1405
 3671SOL     OW11553   4.531   1.782   0.174 -0.2956  0.7300  0.4682
 3671SOL    HW111554   4.468   1.793   0.102  0.0557 -2.2392 -0.4717
 3671SOL    HW211555   4.613   1.816   0.139 -0.2453 -0.2133 -0.3913
 3672SOL     OW11556   6.475   2.813   1.234 -0.2279  0.4261 -0.4243
 3672SOL    HW111557   6.487   2.833   1.327  0.3956  1.0664 -0.6369
 3672SOL    HW211558   6.388   2.849   1.213 -0.4808  0.0570 -0.0381
 3673SOL     OW11559   1.595   6.299   4.103 -0.5797  0.2205 -0.2040
 3673SOL    HW111560   1.592   6.221   4.047 -1.8625 -1.3554  1.9007
 3673SOL    HW211561   1.524   6.354   4.070 -1.3145 -0.6821 -0.1887
 3674SOL     OW11562   2.495   5.221   4.302  0.0435  0.0466  0.1275
 3674SOL    HW111563   2.551   5.148   4.275 -0.9974 -1.6491  2.2768
 3674SOL    HW211564   2.546   5.266   4.370 -0.4848 -0.5130  0.9171
 3675SOL     OW11565   0.260   0.923   6.802 -0.1259  0.2510  0.6518
 3675SOL    HW111566   0.269   0.899   6.709 -1.0273  2.9909 -0.2241
 3675SOL    HW211567   0.347   0.908   6.838  0.4181 -0.2679 -0.7825
 3676SOL     OW11568   2.926   2.278   3.621  0.4870 -0.4083 -0.4874
 3676SOL    HW111569   2.900   2.264   3.712  0.5400 -0.7947 -0.5283
 3676SOL    HW211570   2.874   2.215   3.571 -0.5810  0.7491 -0.8890
 3677SOL     OW11571   6.595   0.575   3.335 -0.4567  0.5610 -0.2564
 3677SOL    HW111572   6.659   0.595   3.267 -0.2932 -0.8936 -0.5638
 3677SOL    HW211573   6.592   0.479   3.338 -0.8066  0.5857  1.4471
 3678SOL     OW11574   0.438   2.681   4.529  0.8761 -0.1840 -0.0760
 3678SOL    HW111575   0.421   2.612   4.594  0.2484  1.1424  1.2252
 3678SOL    HW211576   0.377   2.661   4.458  0.9660 -1.1759  0.0985
 3679SOL     OW11577   5.908   5.984   0.492  0.1175  0.3413  0.1186
 3679SOL    HW111578   5.981   5.952   0.545 -0.9977 -0.1535  1.4298
 3679SOL    HW211579   5.831   5.967   0.546 -1.1247 -0.5116 -1.8438
 3680SOL     OW11580   1.621   2.467   5.737 -0.1473 -0.2885 -0.0636
 3680SOL    HW111581   1.585   2.395   5.789 -0.5161 -1.2184 -1.5602
 3680SOL    HW211582   1.716   2.456   5.743 -0.1915 -0.5670  0.1464
 3681SOL     OW11583   4.307   2.472   6.189  0.0297  0.6316  0.3350
 3681SOL    HW111584   4.277   2.425   6.267 -1.1005 -0.2256 -0.5833
 3681SOL    HW211585   4.401   2.482   6.203  0.2357 -1.4242  0.8495
 3682SOL     OW11586   5.515   4.495   4.055 -0.0494  0.3471  0.3170
 3682SOL    HW111587   5.523   4.481   3.960 -0.7097 -2.2284  0.5522
 3682SOL    HW211588   5.569   4.571   4.073  0.4615  0.6287 -2.0719
 3683SOL     OW11589   1.495   1.456   5.662  0.2870 -0.4822  0.0259
 3683SOL    HW111590   1.441   1.378   5.651  0.9250 -0.8724 -0.4007
 3683SOL    HW211591   1.502   1.493   5.574 -0.8272  0.6195  0.3724
 3684SOL     OW11592   1.662   2.349   3.485  0.7674 -0.4373  0.0895
 3684SOL    HW111593   1.699   2.434   3.461  0.3630 -0.0868  0.6741
 3684SOL    HW211594   1.714   2.320   3.560  1.1968 -0.9235 -0.3890
 3685SOL     OW11595   3.560   0.463   6.335  0.5076  0.6559  0.0170
 3685SOL    HW111596   3.587   0.376   6.305  2.1954  0.6568  1.3639
 3685SOL    HW211597   3.642   0.512   6.344 -0.3117  2.0289  0.3662
 3686SOL     OW11598   4.976   1.976   4.690  0.6038 -0.2370  0.1391
 3686SOL    HW111599   4.925   1.929   4.756 -0.0205 -0.5843 -0.5707
 3686SOL    HW211600   4.921   2.050   4.665 -0.5764 -1.7731 -2.1618
 3687SOL     OW11601   2.438   5.889   0.356 -0.2486 -0.3659 -0.3857
 3687SOL    HW111602   2.445   5.804   0.312 -1.9246 -0.1806 -1.0849
 3687SOL    HW211603   2.440   5.953   0.285  0.2421  0.1484  0.0793
 3688SOL     OW11604   6.122   5.501   0.173  0.2825  0.0485 -0.0401
 3688SOL    HW111605   6.050   5.525   0.114  1.7722  1.7706 -1.2994
 3688SOL    HW211606   6.176   5.441   0.121 -0.0579 -1.0090  0.7927
 3689SOL     OW11607   2.069   3.148   0.699 -0.1824  0.3275 -0.1351
 3689SOL    HW111608   2.068   3.061   0.660  2.8398 -0.2137  0.6966
 3689SOL    HW211609   2.049   3.133   0.791 -1.2532  0.7539 -0.2909
 3690SOL     OW11610   0.750   5.353   6.969 -0.2342  0.5522 -0.0108
 3690SOL    HW111611   0.814   5.304   7.021 -0.2142  1.7406  1.1551
 3690SOL    HW211612   0.737   5.301   6.890  1.6987 -0.0273  0.0095
 3691SOL     OW11613   4.826   5.540   5.025 -0.1496 -0.2184 -0.0453
 3691SOL    HW111614   4.888   5.575   5.090 -1.5254 -0.5120  1.4914
 3691SOL    HW211615   4.796   5.616   4.977 -1.2543  0.4465  1.6116
 3692SOL     OW11616   1.961   5.970   7.451  0.0685 -0.4238  0.7156
 3692SOL    HW111617   1.947   6.000   7.541  0.5686 -0.5653  0.8395
 3692SOL    HW211618   1.881   5.996   7.405  0.4604  1.0701  0.8296
 3693SOL     OW11619   1.387   5.319   7.308 -0.3485 -0.0510  0.5745
 3693SOL    HW111620   1.361   5.239   7.262 -0.2810 -0.8272  1.8491
 3693SOL    HW211621   1.387   5.386   7.240  1.8096 -1.5348 -1.0453
 3694SOL     OW11622   3.409   4.153   0.768 -0.4028 -0.1689  0.0659
 3694SOL    HW111623   3.446   4.241   0.768 -1.3073  0.2811 -2.5007
 3694SOL    HW211624   3.317   4.165   0.790 -0.2294 -0.6655  1.1144
 3695SOL     OW11625   4.455   2.150   0.789 -0.1564 -0.2197 -0.2177
 3695SOL    HW111626   4.492   2.061   0.780  2.1322  0.5755  0.4650
 3695SOL    HW211627   4.429   2.155   0.881 -1.6274 -0.6224 -0.5914
 3696SOL     OW11628   3.321   7.357   2.093 -0.2759  0.1236 -0.9736
 3696SOL    HW111629   3.395   7.345   2.153 -0.0489  0.7249 -1.1234
 3696SOL    HW211630   3.299   7.450   2.102 -2.5160 -0.4984  0.8088
 3697SOL     OW11631   2.593   4.102   2.226  0.0966  0.4111  0.3566
 3697SOL    HW111632   2.555   4.190   2.230 -0.7160  0.1465 -0.8840
 3697SOL    HW211633   2.650   4.097   2.302  0.8295  2.3305 -0.0048
 3698SOL     OW11634   5.504   7.468   1.788  0.3149 -0.4528  0.3649
 3698SOL    HW111635   5.527   7.458   1.695  1.7861 -1.0606  0.7602
 3698SOL    HW211636   5.442   7.397   1.805 -0.4008  0.0089 -0.2774
 3699SOL     OW11637   7.374   7.178   3.200 -0.0358  0.5119 -0.3330
 3699SOL    HW111638   7.372   7.205   3.108  0.3577  0.8439 -0.2439
 3699SOL    HW211639   7.292   7.130   3.212 -1.4054  2.7420 -0.1490
 3700SOL     OW11640   7.121   3.074   2.228  0.7888  0.3173  0.5554
 3700SOL    HW111641   7.163   3.004   2.278 -0.7765 -1.5734 -0.6260
 3700SOL    HW211642   7.104   3.035   2.142 -0.3531  2.0763 -0.0580
 3701SOL     OW11643   5.169   6.450   5.182  0.1662  0.6273 -0.4540
 3701SOL    HW111644   5.086   6.407   5.204 -0.1229  1.5697  0.3403
 3701SOL    HW211645   5.177   6.439   5.087 -0.5865  0.0495 -0.4604
 3702SOL     OW11646   7.554   6.411   5.554  0.5351  0.5511  0.9580
 3702SOL    HW111647   7.641   6.425   5.517  0.4684 -0.2678  0.4689
 3702SOL    HW211648   7.494   6.423   5.481  0.5137 -3.0273  0.1702
 3703SOL     OW11649   3.687   4.930   7.146  0.5318 -0.1958  0.1496
 3703SOL    HW111650   3.615   4.966   7.095  0.3164 -0.9606 -0.1024
 3703SOL    HW211651   3.762   4.984   7.124  0.2980 -0.1251 -0.4948
 3704SOL     OW11652   6.598   7.128   6.355  0.0001  0.6567  0.4076
 3704SOL    HW111653   6.523   7.069   6.367  0.4252 -0.0943 -0.5420
 3704SOL    HW211654   6.606   7.139   6.260 -0.1303  2.3489  0.5502
 3705SOL     OW11655   7.251   2.262   4.951  0.4458 -0.0334 -0.4801
 3705SOL    HW111656   7.346   2.274   4.945  0.8992 -2.8531 -0.2390
 3705SOL    HW211657   7.225   2.312   5.028  1.9522 -0.2078  0.1660
 3706SOL     OW11658   5.347   1.180   6.030 -0.3168 -0.3874 -0.0759
 3706SOL    HW111659   5.339   1.214   6.120  2.4286  1.1341 -0.2972
 3706SOL    HW211660   5.317   1.089   6.036  0.7416 -0.6527  2.6357
 3707SOL     OW11661   2.045   1.179   5.863 -0.1059 -0.1897 -0.2752
 3707SOL    HW111662   2.054   1.084   5.876 -1.3945 -0.0266  2.6599
 3707SOL    HW211663   1.956   1.189   5.829  0.0557 -0.0480 -0.6492
 3708SOL     OW11664   7.250   6.045   4.778 -0.3532  0.3381  0.2039
 3708SOL    HW111665   7.279   6.136   4.789 -1.0851  0.4953  0.9610
 3708SOL    HW211666   7.180   6.050   4.714  1.6880 -0.1433 -2.2199
 3709SOL     OW11667   3.135   2.284   5.135 -0.7450  0.6706 -0.6061
 3709SOL    HW111668   3.166   2.288   5.045 -1.5416  1.3113 -0.8614
 3709SOL    HW211669   3.099   2.196   5.144 -0.7856  0.6489 -0.9563
 3710SOL     OW11670   0.325   2.087   7.461  0.4374  0.5049  0.2293
 3710SOL    HW111671   0.319   2.172   7.417 -0.7688  0.4814  0.3276
 3710SOL    HW211672   0.333   2.023   7.391  0.4098  0.6219  0.1204
 3711SOL     OW11673   2.748   1.552   5.140 -0.1840 -0.1327 -0.1989
 3711SOL    HW111674   2.822   1.532   5.083 -0.7912  1.6074 -1.6849
 3711SOL    HW211675   2.672   1.517   5.094 -0.4117 -1.2511  0.9690
 3712SOL     OW11676   0.781   3.790   2.197 -0.0968 -0.0946  0.4056
 3712SOL    HW111677   0.864   3.745   2.178 -0.5264 -0.9204  0.4192
 3712SOL    HW211678   0.731   3.727   2.250 -0.7050  0.4208  0.4580
 3713SOL     OW11679   5.302   7.588   4.724 -0.6604  0.5672  0.0338
 3713SOL    HW111680   5.250   7.526   4.673 -0.3521  0.6291 -0.3597
 3713SOL    HW211681   5.248   7.608   4.800 -0.2219 -1.1965  0.8464
 3714SOL     OW11682   3.668   3.884   0.633 -0.6412  0.1499 -0.0029
 3714SOL    HW111683   3.651   3.927   0.717 -0.8477 -0.7350  0.4266
 3714SOL    HW211684   3.752   3.920   0.604  1.5896 -2.4285  2.6038
 3715SOL     OW11685   1.111   2.124   5.372 -0.1727  0.5682  0.1237
 3715SOL    HW111686   1.115   2.046   5.317  1.2048  0.4508  0.3534
 3715SOL    HW211687   1.024   2.122   5.410  0.0715 -1.2601  0.6901
 3716SOL     OW11688   2.492   7.304   7.042  0.4281 -0.2543 -0.3575
 3716SOL    HW111689   2.481   7.397   7.024 -1.5797 -0.0982  1.3720
 3716SOL    HW211690   2.561   7.301   7.109  0.0113  0.0619  0.0938
 3717SOL     OW11691   2.778   5.006   4.009 -0.0498  0.1467 -0.2990
 3717SOL    HW111692   2.835   5.071   4.049 -0.1956  0.1161 -0.0368
 3717SOL    HW211693   2.731   4.967   4.083  0.4246 -0.6299 -0.3954
 3718SOL     OW11694   4.291   5.254   6.183  1.1457 -0.5387 -0.0094
 3718SOL    HW111695   4.309   5.166   6.151  2.0699  0.0162 -1.0996
 3718SOL    HW211696   4.294   5.309   6.105 -1.8680  0.1572  0.2414
 3719SOL     OW11697   5.479   2.979   1.739  0.3702  0.1312 -0.3223
 3719SOL    HW111698   5.510   3.018   1.657 -0.6436 -0.2342 -0.8981
 3719SOL    HW211699   5.463   3.053   1.797  1.0194  0.3943 -0.4696
 3720SOL     OW11700   1.225   5.606   6.139  0.3073  0.3145 -0.4322
 3720SOL    HW111701   1.265   5.554   6.209 -2.4699 -0.0564  1.0192
 3720SOL    HW211702   1.294   5.615   6.073  2.3543 -1.1908  1.3668
 3721SOL     OW11703   2.980   0.549   2.062  0.8417  0.0189  0.1360
 3721SOL    HW111704   2.935   0.490   2.123  0.2303 -0.7009 -0.9788
 3721SOL    HW211705   3.022   0.614   2.118 -0.3533 -0.1661  1.2800
 3722SOL     OW11706   5.995   1.315   0.123  0.1703 -0.1513 -0.0954
 3722SOL    HW111707   5.934   1.389   0.125  0.1892 -0.1498  0.5467
 3722SOL    HW211708   5.972   1.267   0.043 -0.1631  0.2774 -0.2588
 3723SOL     OW11709   4.384   2.811   0.261 -0.0420 -0.1387  0.6831
 3723SOL    HW111710   4.403   2.816   0.168  0.1746 -0.3963  0.7102
 3723SOL    HW211711   4.321   2.880   0.277 -0.2131 -0.2078  0.3105
 3724SOL     OW11712   5.835   1.560   4.910  0.1773 -0.0141 -0.4775
 3724SOL    HW111713   5.850   1.611   4.989  1.5028 -1.6397  0.3757
 3724SOL    HW211714   5.847   1.623   4.838  2.2019  0.7997  0.4993
 3725SOL     OW11715   4.189   7.359   7.344  0.4416 -0.4137 -0.4749
 3725SOL    HW111716   4.173   7.280   7.291 -2.0189  0.0450 -0.5718
 3725SOL    HW211717   4.183   7.431   7.281 -2.2780  0.1197  0.2601
 3726SOL     OW11718   1.793   4.102   2.808  0.2268  0.4408  0.2710
 3726SOL    HW111719   1.708   4.095   2.850  1.3253  0.0002  2.6335
 3726SOL    HW211720   1.829   4.185   2.839  0.8865  0.3563 -0.2212
 3727SOL     OW11721   6.404   1.255   6.466  0.0629  0.1305  0.1287
 3727SOL    HW111722   6.487   1.221   6.501 -0.7179 -1.6988  0.3183
 3727SOL    HW211723   6.400   1.221   6.377 -1.6238 -2.0313  0.9436
 3728SOL     OW11724   2.497   3.201   7.076 -0.3277  0.4250 -0.1173
 3728SOL    HW111725   2.438   3.260   7.123 -0.3562  0.6687 -0.4577
 3728SOL    HW211726   2.574   3.195   7.132 -0.4636  0.5172  0.0806
 3729SOL     OW11727   3.286   5.872   3.350  0.0062  0.1522 -0.0031
 3729SOL    HW111728   3.231   5.864   3.427  2.6360 -0.1967  1.9888
 3729SOL    HW211729   3.339   5.792   3.350  1.3753  1.0133 -1.0577
 3730SOL     OW11730   0.046   7.285   0.034  0.3413  0.3696 -0.7346
 3730SOL    HW111731   0.128   7.294  -0.015  0.0715  2.0283 -0.9216
 3730SOL    HW211732  -0.019   7.263  -0.033  0.3158  0.7862 -0.8480
 3731SOL     OW11733   1.292   7.335   0.280  0.6676  0.5090  0.3250
 3731SOL    HW111734   1.297   7.309   0.188  2.1647 -2.3280  1.1099
 3731SOL    HW211735   1.198   7.343   0.297  0.3782  2.2793 -1.6870
 3732SOL     OW11736   5.275   3.866   6.160 -0.0273  0.1350 -0.1253
 3732SOL    HW111737   5.360   3.910   6.157  0.2988 -0.5335 -0.9435
 3732SOL    HW211738   5.254   3.847   6.069 -2.2977  2.5778 -0.2363
 3733SOL     OW11739   1.830   6.821   3.305 -0.8464 -0.8137 -0.5598
 3733SOL    HW111740   1.820   6.726   3.306 -0.9443 -0.8102  0.7644
 3733SOL    HW211741   1.855   6.843   3.394 -0.5771  0.3872 -0.9142
 3734SOL     OW11742   2.756   0.087   3.108  0.4918  0.3475 -0.8373
 3734SOL    HW111743   2.735   0.024   3.039  0.2543  1.3746 -1.7434
 3734SOL    HW211744   2.825   0.044   3.159  1.0545 -0.2456 -2.0365
 3735SOL     OW11745   6.380   7.087   3.156  0.2054 -0.3083 -0.1066
 3735SOL    HW111746   6.373   6.992   3.168  2.2977 -0.3194  1.5420
 3735SOL    HW211747   6.315   7.123   3.217 -0.3666 -0.6383 -0.5008
 3736SOL     OW11748   6.000   3.133   4.645 -0.1268  0.1420  0.4630
 3736SOL    HW111749   5.991   3.162   4.554  0.5046  2.1570  0.9840
 3736SOL    HW211750   6.082   3.083   4.646  0.3698  0.9188  0.0787
 3737SOL     OW11751   5.128   2.844   3.320 -0.1038 -0.4629  0.1497
 3737SOL    HW111752   5.188   2.903   3.274  0.4037  0.7137  2.1523
 3737SOL    HW211753   5.186   2.793   3.377 -0.9252  0.6967  2.1237
 3738SOL     OW11754   6.542   0.748   7.082 -0.3312 -0.3236 -0.0039
 3738SOL    HW111755   6.613   0.684   7.076 -0.4008 -0.2827 -1.8952
 3738SOL    HW211756   6.573   0.813   7.145  0.3862 -1.4112  0.8000
 3739SOL     OW11757   0.176   6.754   4.067 -0.5769 -0.2379 -0.3472
 3739SOL    HW111758   0.171   6.739   3.972  0.5375  3.3577 -1.1376
 3739SOL    HW211759   0.260   6.716   4.092 -1.0302 -1.5216 -0.6810
 3740SOL     OW11760   3.709   5.913   0.835  0.1076 -0.2025 -0.3035
 3740SOL    HW111761   3.801   5.893   0.854 -0.1303 -1.6019 -0.5021
 3740SOL    HW211762   3.690   5.862   0.756 -1.0338 -0.5072  0.1531
 3741SOL     OW11763   2.374   1.573   1.534  0.2357  0.7128  0.0232
 3741SOL    HW111764   2.413   1.610   1.613  0.0669 -0.7826  0.8412
 3741SOL    HW211765   2.291   1.536   1.563 -0.2985  1.0141 -1.0692
 3742SOL     OW11766   1.465   1.100   1.640 -0.1780  0.2855  0.1665
 3742SOL    HW111767   1.397   1.040   1.609 -1.0914  0.9602  0.8339
 3742SOL    HW211768   1.420   1.184   1.651  0.9015  0.9001  0.0344
 3743SOL     OW11769   2.166   4.661   0.127 -0.5519  0.0089 -0.1849
 3743SOL    HW111770   2.180   4.641   0.220 -2.4414 -2.1132 -0.2823
 3743SOL    HW211771   2.212   4.744   0.114 -0.0876  0.2992  2.5986
 3744SOL     OW11772   0.341   5.102   2.859 -1.0354 -0.5467  0.1935
 3744SOL    HW111773   0.291   5.098   2.940  1.0779 -1.2400  1.5538
 3744SOL    HW211774   0.359   5.010   2.837  0.6352 -0.3143  0.4497
 3745SOL     OW11775   2.645   2.038   2.971 -0.5977 -0.0147 -0.2507
 3745SOL    HW111776   2.594   1.984   3.031  0.1957  0.3042  0.7381
 3745SOL    HW211777   2.688   2.102   3.027  0.7381 -0.1513 -1.0777
 3746SOL     OW11778   6.298   6.585   2.395 -0.3370 -0.5996 -0.1232
 3746SOL    HW111779   6.331   6.512   2.342  2.0481 -0.1309  0.5958
 3746SOL    HW211780   6.371   6.647   2.398 -1.9460  1.3728  0.1535
 3747SOL     OW11781   4.604   0.391   5.638  0.1999  0.0283  0.2551
 3747SOL    HW111782   4.520   0.434   5.627  0.5502  0.4517 -0.8274
 3747SOL    HW211783   4.657   0.421   5.565  0.9205 -1.1446  0.2686
 3748SOL     OW11784   5.068   4.613   5.905 -0.2629  0.2328  0.1064
 3748SOL    HW111785   5.008   4.644   5.973  0.9419 -0.4283  1.5282
 3748SOL    HW211786   5.155   4.635   5.938  0.3294  1.3368 -1.9887
 3749SOL     OW11787   2.091   2.318   0.239 -0.0211 -0.3247 -0.4353
 3749SOL    HW111788   2.001   2.352   0.237 -0.1448 -0.6528 -0.4256
 3749SOL    HW211789   2.136   2.365   0.169 -0.1592 -0.0425 -0.3358
 3750SOL     OW11790   1.720   5.153   0.545  0.1118 -0.0141 -0.3987
 3750SOL    HW111791   1.809   5.136   0.514  0.1406  1.7659 -1.4271
 3750SOL    HW211792   1.674   5.186   0.468 -0.8553  1.0556  0.6018
 3751SOL     OW11793   4.991   5.197   0.196  0.3107 -0.3211 -0.1982
 3751SOL    HW111794   4.967   5.267   0.134  1.4477 -0.0657 -0.3838
 3751SOL    HW211795   4.936   5.123   0.171 -2.5536  1.1099  1.4019
 3752SOL     OW11796   3.245   3.813   7.257 -1.1453 -0.1585 -0.1038
 3752SOL    HW111797   3.199   3.877   7.203 -0.8614  1.6579  1.7091
 3752SOL    HW211798   3.338   3.836   7.248 -0.8522 -1.4596 -0.7848
 3753SOL     OW11799   5.589   1.814   4.488  0.0749 -0.0713 -0.7768
 3753SOL    HW111800   5.552   1.893   4.527 -0.2727  0.0274 -1.2931
 3753SOL    HW211801   5.536   1.742   4.523  2.4441 -0.4859  2.3441
 3754SOL     OW11802   7.079   7.510   4.454 -0.4838 -0.2133 -0.1481
 3754SOL    HW111803   6.998   7.542   4.494  0.4339 -0.3532  1.9460
 3754SOL    HW211804   7.065   7.417   4.442 -0.0605 -0.5935  1.8810
 3755SOL     OW11805   3.978   5.275   0.977 -0.0448  0.6278 -0.7906
 3755SOL    HW111806   3.924   5.354   0.974 -0.9691  0.0349 -0.1981
 3755SOL    HW211807   3.964   5.234   0.892  0.7697  1.2919 -1.2679
 3756SOL     OW11808   0.534   6.071   1.300  0.1220  0.1680  0.1781
 3756SOL    HW111809   0.538   6.084   1.395 -4.0759 -1.5782  0.7913
 3756SOL    HW211810   0.500   6.154   1.267  1.0659  0.5881  0.2264
 3757SOL     OW11811   4.095   2.648   6.793  0.4062  0.3995  0.1907
 3757SOL    HW111812   4.083   2.558   6.763  0.8362 -0.2195  1.7874
 3757SOL    HW211813   4.162   2.643   6.861  0.4007  1.9224  0.3532
 3758SOL     OW11814   6.378   4.414   2.961 -0.2508  0.0384 -0.2761
 3758SOL    HW111815   6.425   4.495   2.981 -0.9960  0.3048  0.4593
 3758SOL    HW211816   6.443   4.344   2.973  0.0398  0.4208  0.3979
 3759SOL     OW11817   0.232   4.115   5.130 -0.0447 -0.1613 -0.2337
 3759SOL    HW111818   0.243   4.024   5.155 -2.3772 -0.1050  1.2766
 3759SOL    HW211819   0.307   4.160   5.167  1.5739 -1.5146 -1.6851
 3760SOL     OW11820   0.122   3.206   4.860  0.2189  0.6646  0.2015
 3760SOL    HW111821   0.130   3.289   4.908 -0.0064 -0.4041  2.1885
 3760SOL    HW211822   0.059   3.155   4.911 -0.6521 -0.2642 -1.7111
 3761SOL     OW11823   6.087   0.295   4.116  0.2190  0.4357  0.1573
 3761SOL    HW111824   6.033   0.350   4.060 -0.7412 -0.7649 -0.1594
 3761SOL    HW211825   6.043   0.209   4.114  1.5560 -0.2954  0.7467
 3762SOL     OW11826   3.108   4.593   7.006  0.0963  0.3180 -0.4404
 3762SOL    HW111827   3.074   4.509   7.036  1.8026 -1.0645 -2.1816
 3762SOL    HW211828   3.063   4.609   6.924  0.7093  0.4706 -0.7489
 3763SOL     OW11829   2.413   5.307   3.747 -0.4130 -0.6998  0.0777
 3763SOL    HW111830   2.433   5.374   3.681  1.9683 -1.5277 -0.1314
 3763SOL    HW211831   2.490   5.304   3.802 -0.9692 -2.4478  0.8152
 3764SOL     OW11832   3.808   3.767   6.962 -0.2797 -0.4843  0.0972
 3764SOL    HW111833   3.857   3.720   6.894 -1.9610 -1.1672 -0.6947
 3764SOL    HW211834   3.843   3.733   7.045  0.9306 -0.5638 -0.4286
 3765SOL     OW11835   4.776   5.323   1.828 -0.2350  0.1784  0.2531
 3765SOL    HW111836   4.694   5.358   1.795  0.2619  1.0102 -0.1370
 3765SOL    HW211837   4.795   5.248   1.773  0.6794  1.6571 -1.5586
 3766SOL     OW11838   5.348   6.353   0.055  0.0251  0.1680  0.0090
 3766SOL    HW111839   5.361   6.340  -0.039 -1.8837 -0.0164 -0.2659
 3766SOL    HW211840   5.429   6.395   0.084  0.4817  0.6438 -1.7995
 3767SOL     OW11841   6.061   2.734   5.292 -0.3705  0.3875 -0.7047
 3767SOL    HW111842   5.975   2.710   5.258  0.2385 -2.5996 -0.3709
 3767SOL    HW211843   6.115   2.657   5.278  1.7135  1.4324  0.9909
 3768SOL     OW11844   1.113   2.143   6.380  1.1993  0.6337 -0.2543
 3768SOL    HW111845   1.096   2.159   6.288  1.5162  0.8139 -0.2827
 3768SOL    HW211846   1.037   2.180   6.426  0.6616 -0.1410 -0.4819
 3769SOL     OW11847   2.785   3.371   5.197 -0.0357  0.3954 -0.1122
 3769SOL    HW111848   2.802   3.276   5.200  2.9429  0.8556  1.7294
 3769SOL    HW211849   2.775   3.396   5.288  0.3634  2.0069 -0.4836
 3770SOL     OW11850   1.656   2.152   2.714  0.1023 -0.0023 -0.2881
 3770SOL    HW111851   1.567   2.139   2.681  0.1418  1.7120 -1.1584
 3770SOL    HW211852   1.644   2.181   2.804 -0.1913 -0.3919 -0.1975
 3771SOL     OW11853   6.097   3.202   6.485  0.1786  0.2819  0.0435
 3771SOL    HW111854   6.043   3.240   6.416 -1.5362  1.3722  1.8984
 3771SOL    HW211855   6.150   3.274   6.517 -0.5228  0.3043  1.2092
 3772SOL     OW11856   2.283   0.253   5.169  0.1539  0.1185  0.0132
 3772SOL    HW111857   2.349   0.211   5.224 -1.6440 -0.7678  1.5805
 3772SOL    HW211858   2.313   0.237   5.079  0.7779 -2.4902  0.6233
 3773SOL     OW11859   2.494   2.123   3.882 -0.6548  0.2669  0.2877
 3773SOL    HW111860   2.508   2.038   3.841 -0.4161  0.3257  0.2482
 3773SOL    HW211861   2.571   2.175   3.858 -0.4917  0.2912  0.8451
 3774SOL     OW11862   5.959   6.455   5.345 -0.0983  0.6530  0.3013
 3774SOL    HW111863   6.012   6.393   5.394 -0.8485  0.8245  1.3691
 3774SOL    HW211864   6.003   6.463   5.260  0.7494 -0.2998  0.6340
 3775SOL     OW11865   0.131   0.422   0.127 -0.3848  0.7019 -0.1224
 3775SOL    HW111866   0.215   0.397   0.166  0.5372  2.2639 -0.9956
 3775SOL    HW211867   0.084   0.340   0.115  1.5238 -0.3516 -0.7282
 3776SOL     OW11868   3.727   0.739   0.651 -0.4332 -0.3990  0.3776
 3776SOL    HW111869   3.774   0.724   0.734 -0.6707  0.0477  0.5916
 3776SOL    HW211870   3.664   0.667   0.646  0.1051 -0.8701  0.2039
 3777SOL     OW11871   0.625   4.396   0.509  0.1871 -0.3398 -0.2391
 3777SOL    HW111872   0.617   4.306   0.477  0.8950 -0.5699  0.1896
 3777SOL    HW211873   0.671   4.442   0.439 -1.1073 -0.0363 -0.9155
 3778SOL     OW11874   7.568   0.657   2.745  0.0622 -0.1739 -0.1806
 3778SOL    HW111875   7.588   0.611   2.826  1.4377 -0.0599 -0.4388
 3778SOL    HW211876   7.580   0.749   2.765 -1.6541  0.0380  0.0400
 3779SOL     OW11877   3.753   2.801   1.051 -0.5999  0.2265 -0.3247
 3779SOL    HW111878   3.820   2.752   1.099 -1.9301 -0.3318  1.0530
 3779SOL    HW211879   3.800   2.875   1.013  1.2155 -1.3672 -1.3378
 3780SOL     OW11880   7.431   7.204   4.920 -0.9174 -0.1212  0.2780
 3780SOL    HW111881   7.397   7.253   4.845 -1.0587  0.6946  0.8624
 3780SOL    HW211882   7.511   7.250   4.944 -1.6195  0.5296  1.5184
 3781SOL     OW11883   0.058   0.674   7.214 -0.0083 -0.1509 -0.4484
 3781SOL    HW111884   0.094   0.742   7.271  1.4556  1.6326 -3.3046
 3781SOL    HW211885   0.131   0.614   7.199 -0.6839 -1.2028  0.3144
 3782SOL     OW11886   7.158   2.906   1.691 -0.1530 -0.1048  0.2815
 3782SOL    HW111887   7.102   2.982   1.705  0.6742  0.8249 -1.1358
 3782SOL    HW211888   7.216   2.904   1.767 -0.7527  0.1414  0.7554
 3783SOL     OW11889   1.593   2.443   6.102 -0.4877  0.2945 -0.3673
 3783SOL    HW111890   1.626   2.470   6.188  1.6132 -0.0466 -0.9966
 3783SOL    HW211891   1.599   2.522   6.049  0.9166 -0.1184 -0.8904
 3784SOL     OW11892   6.025   2.242   5.236  0.0026  0.4582  0.1156
 3784SOL    HW111893   5.960   2.234   5.167  0.1284  0.7905 -0.0460
 3784SOL    HW211894   5.981   2.292   5.305 -0.7476 -1.4314  1.0803
 3785SOL     OW11895   5.232   0.903   3.035 -0.5676  0.1561  0.1381
 3785SOL    HW111896   5.260   0.919   2.945  1.2923  0.6180  0.7392
 3785SOL    HW211897   5.207   0.990   3.067 -1.6227 -0.0722 -0.0345
 3786SOL     OW11898   0.717   6.583   1.286  0.0673  0.8507 -0.2997
 3786SOL    HW111899   0.703   6.511   1.348 -1.4205  0.2459 -1.2544
 3786SOL    HW211900   0.746   6.656   1.339 -1.7350  0.5318  1.2273
 3787SOL     OW11901   0.577   4.511   5.363  0.2849 -0.3696  0.0973
 3787SOL    HW111902   0.513   4.497   5.294  0.1687 -0.7304  0.2741
 3787SOL    HW211903   0.642   4.570   5.324  0.8852 -1.5509 -0.7465
 3788SOL     OW11904   6.094   7.079   2.281 -0.1480  0.7897 -0.1549
 3788SOL    HW111905   6.153   7.147   2.252  0.4963  0.2544 -0.1152
 3788SOL    HW211906   6.029   7.071   2.212  0.8686  0.1273 -1.0619
 3789SOL     OW11907   4.854   7.203   4.344  0.3139  0.0582 -0.4255
 3789SOL    HW111908   4.833   7.147   4.419  1.2952 -0.6493 -0.6669
 3789SOL    HW211909   4.805   7.284   4.361 -0.1641 -0.4141  0.5371
 3790SOL     OW11910   0.960   1.370   6.599 -0.1652  0.1109 -0.3575
 3790SOL    HW111911   0.889   1.424   6.563  0.5672  1.5317  0.2618
 3790SOL    HW211912   1.022   1.433   6.634  0.9290 -1.1503  0.0237
 3791SOL     OW11913   7.584   7.248   1.466 -0.1787 -0.4536  0.2584
 3791SOL    HW111914   7.552   7.172   1.515 -0.1716 -0.4557  0.2597
 3791SOL    HW211915   7.645   7.211   1.402 -0.7176 -0.5274 -0.2178
 3792SOL     OW11916   4.790   3.490   2.589 -0.3287 -0.3952 -0.0236
 3792SOL    HW111917   4.884   3.476   2.584 -0.2955 -1.2118  2.0124
 3792SOL    HW211918   4.752   3.418   2.539  0.0974 -1.4526  1.1346
 3793SOL     OW11919   3.492   6.055   5.796  0.0406  0.0186 -0.5369
 3793SOL    HW111920   3.468   6.111   5.870  0.3139 -0.1643 -0.3064
 3793SOL    HW211921   3.472   5.966   5.827  2.1218 -0.2765  0.1381
 3794SOL     OW11922   5.341   3.785   4.098  0.0085  0.0034  0.5853
 3794SOL    HW111923   5.280   3.810   4.168 -1.1611  1.2371 -0.8148
 3794SOL    HW211924   5.412   3.848   4.106  1.4364 -1.7000  2.4960
 3795SOL     OW11925   7.564   0.804   1.459  0.0914  0.1351  0.5384
 3795SOL    HW111926   7.548   0.745   1.386  1.1262  0.4552  0.0381
 3795SOL    HW211927   7.581   0.889   1.418  1.7064  0.1064  1.0705
 3796SOL     OW11928   5.548   1.224   2.973 -0.7223 -0.0083  0.2109
 3796SOL    HW111929   5.532   1.274   2.893 -1.7890 -0.8668 -0.1424
 3796SOL    HW211930   5.569   1.136   2.943  1.3990  0.2500  0.8203
 3797SOL     OW11931   1.470   6.417   2.488 -0.6148  0.3225  0.3985
 3797SOL    HW111932   1.389   6.394   2.443  0.4211 -1.9048 -0.4795
 3797SOL    HW211933   1.510   6.484   2.432 -0.9310 -0.0075 -0.2375
 3798SOL     OW11934   3.849   4.785   4.096 -0.4415 -0.2800  0.1363
 3798SOL    HW111935   3.918   4.809   4.157 -1.0644  0.0345  0.7352
 3798SOL    HW211936   3.794   4.863   4.090 -1.8656 -1.1261  1.2323
 3799SOL     OW11937   4.494   2.154   3.926  0.1659 -0.0277  0.1632
 3799SOL    HW111938   4.487   2.059   3.913  0.6918 -0.0563  0.0833
 3799SOL    HW211939   4.404   2.186   3.915  0.0768 -0.4453 -0.3764
 3800SOL     OW11940   5.575   1.598   5.123  0.3500 -0.0946 -0.4751
 3800SOL    HW111941   5.582   1.642   5.038  1.4221 -0.2077 -0.4579
 3800SOL    HW211942   5.557   1.669   5.185 -0.4635 -0.0140 -0.7898
 3801SOL     OW11943   5.479   0.298   3.037 -0.0812 -0.2041 -0.1257
 3801SOL    HW111944   5.570   0.310   3.064  0.1761 -1.2864 -0.4298
 3801SOL    HW211945   5.465   0.203   3.041 -0.9711 -0.1239 -0.7918
 3802SOL     OW11946   3.040   6.672   4.124  0.2098  0.1484  0.2103
 3802SOL    HW111947   3.106   6.607   4.150  0.9702  1.0894  0.7227
 3802SOL    HW211948   3.020   6.651   4.033 -0.0416 -1.1941  0.5526
 3803SOL     OW11949   4.620   3.661   7.203 -0.1154  0.5846 -0.3224
 3803SOL    HW111950   4.709   3.640   7.176 -0.1276  0.3035 -0.1463
 3803SOL    HW211951   4.630   3.706   7.287 -0.1811 -0.1553  0.0914
 3804SOL     OW11952   1.227   3.970   1.745 -0.3168  0.4933 -0.7603
 3804SOL    HW111953   1.278   4.049   1.765 -1.4098  0.8985  0.5971
 3804SOL    HW211954   1.287   3.915   1.695  2.6595 -0.4867  3.3350
 3805SOL     OW11955   1.128   4.644   1.032 -0.1154  0.2997  0.0647
 3805SOL    HW111956   1.052   4.608   1.078 -0.2842  1.5145  0.7539
 3805SOL    HW211957   1.163   4.711   1.091  1.7026 -0.4576 -0.0884
 3806SOL     OW11958   4.836   1.045   5.505  0.3571  0.5564  0.2554
 3806SOL    HW111959   4.840   1.137   5.530 -0.8141  0.5136  0.6902
 3806SOL    HW211960   4.756   1.038   5.452 -1.9877 -0.8990  3.6086
 3807SOL     OW11961   6.765   4.323   6.658 -0.1367 -0.0220  0.4464
 3807SOL    HW111962   6.778   4.283   6.743  0.8809 -1.6242 -0.4113
 3807SOL    HW211963   6.832   4.391   6.653 -1.1397  1.0915  1.4608
 3808SOL     OW11964   3.516   4.667   5.078 -0.0252 -0.4250  0.3997
 3808SOL    HW111965   3.466   4.602   5.128  1.0893 -0.4102  1.5803
 3808SOL    HW211966   3.607   4.636   5.082  0.5084  1.1156  0.8540
 3809SOL     OW11967   0.085   6.141   5.787  0.5370 -0.2181 -0.0632
 3809SOL    HW111968   0.067   6.052   5.817  0.3446  0.3586  1.6289
 3809SOL    HW211969   0.180   6.150   5.793  0.4802 -0.0319  0.6304
 3810SOL     OW11970   6.602   5.666   7.214  0.1982  0.1450 -0.0269
 3810SOL    HW111971   6.654   5.726   7.267 -0.2776  0.1135  0.4899
 3810SOL    HW211972   6.523   5.650   7.267 -0.4181  0.3343 -0.8616
 3811SOL     OW11973   5.823   3.199   3.549 -0.9079  0.1485 -0.0593
 3811SOL    HW111974   5.821   3.294   3.566 -0.8688 -0.0089  0.9010
 3811SOL    HW211975   5.782   3.161   3.627 -1.3796 -0.6036 -0.6674
 3812SOL     OW11976   3.495   7.413   3.730  0.1849 -0.1035  0.4223
 3812SOL    HW111977   3.583   7.446   3.711 -0.7542  2.5415  0.2633
 3812SOL    HW211978   3.496   7.394   3.824  1.3522 -1.6829  0.1317
 3813SOL     OW11979   0.901   1.298   1.282 -0.0547 -0.0375  0.1339
 3813SOL    HW111980   0.907   1.213   1.239  2.0986 -0.7462  1.6821
 3813SOL    HW211981   0.946   1.287   1.365 -1.3841  2.1278  1.2547
 3814SOL     OW11982   3.312   4.250   6.521 -0.1981 -0.4856  0.1757
 3814SOL    HW111983   3.369   4.196   6.576  0.6024  0.0595 -0.1012
 3814SOL    HW211984   3.352   4.338   6.524 -1.3535  0.0502  0.4489
 3815SOL     OW11985   4.907   1.999   7.035 -0.0022 -0.2252 -0.2739
 3815SOL    HW111986   4.996   1.971   7.055 -0.9217 -2.3055  1.2455
 3815SOL    HW211987   4.907   2.093   7.051  2.4072  0.2605 -2.3942
 3816SOL     OW11988   4.994   6.550   0.917  0.2745 -0.4538 -0.1255
 3816SOL    HW111989   5.072   6.497   0.936  1.2401 -0.0105 -2.4386
 3816SOL    HW211990   4.942   6.494   0.858  0.8110  0.7006 -1.7658
 3817SOL     OW11991   7.264   4.138   0.327  0.0499 -0.1377  0.4000
 3817SOL    HW111992   7.331   4.135   0.395 -0.6459 -3.3039  1.1089
 3817SOL    HW211993   7.309   4.113   0.247  0.2711  0.6744  0.2610
 3818SOL     OW11994   2.808   7.201   3.557  0.8747 -0.0079 -0.0211
 3818SOL    HW111995   2.889   7.188   3.607  2.3286  2.4611 -1.5434
 3818SOL    HW211996   2.749   7.243   3.619  1.5790  0.2828  0.4755
 3819SOL     OW11997   6.981   1.062   0.273 -0.5445  0.1418 -0.1475
 3819SOL    HW111998   6.945   1.007   0.203  0.6230 -1.9937  0.8308
 3819SOL    HW211999   6.938   1.147   0.261 -1.6722 -0.6569 -2.3651
 3820SOL     OW12000   0.650   3.193   1.713 -0.5373  0.2980  0.3127
 3820SOL    HW112001   0.742   3.205   1.689 -0.1213 -0.6635  1.3211
 3820SOL    HW212002   0.603   3.256   1.659  0.6478  0.3746 -0.6792
 3821SOL     OW12003   6.977   3.530   6.538 -0.2000 -0.2073  0.0383
 3821SOL    HW112004   6.968   3.553   6.446  1.5307  0.4648  0.0021
 3821SOL    HW212005   7.051   3.469   6.540 -0.1132 -0.0892  0.9985
 3822SOL     OW12006   3.030   7.321   2.097 -0.4439 -0.8137 -0.3507
 3822SOL    HW112007   3.126   7.320   2.105 -0.5641 -1.1598  1.8558
 3822SOL    HW212008   3.009   7.242   2.048  0.4022 -0.6614 -0.9781
 3823SOL     OW12009   2.993   6.627   5.973 -0.3258  0.2371 -0.2372
 3823SOL    HW112010   2.970   6.534   5.978 -0.9652  0.3534 -0.8855
 3823SOL    HW212011   2.916   6.669   5.935 -0.4885  1.2122  1.1179
 3824SOL     OW12012   6.211   4.710   5.213 -0.2661 -0.1406 -0.1947
 3824SOL    HW112013   6.117   4.702   5.232  0.1239 -0.9739  1.5443
 3824SOL    HW212014   6.223   4.658   5.133 -1.1238 -0.8672  0.1275
 3825SOL     OW12015   6.431   2.413   5.264 -0.0697  0.3175  0.2732
 3825SOL    HW112016   6.437   2.447   5.353 -0.9196 -1.6484  1.1339
 3825SOL    HW212017   6.348   2.449   5.230 -0.5722 -0.2271  0.8917
 3826SOL     OW12018   1.050   1.712   7.535  0.5824 -0.0761  0.5074
 3826SOL    HW112019   1.079   1.638   7.480 -0.2727 -0.3722  0.4409
 3826SOL    HW212020   1.070   1.685   7.624 -0.2056 -0.6273  0.5278
 3827SOL     OW12021   7.500   1.359   0.449  0.2019  0.5461 -0.2217
 3827SOL    HW112022   7.539   1.273   0.466  0.2144  0.2902 -1.4786
 3827SOL    HW212023   7.422   1.340   0.397 -0.4326  1.2216  0.4570
 3828SOL     OW12024   2.610   7.329   0.735 -0.1013  0.2738  0.0572
 3828SOL    HW112025   2.686   7.271   0.729 -1.1763 -1.0985 -0.7997
 3828SOL    HW212026   2.535   7.270   0.745 -1.0246  1.6106  1.4778
 3829SOL     OW12027   3.063   1.734   2.129 -0.1740  1.1188  0.2151
 3829SOL    HW112028   2.984   1.722   2.077 -0.7034  2.1344  0.7503
 3829SOL    HW212029   3.032   1.737   2.220  0.6551  0.0406  0.5611
 3830SOL     OW12030   5.927   6.385   2.352  0.1744 -0.4849  0.2300
 3830SOL    HW112031   6.020   6.383   2.374  0.0149 -0.9575  0.8781
 3830SOL    HW212032   5.921   6.447   2.280  0.7744  0.7869  1.2339
 3831SOL     OW12033   3.927   6.905   5.677  0.2765  0.1669 -0.6095
 3831SOL    HW112034   3.836   6.929   5.693  0.3401 -0.6544  1.1675
 3831SOL    HW212035   3.927   6.809   5.676  0.9321  0.1622 -1.8784
 3832SOL     OW12036   4.510   7.394   4.000  0.5772  0.7303  0.4837
 3832SOL    HW112037   4.445   7.358   4.059 -1.3681  2.5889 -0.3713
 3832SOL    HW212038   4.522   7.327   3.933  1.3317 -0.5753  1.8798
 3833SOL     OW12039   6.428   3.045   0.812  0.6478 -0.0799  0.2505
 3833SOL    HW112040   6.387   2.999   0.738  1.6769 -0.8275  0.1226
 3833SOL    HW212041   6.481   2.978   0.855  1.0887  0.6732  0.8937
 3834SOL     OW12042   5.030   5.414   6.842  0.5688  0.0692 -0.1733
 3834SOL    HW112043   5.064   5.356   6.910 -1.3423  0.7940  1.5086
 3834SOL    HW212044   5.071   5.384   6.761  0.9384 -2.4997  0.8881
 3835SOL     OW12045   1.936   2.439   6.451  0.2303  0.0465 -0.2060
 3835SOL    HW112046   2.014   2.422   6.397  0.7725 -0.0234  0.5899
 3835SOL    HW212047   1.952   2.392   6.533 -0.9549 -0.5361 -0.2741
 3836SOL     OW12048   4.562   3.409   3.817 -0.2969  0.4207  0.1509
 3836SOL    HW112049   4.593   3.324   3.849 -0.9777  0.2780  0.4467
 3836SOL    HW212050   4.486   3.429   3.870  0.3223  1.6164  0.6238
 3837SOL     OW12051   2.722   3.496   4.506  0.2020  0.4853 -0.1114
 3837SOL    HW112052   2.814   3.522   4.505 -0.0965  1.5569 -0.6876
 3837SOL    HW212053   2.710   3.456   4.592  1.0592  0.8656  0.2019
 3838SOL     OW12054   6.397   2.248   1.452  0.2736  0.4544 -0.2095
 3838SOL    HW112055   6.474   2.238   1.396  0.5230 -0.3783  0.2558
 3838SOL    HW212056   6.431   2.282   1.535  0.2095 -0.3316  0.1463
 3839SOL     OW12057   2.288   2.120   5.567 -0.1157  0.6954 -0.7303
 3839SOL    HW112058   2.217   2.077   5.520  0.1604 -0.4294 -0.1374
 3839SOL    HW212059   2.362   2.119   5.506  0.2443 -0.7685 -0.3022
 3840SOL     OW12060   2.948   4.100   1.911 -0.0754  0.8813 -0.0693
 3840SOL    HW112061   3.012   4.105   1.982 -0.7314 -0.7289  0.6794
 3840SOL    HW212062   2.991   4.046   1.844 -1.2306 -1.7304  1.1754
 3841SOL     OW12063   1.863   2.524   3.729  0.1902 -0.2968  0.4488
 3841SOL    HW112064   1.899   2.435   3.736 -0.6884 -0.7530 -0.5703
 3841SOL    HW212065   1.940   2.580   3.717  0.6451 -1.1570 -0.8869
 3842SOL     OW12066   2.097   3.591   0.689 -0.1060 -0.4287 -0.4300
 3842SOL    HW112067   2.008   3.573   0.719 -0.6481  0.0649 -1.6636
 3842SOL    HW212068   2.143   3.507   0.699 -0.8202 -0.7994 -0.1664
 3843SOL     OW12069   0.893   0.800   3.325  0.1755 -0.1130  0.0487
 3843SOL    HW112070   0.895   0.720   3.377 -0.4579  0.8740  1.6798
 3843SOL    HW212071   0.984   0.826   3.316  0.5264 -1.7567 -1.7857
 3844SOL     OW12072   6.923   4.893   4.274  0.1793  0.3176 -0.0496
 3844SOL    HW112073   6.887   4.936   4.196 -0.8456  0.4987  0.5049
 3844SOL    HW212074   6.988   4.954   4.307 -0.2884  0.8228 -0.0491
 3845SOL     OW12075   5.895   0.049   6.871  0.3339  0.0104 -0.7309
 3845SOL    HW112076   5.934   0.098   6.798  0.9691  0.2494 -0.2430
 3845SOL    HW212077   5.835  -0.013   6.829  2.0798 -1.1639 -1.6191
 3846SOL     OW12078   5.909   5.123   3.862 -0.3053  0.0843  0.4075
 3846SOL    HW112079   5.876   5.037   3.886 -1.1354 -0.7484 -3.1785
 3846SOL    HW212080   5.997   5.107   3.828  0.7516  1.1722  2.4381
 3847SOL     OW12081   0.677   1.490   4.846 -0.5457  0.1226 -0.3279
 3847SOL    HW112082   0.622   1.546   4.791  0.2466  1.3123  0.0586
 3847SOL    HW212083   0.615   1.444   4.903 -1.2491  0.1601 -1.0573
 3848SOL     OW12084   1.843   6.691   6.459  0.2310  0.0123 -0.3194
 3848SOL    HW112085   1.820   6.610   6.504 -0.9289 -0.1341 -1.1274
 3848SOL    HW212086   1.924   6.720   6.501  0.1400 -1.0502  0.6302
 3849SOL     OW12087   0.060   6.678   1.302 -0.5934  0.5428 -0.4210
 3849SOL    HW112088   0.066   6.592   1.259  0.9013  0.1013  0.5553
 3849SOL    HW212089   0.143   6.720   1.281 -1.3696  1.8282 -0.9949
 3850SOL     OW12090   1.496   5.849   3.791 -0.0551  0.2224  0.1199
 3850SOL    HW112091   1.429   5.885   3.850 -0.6116 -1.1668  0.3811
 3850SOL    HW212092   1.447   5.826   3.711 -0.5520 -3.3965  1.3058
 3851SOL     OW12093   2.316   2.373   1.028 -0.3178 -0.0834  0.5344
 3851SOL    HW112094   2.225   2.348   1.009  0.3928 -1.2481 -1.7009
 3851SOL    HW212095   2.353   2.396   0.943  1.0947  1.9157  1.6000
 3852SOL     OW12096   6.616   2.286   3.646 -0.0493  0.7995 -0.0170
 3852SOL    HW112097   6.573   2.200   3.643 -1.7200  1.5662  0.8325
 3852SOL    HW212098   6.551   2.346   3.611  0.4148  1.9859  1.0978
 3853SOL     OW12099   0.585   0.851   3.808  0.1581  0.6262  0.1285
 3853SOL    HW112100   0.645   0.783   3.778  1.2970  1.5262  0.2971
 3853SOL    HW212101   0.554   0.819   3.893  1.1117  0.5501  0.4679
 3854SOL     OW12102   6.441   4.232   7.507  0.0751 -0.1168  0.2964
 3854SOL    HW112103   6.417   4.317   7.470  1.1025  0.9909  2.0642
 3854SOL    HW212104   6.392   4.227   7.589  1.1855 -0.5055  0.9622
 3855SOL     OW12105   4.391   4.869   1.501  0.5147  0.2029 -0.4162
 3855SOL    HW112106   4.368   4.898   1.590 -0.3716  0.7868 -0.8275
 3855SOL    HW212107   4.473   4.821   1.513 -1.0266 -2.2788  1.1896
 3856SOL     OW12108   6.194   2.874   5.995 -0.0687 -0.5475  0.4608
 3856SOL    HW112109   6.165   2.892   6.084  0.1216 -2.7117  1.0367
 3856SOL    HW212110   6.290   2.879   5.999 -0.1050  0.8535 -0.0171
 3857SOL     OW12111   1.799   5.041   4.358  0.4118  0.4450  0.1914
 3857SOL    HW112112   1.785   5.073   4.269 -1.2752  3.8095  1.4635
 3857SOL    HW212113   1.892   5.056   4.375  0.1279  2.8144 -0.0524
 3858SOL     OW12114   0.988   0.485   4.956  0.1813 -0.2697  0.0822
 3858SOL    HW112115   1.018   0.399   4.984 -0.4184 -1.7976 -3.4230
 3858SOL    HW212116   1.064   0.526   4.916 -0.2104 -0.4412 -0.8710
 3859SOL     OW12117   5.095   3.810   6.713 -0.3368 -0.2267 -0.6707
 3859SOL    HW112118   5.061   3.880   6.770 -3.4320 -2.2770  0.2706
 3859SOL    HW212119   5.036   3.810   6.638  0.8092 -0.6292 -1.5916
 3860SOL     OW12120   5.798   0.325   5.205  0.1496  0.5734  0.2159
 3860SOL    HW112121   5.868   0.294   5.148  0.4080  0.0959  0.7761
 3860SOL    HW212122   5.801   0.420   5.198 -0.2277  0.5116 -1.0304
 3861SOL     OW12123   1.246   0.960   4.430 -0.2621  0.0538  0.4144
 3861SOL    HW112124   1.247   0.868   4.455  0.6789  0.5798  2.5291
 3861SOL    HW212125   1.286   1.005   4.504 -0.1803  2.1145 -0.8130
 3862SOL     OW12126   3.225   5.397   7.134 -0.0359 -0.3673 -0.1379
 3862SOL    HW112127   3.283   5.422   7.062  0.4346  0.3201  0.4735
 3862SOL    HW212128   3.224   5.301   7.131 -1.4750 -0.3729 -2.1979
 3863SOL     OW12129   3.219   5.901   4.295 -0.1644 -0.0220  0.2976
 3863SOL    HW112130   3.234   5.995   4.302 -1.3089  0.0855  2.2291
 3863SOL    HW212131   3.123   5.892   4.294 -0.0715 -1.1687  0.3305
 3864SOL     OW12132   1.149   5.249   4.910  0.4659 -0.1041  0.1008
 3864SOL    HW112133   1.228   5.198   4.932  1.5520  1.3296 -0.3346
 3864SOL    HW212134   1.097   5.248   4.990  1.5284 -0.0063  0.8159
 3865SOL     OW12135   7.420   5.640   0.971  0.5016  0.1501 -0.8842
 3865SOL    HW112136   7.368   5.720   0.969  0.1302  0.0234  1.5048
 3865SOL    HW212137   7.404   5.600   0.885 -3.0728  0.3087 -0.4543
 3866SOL     OW12138   6.108   2.274   6.502 -0.4498  0.5410 -0.0462
 3866SOL    HW112139   6.078   2.239   6.586  2.4021 -0.0929  0.8125
 3866SOL    HW212140   6.036   2.328   6.471 -2.3570 -0.7554  1.8566
 3867SOL     OW12141   0.090   1.129   4.395  0.3341  0.3474  0.7440
 3867SOL    HW112142   0.076   1.196   4.463 -0.5534  0.7688  0.1629
 3867SOL    HW212143   0.003   1.110   4.361  0.6173 -0.8707  0.6553
 3868SOL     OW12144   4.416   7.083   5.389  0.4784 -0.8027  0.3018
 3868SOL    HW112145   4.477   7.042   5.451 -0.4101 -0.8211  1.1899
 3868SOL    HW212146   4.472   7.114   5.318  1.5173 -0.8501  1.0691
 3869SOL     OW12147   6.710   0.140   6.003  0.0022 -0.2647  0.2864
 3869SOL    HW112148   6.791   0.088   6.001 -0.9406 -1.8144 -1.6675
 3869SOL    HW212149   6.681   0.135   6.094  1.8301 -0.0629  0.9297
 3870SOL     OW12150   4.744   1.326   0.097  0.5923 -0.0605  0.1783
 3870SOL    HW112151   4.773   1.252   0.044  0.3233  0.8301 -1.2890
 3870SOL    HW212152   4.669   1.293   0.146  0.6411 -0.8385 -0.2560
 3871SOL     OW12153   4.889   1.899   6.416  0.4620 -0.3766 -0.6412
 3871SOL    HW112154   4.928   1.831   6.470  1.4361 -0.2112 -1.1259
 3871SOL    HW212155   4.904   1.980   6.465 -0.9810 -0.5160  0.0934
 3872SOL     OW12156   0.057   6.265   2.447  0.2721 -0.5206  0.0801
 3872SOL    HW112157  -0.011   6.289   2.384  0.8758  0.3427 -0.2762
 3872SOL    HW212158   0.085   6.349   2.485  0.2510 -0.9816  1.1631
 3873SOL     OW12159   6.382   1.836   4.828  0.2846  0.1778  1.2168
 3873SOL    HW112160   6.341   1.759   4.789 -0.4481  0.8111  0.7029
 3873SOL    HW212161   6.470   1.838   4.792 -0.1295  0.3197  0.1946
 3874SOL     OW12162   5.207   3.642   7.070 -0.1438  0.1393  0.0022
 3874SOL    HW112163   5.231   3.706   7.003  0.1473 -0.4565 -0.4692
 3874SOL    HW212164   5.245   3.560   7.040  0.5444 -0.0060  1.2264
 3875SOL     OW12165   0.885   0.010   4.234 -0.4103 -0.4827 -0.1220
 3875SOL    HW112166   0.907  -0.039   4.313 -0.8831 -0.7504 -0.1488
 3875SOL    HW212167   0.931  -0.035   4.164  0.8397  0.3584  0.1187
 3876SOL     OW12168   5.810   0.456   5.495 -0.1782  0.5024  0.1556
 3876SOL    HW112169   5.724   0.467   5.536  0.2217  0.8936  0.9169
 3876SOL    HW212170   5.792   0.457   5.401 -0.9771  0.7904  0.3022
 3877SOL     OW12171   1.825   1.829   3.657  0.1192 -0.2150 -0.3514
 3877SOL    HW112172   1.836   1.734   3.651 -0.7353 -0.4400  1.1865
 3877SOL    HW212173   1.914   1.863   3.655  0.5374 -1.1682  0.6666
 3878SOL     OW12174   3.458   4.558   1.409 -0.8463 -0.1114 -0.6445
 3878SOL    HW112175   3.429   4.644   1.441  0.6516  0.7350 -1.4584
 3878SOL    HW212176   3.542   4.543   1.452 -1.4430 -1.5677  0.0893
 3879SOL     OW12177   3.399   1.458   3.406  0.0494 -0.1031 -0.2270
 3879SOL    HW112178   3.384   1.551   3.389  0.5868 -0.2788 -1.8722
 3879SOL    HW212179   3.485   1.455   3.449 -0.6975  0.2600  1.3369
 3880SOL     OW12180   5.205   5.871   7.182 -0.0142 -0.7949  0.4651
 3880SOL    HW112181   5.177   5.955   7.147  0.7651 -0.9106 -0.4745
 3880SOL    HW212182   5.126   5.817   7.183 -0.1253 -0.6805 -0.8254
 3881SOL     OW12183   0.322   2.003   3.498 -0.5425  0.2001 -0.1266
 3881SOL    HW112184   0.342   2.082   3.548 -1.1364  0.2275  0.0777
 3881SOL    HW212185   0.405   1.977   3.458  0.0192 -0.0087  1.1321
 3882SOL     OW12186   6.439   5.516   2.791  0.2403 -0.2508  0.3515
 3882SOL    HW112187   6.365   5.562   2.751  0.2801  0.3009  0.9018
 3882SOL    HW212188   6.431   5.534   2.885  1.2522  0.0833  0.3793
 3883SOL     OW12189   7.161   2.275   0.048  0.2641  0.1791 -0.1287
 3883SOL    HW112190   7.136   2.359   0.086  0.0130  0.2839 -0.5251
 3883SOL    HW212191   7.253   2.264   0.073 -0.0150  0.0389  0.8805
 3884SOL     OW12192   4.818   0.800   4.287 -0.5300  0.6296 -0.4780
 3884SOL    HW112193   4.876   0.744   4.236  0.5127  0.3465  0.9574
 3884SOL    HW212194   4.810   0.756   4.372 -1.0159  1.8208  0.1298
 3885SOL     OW12195   0.281   6.968   0.490 -0.3121 -0.6423  0.4757
 3885SOL    HW112196   0.236   7.050   0.473  0.3961 -0.2881  0.2696
 3885SOL    HW212197   0.227   6.901   0.447 -2.0574 -0.5936  2.4439
 3886SOL     OW12198   6.009   1.201   2.113  0.2427 -0.2193 -0.1881
 3886SOL    HW112199   5.966   1.223   2.031 -1.7241  0.1928  0.8967
 3886SOL    HW212200   5.991   1.275   2.171 -0.2083 -1.3879  1.2429
 3887SOL     OW12201   2.465   4.177   2.808  0.0453  0.1368  0.2455
 3887SOL    HW112202   2.517   4.142   2.881  1.4868 -1.1945 -1.3409
 3887SOL    HW212203   2.503   4.264   2.792  0.1830  0.1516  0.6230
 3888SOL     OW12204   4.785   2.174   4.668 -0.3852 -0.4145  0.0179
 3888SOL    HW112205   4.818   2.230   4.737 -0.7725 -0.3001  0.1130
 3888SOL    HW212206   4.760   2.234   4.598 -0.9876 -0.4413  0.1981
 3889SOL     OW12207   2.470   0.309   3.714  0.5307  0.1230 -0.1520
 3889SOL    HW112208   2.547   0.337   3.763 -0.1253  1.1111  0.3518
 3889SOL    HW212209   2.503   0.292   3.625  1.4360 -0.0969  0.2126
 3890SOL     OW12210   0.028   4.143   6.813  0.1832 -0.3865  0.6782
 3890SOL    HW112211   0.049   4.231   6.845 -1.4120 -0.4297  1.9907
 3890SOL    HW212212  -0.060   4.151   6.777  0.6220 -1.1282 -0.6222
 3891SOL     OW12213   0.472   0.164   5.066 -0.0888 -0.4429 -0.1926
 3891SOL    HW112214   0.466   0.206   4.980  2.3235  2.0513  0.6868
 3891SOL    HW212215   0.452   0.235   5.128  1.2614 -1.3499  1.3402
 3892SOL     OW12216   6.742   3.265   0.362 -0.1284 -0.3270 -0.3637
 3892SOL    HW112217   6.734   3.210   0.440  1.0285 -0.1643 -0.1232
 3892SOL    HW212218   6.796   3.214   0.302  0.6019  0.3689 -0.3023
 3893SOL     OW12219   3.629   0.041   2.258  0.2705  0.2806 -0.1355
 3893SOL    HW112220   3.541   0.046   2.297  0.3792 -1.4083  0.4024
 3893SOL    HW212221   3.677   0.113   2.299 -0.2953 -0.0092  1.0851
 3894SOL     OW12222   0.058   6.082   2.685  0.3720 -0.7238 -0.9263
 3894SOL    HW112223   0.025   6.142   2.618 -0.1333  0.6852  0.5070
 3894SOL    HW212224   0.153   6.082   2.672  0.4156  0.6147 -0.8222
 3895SOL     OW12225   7.019   4.097   1.350  0.1275  0.5640 -0.0508
 3895SOL    HW112226   7.076   4.171   1.330 -0.7830  1.2287 -0.2802
 3895SOL    HW212227   6.980   4.119   1.435  0.2948  0.0602  0.1621
 3896SOL     OW12228   7.614   3.316   3.479 -0.0315  0.2558  0.5238
 3896SOL    HW112229   7.587   3.252   3.545 -0.8801 -0.3409 -0.3677
 3896SOL    HW212230   7.626   3.265   3.399  0.7755  0.9968  0.1520
 3897SOL     OW12231   3.787   5.268   6.270  0.4272 -0.3813  0.3471
 3897SOL    HW112232   3.728   5.237   6.201  0.5971  2.5352 -1.2613
 3897SOL    HW212233   3.872   5.232   6.246 -0.2306 -3.0817  1.6584
 3898SOL     OW12234   1.906   2.540   5.281 -0.4468  0.2426  0.8193
 3898SOL    HW112235   1.966   2.480   5.238 -0.6012 -0.2254  1.2382
 3898SOL    HW212236   1.958   2.580   5.351 -0.0023  1.5105 -0.2001
 3899SOL     OW12237   0.414   3.956   3.201  0.7664 -0.5820  0.0400
 3899SOL    HW112238   0.393   3.864   3.218  0.5977 -0.5191  0.1771
 3899SOL    HW212239   0.502   3.968   3.237  0.4296 -0.4602  0.8450
 3900SOL     OW12240   4.064   6.965   3.816  0.5290  0.4729 -0.6083
 3900SOL    HW112241   4.155   6.940   3.828  0.4958  1.2035  1.7303
 3900SOL    HW212242   4.015   6.898   3.863 -0.1775  0.0407 -1.9123
 3901SOL     OW12243   2.787   5.490   3.525  0.1343  0.0368 -0.3037
 3901SOL    HW112244   2.856   5.530   3.473  0.0911 -0.2974 -0.6250
 3901SOL    HW212245   2.833   5.444   3.595  0.2744 -0.6080 -0.8084
 3902SOL     OW12246   4.144   2.219   7.314  0.2011 -0.2305 -0.4888
 3902SOL    HW112247   4.165   2.194   7.404  1.5615 -0.5056 -0.8530
 3902SOL    HW212248   4.142   2.315   7.316 -0.1616 -0.2420 -0.0953
 3903SOL     OW12249   7.419   3.703   0.977  0.5840 -0.1936  0.0171
 3903SOL    HW112250   7.376   3.768   0.921 -3.2925 -0.3372  2.4470
 3903SOL    HW212251   7.384   3.619   0.947  1.1522 -0.6002  0.4812
 3904SOL     OW12252   3.361   3.591   2.705  0.1148 -0.2310  0.4276
 3904SOL    HW112253   3.437   3.567   2.758  0.3580  0.5005  0.4202
 3904SOL    HW212254   3.314   3.655   2.758 -0.2397 -0.3279  0.2288
 3905SOL     OW12255   0.262   5.413   2.810  0.1744  0.0116  0.0862
 3905SOL    HW112256   0.324   5.434   2.740 -2.0883  0.4623 -1.9342
 3905SOL    HW212257   0.283   5.323   2.835  1.2017 -0.0742 -1.0053
 3906SOL     OW12258   5.201   5.346   0.575  0.2648  0.1501  0.2262
 3906SOL    HW112259   5.241   5.273   0.623  3.0518  0.4544 -1.4267
 3906SOL    HW212260   5.128   5.306   0.528  1.1319 -1.4188  0.1090
 3907SOL     OW12261   5.495   4.290   0.807  0.0990 -0.3562 -0.3126
 3907SOL    HW112262   5.583   4.294   0.844  0.7412 -1.4882 -1.6555
 3907SOL    HW212263   5.438   4.271   0.883  0.5655  3.0118  1.0697
 3908SOL     OW12264   0.116   6.085   4.468 -0.3130 -0.1487 -0.7269
 3908SOL    HW112265   0.201   6.071   4.425 -0.6117 -0.8872 -1.1009
 3908SOL    HW212266   0.113   6.179   4.486  0.1400  0.0582 -1.6731
 3909SOL     OW12267   5.382   6.799   6.493  0.0792 -0.3742  0.0963
 3909SOL    HW112268   5.437   6.725   6.519  0.1246 -0.4107 -0.1066
 3909SOL    HW212269   5.293   6.763   6.492  0.4576 -1.6738 -4.3220
 3910SOL     OW12270   4.069   0.126   3.831  0.0688  0.2203  0.3764
 3910SOL    HW112271   4.102   0.198   3.778  2.1417 -0.3471  0.7968
 3910SOL    HW212272   4.097   0.047   3.785 -2.0376 -0.3763  0.0018
 3911SOL     OW12273   4.358   7.454   6.031  0.0393  0.3888 -0.1705
 3911SOL    HW112274   4.421   7.515   6.069 -0.9237  0.5639  1.2110
 3911SOL    HW212275   4.409   7.377   6.008  0.8065  0.6482  0.6325
 3912SOL     OW12276   2.280   0.689   7.192 -0.7350  0.4598  0.4481
 3912SOL    HW112277   2.250   0.750   7.260  0.1643  0.6830  0.6625
 3912SOL    HW212278   2.328   0.744   7.130 -1.5992  0.2689 -0.4272
 3913SOL     OW12279   2.822   6.960   2.694  0.2088  0.0857 -0.0753
 3913SOL    HW112280   2.863   7.045   2.705 -0.2564  0.1996  0.8960
 3913SOL    HW212281   2.756   6.956   2.763  0.3497 -1.1378  0.0172
 3914SOL     OW12282   5.792   1.312   3.704 -0.0542  0.0476  0.6341
 3914SOL    HW112283   5.834   1.281   3.785 -0.8296 -0.0994  0.9862
 3914SOL    HW212284   5.865   1.346   3.652  0.3360  1.1347  1.8328
 3915SOL     OW12285   6.918   6.589   1.817  0.1957 -0.3169 -0.4367
 3915SOL    HW112286   6.844   6.543   1.856 -0.1509  0.5431 -0.0424
 3915SOL    HW212287   6.952   6.643   1.889  0.4830  0.1596 -0.9218
 3916SOL     OW12288   2.417   1.922   3.110  0.5816  0.4129 -0.0497
 3916SOL    HW112289   2.389   1.922   3.018 -2.1629 -0.6705  0.6876
 3916SOL    HW212290   2.360   1.858   3.152  2.1167  0.5074  2.3459
 3917SOL     OW12291   6.220   0.412   2.559 -0.0724  0.0632 -0.6477
 3917SOL    HW112292   6.297   0.363   2.529 -0.6249 -1.9035  0.8840
 3917SOL    HW212293   6.146   0.354   2.538 -0.8023  0.4433  0.7802
 3918SOL     OW12294   4.323   1.904   2.990 -0.3570  0.0956 -0.2866
 3918SOL    HW112295   4.261   1.837   3.017 -0.0072 -0.3694 -0.6304
 3918SOL    HW212296   4.395   1.856   2.950  0.9227  0.4962  1.4163
 3919SOL     OW12297   1.069   4.665   5.599 -0.2803  0.1760  0.4377
 3919SOL    HW112298   1.141   4.689   5.657  0.5585 -0.6403 -0.2360
 3919SOL    HW212299   1.105   4.671   5.511 -1.1493  0.1322  0.0647
 3920SOL     OW12300   2.469   5.007   1.995  0.4424 -0.3000  0.2222
 3920SOL    HW112301   2.536   4.944   1.970  1.2123 -0.4301  2.3615
 3920SOL    HW212302   2.486   5.024   2.088 -3.0280 -1.0045  1.1181
 3921SOL     OW12303   1.237   3.652   2.307  0.1821 -0.3788 -0.1726
 3921SOL    HW112304   1.212   3.687   2.393 -1.9423  2.5776 -1.8041
 3921SOL    HW212305   1.323   3.691   2.289 -0.0202  0.1945  0.0549
 3922SOL     OW12306   4.287   3.521   5.105  0.1474 -0.6105 -0.1008
 3922SOL    HW112307   4.291   3.467   5.184  0.2010 -1.1273 -0.4478
 3922SOL    HW212308   4.362   3.492   5.053  0.2670 -0.0816 -0.2213
 3923SOL     OW12309   5.926   6.430   0.984  0.0829 -0.5225  0.1389
 3923SOL    HW112310   6.004   6.387   1.019  0.1029 -1.2406 -0.7498
 3923SOL    HW212311   5.856   6.366   0.995 -0.3629  0.0627  0.7907
 3924SOL     OW12312   1.481   6.157   2.088 -0.6563 -0.0004  0.3864
 3924SOL    HW112313   1.553   6.101   2.116  1.1294  2.4575  1.0168
 3924SOL    HW212314   1.414   6.144   2.155 -0.6248 -1.8671  0.1166
 3925SOL     OW12315   4.619   1.320   7.343  0.0206  0.1806 -0.1552
 3925SOL    HW112316   4.595   1.352   7.429 -0.6545 -1.0260  0.1325
 3925SOL    HW212317   4.705   1.358   7.325  0.0781  0.5872  0.9642
 3926SOL     OW12318   7.477   1.162   1.745 -0.9916  0.6952  0.4268
 3926SOL    HW112319   7.489   1.152   1.839  2.0002  2.1321  0.3156
 3926SOL    HW212320   7.468   1.072   1.712  0.6358 -0.0246  1.8251
 3927SOL     OW12321   7.217   0.917   0.240  0.3722 -0.2104 -0.8082
 3927SOL    HW112322   7.154   0.845   0.234  1.4211 -1.3171  0.6560
 3927SOL    HW212323   7.163   0.996   0.247 -0.9136 -1.2013  1.2524
 3928SOL     OW12324   0.776   0.917   4.280 -0.6175  0.6962  0.0427
 3928SOL    HW112325   0.745   0.942   4.367 -1.8610 -2.1206  0.4933
 3928SOL    HW212326   0.705   0.943   4.221 -0.4117  1.2506  0.0259
 3929SOL     OW12327   5.214   7.009   3.764 -0.1879  0.6005 -0.1027
 3929SOL    HW112328   5.236   6.980   3.852 -0.2424 -0.1590 -0.3367
 3929SOL    HW212329   5.199   7.103   3.773 -0.1594  0.5323  0.6899
 3930SOL     OW12330   7.261   0.419   4.259  0.3154  0.4880 -0.0332
 3930SOL    HW112331   7.231   0.331   4.234 -0.6697  0.4810  1.1021
 3930SOL    HW212332   7.345   0.429   4.214  0.6194 -1.1856  0.0955
 3931SOL     OW12333   5.493   1.765   5.536  0.0494  0.1954 -0.6027
 3931SOL    HW112334   5.514   1.745   5.445  0.8690 -0.9454 -0.1966
 3931SOL    HW212335   5.534   1.849   5.553  1.2412 -0.3110 -0.8723
 3932SOL     OW12336   1.107   3.131   2.105 -0.1003 -0.1003  0.7276
 3932SOL    HW112337   1.166   3.132   2.180 -1.2518 -1.7782  1.7119
 3932SOL    HW212338   1.148   3.070   2.043 -0.2571 -0.4388  0.9542
 3933SOL     OW12339   1.806   4.276   5.527 -0.1321 -0.1268  0.2820
 3933SOL    HW112340   1.840   4.344   5.584  1.1215  0.3314 -0.9590
 3933SOL    HW212341   1.866   4.202   5.539 -1.6182 -1.1530  1.8019
 3934SOL     OW12342   0.765   5.025   5.153 -0.5112  0.0610 -0.5742
 3934SOL    HW112343   0.828   5.009   5.083 -0.0076  0.7331 -0.2944
 3934SOL    HW212344   0.721   5.106   5.128 -0.4358  0.2236 -0.1986
 3935SOL     OW12345   6.237   3.478   4.733  0.5747  0.3035  0.5634
 3935SOL    HW112346   6.181   3.449   4.661  0.7127  0.9229  0.2036
 3935SOL    HW212347   6.231   3.407   4.798 -0.7073  0.4147  0.5835
 3936SOL     OW12348   6.038   4.536   0.293  0.1209  0.5450  0.4307
 3936SOL    HW112349   5.946   4.552   0.316  0.0923 -0.4231  1.0582
 3936SOL    HW212350   6.035   4.494   0.207 -0.0424  0.3824  0.5143
 3937SOL     OW12351   4.566   0.655   3.253  0.1123 -0.3493 -0.4328
 3937SOL    HW112352   4.473   0.658   3.231  0.1829 -0.4178 -0.7439
 3937SOL    HW212353   4.599   0.578   3.206  0.6283  0.4945 -1.4815
 3938SOL     OW12354   3.741   2.202   6.401 -0.2906 -0.7991 -0.3986
 3938SOL    HW112355   3.720   2.112   6.376 -1.6093 -0.9316  1.0537
 3938SOL    HW212356   3.667   2.254   6.372 -0.0628 -0.3618 -0.2139
 3939SOL     OW12357   2.727   6.606   6.532  0.2991 -0.9268  0.3608
 3939SOL    HW112358   2.771   6.678   6.577  0.2331 -0.8038  0.2290
 3939SOL    HW212359   2.795   6.538   6.523  0.3953 -0.8336  0.3769
 3940SOL     OW12360   2.161   1.516   5.636 -0.7673  0.0156  0.1240
 3940SOL    HW112361   2.168   1.611   5.630  1.1149 -0.1159 -0.1631
 3940SOL    HW212362   2.187   1.495   5.726  1.3011 -0.3911 -0.5297
 3941SOL     OW12363   6.523   7.046   2.100 -0.4312  0.0809  0.0537
 3941SOL    HW112364   6.453   7.059   2.036 -0.0997 -0.9537 -0.5351
 3941SOL    HW212365   6.580   7.122   2.089  0.5391 -0.8786 -2.0991
 3942SOL     OW12366   2.262   2.502   2.121 -0.3336  0.5200  0.2947
 3942SOL    HW112367   2.171   2.484   2.146  0.0331 -1.2698  0.4358
 3942SOL    HW212368   2.256   2.527   2.028 -0.9767  0.4391  0.3095
 3943SOL     OW12369   7.426   1.709   3.239 -0.1531  0.0121 -0.1794
 3943SOL    HW112370   7.509   1.747   3.210  0.3665 -0.6936  0.3702
 3943SOL    HW212371   7.424   1.724   3.334  0.2641 -1.7034  0.1212
 3944SOL     OW12372   3.121   1.202   1.210  0.2772 -0.1312 -0.0976
 3944SOL    HW112373   3.129   1.110   1.183 -0.4698 -0.4827  0.8242
 3944SOL    HW212374   3.044   1.235   1.163  0.9693  0.2491 -0.9912
 3945SOL     OW12375   7.372   0.243   6.866  0.2414  0.0104 -0.1366
 3945SOL    HW112376   7.283   0.270   6.842 -0.4896 -2.9689 -1.2479
 3945SOL    HW212377   7.360   0.187   6.943  1.2069 -0.1919 -0.1205
 3946SOL     OW12378   3.815   2.117   0.265 -0.2151  0.3185  0.0754
 3946SOL    HW112379   3.888   2.171   0.296  0.0831 -0.0195 -0.0429
 3946SOL    HW212380   3.784   2.162   0.186 -0.2089  0.5214  0.1856
 3947SOL     OW12381   2.915   1.934   1.428  0.0723  0.2968 -0.2495
 3947SOL    HW112382   2.917   2.027   1.405  1.0200  0.2957 -0.2152
 3947SOL    HW212383   2.995   1.898   1.389 -0.1598 -0.4555 -0.0503
 3948SOL     OW12384   0.427   3.193   5.678  0.3445  0.5596 -0.2665
 3948SOL    HW112385   0.472   3.163   5.599  1.1748 -0.7322  0.6506
 3948SOL    HW212386   0.496   3.229   5.733 -0.0440  0.3471  0.3691
 3949SOL     OW12387   2.191   2.851   7.025 -0.3011 -0.0125  0.1362
 3949SOL    HW112388   2.100   2.841   7.052 -1.0778 -1.9677 -2.8357
 3949SOL    HW212389   2.187   2.885   6.936  1.9092  0.0526  0.0001
 3950SOL     OW12390   5.996   5.282   4.178 -0.9075 -0.0835  0.5743
 3950SOL    HW112391   5.950   5.352   4.224 -0.4830 -0.0929  1.0202
 3950SOL    HW212392   5.962   5.201   4.218 -0.7518 -0.1018  0.6687
 3951SOL     OW12393   3.134   4.576   4.351  0.0296  0.0786  0.3986
 3951SOL    HW112394   3.170   4.654   4.393 -0.8615  0.8054 -0.1526
 3951SOL    HW212395   3.097   4.525   4.423  1.2986 -0.2329  0.8549
 3952SOL     OW12396   5.067   7.177   6.276 -0.6335 -0.3235 -0.6110
 3952SOL    HW112397   5.021   7.245   6.226 -2.8434  0.2092  1.9345
 3952SOL    HW212398   5.012   7.100   6.268 -1.9907  0.2287  2.2069
 3953SOL     OW12399   1.185   2.144   0.976  0.2407  0.3635  0.4775
 3953SOL    HW112400   1.249   2.185   0.919 -0.6333  0.1972 -0.6438
 3953SOL    HW212401   1.194   2.190   1.059 -0.3772  2.5236 -0.5940
 3954SOL     OW12402   4.432   2.073   7.623  0.1138  0.3253 -0.8291
 3954SOL    HW112403   4.458   2.073   7.715  1.1799  5.0385 -0.8929
 3954SOL    HW212404   4.336   2.075   7.625  0.1394  1.1025  0.2424
 3955SOL     OW12405   0.120   7.581   1.264 -0.2825 -0.3576  0.4855
 3955SOL    HW112406   0.190   7.555   1.204 -0.7726 -3.9031  1.2293
 3955SOL    HW212407   0.146   7.544   1.349 -1.3845  1.3240  1.6273
 3956SOL     OW12408   4.703   0.990   6.070  0.2427  0.0232  0.5814
 3956SOL    HW112409   4.730   0.975   6.160 -2.0311  1.5658  1.6333
 3956SOL    HW212410   4.613   0.959   6.066  0.2622  0.0659 -1.1537
 3957SOL     OW12411   0.048   6.023   1.802  0.3527  0.0864 -0.0730
 3957SOL    HW112412   0.054   6.098   1.743 -0.1174  0.0322 -0.1945
 3957SOL    HW212413  -0.045   6.016   1.822  0.6304  0.8529  1.6628
 3958SOL     OW12414   0.796   0.227   3.575  0.0526  0.1457  0.0968
 3958SOL    HW112415   0.799   0.134   3.553 -0.7627  0.5643 -2.1249
 3958SOL    HW212416   0.723   0.261   3.523  0.9575  2.2018  0.0731
 3959SOL     OW12417   6.810   0.552   3.103  0.2607 -0.4175  0.8322
 3959SOL    HW112418   6.747   0.483   3.086 -0.5596 -0.0140  2.0429
 3959SOL    HW212419   6.895   0.508   3.104 -0.2123 -1.3531  1.2349
 3960SOL     OW12420   1.575   4.156   4.327  0.5862  0.3670 -0.0692
 3960SOL    HW112421   1.669   4.171   4.311  0.6640  1.7158  1.3902
 3960SOL    HW212422   1.546   4.235   4.373 -0.8758 -0.7705  1.0491
 3961SOL     OW12423   6.177   6.797   3.983 -0.2616 -0.1361  0.1045
 3961SOL    HW112424   6.116   6.821   3.912  0.1162  0.0142 -0.1750
 3961SOL    HW212425   6.218   6.880   4.008  0.2771 -0.3243 -0.1354
 3962SOL     OW12426   1.375   5.335   1.732  0.1646 -0.1281 -0.1082
 3962SOL    HW112427   1.306   5.386   1.688  1.0721 -0.7849 -2.4376
 3962SOL    HW212428   1.436   5.401   1.765 -1.2736  0.4370  1.5211
 3963SOL     OW12429   6.755   1.124   2.678  0.5449  0.0920  0.0719
 3963SOL    HW112430   6.791   1.141   2.592  0.4056  0.3001  0.0533
 3963SOL    HW212431   6.663   1.151   2.672  0.1256 -1.3410 -0.1655
 3964SOL     OW12432   4.887   2.737   5.597  0.5183  0.1683  0.3706
 3964SOL    HW112433   4.850   2.811   5.550  1.9244  1.2051  0.8326
 3964SOL    HW212434   4.830   2.726   5.673 -0.0878  0.3320 -0.0523
 3965SOL     OW12435   0.300   6.498   4.160  0.1693  0.4039 -0.2189
 3965SOL    HW112436   0.369   6.486   4.095  0.2054  0.5110 -0.1999
 3965SOL    HW212437   0.339   6.471   4.243 -0.0071 -0.1409 -0.3053
 3966SOL     OW12438   7.423   6.317   7.275  0.2245  0.0812  0.2414
 3966SOL    HW112439   7.381   6.267   7.345 -2.1871 -0.0901 -1.2251
 3966SOL    HW212440   7.514   6.287   7.276 -0.9769 -4.2354 -0.3664
 3967SOL     OW12441   1.297   0.060   2.244  0.2540  0.2263  0.3859
 3967SOL    HW112442   1.272  -0.023   2.203  1.0465  0.2868 -0.2499
 3967SOL    HW212443   1.230   0.122   2.216 -0.1869 -0.1290  0.6319
 3968SOL     OW12444   1.168   1.048   0.838  0.5383  0.2564  0.2585
 3968SOL    HW112445   1.116   1.048   0.757  1.1064 -0.6121 -0.1097
 3968SOL    HW212446   1.110   1.009   0.904  0.4048  0.1120  0.0565
 3969SOL     OW12447   0.941   6.571   5.669 -0.2568 -0.3247  0.6269
 3969SOL    HW112448   0.899   6.655   5.685 -0.5151 -0.5282  1.0521
 3969SOL    HW212449   1.022   6.592   5.623 -0.6246  0.1050  0.1691
 3970SOL     OW12450   1.764   3.184   3.676  0.3863 -0.4424 -0.4019
 3970SOL    HW112451   1.855   3.214   3.682 -0.2459  1.5809 -0.4001
 3970SOL    HW212452   1.718   3.255   3.631 -1.5027 -0.7156  0.9920
 3971SOL     OW12453   2.357   7.601   2.860  0.0884 -0.4124  0.1513
 3971SOL    HW112454   2.303   7.522   2.861  0.2728 -0.5344  0.2884
 3971SOL    HW212455   2.299   7.670   2.894 -0.2259 -0.3892 -0.4231
 3972SOL     OW12456   2.197   0.499   4.932  0.2565 -0.1378  0.3456
 3972SOL    HW112457   2.145   0.477   4.854 -0.1562  0.0226  0.5741
 3972SOL    HW212458   2.202   0.418   4.982 -0.7061  0.1056  0.8620
 3973SOL     OW12459   2.686   2.848   4.296 -0.0777  0.9191 -0.2131
 3973SOL    HW112460   2.659   2.878   4.209 -1.9986  2.1839  0.7641
 3973SOL    HW212461   2.755   2.910   4.322 -0.1389  1.0932 -0.4605
 3974SOL     OW12462   3.503   6.110   4.329  0.1105 -0.1958  0.2482
 3974SOL    HW112463   3.579   6.065   4.365  0.9771  1.2744  0.3382
 3974SOL    HW212464   3.519   6.114   4.235 -1.4107 -2.6562 -0.2122
 3975SOL     OW12465   3.914   1.714   6.461  0.2087 -0.3940  0.1087
 3975SOL    HW112466   3.955   1.652   6.520  1.3643 -0.8775 -1.1588
 3975SOL    HW212467   3.981   1.782   6.447  0.2269 -0.6569 -1.1769
 3976SOL     OW12468   7.306   2.586   5.785  0.1544 -0.2542 -0.5707
 3976SOL    HW112469   7.258   2.667   5.771 -1.5017 -1.0882  0.0420
 3976SOL    HW212470   7.282   2.559   5.874  1.5954 -0.8364 -0.3194
 3977SOL     OW12471   6.400   6.858   4.300  0.0797  0.6351 -0.1706
 3977SOL    HW112472   6.445   6.827   4.379  1.1506  2.1939 -0.1266
 3977SOL    HW212473   6.358   6.779   4.264 -1.8888  0.1246  2.8401
 3978SOL     OW12474   0.919   3.170   7.168 -0.6848  0.5448 -0.2652
 3978SOL    HW112475   0.849   3.235   7.167 -1.2467 -0.0594 -1.5915
 3978SOL    HW212476   0.881   3.095   7.213 -1.0363  0.0750 -1.3255
 3979SOL     OW12477   6.375   1.214   4.250 -0.6512  0.4397 -0.4074
 3979SOL    HW112478   6.404   1.293   4.206  1.1785 -0.2116 -0.4540
 3979SOL    HW212479   6.406   1.225   4.340 -0.0365 -0.3811 -0.5125
 3980SOL     OW12480   0.217   1.681   0.700  0.8946 -0.3384 -0.1109
 3980SOL    HW112481   0.248   1.677   0.790  0.9907 -0.5802 -0.1549
 3980SOL    HW212482   0.206   1.775   0.682 -0.2947 -0.3389  0.5492
 3981SOL     OW12483   6.310   1.187   5.421 -0.5533 -0.1196  0.6936
 3981SOL    HW112484   6.385   1.131   5.404 -1.9426 -1.7387 -0.4024
 3981SOL    HW212485   6.333   1.234   5.501  1.6849 -0.3881  0.2814
 3982SOL     OW12486   0.940   2.422   3.766  0.1651  0.0093 -0.0797
 3982SOL    HW112487   1.016   2.471   3.798  0.5993 -0.6246 -0.1147
 3982SOL    HW212488   0.865   2.461   3.811  0.5176  0.6113 -0.0082
 3983SOL     OW12489   1.130   4.191   4.631 -0.2474  0.0811 -0.3674
 3983SOL    HW112490   1.103   4.232   4.713 -0.6927 -2.3532  0.7879
 3983SOL    HW212491   1.225   4.197   4.631 -0.2186 -0.2684  0.5453
 3984SOL     OW12492   5.214   1.452   1.450  0.6488  0.3059 -0.0730
 3984SOL    HW112493   5.286   1.507   1.419  1.6149 -0.7142  0.2727
 3984SOL    HW212494   5.255   1.368   1.469 -0.5341 -0.1145  0.7368
 3985SOL     OW12495   7.238   6.326   4.561 -0.1307  0.1431  0.2638
 3985SOL    HW112496   7.238   6.401   4.502  1.3673  0.8782  1.1544
 3985SOL    HW212497   7.326   6.324   4.599 -0.6288 -1.1194  1.4580
 3986SOL     OW12498   3.825   3.248   0.017  0.1751 -0.2216  0.1527
 3986SOL    HW112499   3.885   3.321   0.029  0.3613 -0.4588  0.7035
 3986SOL    HW212500   3.871   3.173   0.054  0.0545 -0.6569 -0.5574
 3987SOL     OW12501   3.486   3.758   2.522  0.0499 -0.4093 -0.7320
 3987SOL    HW112502   3.441   3.686   2.567  1.0111 -1.0907 -0.8174
 3987SOL    HW212503   3.521   3.812   2.593 -1.4901  0.5380 -0.6566
 3988SOL     OW12504   4.300   4.745   7.197  0.0268 -0.2993  0.0753
 3988SOL    HW112505   4.225   4.804   7.187 -1.8110 -2.2068  1.7248
 3988SOL    HW212506   4.315   4.741   7.291  2.8963  0.7008 -0.2245
 3989SOL     OW12507   6.284   2.183   6.806 -0.0804  0.2504 -0.0765
 3989SOL    HW112508   6.332   2.147   6.731 -0.7473  0.5244 -0.6423
 3989SOL    HW212509   6.352   2.206   6.870  0.4490 -0.5319 -0.3586
 3990SOL     OW12510   7.230   1.166   2.563 -0.0909  0.4302  0.1468
 3990SOL    HW112511   7.223   1.108   2.487  0.4467  0.6881 -0.1047
 3990SOL    HW212512   7.317   1.148   2.599 -0.9364 -0.8825  1.6911
 3991SOL     OW12513   2.891   4.148   4.132  0.8650 -0.6571  0.2037
 3991SOL    HW112514   2.896   4.054   4.115  0.2820 -0.4770 -1.0665
 3991SOL    HW212515   2.823   4.179   4.072  1.8298  0.7547 -0.1885
 3992SOL     OW12516   4.931   2.520   0.937  0.1675 -0.1147  0.3939
 3992SOL    HW112517   5.024   2.498   0.942  0.4978  1.4037  2.1172
 3992SOL    HW212518   4.928   2.603   0.890 -0.3437 -0.3156  0.0676
 3993SOL     OW12519   6.842   1.077   6.170  0.3815 -0.1722  0.4306
 3993SOL    HW112520   6.857   1.009   6.235  1.2284 -0.0930  0.3330
 3993SOL    HW212521   6.918   1.135   6.177  0.2881  0.0646 -0.3416
 3994SOL     OW12522   3.040   5.888   0.179 -0.0060  0.2652 -0.3964
 3994SOL    HW112523   3.034   5.805   0.227 -0.6350 -0.1256 -1.1345
 3994SOL    HW212524   3.050   5.954   0.248 -0.5737 -0.3173  0.2595
 3995SOL     OW12525   3.385   3.334   0.210 -0.4627  0.1374 -0.1178
 3995SOL    HW112526   3.301   3.352   0.168 -0.6000  0.1585  0.1605
 3995SOL    HW212527   3.434   3.283   0.145 -0.5514  0.4340 -0.4200
 3996SOL     OW12528   6.053   3.704   0.377 -0.2277 -0.0162  0.3020
 3996SOL    HW112529   6.039   3.790   0.416 -1.9027 -0.2595  0.3188
 3996SOL    HW212530   6.119   3.718   0.310 -1.8837  1.7340 -1.0576
 3997SOL     OW12531   7.504   6.815   1.809  0.4884  0.4609 -0.4536
 3997SOL    HW112532   7.517   6.893   1.863 -1.0482  0.9789 -0.7552
 3997SOL    HW212533   7.432   6.768   1.852  1.1983 -0.6649 -0.4405
 3998SOL     OW12534   4.975   5.518   4.502 -0.1949 -0.4507  0.1456
 3998SOL    HW112535   4.942   5.522   4.412 -0.2251  1.1548  0.1993
 3998SOL    HW212536   5.045   5.453   4.499 -0.4871 -0.7315 -0.9430
 3999SOL     OW12537   5.925   7.161   6.701  0.3065  0.0127 -0.0202
 3999SOL    HW112538   5.973   7.091   6.656  0.0599 -0.6033  0.6484
 3999SOL    HW212539   5.850   7.179   6.645  0.5033 -0.0923 -0.3161
 4000SOL     OW12540   6.738   2.306   4.759  0.1683  0.5459  0.7797
 4000SOL    HW112541   6.714   2.339   4.845  2.3077  1.1959  1.1833
 4000SOL    HW212542   6.833   2.293   4.763  0.5529  1.6932 -1.8001
 4001SOL     OW12543   7.382   1.426   3.870 -0.2565 -0.4955  0.3502
 4001SOL    HW112544   7.465   1.428   3.916 -0.7633 -0.2282  1.2726
 4001SOL    HW212545   7.405   1.402   3.780  0.8595  0.0314  0.4810
 4002SOL     OW12546   5.975   1.738   0.446 -0.0685  0.1325 -0.3195
 4002SOL    HW112547   5.969   1.653   0.402  1.3880  0.4063 -1.1315
 4002SOL    HW212548   6.044   1.784   0.398  1.7229  0.4250  2.2902
 4003SOL     OW12549   0.424   1.323   0.463 -0.0389 -0.5346 -0.5232
 4003SOL    HW112550   0.379   1.272   0.530  0.5065 -1.9862 -1.2128
 4003SOL    HW212551   0.402   1.414   0.483  0.1172 -0.9216  1.5987
 4004SOL     OW12552   6.169   1.769   5.036 -0.0063 -0.3422  0.8483
 4004SOL    HW112553   6.228   1.778   4.961  1.4929 -2.1424  1.7184
 4004SOL    HW212554   6.166   1.857   5.075  2.5681 -0.2748  1.0553
 4005SOL     OW12555   6.792   4.767   4.495 -0.1050 -0.4699 -0.0040
 4005SOL    HW112556   6.824   4.794   4.409 -0.6366 -0.6676 -0.2656
 4005SOL    HW212557   6.725   4.701   4.477 -0.0278 -0.7129  0.5715
 4006SOL     OW12558   2.672   2.997   4.056  0.3129 -0.3036 -0.0636
 4006SOL    HW112559   2.747   2.947   4.023  0.9183  0.3020  0.3694
 4006SOL    HW212560   2.668   3.074   4.000  1.4863  0.8463  1.3413
 4007SOL     OW12561   0.963   4.692   5.084  0.5502  0.2430 -0.1926
 4007SOL    HW112562   0.966   4.598   5.102 -1.1253 -0.1636 -1.7034
 4007SOL    HW212563   1.051   4.712   5.051  0.6610 -1.0048 -0.7291
 4008SOL     OW12564   3.508   5.343   5.251 -0.4975  0.0263 -0.1165
 4008SOL    HW112565   3.550   5.401   5.188 -1.1098 -0.2762 -0.8076
 4008SOL    HW212566   3.459   5.281   5.198 -1.4846  0.1210  0.6660
 4009SOL     OW12567   3.754   2.427   2.344 -0.2928  0.1173  0.1383
 4009SOL    HW112568   3.682   2.408   2.404 -0.2413 -0.5994 -0.0150
 4009SOL    HW212569   3.829   2.380   2.380 -0.7359 -2.0605 -1.5486
 4010SOL     OW12570   7.367   0.325   3.102 -0.1662 -0.1822  0.0068
 4010SOL    HW112571   7.352   0.239   3.141 -0.9357 -0.6786 -1.3166
 4010SOL    HW212572   7.445   0.314   3.047 -0.1696  0.0134 -0.0406
 4011SOL     OW12573   5.977   5.853   5.531 -0.1710  0.0861 -0.8682
 4011SOL    HW112574   5.983   5.943   5.498  0.1959  0.5292  0.3431
 4011SOL    HW212575   6.066   5.820   5.526 -0.4694 -0.5830 -2.2411
 4012SOL     OW12576   1.260   6.125   4.127 -0.5398 -0.6273  0.1377
 4012SOL    HW112577   1.297   6.213   4.131 -0.1062 -0.8244  0.6405
 4012SOL    HW212578   1.166   6.138   4.114 -0.5189 -0.0886  0.5330
 4013SOL     OW12579   5.617   0.315   1.312  0.1804  0.2055  0.2255
 4013SOL    HW112580   5.700   0.321   1.359  0.5184  1.5543 -0.4919
 4013SOL    HW212581   5.623   0.382   1.244 -1.0744 -0.3955 -0.5139
 4014SOL     OW12582   7.540   4.011   7.032  0.2748  0.3613 -0.4899
 4014SOL    HW112583   7.572   4.057   6.954  0.0563 -1.3868 -1.6590
 4014SOL    HW212584   7.445   4.008   7.021  0.2497  0.0209 -0.2042
 4015SOL     OW12585   5.180   7.279   3.839 -0.2197  0.2369  0.0334
 4015SOL    HW112586   5.097   7.281   3.886  0.3420  0.3389  1.0486
 4015SOL    HW212587   5.246   7.304   3.904  0.6605 -0.2355 -0.6412
 4016SOL     OW12588   4.510   0.516   1.771  0.3018  0.2373 -0.7299
 4016SOL    HW112589   4.570   0.546   1.702  0.9553  2.4299  0.6883
 4016SOL    HW212590   4.546   0.552   1.852 -0.5050 -2.1609  0.8106
 4017SOL     OW12591   3.687   5.387   7.030 -0.3160  0.2986 -0.1060
 4017SOL    HW112592   3.691   5.306   7.081 -0.5894  0.2447 -0.1673
 4017SOL    HW212593   3.721   5.363   6.944 -0.9601  0.0976 -0.3101
 4018SOL     OW12594   5.310   2.962   7.034 -0.4916  0.1656  0.0732
 4018SOL    HW112595   5.285   3.054   7.025 -1.6703 -0.1241  0.1640
 4018SOL    HW212596   5.404   2.961   7.019 -0.8454  1.0145 -2.6178
 4019SOL     OW12597   5.974   7.500   2.381  0.3169 -0.4653  0.1537
 4019SOL    HW112598   5.999   7.509   2.289  0.0851  3.0384  0.3058
 4019SOL    HW212599   5.878   7.500   2.380  0.2911 -1.6935  0.3781
 4020SOL     OW12600   1.538   0.112   4.936 -0.4899  0.0869 -0.2570
 4020SOL    HW112601   1.584   0.175   4.991 -1.6120 -0.3706  1.2924
 4020SOL    HW212602   1.483   0.063   4.997 -4.2344  1.6216 -2.1145
 4021SOL     OW12603   4.034   1.994   2.348  0.2063 -0.3151 -0.0201
 4021SOL    HW112604   3.973   1.936   2.392 -0.5931  1.6470  1.6385
 4021SOL    HW212605   4.118   1.947   2.350 -0.7164 -2.0400 -0.2029
 4022SOL     OW12606   5.364   2.140   0.790  0.7210  0.3066 -0.2449
 4022SOL    HW112607   5.390   2.134   0.699 -2.2653 -1.3039 -1.1436
 4022SOL    HW212608   5.273   2.172   0.787  0.4684  0.0386  2.1439
 4023SOL     OW12609   4.205   5.863   4.048 -0.2358  0.2059 -0.3010
 4023SOL    HW112610   4.161   5.919   3.984 -0.0327 -0.3103 -0.9059
 4023SOL    HW212611   4.258   5.803   3.995 -0.2646 -0.4006  0.3411
 4024SOL     OW12612   7.360   5.807   0.115  0.2591  0.1231 -0.2058
 4024SOL    HW112613   7.281   5.756   0.094 -1.5830  2.5190  0.3953
 4024SOL    HW212614   7.397   5.829   0.029 -1.9005  2.0284 -0.7593
 4025SOL     OW12615   0.582   7.428   1.991  0.2299  0.3943 -0.2396
 4025SOL    HW112616   0.627   7.419   1.907 -0.4616  0.0843 -0.5833
 4025SOL    HW212617   0.531   7.508   1.983  1.1661  1.0704  0.3685
 4026SOL     OW12618   5.838   3.278   0.280  0.0766 -0.2214  0.5561
 4026SOL    HW112619   5.878   3.329   0.350  0.9624  0.0212 -0.1081
 4026SOL    HW212620   5.853   3.186   0.304  2.8910 -0.1647 -0.6517
 4027SOL     OW12621   5.016   3.486   3.334  0.3320  0.1035  0.6651
 4027SOL    HW112622   4.943   3.440   3.292  1.0473 -1.4035  1.0057
 4027SOL    HW212623   5.030   3.563   3.279 -0.5506 -0.3665 -0.2604
 4028SOL     OW12624   3.811   1.429   6.267 -0.1332 -1.1225 -0.0406
 4028SOL    HW112625   3.788   1.356   6.324  1.9968 -1.7151  0.1390
 4028SOL    HW212626   3.891   1.401   6.222  0.6323  0.9917 -0.1305
 4029SOL     OW12627   6.830   3.556   0.423  0.2276  0.1302  0.1870
 4029SOL    HW112628   6.911   3.534   0.377 -0.0092 -1.9039  0.6493
 4029SOL    HW212629   6.763   3.502   0.381 -0.1612 -1.0886  2.2370
 4030SOL     OW12630   7.263   3.675   5.085 -0.1336 -0.3274  0.0505
 4030SOL    HW112631   7.248   3.680   5.179 -3.5924 -0.0467 -0.3804
 4030SOL    HW212632   7.214   3.597   5.057  1.2925 -0.7402 -1.4930
 4031SOL     OW12633   7.002   6.785   2.391  0.1395 -0.0225 -0.0034
 4031SOL    HW112634   7.033   6.694   2.389  1.3242  0.3456  0.9306
 4031SOL    HW212635   6.924   6.782   2.447  0.6514 -0.3208  0.6966
 4032SOL     OW12636   3.003   3.526   0.814  0.8782 -0.1301  0.2742
 4032SOL    HW112637   3.006   3.571   0.899  1.4716  2.1103 -0.8570
 4032SOL    HW212638   3.094   3.524   0.785  1.1560 -3.6251  0.9399
 4033SOL     OW12639   2.564   4.280   6.270 -0.3867 -0.2505 -0.5382
 4033SOL    HW112640   2.550   4.191   6.302 -0.4520 -0.0447  0.0138
 4033SOL    HW212641   2.541   4.276   6.177 -0.6512 -0.7446 -0.4535
 4034SOL     OW12642   1.906   5.871   5.483 -0.0827  0.4863 -0.3973
 4034SOL    HW112643   1.865   5.785   5.472 -0.7592  0.9610 -1.8707
 4034SOL    HW212644   1.972   5.858   5.551 -0.4188 -1.1092 -0.3464
 4035SOL     OW12645   6.130   4.218   2.170  0.2867 -0.4279  0.2748
 4035SOL    HW112646   6.045   4.257   2.147  0.7329  0.2448 -0.2377
 4035SOL    HW212647   6.115   4.180   2.257 -1.0631 -1.9194 -0.5422
 4036SOL     OW12648   5.057   2.501   3.391 -0.6043  0.0114  0.1216
 4036SOL    HW112649   4.992   2.548   3.444 -1.0782 -0.2332 -0.2413
 4036SOL    HW212650   5.141   2.523   3.432 -0.8729  0.6870  0.3239
 4037SOL     OW12651   7.478   6.689   6.005 -0.1069  0.1686 -0.0258
 4037SOL    HW112652   7.496   6.691   6.099 -2.4043  2.3210  0.4833
 4037SOL    HW212653   7.391   6.650   5.998 -0.8722  1.9385 -1.0019
 4038SOL     OW12654   3.697   3.757   4.925 -0.3937 -0.2927  0.1470
 4038SOL    HW112655   3.725   3.762   4.834 -0.6590  1.1939  0.1182
 4038SOL    HW212656   3.604   3.777   4.923  0.0554  2.3324  0.9302
 4039SOL     OW12657   6.881   5.398   5.110 -0.3405  0.1935 -0.1651
 4039SOL    HW112658   6.822   5.379   5.037 -0.6593 -0.2283  0.1959
 4039SOL    HW212659   6.932   5.474   5.081  0.4867 -0.7853 -1.3778
 4040SOL     OW12660   0.437   6.731   1.567  0.6432 -0.0194 -0.1574
 4040SOL    HW112661   0.366   6.715   1.630  1.0056 -0.8174  0.0661
 4040SOL    HW212662   0.500   6.662   1.585  0.3405 -0.8377 -2.0198
 4041SOL     OW12663   5.031   6.856   5.954 -0.2033 -0.1653 -0.2490
 4041SOL    HW112664   5.006   6.948   5.958  1.7615  0.3995 -0.1138
 4041SOL    HW212665   5.113   6.851   6.003 -1.8579 -2.6144  2.6230
 4042SOL     OW12666   1.706   3.424   6.643 -0.0037 -0.6085 -0.3359
 4042SOL    HW112667   1.730   3.331   6.640  0.0616 -0.5698 -1.1116
 4042SOL    HW212668   1.706   3.452   6.552  2.0037  0.6808 -0.0055
 4043SOL     OW12669   3.643   0.933   6.894  0.1187 -0.3217  0.4460
 4043SOL    HW112670   3.551   0.939   6.919 -0.7108  1.5912 -2.5370
 4043SOL    HW212671   3.688   0.996   6.950 -1.0932  1.4330 -0.4429
 4044SOL     OW12672   3.249   6.410   6.854  0.1585  0.4115 -0.0254
 4044SOL    HW112673   3.221   6.491   6.810  0.7242  0.5128 -0.2042
 4044SOL    HW212674   3.344   6.417   6.858  0.1268  0.2679  0.9785
 4045SOL     OW12675   1.965   7.119   2.743  0.5666  0.3441  0.3442
 4045SOL    HW112676   1.899   7.177   2.704  0.0028  0.6276  1.6671
 4045SOL    HW212677   1.942   7.032   2.712  0.6065  0.6499 -0.5770
 4046SOL     OW12678   1.622   7.361   2.753  0.1096  0.5500 -0.5429
 4046SOL    HW112679   1.579   7.285   2.792 -1.5856  1.4848 -0.4558
 4046SOL    HW212680   1.637   7.337   2.662 -0.0928 -0.0181 -0.4273
 4047SOL     OW12681   6.238   6.391   6.923 -0.0406 -0.3444  0.5202
 4047SOL    HW112682   6.206   6.344   6.999  1.6319 -0.1895  1.3753
 4047SOL    HW212683   6.255   6.323   6.858  1.5444 -0.8871  1.4427
 4048SOL     OW12684   1.016   1.899   6.330  0.1788  0.0831  0.7173
 4048SOL    HW112685   1.042   1.990   6.342 -1.9459  0.8673 -0.1616
 4048SOL    HW212686   0.941   1.887   6.389 -1.1333 -0.2983 -0.9336
 4049SOL     OW12687   4.869   3.708   2.930 -0.1943 -0.1321 -0.2808
 4049SOL    HW112688   4.898   3.740   3.015  0.7260  0.9062 -0.9494
 4049SOL    HW212689   4.842   3.618   2.946  0.1609 -0.0236  1.0581
 4050SOL     OW12690   6.507   0.982   0.972  0.1691 -0.4866 -0.4771
 4050SOL    HW112691   6.600   0.957   0.976  0.3473  0.3423  2.2899
 4050SOL    HW212692   6.509   1.075   0.949  0.2415  0.2516  2.2494
 4051SOL     OW12693   5.128   3.046   6.686  0.2461  0.5606  0.2720
 4051SOL    HW112694   5.098   2.967   6.641 -2.2225  1.6962 -0.2251
 4051SOL    HW212695   5.064   3.060   6.756  2.4511  0.4087  2.4575
 4052SOL     OW12696   3.270   0.951   3.579  0.2399  0.1316 -0.4512
 4052SOL    HW112697   3.294   0.911   3.663  0.3877  2.7231  0.8569
 4052SOL    HW212698   3.183   0.917   3.559 -0.2995  0.3440  1.3916
 4053SOL     OW12699   3.051   5.072   3.568 -0.2449  0.1055  0.4873
 4053SOL    HW112700   3.104   5.011   3.516  0.6663  0.5783  0.8327
 4053SOL    HW212701   3.007   5.127   3.502  0.4153  0.2982  0.1931
 4054SOL     OW12702   1.571   7.489   5.773  0.1812 -0.3987 -0.4086
 4054SOL    HW112703   1.513   7.467   5.846  0.4371  0.4734  0.0770
 4054SOL    HW212704   1.513   7.503   5.698 -0.0826 -1.3453 -0.3919
 4055SOL     OW12705   4.317   3.119   3.078  0.4742 -0.2930 -0.4830
 4055SOL    HW112706   4.223   3.105   3.089  0.4047  0.2734 -0.3292
 4055SOL    HW212707   4.343   3.055   3.011  0.4379 -2.0583  1.1182
 4056SOL     OW12708   6.685   5.326   4.079 -0.0708 -0.4267 -0.5490
 4056SOL    HW112709   6.688   5.378   4.159 -1.4675  1.8303 -1.8425
 4056SOL    HW212710   6.766   5.348   4.033 -0.3694  0.1761 -0.8055
 4057SOL     OW12711   6.821   1.316   7.596 -0.5955 -0.3913 -0.7100
 4057SOL    HW112712   6.904   1.276   7.568 -0.2212  0.1306 -0.3750
 4057SOL    HW212713   6.756   1.247   7.584  0.0583 -1.1608  0.0128
 4058SOL     OW12714   5.982   2.678   3.097 -0.0347  0.3620  0.0814
 4058SOL    HW112715   5.940   2.600   3.059  0.9796 -0.2155  0.1297
 4058SOL    HW212716   5.979   2.663   3.191  1.9552 -0.5923  0.0309
 4059SOL     OW12717   0.563   4.922   6.438  0.2300 -0.5411 -1.1354
 4059SOL    HW112718   0.644   4.965   6.410 -0.0004 -0.2151 -1.3104
 4059SOL    HW212719   0.584   4.886   6.524 -0.1953  1.8252  0.0482
 4060SOL     OW12720   4.810   1.392   1.954  0.5822  0.0395  0.8570
 4060SOL    HW112721   4.807   1.303   1.990  1.7425 -0.2324  0.3023
 4060SOL    HW212722   4.723   1.405   1.915  0.7905 -1.3214 -0.1315
 4061SOL     OW12723   3.039   1.525   4.566 -0.0999 -0.3008 -0.5953
 4061SOL    HW112724   3.009   1.616   4.564 -0.5510 -0.3358  1.4523
 4061SOL    HW212725   2.958   1.474   4.570  0.1647 -0.7329 -0.7673
 4062SOL     OW12726   1.497   7.444   2.260  0.0820 -0.0288 -0.6644
 4062SOL    HW112727   1.509   7.467   2.168 -1.0443  0.0412 -0.8173
 4062SOL    HW212728   1.475   7.527   2.303  0.3737 -0.0987 -0.3760
 4063SOL     OW12729   4.419   1.014   1.297  0.3270  0.5172  0.3987
 4063SOL    HW112730   4.467   1.040   1.376  2.1856 -0.7226 -0.2464
 4063SOL    HW212731   4.482   1.022   1.227 -0.8509  0.1601 -0.7418
 4064SOL     OW12732   4.440   4.504   4.672 -0.7584 -0.2396 -0.0465
 4064SOL    HW112733   4.352   4.531   4.697 -1.8006 -2.7620 -0.6599
 4064SOL    HW212734   4.445   4.522   4.578 -0.5672  0.0667  0.0241
 4065SOL     OW12735   2.901   7.032   4.706 -0.1990  0.3697 -0.5447
 4065SOL    HW112736   2.869   7.054   4.619 -2.2710 -0.6769 -0.0981
 4065SOL    HW212737   2.989   6.997   4.691  0.3179  2.1340 -1.9517
 4066SOL     OW12738   3.913   2.673   1.835  0.4934  0.1070 -0.5294
 4066SOL    HW112739   3.929   2.593   1.785  2.0211  0.4905 -0.7267
 4066SOL    HW212740   3.961   2.658   1.917 -0.8739  0.0273  0.2850
 4067SOL     OW12741   6.150   5.730   2.450  0.2676 -0.6393 -0.3675
 4067SOL    HW112742   6.145   5.702   2.358  2.2536 -0.7950 -0.4571
 4067SOL    HW212743   6.235   5.772   2.458  0.3507 -1.0725  1.5379
 4068SOL     OW12744   6.942   5.315   6.849 -0.9804  0.7891 -0.3854
 4068SOL    HW112745   6.990   5.270   6.918 -0.2398  0.2398 -1.2275
 4068SOL    HW212746   6.912   5.397   6.888  2.4410  2.1947 -0.3885
 4069SOL     OW12747   4.858   4.232   5.652  0.1513 -0.7005 -0.4978
 4069SOL    HW112748   4.856   4.311   5.707  1.7504  2.1657 -4.1147
 4069SOL    HW212749   4.774   4.234   5.605  0.4554 -0.7721 -1.0473
 4070SOL     OW12750   6.586   1.081   2.047 -0.2335  0.2941  0.1178
 4070SOL    HW112751   6.501   1.121   2.028 -0.2713 -0.0829 -0.5295
 4070SOL    HW212752   6.627   1.069   1.961  0.3563  0.2119  0.4061
 4071SOL     OW12753   6.985   0.155   0.673  0.1219  0.1556 -0.0295
 4071SOL    HW112754   7.068   0.142   0.627 -0.3981 -2.1716 -0.4390
 4071SOL    HW212755   6.945   0.231   0.630  1.3516  0.3718 -0.8301
 4072SOL     OW12756   3.052   0.213   0.369  0.9556  0.2714 -0.0652
 4072SOL    HW112757   2.969   0.172   0.344  0.5424  1.1452 -0.1625
 4072SOL    HW212758   3.106   0.208   0.290  0.0900  1.9271 -0.8185
 4073SOL     OW12759   2.283   0.107   6.138  0.3350 -0.4659 -0.0741
 4073SOL    HW112760   2.334   0.084   6.216  0.2726 -1.7516 -0.3866
 4073SOL    HW212761   2.329   0.182   6.101  0.2915  0.2568  1.2593
 4074SOL     OW12762   6.547   1.941   2.590 -0.0339  0.5008 -0.1124
 4074SOL    HW112763   6.457   1.910   2.600  0.2365 -0.5107 -0.7257
 4074SOL    HW212764   6.541   2.036   2.603 -0.9573  0.2781  1.2619
 4075SOL     OW12765   6.151   1.746   3.827  0.1320  0.5968  0.7568
 4075SOL    HW112766   6.222   1.720   3.767  0.6051  1.3778  0.9661
 4075SOL    HW212767   6.096   1.804   3.775 -0.4676 -0.1461  0.5415
 4076SOL     OW12768   0.209   6.014   1.517  0.5553 -0.4061 -0.9458
 4076SOL    HW112769   0.263   5.973   1.585  1.6904 -1.4252 -2.4116
 4076SOL    HW212770   0.251   5.989   1.435 -0.7127  0.9111 -2.0310
 4077SOL     OW12771   3.647   2.705   1.363 -0.8006 -0.1560 -0.1325
 4077SOL    HW112772   3.588   2.771   1.326 -0.1369  0.9967  0.8004
 4077SOL    HW212773   3.729   2.753   1.379 -1.1680 -0.4396  3.1995
 4078SOL     OW12774   1.316   1.534   3.857  1.3009  0.2528 -0.9313
 4078SOL    HW112775   1.284   1.575   3.937  0.6469  0.2442 -1.1823
 4078SOL    HW212776   1.393   1.483   3.885 -0.2974 -1.7144  0.1444
 4079SOL     OW12777   2.207   6.875   2.539  0.6056  0.1761 -0.1821
 4079SOL    HW112778   2.301   6.857   2.537  0.8475  1.2903  0.1438
 4079SOL    HW212779   2.166   6.797   2.503  1.7296  0.1844 -1.5477
 4080SOL     OW12780   3.950   3.880   1.328  0.2559  0.1543  0.0242
 4080SOL    HW112781   3.994   3.842   1.252 -1.4544 -1.6139 -0.1624
 4080SOL    HW212782   3.970   3.820   1.400 -0.5638  0.1582  0.2684
 4081SOL     OW12783   2.674   1.470   6.547  0.3669 -0.5628 -0.2458
 4081SOL    HW112784   2.717   1.554   6.563  0.6162 -0.8704  0.7604
 4081SOL    HW212785   2.599   1.470   6.606 -0.6037 -0.3590 -1.4367
 4082SOL     OW12786   4.087   4.903   7.192 -0.0286  0.0987  0.3306
 4082SOL    HW112787   4.047   4.984   7.226 -0.2778  0.2650 -0.3527
 4082SOL    HW212788   4.012   4.846   7.173  0.1242 -0.0996  0.3302
 4083SOL     OW12789   2.179   6.354   0.738 -0.1153  0.0553  0.0676
 4083SOL    HW112790   2.192   6.376   0.645  1.4295  0.4738  0.3522
 4083SOL    HW212791   2.266   6.362   0.776 -1.0247  1.5912  1.9320
 4084SOL     OW12792   5.853   7.458   1.734 -0.2852 -0.7086  0.1107
 4084SOL    HW112793   5.926   7.471   1.672 -0.8987  0.0501 -0.4628
 4084SOL    HW212794   5.870   7.521   1.804 -0.0814 -0.9442  0.2784
 4085SOL     OW12795   4.538   5.073   5.444  0.0224 -0.4017 -0.4130
 4085SOL    HW112796   4.626   5.036   5.439  0.7809  0.7323  2.3262
 4085SOL    HW212797   4.492   5.018   5.508  0.1940  1.4204  1.3847
 4086SOL     OW12798   1.749   2.752   5.155 -0.2518 -0.5918  0.1034
 4086SOL    HW112799   1.818   2.805   5.197 -0.1010  0.9889 -1.9631
 4086SOL    HW212800   1.778   2.662   5.166  1.4150 -0.0420  0.5723
 4087SOL     OW12801   1.763   2.051   2.203  0.7070  0.6205 -0.4968
 4087SOL    HW112802   1.713   2.113   2.151  1.0176  2.8763  1.6967
 4087SOL    HW212803   1.832   2.104   2.243 -0.1647 -0.6355  3.0354
 4088SOL     OW12804   6.011   4.276   6.464  0.3982 -0.5340 -0.3238
 4088SOL    HW112805   5.974   4.214   6.402  0.2526 -1.7897  0.9799
 4088SOL    HW212806   6.105   4.260   6.461  0.7991  1.6756 -2.5811
 4089SOL     OW12807   1.080   1.395   6.030 -0.2927  0.2004  0.0894
 4089SOL    HW112808   1.107   1.398   6.122  0.6968 -0.9245 -0.1429
 4089SOL    HW212809   1.108   1.309   5.999  0.1360  0.8652 -1.4898
 4090SOL     OW12810   3.603   1.452   0.433  0.2140 -0.0505  0.1067
 4090SOL    HW112811   3.549   1.376   0.411  0.5170 -0.1290 -0.3824
 4090SOL    HW212812   3.576   1.519   0.370  0.5498 -0.0267 -0.0102
 4091SOL     OW12813   0.060   1.838   3.113 -0.0375 -0.0736  0.0184
 4091SOL    HW112814  -0.011   1.855   3.051  0.1226  0.0569 -0.1298
 4091SOL    HW212815   0.087   1.925   3.143 -0.2690 -0.1469  0.4453
 4092SOL     OW12816   6.194   0.410   4.347 -0.0693 -0.0206  0.7542
 4092SOL    HW112817   6.281   0.409   4.308  0.6241 -0.2978  2.2324
 4092SOL    HW212818   6.137   0.369   4.282  0.2210  3.0482 -1.6440
 4093SOL     OW12819   0.943   2.571   5.038  0.2491  0.4369  0.2769
 4093SOL    HW112820   1.000   2.634   5.083  1.5504 -1.1523  0.9441
 4093SOL    HW212821   0.856   2.587   5.076  0.5509  1.7744  0.4598
 4094SOL     OW12822   6.596   2.211   2.628  0.0470 -0.6647 -0.3343
 4094SOL    HW112823   6.639   2.252   2.704  0.2462  1.3012 -1.4304
 4094SOL    HW212824   6.657   2.224   2.556 -0.8397 -1.0219 -1.1766
 4095SOL     OW12825   5.991   2.607   0.103  0.3511 -0.5681 -0.6268
 4095SOL    HW112826   6.064   2.550   0.126 -0.0972 -1.8654 -2.2479
 4095SOL    HW212827   5.914   2.549   0.105 -0.1376 -0.0140 -2.1407
 4096SOL     OW12828   1.952   7.145   1.907 -0.0254 -0.1089 -0.1096
 4096SOL    HW112829   1.967   7.148   2.002  0.0970  0.3259 -0.1395
 4096SOL    HW212830   2.012   7.211   1.872  0.0203 -0.3614 -0.5028
 4097SOL     OW12831   4.154   6.035   6.626 -1.0021 -0.3539  0.0398
 4097SOL    HW112832   4.120   6.095   6.560  0.8965 -0.1266 -0.7800
 4097SOL    HW212833   4.139   5.948   6.589  1.2085 -0.1977 -1.3384
 4098SOL     OW12834   3.712   2.719   4.009  0.1367  0.1485  0.2108
 4098SOL    HW112835   3.747   2.806   4.026 -0.4105  0.4819 -0.3311
 4098SOL    HW212836   3.716   2.709   3.914 -1.6777  0.4069  0.0728
 4099SOL     OW12837   4.214   7.220   6.171  0.0644  0.2417  0.2631
 4099SOL    HW112838   4.178   7.187   6.254 -1.0137  0.9226  0.0998
 4099SOL    HW212839   4.291   7.167   6.155 -0.9117 -1.3525  0.6205
 4100SOL     OW12840   2.770   2.104   0.578 -0.0431 -0.2970  0.2710
 4100SOL    HW112841   2.731   2.170   0.637  0.6688  0.6101 -0.2505
 4100SOL    HW212842   2.858   2.091   0.613  0.4717  0.4307 -0.7089
 4101SOL     OW12843   3.841   0.965   3.486 -0.1991  0.5899  0.0830
 4101SOL    HW112844   3.900   0.989   3.557 -0.7332  2.5534 -0.0633
 4101SOL    HW212845   3.899   0.939   3.414  0.3685 -0.3124  0.8401
 4102SOL     OW12846   3.218   1.431   6.184 -0.5023 -0.1574  0.3307
 4102SOL    HW112847   3.122   1.428   6.180 -0.5129  0.5038  0.0718
 4102SOL    HW212848   3.245   1.453   6.095 -0.2225  2.1298  0.9331
 4103SOL     OW12849   3.484   7.350   2.592  0.9748  0.0354 -0.3998
 4103SOL    HW112850   3.454   7.367   2.681 -0.4335  1.3846 -1.0944
 4103SOL    HW212851   3.479   7.255   2.584 -0.6621  0.0039  0.3998
 4104SOL     OW12852   0.792   4.417   4.363 -0.0350  0.4207 -0.3664
 4104SOL    HW112853   0.697   4.430   4.357 -0.2746 -1.1433 -0.2877
 4104SOL    HW212854   0.824   4.497   4.406 -1.2363  1.1943 -0.8369
 4105SOL     OW12855   1.210   1.628   5.891  0.1300 -0.1684  0.5268
 4105SOL    HW112856   1.280   1.670   5.940 -0.1615 -1.7138  2.3974
 4105SOL    HW212857   1.201   1.541   5.931  0.2332 -1.7981 -2.6716
 4106SOL     OW12858   5.249   7.098   5.184 -0.2591 -0.3323 -0.2038
 4106SOL    HW112859   5.193   7.175   5.171 -0.6871 -0.8213 -1.4207
 4106SOL    HW212860   5.193   7.035   5.229  0.0751  0.0404  0.7444
 4107SOL     OW12861   7.142   5.239   4.511 -0.3025 -0.2764 -0.2285
 4107SOL    HW112862   7.221   5.221   4.460 -1.7065 -1.2354 -2.1870
 4107SOL    HW212863   7.120   5.155   4.551 -0.1858  0.0565  0.5468
 4108SOL     OW12864   2.009   4.055   0.065 -0.6067 -0.4036  0.0099
 4108SOL    HW112865   2.077   4.037   0.001 -1.4057 -2.4877 -0.3274
 4108SOL    HW212866   1.936   3.998   0.040 -2.2248  1.2186  0.7765
 4109SOL     OW12867   3.528   0.215   3.802  0.0915 -0.0068 -0.5983
 4109SOL    HW112868   3.518   0.209   3.897  0.2274 -0.9652 -0.6448
 4109SOL    HW212869   3.552   0.307   3.787  0.2263  0.1167  0.3024
 4110SOL     OW12870   3.232   0.949   0.142  0.7318 -0.2499  0.0124
 4110SOL    HW112871   3.168   1.021   0.141 -0.0383 -0.7913  2.2861
 4110SOL    HW212872   3.208   0.895   0.067 -1.7476 -0.5710  0.9238
 4111SOL     OW12873   6.552   2.210   1.233 -0.8869 -0.1705  0.1582
 4111SOL    HW112874   6.581   2.278   1.172  0.6795 -0.2883  0.7423
 4111SOL    HW212875   6.508   2.146   1.178  1.1874 -0.6767 -1.0078
 4112SOL     OW12876   5.057   4.448   4.654 -0.4286  0.0644 -0.0448
 4112SOL    HW112877   5.123   4.490   4.598  1.0132  0.3686  1.7796
 4112SOL    HW212878   5.023   4.519   4.707 -0.2217 -0.5456  0.9202
 4113SOL     OW12879   3.237   1.954   0.073 -0.1059  0.3208  0.6134
 4113SOL    HW112880   3.177   1.979   0.003  1.6177  1.8606 -0.4127
 4113SOL    HW212881   3.250   2.035   0.123  0.2411 -0.2729  1.5107
 4114SOL     OW12882   7.456   2.642   6.465  0.2754 -0.4794 -0.6561
 4114SOL    HW112883   7.364   2.665   6.460  0.4804  0.3024 -0.9094
 4114SOL    HW212884   7.503   2.725   6.459  0.9491 -0.6424  1.4075
 4115SOL     OW12885   2.165   2.979   6.713 -0.0484  0.2959 -0.1794
 4115SOL    HW112886   2.225   3.044   6.676 -0.9319  0.5292 -1.2404
 4115SOL    HW212887   2.086   3.029   6.734 -0.9913 -0.5286 -1.6265
 4116SOL     OW12888   4.262   5.374   5.915  0.1204 -0.4608  0.2606
 4116SOL    HW112889   4.319   5.345   5.844 -0.3254 -2.2718  0.5809
 4116SOL    HW212890   4.292   5.462   5.935  0.2385  0.1418 -2.1812
 4117SOL     OW12891   5.571   0.334   0.502  0.2453  0.2838  0.0915
 4117SOL    HW112892   5.510   0.315   0.574  0.8097  1.0738  0.7991
 4117SOL    HW212893   5.532   0.291   0.426 -0.5072 -0.3425  0.8117
 4118SOL     OW12894   6.718   4.012   5.735 -0.7815 -0.5805  0.4316
 4118SOL    HW112895   6.759   4.092   5.704 -0.0516  0.3714  3.5062
 4118SOL    HW212896   6.649   4.042   5.795 -3.2196 -2.2421 -1.3254
 4119SOL     OW12897   4.506   6.586   5.723  0.5956 -0.4078  0.3594
 4119SOL    HW112898   4.560   6.524   5.773  0.9524 -1.9157 -1.7264
 4119SOL    HW212899   4.416   6.560   5.742  0.6280  0.5811  2.0122
 4120SOL     OW12900   1.564   5.185   1.197  0.1391  0.2943  0.2159
 4120SOL    HW112901   1.501   5.240   1.242 -1.5848 -0.0178 -1.6670
 4120SOL    HW212902   1.627   5.160   1.265 -1.1879  1.4260  1.9542
 4121SOL     OW12903   1.881   1.913   0.581  0.1589  0.1708 -0.2909
 4121SOL    HW112904   1.792   1.878   0.574  0.5029 -0.5241 -1.2930
 4121SOL    HW212905   1.870   1.997   0.625 -1.0760  0.3960 -0.9932
 4122SOL     OW12906   5.248   3.972   7.201  0.0357  0.1943  0.4857
 4122SOL    HW112907   5.213   4.042   7.146 -0.3907 -0.1232  0.3405
 4122SOL    HW212908   5.336   3.957   7.168  0.5985  1.4977  1.3229
 4123SOL     OW12909   4.441   5.875   0.503  0.1595  0.1240  0.1391
 4123SOL    HW112910   4.504   5.914   0.565  1.9891 -1.7377 -0.4240
 4123SOL    HW212911   4.399   5.805   0.553 -1.5157  1.3041  0.4860
 4124SOL     OW12912   1.590   2.341   2.911  0.3383 -0.3922 -0.0343
 4124SOL    HW112913   1.542   2.317   2.991  0.6388 -0.9919 -0.0338
 4124SOL    HW212914   1.521   2.371   2.851 -0.0081 -0.9575  0.0737
 4125SOL     OW12915   2.491   1.169   2.173 -0.1151 -0.2895 -0.0838
 4125SOL    HW112916   2.466   1.082   2.143 -0.1351 -0.3169  0.0114
 4125SOL    HW212917   2.429   1.228   2.130 -1.1847 -0.4678  1.1586
 4126SOL     OW12918   2.838   5.400   2.943  0.4337 -0.3987 -0.5424
 4126SOL    HW112919   2.762   5.342   2.948  0.5005 -0.5154 -0.9083
 4126SOL    HW212920   2.863   5.413   3.035 -0.9255  0.8330 -0.2905
 4127SOL     OW12921   3.187   2.449   6.578 -0.0813 -0.3421  0.3647
 4127SOL    HW112922   3.158   2.475   6.666 -0.0482  1.3909 -0.1051
 4127SOL    HW212923   3.282   2.437   6.587 -0.0862 -0.2264  0.5710
 4128SOL     OW12924   5.098   2.645   6.112  0.3084  0.0164 -0.1742
 4128SOL    HW112925   5.181   2.669   6.153  0.1968  1.2660 -0.6519
 4128SOL    HW212926   5.033   2.703   6.152 -0.3770 -1.0261  0.2822
 4129SOL     OW12927   4.606   4.997   6.064  0.0233  0.5451  0.2906
 4129SOL    HW112928   4.688   5.013   6.113 -0.2922 -0.9980  1.3856
 4129SOL    HW212929   4.599   4.902   6.060 -0.8719  0.6486 -1.3104
 4130SOL     OW12930   1.835   2.611   4.504 -0.7937 -0.3282 -1.0077
 4130SOL    HW112931   1.889   2.532   4.508  1.5446  1.0458  4.0346
 4130SOL    HW212932   1.762   2.593   4.564  0.4377  1.5050  1.2088
 4131SOL     OW12933   2.335   3.872   2.985 -0.0837  0.2492 -0.3686
 4131SOL    HW112934   2.338   3.925   3.064  0.0910 -1.1179  0.5784
 4131SOL    HW212935   2.416   3.892   2.939  0.2472  0.3776  0.2615
 4132SOL     OW12936   5.564   7.600   5.327 -0.7191 -0.7349  0.3514
 4132SOL    HW112937   5.572   7.649   5.409 -0.7298  0.3865 -0.3070
 4132SOL    HW212938   5.481   7.553   5.336 -1.3912  0.4363  0.4403
 4133SOL     OW12939   1.237   0.612   4.191 -0.2223 -0.5961  0.6350
 4133SOL    HW112940   1.157   0.637   4.145  0.3487  0.6673  0.2786
 4133SOL    HW212941   1.242   0.672   4.265  0.3267 -0.7451  0.7224
 4134SOL     OW12942   4.096   5.437   6.450 -0.1579 -0.2391  0.0691
 4134SOL    HW112943   4.165   5.384   6.491 -0.5228 -1.0442 -0.3386
 4134SOL    HW212944   4.027   5.441   6.517 -0.9172 -1.8806 -0.5651
 4135SOL     OW12945   5.354   4.757   4.725  0.0145 -0.0659 -0.1371
 4135SOL    HW112946   5.440   4.785   4.694  1.2350 -2.7756  0.4536
 4135SOL    HW212947   5.340   4.672   4.682 -3.0260  0.9023 -1.2484
 4136SOL     OW12948   3.255   5.826   5.529  0.1273  0.5287 -0.1957
 4136SOL    HW112949   3.188   5.808   5.463 -0.3622  0.6776  0.2524
 4136SOL    HW212950   3.338   5.803   5.487 -0.2196  0.2123 -0.7066
 4137SOL     OW12951   3.725   2.747   6.147  0.5139  0.3781  0.2117
 4137SOL    HW112952   3.793   2.802   6.109  2.1393 -0.8000  1.2915
 4137SOL    HW212953   3.688   2.700   6.072  0.1450  1.7814 -0.5181
 4138SOL     OW12954   6.330   3.265   7.376 -0.2833  0.2232  0.1263
 4138SOL    HW112955   6.374   3.208   7.439  0.3790 -1.1123 -1.4641
 4138SOL    HW212956   6.396   3.332   7.355 -0.8057  1.2041  1.4366
 4139SOL     OW12957   3.791   3.209   0.774 -0.2781 -0.0527 -0.0989
 4139SOL    HW112958   3.765   3.168   0.691 -0.5468 -0.9051  0.3954
 4139SOL    HW212959   3.854   3.276   0.748 -1.3961  0.6513 -1.1289
 4140SOL     OW12960   1.881   4.488   5.711 -0.5538 -0.3683 -0.0482
 4140SOL    HW112961   1.833   4.415   5.750  0.5795 -1.1581 -0.0763
 4140SOL    HW212962   1.883   4.555   5.779 -2.3314 -0.0048 -0.3169
 4141SOL     OW12963   0.474   0.122   5.872  0.0780  0.1066 -0.2477
 4141SOL    HW112964   0.384   0.088   5.869  0.0134  0.1402  0.9798
 4141SOL    HW212965   0.470   0.194   5.936  1.3157 -0.9597  1.0787
 4142SOL     OW12966   4.953   5.896   0.415  0.2570  0.1612 -0.6840
 4142SOL    HW112967   5.033   5.899   0.468  0.7955 -0.1737 -1.4585
 4142SOL    HW212968   4.922   5.806   0.422  0.3910  0.0875 -1.0192
 4143SOL     OW12969   3.102   6.679   1.342  0.6865 -1.4247 -0.0642
 4143SOL    HW112970   3.132   6.675   1.433 -0.1561 -0.8732  0.2515
 4143SOL    HW212971   3.013   6.645   1.345  0.3797 -0.6885 -0.5463
 4144SOL     OW12972   6.185   0.039   4.403  0.2085 -0.1780  0.5537
 4144SOL    HW112973   6.192  -0.044   4.357 -0.1006 -0.2821  0.6939
 4144SOL    HW212974   6.253   0.094   4.364  1.3482 -0.9447  1.4195
 4145SOL     OW12975   2.400   1.419   2.665 -0.3612 -0.0974  0.4549
 4145SOL    HW112976   2.481   1.394   2.708  0.0561  2.1378  1.0954
 4145SOL    HW212977   2.414   1.398   2.572  1.7034  1.8498  0.2382
 4146SOL     OW12978   2.857   4.407   1.865 -0.0610  0.2771 -0.1440
 4146SOL    HW112979   2.861   4.389   1.959 -1.0421 -0.9284 -0.3035
 4146SOL    HW212980   2.936   4.366   1.829  0.0739  0.3316  0.0921
 4147SOL     OW12981   6.059   2.277   3.196  0.3214  0.2955 -0.5155
 4147SOL    HW112982   6.078   2.194   3.241 -0.0787  1.2809  1.6328
 4147SOL    HW212983   6.138   2.330   3.208 -0.9522  1.8053  2.1734
 4148SOL     OW12984   4.984   4.904   6.907 -0.1482  0.3517 -0.7677
 4148SOL    HW112985   4.949   4.993   6.899 -1.2242  0.1205  0.8964
 4148SOL    HW212986   4.995   4.891   7.001 -2.9471 -2.3096 -0.6502
 4149SOL     OW12987   4.514   3.426   6.387 -0.2366 -0.4212 -0.2176
 4149SOL    HW112988   4.513   3.518   6.362 -0.1538 -0.4530 -0.3418
 4149SOL    HW212989   4.436   3.389   6.345  0.6585 -0.7861 -1.6583
 4150SOL     OW12990   5.028   0.203   5.795  0.0704 -0.1595  0.2631
 4150SOL    HW112991   4.981   0.286   5.791  0.8463  0.5478  3.4069
 4150SOL    HW212992   4.981   0.153   5.862  2.6237 -0.1225  2.2157
 4151SOL     OW12993   6.139   4.020   0.970  0.5153 -0.2702 -0.4060
 4151SOL    HW112994   6.109   4.072   1.045 -1.9458 -1.1241 -0.7091
 4151SOL    HW212995   6.210   3.967   1.006 -0.7289 -0.8127  1.4260
 4152SOL     OW12996   2.104   0.633   0.992 -0.2591  0.3002  0.5106
 4152SOL    HW112997   2.043   0.660   1.061  0.1749 -1.0758  1.4692
 4152SOL    HW212998   2.190   0.640   1.033  0.0276 -0.2308  0.0005
 4153SOL     OW12999   1.340   7.027   6.207 -0.0848  0.0105  0.8088
 4153SOL    HW113000   1.313   7.104   6.157 -0.7514 -0.0825  1.0043
 4153SOL    HW213001   1.334   7.054   6.298  0.6043  0.0157  0.8509
 4154SOL     OW13002   1.383   1.721   2.927 -0.7952  0.0766 -0.2862
 4154SOL    HW113003   1.332   1.681   2.856  0.3314 -0.5380 -0.7579
 4154SOL    HW213004   1.326   1.714   3.004 -0.9956 -1.6113 -0.5597
 4155SOL     OW13005   5.359   6.785   1.255 -0.2095 -0.3798  0.1506
 4155SOL    HW113006   5.449   6.817   1.251 -0.5629  0.4681 -2.6208
 4155SOL    HW213007   5.365   6.694   1.227 -0.2290 -0.3115 -0.0735
 4156SOL     OW13008   6.007   3.428   3.797  0.5618  0.0154 -0.0713
 4156SOL    HW113009   6.003   3.332   3.805  2.5542 -0.2679 -1.5576
 4156SOL    HW213010   5.955   3.448   3.719  0.5871  0.0837 -0.0704
 4157SOL     OW13011   1.108   4.068   3.467  0.2061  0.3011 -0.0119
 4157SOL    HW113012   1.036   4.109   3.515  1.2284 -0.1190  2.0148
 4157SOL    HW213013   1.185   4.120   3.490  1.1305 -1.3186  0.7442
 4158SOL     OW13014   0.313   0.552   7.130  0.7752 -0.6694 -0.0411
 4158SOL    HW113015   0.399   0.515   7.148  1.6438  2.0927  2.2560
 4158SOL    HW213016   0.317   0.579   7.039  2.6080 -0.0510  0.1825
 4159SOL     OW13017   5.591   6.971   6.749  0.0239  0.3671  0.0460
 4159SOL    HW113018   5.556   7.029   6.817 -0.0081  1.0218 -0.5261
 4159SOL    HW213019   5.641   6.905   6.797 -1.7984 -0.4886  0.8985
 4160SOL     OW13020   2.189   4.713   0.893  0.0504  0.2075  0.2543
 4160SOL    HW113021   2.128   4.729   0.965 -0.1170 -1.4545  0.5104
 4160SOL    HW213022   2.268   4.761   0.917  0.3155 -1.0443  2.0162
 4161SOL     OW13023   4.615   7.146   5.205  0.5138  0.4142 -0.5466
 4161SOL    HW113024   4.641   7.233   5.236 -2.4014  1.3441 -0.3604
 4161SOL    HW213025   4.656   7.138   5.119  0.1688  2.3740 -0.9491
 4162SOL     OW13026   3.028   0.200   7.214 -0.0107 -0.6109 -0.3556
 4162SOL    HW113027   3.030   0.285   7.171 -0.8294 -0.7235 -0.6412
 4162SOL    HW213028   3.052   0.218   7.305  1.3275 -0.3122 -0.7456
 4163SOL     OW13029   7.612   1.728   2.444  0.1277  0.0131 -0.0619
 4163SOL    HW113030   7.641   1.643   2.476 -0.2143  0.0323  0.3055
 4163SOL    HW213031   7.585   1.712   2.354 -1.9084 -0.7235  0.6345
 4164SOL     OW13032   2.498   5.134   1.302 -0.2193 -0.5059 -0.6524
 4164SOL    HW113033   2.530   5.074   1.235  1.2288  0.7915 -1.1838
 4164SOL    HW213034   2.573   5.148   1.360 -0.5718  0.6443 -0.4549
 4165SOL     OW13035   2.982   6.304   0.334  0.3348 -0.6437  0.3733
 4165SOL    HW113036   2.933   6.276   0.257 -1.5476 -0.8050  1.5721
 4165SOL    HW213037   3.015   6.223   0.373  2.4223 -0.4911 -0.8929
 4166SOL     OW13038   7.247   2.546   6.972  0.1205  0.0853 -0.0059
 4166SOL    HW113039   7.300   2.505   7.040  1.3772  1.9955  0.2519
 4166SOL    HW213040   7.311   2.578   6.908 -0.9520 -0.4785 -1.4370
 4167SOL     OW13041   7.624   2.575   2.246  0.0476  0.3054  0.0429
 4167SOL    HW113042   7.545   2.610   2.287  0.3239 -1.7339  2.5538
 4167SOL    HW213043   7.597   2.490   2.211  0.8477  0.1511 -0.2188
 4168SOL     OW13044   5.500   6.469   0.558  0.6011  0.1219  0.2072
 4168SOL    HW113045   5.523   6.377   0.551 -0.8823 -0.2313 -0.4321
 4168SOL    HW213046   5.417   6.477   0.511 -0.8881  1.1597  2.8001
 4169SOL     OW13047   0.281   0.118   6.663  0.0600 -0.3220  0.6165
 4169SOL    HW113048   0.258   0.190   6.722  1.4280  1.8783 -1.3504
 4169SOL    HW213049   0.209   0.115   6.600  1.2637  1.2959 -0.9329
 4170SOL     OW13050   5.194   5.648   5.515 -0.6696  0.0886  0.2850
 4170SOL    HW113051   5.210   5.711   5.445 -1.6930  0.6054  0.4976
 4170SOL    HW213052   5.126   5.591   5.480  0.6591 -1.3219 -0.1426
 4171SOL     OW13053   6.338   0.485   1.027 -0.6233  0.1874  0.5556
 4171SOL    HW113054   6.307   0.395   1.031 -0.2557  0.0782  1.1128
 4171SOL    HW213055   6.394   0.488   0.949  1.0263 -0.6222  1.6368
 4172SOL     OW13056   6.787   1.400   6.884  0.4722  0.2061  0.1532
 4172SOL    HW113057   6.792   1.460   6.809  0.5123 -1.1199 -0.9487
 4172SOL    HW213058   6.769   1.315   6.845  2.2281 -0.8573  1.4990
 4173SOL     OW13059   6.460   2.209   6.190  0.7186  0.3030  0.1015
 4173SOL    HW113060   6.543   2.227   6.147  2.5863 -1.1049  2.8075
 4173SOL    HW213061   6.456   2.114   6.196 -1.8252  0.2485 -1.1523
 4174SOL     OW13062   5.488   2.375   4.813  0.0972  0.1107 -0.2164
 4174SOL    HW113063   5.476   2.314   4.887 -0.4298  0.8566  0.3263
 4174SOL    HW213064   5.532   2.323   4.746  2.2089 -0.1586  1.2590
 4175SOL     OW13065   0.455   3.887   6.688 -0.5549 -0.3142 -0.3881
 4175SOL    HW113066   0.491   3.962   6.640 -0.3125  0.3837  0.8543
 4175SOL    HW213067   0.371   3.919   6.723 -0.3590 -0.5489  0.3127
 4176SOL     OW13068   0.809   6.784   2.027  0.1052 -0.0972  0.5560
 4176SOL    HW113069   0.727   6.818   2.063  0.9262  2.1334  0.4837
 4176SOL    HW213070   0.782   6.712   1.970 -1.8217  0.6445  0.4472
 4177SOL     OW13071   4.924   5.722   1.972  0.0752 -0.0702  0.1956
 4177SOL    HW113072   4.866   5.729   1.896 -1.2560  1.5174  1.3016
 4177SOL    HW213073   4.955   5.631   1.969 -0.3493 -0.2068 -1.9223
 4178SOL     OW13074   2.606   6.896   0.897 -0.2051  0.3990  0.1687
 4178SOL    HW113075   2.611   6.814   0.848 -1.1799  0.9882 -0.9588
 4178SOL    HW213076   2.546   6.876   0.970  0.7877 -0.3093  0.8207
 4179SOL     OW13077   2.601   4.970   4.235  0.0216 -0.0961 -0.9178
 4179SOL    HW113078   2.522   4.964   4.181 -0.7303  1.1380 -0.0346
 4179SOL    HW213079   2.602   4.888   4.285 -0.3102 -0.4296 -1.4475
 4180SOL     OW13080   3.581   0.568   6.926 -0.0575  0.1149 -0.3315
 4180SOL    HW113081   3.533   0.598   7.003  1.0975 -1.8851  1.2654
 4180SOL    HW213082   3.670   0.554   6.957  0.7934  0.5165 -2.3946
 4181SOL     OW13083   6.524   6.455   5.502 -0.0662 -0.6110  0.6265
 4181SOL    HW113084   6.547   6.398   5.429  0.6217 -0.0579  0.3947
 4181SOL    HW213085   6.583   6.531   5.492 -1.4172  0.4661  0.5164
 4182SOL     OW13086   3.680   3.572   5.866  0.5336 -0.2503 -0.1773
 4182SOL    HW113087   3.712   3.577   5.956  1.0817  2.5460 -0.4428
 4182SOL    HW213088   3.605   3.632   5.864  1.3173  0.7543 -1.8393
 4183SOL     OW13089   3.307   4.232   2.424  0.3696  0.0770  0.3122
 4183SOL    HW113090   3.373   4.298   2.444  0.8768 -0.6045  0.9403
 4183SOL    HW213091   3.273   4.257   2.338  1.3752  0.4810  0.0247
 4184SOL     OW13092   3.417   5.237   1.537 -0.0492  0.1347 -0.9526
 4184SOL    HW113093   3.453   5.321   1.565 -0.8440  0.3297 -0.4739
 4184SOL    HW213094   3.328   5.236   1.573  0.1927 -1.2243 -0.3520
 4185SOL     OW13095   5.003   2.462   7.241  0.1358 -0.3310 -0.4357
 4185SOL    HW113096   5.078   2.498   7.290 -0.9957  0.2466  0.9506
 4185SOL    HW213097   4.939   2.534   7.239 -1.2971 -1.5293  0.4487
 4186SOL     OW13098   0.336   4.611   5.043  0.0117 -0.2971 -0.3325
 4186SOL    HW113099   0.386   4.550   4.988  1.5034  1.5564 -1.1726
 4186SOL    HW213100   0.260   4.561   5.071  0.4183 -2.0891 -2.1419
 4187SOL     OW13101   0.363   0.653   0.390 -0.4324 -0.4635  0.3784
 4187SOL    HW113102   0.377   0.687   0.302 -0.1161  0.6954  0.8523
 4187SOL    HW213103   0.408   0.568   0.391  0.0565 -0.2201 -0.4067
 4188SOL     OW13104   4.413   7.422   5.481  0.0507  0.1105  0.2096
 4188SOL    HW113105   4.478   7.476   5.436 -0.2876  0.3726  0.0303
 4188SOL    HW213106   4.346   7.484   5.509 -1.0131 -0.3768 -1.1561
 4189SOL     OW13107   7.148   5.257   7.061  0.8468 -0.6536  0.0161
 4189SOL    HW113108   7.115   5.254   7.151 -1.1379 -0.4528 -0.6714
 4189SOL    HW213109   7.177   5.348   7.050  0.0758 -0.3955  0.1017
 4190SOL     OW13110   4.957   1.026   4.376 -0.2610 -0.0329 -0.0250
 4190SOL    HW113111   4.905   0.950   4.351 -0.0311 -0.0799 -0.3719
 4190SOL    HW213112   4.982   1.066   4.292 -0.2412  0.3291  0.1508
 4191SOL     OW13113   0.679   4.201   1.869  0.3470 -0.3376 -0.6450
 4191SOL    HW113114   0.695   4.109   1.886 -0.2532 -0.1982  0.8088
 4191SOL    HW213115   0.698   4.245   1.952 -3.1602  0.3523 -0.0620
 4192SOL     OW13116   1.571   2.174   1.263  0.0696  0.2063  0.3357
 4192SOL    HW113117   1.510   2.242   1.291  0.9358  1.5548 -0.8780
 4192SOL    HW213118   1.517   2.110   1.218 -0.2985  2.7538 -3.2405
 4193SOL     OW13119   2.187   3.085   2.838 -0.6102 -0.6321 -0.5145
 4193SOL    HW113120   2.269   3.071   2.790  0.5327  0.9119  0.8850
 4193SOL    HW213121   2.128   3.123   2.773  0.7725  1.0353 -0.8869
 4194SOL     OW13122   4.842   6.360   0.805 -0.7193 -0.3764 -0.1487
 4194SOL    HW113123   4.822   6.285   0.861  0.3375 -1.3069 -0.9775
 4194SOL    HW213124   4.928   6.341   0.768  0.7535  2.4032  1.5333
 4195SOL     OW13125   6.128   6.535   2.939  0.3449 -0.1990  0.2730
 4195SOL    HW113126   6.079   6.590   3.000 -0.1680 -0.0270 -0.2864
 4195SOL    HW213127   6.065   6.467   2.913 -0.3273  1.1822 -2.0439
 4196SOL     OW13128   5.984   3.960   0.475 -0.0877  0.4280 -0.0415
 4196SOL    HW113129   5.896   3.995   0.462  0.6766  2.1254 -0.9452
 4196SOL    HW213130   6.032   4.030   0.519  1.1264 -0.0375 -0.5636
 4197SOL     OW13131   5.585   0.024   1.956  0.0797  0.2211 -0.6129
 4197SOL    HW113132   5.492   0.036   1.973 -0.1752 -3.6369  2.0472
 4197SOL    HW213133   5.588  -0.050   1.895  1.3663 -0.4083  0.1796
 4198SOL     OW13134   6.383   6.253   5.643 -0.3434  0.2796  0.3337
 4198SOL    HW113135   6.452   6.318   5.624 -0.2276 -0.1575 -0.7672
 4198SOL    HW213136   6.426   6.169   5.633 -1.0164  0.0028 -0.2360
 4199SOL     OW13137   6.495   2.512   5.549  0.4247  0.0843 -0.3573
 4199SOL    HW113138   6.401   2.499   5.561  0.4307  0.7724  0.5652
 4199SOL    HW213139   6.533   2.426   5.563 -0.0368 -0.1248 -0.3474
 4200SOL     OW13140   6.309   2.013   1.303 -1.2102 -0.3103  0.4169
 4200SOL    HW113141   6.250   1.987   1.232 -0.0999 -0.6059 -0.4112
 4200SOL    HW213142   6.396   1.986   1.275 -0.5337  0.8785  1.2331
 4201SOL     OW13143   6.431   4.504   0.512 -0.0012 -0.1597  0.0462
 4201SOL    HW113144   6.344   4.539   0.495 -0.0263 -0.5788 -0.7412
 4201SOL    HW213145   6.445   4.519   0.605 -1.4093 -1.1886  0.4557
 4202SOL     OW13146   5.700   3.068   5.493 -0.3087  0.5096  0.1699
 4202SOL    HW113147   5.618   3.037   5.457 -1.0705  1.9839  0.5400
 4202SOL    HW213148   5.747   2.989   5.519 -1.3519 -0.3769 -0.5643
 4203SOL     OW13149   1.624   6.483   3.392 -0.3243 -0.2176  0.2502
 4203SOL    HW113150   1.554   6.419   3.377 -0.2516 -0.1704 -0.2792
 4203SOL    HW213151   1.596   6.530   3.471 -0.3824 -0.8951  0.6468
 4204SOL     OW13152   4.616   0.947   5.150 -0.4272 -0.6401  0.1074
 4204SOL    HW113153   4.682   1.012   5.127  0.6342 -1.2883  1.2270
 4204SOL    HW213154   4.547   0.998   5.195  1.0582 -0.4098  2.2983
 4205SOL     OW13155   3.896   5.085   0.785  0.1888  0.0633  0.4662
 4205SOL    HW113156   3.813   5.071   0.831  0.0865 -0.9327  0.0192
 4205SOL    HW213157   3.919   4.998   0.751  0.3815  0.7223 -1.1564
 4206SOL     OW13158   1.937   7.577   6.038  0.1514  0.1177  0.6062
 4206SOL    HW113159   1.910   7.639   5.971  0.4920 -0.8250 -0.4494
 4206SOL    HW213160   1.858   7.528   6.059  0.3394 -0.5930 -0.2460
 4207SOL     OW13161   2.714   0.683   0.793 -0.0040  0.3229 -0.0171
 4207SOL    HW113162   2.784   0.680   0.859  0.1715  1.5681 -0.1255
 4207SOL    HW213163   2.706   0.776   0.771  0.2053 -0.1024 -2.0338
 4208SOL     OW13164   5.004   5.467   4.815  0.1195 -0.3513  0.5176
 4208SOL    HW113165   4.937   5.485   4.750  0.8113  2.9187  0.5067
 4208SOL    HW213166   4.969   5.503   4.897  1.4272  0.6264  0.6960
 4209SOL     OW13167   3.329   6.630   1.052 -0.0405 -0.1877 -0.2521
 4209SOL    HW113168   3.392   6.641   0.980 -1.8836  0.5427 -1.8746
 4209SOL    HW213169   3.300   6.719   1.072  1.5325 -0.1981  2.5568
 4210SOL     OW13170   2.030   2.463   3.216 -0.2585  0.0922 -0.4310
 4210SOL    HW113171   2.098   2.517   3.256 -0.2300  0.3033 -0.7609
 4210SOL    HW213172   1.967   2.447   3.286  1.2496 -2.0194  0.5812
 4211SOL     OW13173   6.986   2.203   6.148  0.2461  0.2208  0.3727
 4211SOL    HW113174   7.028   2.118   6.157 -1.4659 -0.8506 -1.1725
 4211SOL    HW213175   7.011   2.233   6.061  0.9185  1.3962  0.9389
 4212SOL     OW13176   1.285   6.468   7.133 -0.5194  0.0233  0.6817
 4212SOL    HW113177   1.309   6.405   7.064  1.6389  1.3049  0.1569
 4212SOL    HW213178   1.221   6.421   7.187  0.5918 -2.4379  0.0122
 4213SOL     OW13179   1.626   0.531   0.736 -0.2697 -0.2553 -0.2307
 4213SOL    HW113180   1.544   0.551   0.781  0.3520  0.6936  0.5127
 4213SOL    HW213181   1.599   0.485   0.656 -1.7358  2.2681 -1.3126
 4214SOL     OW13182   1.451   2.473   3.942 -0.3602  0.1184 -0.1119
 4214SOL    HW113183   1.366   2.510   3.968 -0.7091 -0.2201 -0.7616
 4214SOL    HW213184   1.513   2.545   3.955 -0.8392  0.5473 -0.1851
 4215SOL     OW13185   4.097   7.464   2.648  0.1965 -0.0928 -1.0696
 4215SOL    HW113186   4.051   7.404   2.706 -2.8936  0.6452 -2.5491
 4215SOL    HW213187   4.086   7.550   2.687 -1.3651  0.3265 -2.3397
 4216SOL     OW13188   4.509   4.578   5.663 -0.3108  0.1629 -0.0532
 4216SOL    HW113189   4.414   4.578   5.665 -0.3432 -0.3522 -0.8741
 4216SOL    HW213190   4.536   4.569   5.754 -1.0451  0.2892  0.1784
 4217SOL     OW13191   0.327   0.504   6.224  0.6665 -0.3982  0.0295
 4217SOL    HW113192   0.320   0.531   6.315  1.0043 -0.1615 -0.0149
 4217SOL    HW213193   0.397   0.558   6.188 -0.3547  0.4832 -0.7127
 4218SOL     OW13194   5.310   2.902   6.426  0.1030 -0.6737  0.6117
 4218SOL    HW113195   5.275   2.885   6.339  0.0989  3.7224 -0.4947
 4218SOL    HW213196   5.236   2.889   6.486 -0.9716 -0.1052 -0.5539
 4219SOL     OW13197   6.365   6.934   5.118 -0.2479 -0.2085  0.1720
 4219SOL    HW113198   6.336   6.961   5.031 -1.1992  0.1664  0.5984
 4219SOL    HW213199   6.308   6.860   5.140 -1.8243  1.3366  1.5493
 4220SOL     OW13200   7.050   6.587   7.435 -0.0886 -0.2713 -0.5539
 4220SOL    HW113201   7.063   6.615   7.344  0.4043 -1.6653 -0.9326
 4220SOL    HW213202   7.081   6.661   7.487 -0.2738  0.5056 -1.5042
 4221SOL     OW13203   3.706   1.532   6.812  0.4903  0.2296  0.1482
 4221SOL    HW113204   3.676   1.514   6.723  1.2039  0.2163 -0.0981
 4221SOL    HW213205   3.643   1.487   6.868  0.3713 -0.2679 -0.3715
 4222SOL     OW13206   6.678   4.294   4.333 -0.3368 -0.0348 -0.6145
 4222SOL    HW113207   6.719   4.310   4.248  0.8381 -2.2944 -0.5640
 4222SOL    HW213208   6.726   4.350   4.393 -0.5321  0.8670 -1.2781
 4223SOL     OW13209   3.248   0.439   4.952 -0.6607  0.2345 -0.7452
 4223SOL    HW113210   3.161   0.398   4.954 -0.8624  0.5767  2.0770
 4223SOL    HW213211   3.304   0.374   4.910 -1.4067 -2.0773  1.5732
 4224SOL     OW13212   1.931   3.220   7.571 -0.4725 -0.3455 -0.4495
 4224SOL    HW113213   1.956   3.193   7.483  0.7218 -2.9377  0.5765
 4224SOL    HW213214   2.006   3.195   7.626 -0.0852  3.4141  1.0471
 4225SOL     OW13215   1.146   2.706   5.665 -0.5392  0.1527  0.0065
 4225SOL    HW113216   1.120   2.614   5.654  1.5341 -0.4385 -0.4256
 4225SOL    HW213217   1.238   2.702   5.690  0.2797  2.1569 -2.3049
 4226SOL     OW13218   1.371   2.490   4.658  0.3193  0.2910  0.0566
 4226SOL    HW113219   1.349   2.455   4.572 -0.9463  1.7113 -0.2547
 4226SOL    HW213220   1.316   2.441   4.719  0.7950 -0.3240 -0.0036
 4227SOL     OW13221   0.640   5.309   6.474  0.4240 -0.2992 -0.2938
 4227SOL    HW113222   0.565   5.307   6.414  0.1362 -0.8607  0.0762
 4227SOL    HW213223   0.618   5.378   6.537 -0.9654 -2.0268  1.2683
 4228SOL     OW13224   3.544   1.702   6.019  0.1823  0.3586  0.2184
 4228SOL    HW113225   3.532   1.756   5.940  0.2382  1.1701  0.7492
 4228SOL    HW213226   3.456   1.691   6.054 -0.0131 -1.1225 -0.6563
 4229SOL     OW13227   3.252   0.533   5.209 -0.2517 -0.4397  0.5904
 4229SOL    HW113228   3.265   0.496   5.121  1.1571 -1.7026  1.2794
 4229SOL    HW213229   3.204   0.464   5.256 -0.8031  0.1423  0.8906
 4230SOL     OW13230   6.210   1.700   0.664  0.3696 -0.0654 -0.1212
 4230SOL    HW113231   6.245   1.681   0.577 -2.4905 -1.4383 -1.0708
 4230SOL    HW213232   6.203   1.795   0.667  1.0131  0.0295 -1.1310
 4231SOL     OW13233   1.824   3.018   1.163  0.2355  0.0459 -0.2858
 4231SOL    HW113234   1.858   3.074   1.233  2.2719  2.6489 -3.1117
 4231SOL    HW213235   1.877   2.939   1.168 -0.7280 -0.5521  1.9902
 4232SOL     OW13236   6.265   4.225   2.728  0.4979  0.3633  0.4085
 4232SOL    HW113237   6.307   4.289   2.785  1.4433  0.3375 -0.2396
 4232SOL    HW213238   6.318   4.225   2.648  0.3137 -0.9824  0.2633
 4233SOL     OW13239   0.004   2.223   0.376  0.4524  0.2292  0.2005
 4233SOL    HW113240  -0.091   2.213   0.371  0.5039 -0.2493  0.0797
 4233SOL    HW213241   0.022   2.304   0.329 -0.0481  1.2638  1.7344
 4234SOL     OW13242   2.539   6.760   6.013 -0.3384 -1.0929  0.2053
 4234SOL    HW113243   2.583   6.727   6.091 -0.6775 -0.9129  0.4725
 4234SOL    HW213244   2.447   6.740   6.027 -0.4119 -0.9748 -0.1069
 4235SOL     OW13245   2.949   2.910   1.839  0.6463 -0.0453 -0.2268
 4235SOL    HW113246   2.877   2.854   1.812  1.0899  0.0475 -1.6883
 4235SOL    HW213247   2.916   2.999   1.829  1.5324  0.0683 -2.8123
 4236SOL     OW13248   1.010   1.875   5.285  0.2402  0.2391  0.5862
 4236SOL    HW113249   0.933   1.830   5.320  1.2348 -2.3966 -0.3714
 4236SOL    HW213250   1.071   1.805   5.264  2.6512  2.1951  0.6120
 4237SOL     OW13251   0.097   4.952   2.895  0.1994  0.0183 -0.9109
 4237SOL    HW113252   0.148   4.985   2.969  1.4150 -1.4018 -1.0774
 4237SOL    HW213253   0.006   4.969   2.920  0.6474  0.8514  0.2637
 4238SOL     OW13254   3.115   0.582   7.349  0.1500 -0.1172  0.3037
 4238SOL    HW113255   3.111   0.575   7.445  1.7681 -0.1444  0.4106
 4238SOL    HW213256   3.116   0.676   7.331  0.5090 -0.1065  0.3682
 4239SOL     OW13257   5.091   4.632   0.860 -0.2521  0.0330  0.2998
 4239SOL    HW113258   5.156   4.596   0.920 -0.1524  1.4701  1.0884
 4239SOL    HW213259   5.007   4.595   0.890 -0.0348 -0.3614  0.4271
 4240SOL     OW13260   1.857   1.229   1.041  0.4995 -0.5589 -0.2130
 4240SOL    HW113261   1.927   1.165   1.031  1.5591  0.3542  1.0507
 4240SOL    HW213262   1.902   1.313   1.042 -0.3460 -0.0438  2.6548
 4241SOL     OW13263   2.378   6.141   4.729 -0.5463  0.6596  0.2680
 4241SOL    HW113264   2.307   6.206   4.729 -1.9215 -0.7571 -0.1768
 4241SOL    HW213265   2.334   6.059   4.708  1.0421 -0.5318  1.3953
 4242SOL     OW13266   4.695   4.192   3.818  0.2558 -0.0897 -0.0487
 4242SOL    HW113267   4.606   4.208   3.848  0.4968 -0.2915  0.7757
 4242SOL    HW213268   4.742   4.272   3.841  0.4823 -0.3132  0.2553
 4243SOL     OW13269   3.653   5.043   0.985 -0.4352  0.3563 -0.1145
 4243SOL    HW113270   3.682   5.087   1.065  0.4650 -0.4327  0.0128
 4243SOL    HW213271   3.568   5.083   0.965  1.1878  3.7039 -1.1870
 4244SOL     OW13272   0.916   6.999   2.594 -0.1577  0.1719 -0.3917
 4244SOL    HW113273   0.902   7.093   2.600  2.8193  0.7842 -1.3041
 4244SOL    HW213274   0.866   6.972   2.517  0.5984  1.4351 -1.3650
 4245SOL     OW13275   1.375   7.044   0.894  0.1884 -0.5670 -0.0504
 4245SOL    HW113276   1.388   6.959   0.852  0.1192 -0.4854 -0.2373
 4245SOL    HW213277   1.368   7.024   0.987 -2.2212 -1.0548 -0.2729
 4246SOL     OW13278   5.337   3.062   3.429  0.0801 -0.1446 -0.1804
 4246SOL    HW113279   5.417   3.013   3.410  0.1974  0.4741 -1.3262
 4246SOL    HW213280   5.336   3.133   3.366 -0.3875  1.0168  1.0890
 4247SOL     OW13281   6.014   6.982   0.474  0.3977  0.6404 -0.3500
 4247SOL    HW113282   6.048   7.041   0.406 -2.1464  1.2075 -1.2842
 4247SOL    HW213283   5.952   7.037   0.523  0.7179 -0.3076  1.1548
 4248SOL     OW13284   3.800   0.558   2.244  0.0780 -0.1801 -0.4077
 4248SOL    HW113285   3.757   0.565   2.329  2.3016 -0.3439  0.8148
 4248SOL    HW213286   3.871   0.622   2.248  2.1091 -2.2639 -0.8801
 4249SOL     OW13287   4.069   0.925   0.806  0.2020 -0.0812 -0.7824
 4249SOL    HW113288   4.077   0.977   0.726  1.9768 -1.3449 -1.4727
 4249SOL    HW213289   4.108   0.981   0.874  0.5164  0.1923 -1.1796
 4250SOL     OW13290   7.015   2.323   5.910  0.3096 -0.1664  0.2968
 4250SOL    HW113291   6.953   2.396   5.907  1.1318  0.5137 -1.6692
 4250SOL    HW213292   7.101   2.365   5.905  0.8784 -1.1846  1.2156
 4251SOL     OW13293   2.158   5.471   6.020  0.2718  0.0987  0.3162
 4251SOL    HW113294   2.238   5.477   5.969 -0.3146  0.4300 -0.5934
 4251SOL    HW213295   2.179   5.515   6.103  1.0505  0.0913  0.1303
 4252SOL     OW13296   0.544   4.059   4.469 -0.3408  0.4445  0.1671
 4252SOL    HW113297   0.468   4.007   4.446 -0.4451 -0.0602  1.5549
 4252SOL    HW213298   0.509   4.144   4.494 -0.5878 -0.1345  1.8886
 4253SOL     OW13299   2.125   0.875   7.309 -0.2176 -0.3064  0.5350
 4253SOL    HW113300   2.199   0.927   7.278 -0.1751  1.1704  2.8899
 4253SOL    HW213301   2.048   0.927   7.287 -0.2083  0.5708  2.3546
 4254SOL     OW13302   0.751   4.696   5.259  0.1717  0.2119 -0.0707
 4254SOL    HW113303   0.701   4.748   5.196 -0.0630  0.0022 -0.0572
 4254SOL    HW213304   0.841   4.701   5.227  0.1241  0.4719 -0.1744
 4255SOL     OW13305   3.249   3.517   0.701  0.4670 -0.2846  0.3310
 4255SOL    HW113306   3.299   3.436   0.708 -0.2756 -0.6827  1.1643
 4255SOL    HW213307   3.246   3.535   0.607 -0.7065 -2.0844 -0.0181
 4256SOL     OW13308   1.382   6.242   7.369 -0.3335  0.1354  0.0436
 4256SOL    HW113309   1.467   6.279   7.390 -0.7023  1.9832 -1.4641
 4256SOL    HW213310   1.373   6.166   7.427  2.0015  0.3312  0.7273
 4257SOL     OW13311   7.511   2.540   6.716  0.3271  0.2551  0.3526
 4257SOL    HW113312   7.547   2.451   6.713 -0.6285 -0.1490  0.5365
 4257SOL    HW213313   7.478   2.555   6.627  3.7243  1.8665 -0.8449
 4258SOL     OW13314   6.739   2.388   4.015  0.5857 -0.6785 -0.2689
 4258SOL    HW113315   6.764   2.479   4.033 -0.8916 -0.5101  1.2061
 4258SOL    HW213316   6.771   2.371   3.926  1.9319  0.8801 -0.1346
 4259SOL     OW13317   0.423   7.484   4.525  0.4737 -0.5997  0.4723
 4259SOL    HW113318   0.401   7.572   4.556  0.5687 -0.4105  0.0131
 4259SOL    HW213319   0.442   7.496   4.432 -0.7099 -1.3068  0.1223
 4260SOL     OW13320   5.343   3.569   6.256  0.1296  0.8973 -0.2811
 4260SOL    HW113321   5.435   3.572   6.283 -0.1595 -1.1135  1.1685
 4260SOL    HW213322   5.328   3.652   6.211  1.9431  2.4641  1.7950
 4261SOL     OW13323   6.984   0.224   7.040  0.0001 -0.0807  0.0726
 4261SOL    HW113324   6.945   0.140   7.062  1.1772 -1.1739 -1.7009
 4261SOL    HW213325   6.924   0.289   7.075  0.1784 -1.5725  3.5672
 4262SOL     OW13326   6.141   1.826   6.830 -0.6963  0.5439 -0.3126
 4262SOL    HW113327   6.234   1.804   6.827 -0.6789  0.4900  0.3175
 4262SOL    HW213328   6.125   1.846   6.922 -0.5468  3.9465 -0.9241
 4263SOL     OW13329   3.525   0.222   4.063  0.0055 -0.1703 -0.2497
 4263SOL    HW113330   3.558   0.140   4.099  1.3189  0.2816 -0.3734
 4263SOL    HW213331   3.480   0.264   4.137 -0.4045 -0.8508 -0.1061
 4264SOL     OW13332   2.701   4.006   7.575 -0.5563 -0.5635 -0.1208
 4264SOL    HW113333   2.730   4.044   7.493 -2.2189 -1.2608 -1.0791
 4264SOL    HW213334   2.780   3.965   7.612  0.1979 -0.2902 -1.3767
 4265SOL     OW13335   3.710   1.775   2.970 -0.0727 -0.1541 -0.2166
 4265SOL    HW113336   3.739   1.855   3.013 -2.3588  0.2847  0.6438
 4265SOL    HW213337   3.620   1.763   2.999 -0.8638 -1.3009 -2.8172
 4266SOL     OW13338   1.609   5.418   4.818  0.0202 -0.1766 -0.2682
 4266SOL    HW113339   1.662   5.341   4.836 -0.5772 -0.0878  2.2988
 4266SOL    HW213340   1.591   5.415   4.724  2.7541 -1.3379 -0.8289
 4267SOL     OW13341   0.377   7.241   2.724  0.4177  0.7198 -0.0705
 4267SOL    HW113342   0.355   7.291   2.803  1.7681  0.5779  0.4261
 4267SOL    HW213343   0.460   7.279   2.694  0.7352 -0.2712 -0.4920
 4268SOL     OW13344   4.827   3.466   6.137 -0.2862 -0.6211 -0.2088
 4268SOL    HW113345   4.758   3.521   6.100  0.2449  0.2509  0.0643
 4268SOL    HW213346   4.894   3.461   6.069  0.3821  0.4137  0.3518
 4269SOL     OW13347   4.856   6.781   0.974  0.0693 -0.5611  0.6388
 4269SOL    HW113348   4.908   6.861   0.984  0.2305  0.0492 -3.3382
 4269SOL    HW213349   4.920   6.713   0.954 -0.3127 -0.7783  0.1097
 4270SOL     OW13350   5.838   0.164   5.528  0.4560  0.5336  0.5801
 4270SOL    HW113351   5.826   0.255   5.502  1.8498  0.4721 -0.4127
 4270SOL    HW213352   5.916   0.165   5.584 -0.1244  0.0754  1.4278
 4271SOL     OW13353   2.054   4.576   1.272 -0.1551  0.5970 -0.0207
 4271SOL    HW113354   2.058   4.559   1.178 -3.5574  1.4409 -0.4372
 4271SOL    HW213355   2.086   4.666   1.281  0.4650  0.4114 -0.3072
 4272SOL     OW13356   1.753   7.502   3.131 -0.1403 -0.2386 -0.5002
 4272SOL    HW113357   1.670   7.463   3.160 -0.1680  0.0820 -0.1474
 4272SOL    HW213358   1.733   7.595   3.119  0.4331  0.0448  0.6312
 4273SOL     OW13359   5.213   1.542   7.172 -0.2684 -0.1600 -0.9400
 4273SOL    HW113360   5.171   1.562   7.089 -3.5612  1.1863  0.8398
 4273SOL    HW213361   5.289   1.600   7.176 -0.5851  0.4046 -2.5925
 4274SOL     OW13362   6.948   0.521   4.073  0.5256  0.0512  0.1911
 4274SOL    HW113363   6.928   0.511   3.980  1.6488  2.1427 -0.3468
 4274SOL    HW213364   6.907   0.446   4.115  0.6137 -1.3454 -2.0712
 4275SOL     OW13365   0.039   7.610   2.520  0.3628 -0.3657  0.1149
 4275SOL    HW113366   0.124   7.640   2.551  0.1775  1.1547 -0.7872
 4275SOL    HW213367  -0.025   7.660   2.572  0.0254 -0.5899 -0.0782
 4276SOL     OW13368   0.138   6.873   1.533 -0.0104  0.5416 -0.9797
 4276SOL    HW113369   0.182   6.875   1.448  0.5510 -0.8033 -0.7490
 4276SOL    HW213370   0.083   6.796   1.530  1.0471 -0.3208  0.3469
 4277SOL     OW13371   5.906   0.606   4.179 -0.1287  0.1525 -0.1998
 4277SOL    HW113372   5.931   0.597   4.087  0.6398  0.1076  0.0000
 4277SOL    HW213373   5.988   0.630   4.223 -0.3592 -0.4224  0.5593
 4278SOL     OW13374   5.768   4.738   3.186  0.2311 -0.5086  0.6611
 4278SOL    HW113375   5.749   4.830   3.170  0.4366 -0.0562  2.7410
 4278SOL    HW213376   5.799   4.705   3.102 -2.2862  0.6373 -0.8429
 4279SOL     OW13377   1.212   4.483   5.071  0.2352 -0.6955 -0.5002
 4279SOL    HW113378   1.251   4.558   5.116 -0.4271 -0.7570  0.2127
 4279SOL    HW213379   1.225   4.410   5.131 -0.7337 -0.7618 -0.3527
 4280SOL     OW13380   5.535   4.225   4.036 -0.2972  0.7272 -0.6891
 4280SOL    HW113381   5.537   4.319   4.057  1.5613  0.7272 -0.7124
 4280SOL    HW213382   5.556   4.221   3.943  0.5940  0.2508 -0.4758
 4281SOL     OW13383   7.463   1.250   3.675 -0.1463 -0.0021 -0.3765
 4281SOL    HW113384   7.536   1.197   3.706 -0.5396 -0.4677 -0.2341
 4281SOL    HW213385   7.423   1.198   3.606 -0.5114  0.1304 -0.2685
 4282SOL     OW13386   1.540   3.319   1.674  0.0154 -0.2056 -0.0915
 4282SOL    HW113387   1.451   3.309   1.708 -1.2798  2.5520 -2.3085
 4282SOL    HW213388   1.581   3.384   1.732 -0.7196  1.2610 -1.1669
 4283SOL     OW13389   5.685   4.471   3.574  0.0703  0.4027 -0.3847
 4283SOL    HW113390   5.616   4.537   3.586 -1.0249 -0.9253  1.1280
 4283SOL    HW213391   5.660   4.400   3.633  3.5065  0.4145  1.3292
 4284SOL     OW13392   6.102   1.851   6.131  0.3162  0.3481 -0.2147
 4284SOL    HW113393   6.088   1.911   6.204  0.5970 -0.5429  0.5915
 4284SOL    HW213394   6.074   1.765   6.164  0.3057 -0.0435 -1.2026
 4285SOL     OW13395   3.609   6.058   4.986  0.0113  0.1826 -0.2488
 4285SOL    HW113396   3.629   6.001   5.059 -0.3436 -3.3774 -2.6885
 4285SOL    HW213397   3.666   6.134   4.998  1.6563 -1.3218  2.4011
 4286SOL     OW13398   6.002   6.822   1.974  0.0714  0.4972  0.3045
 4286SOL    HW113399   6.093   6.805   2.000  0.1286 -0.5795 -0.5842
 4286SOL    HW213400   5.996   6.791   1.884 -0.6344  2.4886 -0.3803
 4287SOL     OW13401   6.741   6.436   1.975  0.2439 -0.4218  0.0986
 4287SOL    HW113402   6.755   6.437   2.069 -0.7899 -0.3516  0.2608
 4287SOL    HW213403   6.651   6.466   1.963  1.4397  3.3525 -1.1263
 4288SOL     OW13404   0.395   3.764   2.506  0.1914 -0.0807 -0.2580
 4288SOL    HW113405   0.323   3.825   2.526  0.0159 -0.0290 -1.0382
 4288SOL    HW213406   0.375   3.686   2.558  0.1371  0.3203  0.3433
 4289SOL     OW13407   1.060   2.784   5.149 -0.2436  0.1322 -0.8105
 4289SOL    HW113408   1.088   2.850   5.085 -1.4110  2.8601  1.2934
 4289SOL    HW213409   1.131   2.781   5.213 -1.0441  0.8400  0.1301
 4290SOL     OW13410   6.597   0.108   1.741 -0.0967 -0.4189  0.5254
 4290SOL    HW113411   6.618   0.015   1.754 -0.3891 -0.6732 -0.6144
 4290SOL    HW213412   6.678   0.154   1.760  0.4873 -1.0595 -0.3163
 4291SOL     OW13413   2.299   7.187   4.119 -0.1877 -0.3420  0.0617
 4291SOL    HW113414   2.232   7.171   4.186 -0.7803  1.7624  0.0478
 4291SOL    HW213415   2.274   7.271   4.080  0.9880 -0.7937 -1.7835
 4292SOL     OW13416   4.710   1.105   0.509  0.4140 -0.2708  0.4889
 4292SOL    HW113417   4.707   1.151   0.426 -2.1033  0.2926  0.7852
 4292SOL    HW213418   4.771   1.155   0.563 -0.1137  1.0810 -0.1247
 4293SOL     OW13419   3.612   0.669   5.782 -0.1951 -0.1731 -0.0428
 4293SOL    HW113420   3.689   0.638   5.735  0.5021 -0.9557  1.5236
 4293SOL    HW213421   3.538   0.653   5.722  0.7484 -0.1901 -1.2309
 4294SOL     OW13422   1.301   5.330   0.583 -0.4017  0.6615 -0.0085
 4294SOL    HW113423   1.364   5.387   0.626  1.1288 -0.3718 -0.8014
 4294SOL    HW213424   1.215   5.366   0.608  0.4822  2.5198  0.5021
 4295SOL     OW13425   2.201   4.315   0.566 -0.2218 -0.6812 -0.4965
 4295SOL    HW113426   2.157   4.234   0.592  0.2481 -0.5100  0.8805
 4295SOL    HW213427   2.239   4.349   0.647 -0.4160  0.9234 -1.0563
 4296SOL     OW13428   4.954   7.530   1.105  0.2190 -0.0836  0.0924
 4296SOL    HW113429   4.864   7.539   1.135  0.5379  0.3884  0.9516
 4296SOL    HW213430   4.950   7.543   1.011 -0.8424 -1.7718 -0.1408
 4297SOL     OW13431   4.018   4.817   6.559  0.3046 -0.6254 -0.0145
 4297SOL    HW113432   4.064   4.893   6.596  0.0194 -1.2396  1.6818
 4297SOL    HW213433   3.944   4.855   6.513  1.6336  0.2785 -1.4938
 4298SOL     OW13434   2.430   1.124   3.739  0.0487 -0.0858  0.1228
 4298SOL    HW113435   2.456   1.065   3.668  0.6310 -1.9623  1.8405
 4298SOL    HW213436   2.498   1.191   3.741  0.0086  0.0152 -1.0761
 4299SOL     OW13437   7.505   6.277   4.252 -0.4195  0.5900 -0.1626
 4299SOL    HW113438   7.564   6.334   4.300  1.4088 -0.3649 -1.1942
 4299SOL    HW213439   7.524   6.189   4.284 -0.4352  0.1413 -1.3301
 4300SOL     OW13440   1.749   1.841   1.916  0.3248 -0.2623 -0.7160
 4300SOL    HW113441   1.667   1.890   1.931  0.4753 -0.1743 -0.1296
 4300SOL    HW213442   1.729   1.783   1.843 -0.1330  0.0616 -0.8554
 4301SOL     OW13443   4.298   4.783   2.491 -0.0150  0.0842  0.1148
 4301SOL    HW113444   4.341   4.868   2.479  1.6501 -0.8287 -0.7526
 4301SOL    HW213445   4.368   4.724   2.518 -1.2465 -0.9171  1.2567
 4302SOL     OW13446   7.406   4.051   1.933 -0.0709  0.0738  0.2880
 4302SOL    HW113447   7.407   4.144   1.955  0.5596  1.0769 -3.3032
 4302SOL    HW213448   7.497   4.023   1.942 -0.4305 -0.5782  2.4304
 4303SOL     OW13449   4.801   6.690   6.100 -0.0874  0.1787 -0.9760
 4303SOL    HW113450   4.887   6.653   6.079  0.7547  1.2742  0.3590
 4303SOL    HW213451   4.759   6.702   6.015  1.1941 -0.0958 -1.6806
 4304SOL     OW13452   7.503   7.581   5.049 -0.4849 -0.1491 -0.2910
 4304SOL    HW113453   7.418   7.556   5.012 -0.6229  0.2276 -0.2301
 4304SOL    HW213454   7.483   7.615   5.136 -0.4089  1.0004 -0.7009
 4305SOL     OW13455   3.037   6.751   5.060 -0.3764 -0.0308  0.3077
 4305SOL    HW113456   2.987   6.669   5.051 -4.6545  1.9671  2.6946
 4305SOL    HW213457   3.057   6.777   4.970 -2.9900 -1.4883 -0.8119
 4306SOL     OW13458   5.174   1.107   1.967  0.1555  0.9881  0.3200
 4306SOL    HW113459   5.147   1.101   1.875 -0.7260 -1.6311  0.6658
 4306SOL    HW213460   5.105   1.160   2.008 -0.6481  0.3213 -0.1394
 4307SOL     OW13461   2.299   7.132   7.440 -0.7617 -0.3917 -0.5258
 4307SOL    HW113462   2.323   7.064   7.378 -1.2520  0.5134 -1.7505
 4307SOL    HW213463   2.213   7.106   7.473 -1.0597 -0.2556 -1.1817
 4308SOL     OW13464   3.404   4.090   0.056 -0.3961  0.1217  0.5011
 4308SOL    HW113465   3.325   4.128   0.017  0.2638  1.5340  0.4670
 4308SOL    HW213466   3.452   4.166   0.090  1.2656 -0.6321 -0.0607
 4309SOL     OW13467   4.347   2.323   1.268 -0.4286 -0.9314 -0.7893
 4309SOL    HW113468   4.309   2.396   1.219  0.3886 -0.9962 -1.5395
 4309SOL    HW213469   4.422   2.296   1.216  1.7041  0.2909  1.4427
 4310SOL     OW13470   4.317   4.564   5.287 -0.3134 -0.1180 -0.2432
 4310SOL    HW113471   4.399   4.552   5.334 -0.1379  1.6030 -0.0686
 4310SOL    HW213472   4.267   4.484   5.306  1.3517 -1.2639 -0.4853
 4311SOL     OW13473   7.495   2.706   5.278  0.3867 -0.2466  0.5835
 4311SOL    HW113474   7.507   2.648   5.353  0.6781 -3.4500 -1.7256
 4311SOL    HW213475   7.583   2.740   5.261  0.8774 -1.6116  0.2017
 4312SOL     OW13476   2.122   4.739   4.260  1.1305  0.3055  0.3289
 4312SOL    HW113477   2.210   4.749   4.225  0.6861 -2.5083 -1.9811
 4312SOL    HW213478   2.129   4.666   4.322  0.2974 -0.5972 -0.6094
 4313SOL     OW13479   1.457   2.774   1.321  0.2871  0.0440  0.7046
 4313SOL    HW113480   1.455   2.863   1.356 -0.9787  0.7997 -1.1047
 4313SOL    HW213481   1.365   2.755   1.300  0.6718 -1.3238  0.1906
 4314SOL     OW13482   3.857   1.378   2.475  0.4556 -0.3160  0.1825
 4314SOL    HW113483   3.930   1.341   2.425  0.3808  0.5376 -0.5899
 4314SOL    HW213484   3.817   1.442   2.416 -0.3550 -0.1046  0.9287
 4315SOL     OW13485   6.428   6.531   7.200 -0.2550  0.1437  0.5283
 4315SOL    HW113486   6.373   6.459   7.232  1.9791 -0.8813  2.4352
 4315SOL    HW213487   6.370   6.607   7.198 -2.6054 -1.5345 -1.1021
 4316SOL     OW13488   5.911   4.368   6.707 -0.6527  0.1951  0.0056
 4316SOL    HW113489   5.940   4.335   6.622 -1.5672 -2.5423  0.6291
 4316SOL    HW213490   5.977   4.432   6.732  0.7777 -0.4648 -1.8484
 4317SOL     OW13491   4.336   6.823   2.577 -0.0147 -0.5363 -0.1284
 4317SOL    HW113492   4.393   6.746   2.579 -1.2082 -1.4636  0.0908
 4317SOL    HW213493   4.271   6.806   2.646 -0.6535  0.3859 -0.4844
 4318SOL     OW13494   1.618   2.280   4.201  0.1488 -0.4582  0.1113
 4318SOL    HW113495   1.546   2.319   4.150 -0.4887 -0.5313  0.9275
 4318SOL    HW213496   1.683   2.350   4.208  1.2618 -1.1059 -2.6432
 4319SOL     OW13497   1.637   1.795   5.229 -0.1553 -0.2179 -0.1347
 4319SOL    HW113498   1.716   1.744   5.249 -1.1065 -1.2222  1.2727
 4319SOL    HW213499   1.660   1.885   5.253  0.1123 -0.7400  1.7518
 4320SOL     OW13500   5.286   3.116   4.674  0.2075 -0.1830  0.1453
 4320SOL    HW113501   5.202   3.088   4.637  0.1911  1.0681 -0.8549
 4320SOL    HW213502   5.314   3.188   4.617  2.4394 -1.1880 -0.1301
 4321SOL     OW13503   2.296   0.535   4.587 -0.1044  0.2692  0.4904
 4321SOL    HW113504   2.204   0.509   4.593 -0.4206  1.3134  0.3240
 4321SOL    HW213505   2.304   0.574   4.500  0.5035  0.1541  0.4941
 4322SOL     OW13506   0.949   6.105   6.897  0.3553 -0.0714 -0.4007
 4322SOL    HW113507   1.014   6.073   6.834  0.1718  1.5314 -1.4513
 4322SOL    HW213508   0.993   6.098   6.982  1.5587  0.0915 -0.9879
 4323SOL     OW13509   1.699   4.149   5.992 -0.2248 -0.2470 -0.0537
 4323SOL    HW113510   1.654   4.210   6.051  0.0271 -1.1428  1.0833
 4323SOL    HW213511   1.686   4.187   5.905  0.4911  1.8102  0.6708
 4324SOL     OW13512   4.560   1.600   3.084 -0.3100 -0.3117  0.0474
 4324SOL    HW113513   4.542   1.578   3.175  1.7755  1.4285  0.9760
 4324SOL    HW213514   4.626   1.535   3.056 -1.1988 -1.0576 -0.3763
 4325SOL     OW13515   0.487   0.608   1.161 -0.4480  0.9594  0.4362
 4325SOL    HW113516   0.535   0.621   1.242 -0.3508  2.5566  0.1560
 4325SOL    HW213517   0.402   0.648   1.176 -0.0626  2.2327 -0.5722
 4326SOL     OW13518   7.419   7.312   4.416 -0.0066 -0.0715 -0.6262
 4326SOL    HW113519   7.366   7.385   4.386  0.6032  0.4547 -0.4407
 4326SOL    HW213520   7.502   7.322   4.370 -0.0199 -0.8210 -0.8272
 4327SOL     OW13521   6.230   7.173   4.690 -0.3863  0.1991 -0.7035
 4327SOL    HW113522   6.271   7.247   4.735  1.2999 -0.8800 -0.3875
 4327SOL    HW213523   6.148   7.209   4.655 -0.4890  1.7377  0.9692
 4328SOL     OW13524   5.151   4.215   2.055  0.3887 -0.6583  0.0120
 4328SOL    HW113525   5.102   4.283   2.009  1.2485  0.2780  0.4500
 4328SOL    HW213526   5.203   4.262   2.120  1.2584 -1.6986  0.1015
 4329SOL     OW13527   2.789   1.482   4.869 -0.2891  0.5667  0.0421
 4329SOL    HW113528   2.843   1.434   4.933  0.0889  0.3486 -0.4317
 4329SOL    HW213529   2.786   1.423   4.793 -1.8257  0.2411  0.3368
 4330SOL     OW13530   3.753   0.305   6.919 -0.4093 -0.7753  0.4512
 4330SOL    HW113531   3.731   0.256   6.840  0.0117  0.2802 -0.3429
 4330SOL    HW213532   3.817   0.249   6.964 -1.2595 -1.7541  0.4735
 4331SOL     OW13533   5.299   0.450   3.177  0.6799  0.0574  0.7545
 4331SOL    HW113534   5.321   0.541   3.199 -1.0698  0.7665 -0.2815
 4331SOL    HW213535   5.381   0.413   3.143  0.6884  2.2763 -2.0099
 4332SOL     OW13536   7.182   5.262   2.868 -0.6364  0.1198 -0.3192
 4332SOL    HW113537   7.176   5.339   2.924 -2.9660  0.8668 -1.4556
 4332SOL    HW213538   7.142   5.191   2.919  1.2231 -0.3064  0.6038
 4333SOL     OW13539   3.887   1.118   3.747  0.2145 -0.6579  0.1530
 4333SOL    HW113540   3.863   1.205   3.718 -0.3499 -1.5779 -2.3720
 4333SOL    HW213541   3.982   1.123   3.762  0.1622  0.4101  0.1969
 4334SOL     OW13542   4.149   1.703   3.078 -0.0962  0.2697  0.5381
 4334SOL    HW113543   4.101   1.667   3.004  0.1765 -0.6408  0.7982
 4334SOL    HW213544   4.082   1.749   3.130 -0.5685 -0.4205  0.5437
 4335SOL     OW13545   4.928   2.854   5.027 -0.0570 -0.1756 -0.2172
 4335SOL    HW113546   4.948   2.942   5.057  0.2052 -0.0630 -0.7073
 4335SOL    HW213547   4.987   2.798   5.078 -0.7998 -0.1584  0.6902
 4336SOL     OW13548   5.676   1.290   5.663  0.4890 -0.5281  0.2647
 4336SOL    HW113549   5.656   1.269   5.571 -1.1900  0.7853  0.2691
 4336SOL    HW213550   5.771   1.300   5.665  0.4428  1.4277 -1.8473
 4337SOL     OW13551   1.851   3.540   0.740  0.8345 -0.1954 -0.2589
 4337SOL    HW113552   1.785   3.562   0.674  1.3576 -0.6004 -0.9363
 4337SOL    HW213553   1.823   3.455   0.774 -0.1676  0.6213  1.0200
 4338SOL     OW13554   3.059   5.651   4.655  0.1082  0.2198 -0.0845
 4338SOL    HW113555   3.109   5.582   4.611  0.5566  0.5355 -0.0805
 4338SOL    HW213556   3.040   5.715   4.586 -1.5979 -0.5919 -0.4290
 4339SOL     OW13557   1.438   4.841   0.255 -0.2694 -0.0745 -0.1077
 4339SOL    HW113558   1.377   4.874   0.322 -0.2571  2.8161 -1.3712
 4339SOL    HW213559   1.397   4.760   0.224 -2.1039  0.3908  0.9298
 4340SOL     OW13560   1.164   4.628   4.664  0.0520 -0.1314  0.0404
 4340SOL    HW113561   1.259   4.631   4.669  0.1105  0.1954 -0.9754
 4340SOL    HW213562   1.139   4.716   4.635 -0.3118 -1.0532 -2.7146
 4341SOL     OW13563   3.472   0.265   0.664  0.1428  0.1225 -0.3002
 4341SOL    HW113564   3.393   0.231   0.620  0.7621  0.0821 -1.4122
 4341SOL    HW213565   3.538   0.269   0.595  1.0841  0.2957  0.5892
 4342SOL     OW13566   6.208   6.193   6.052 -0.5759  0.6470  0.2232
 4342SOL    HW113567   6.136   6.255   6.059  0.0309  1.4003 -0.1534
 4342SOL    HW213568   6.209   6.167   5.960 -0.0210  1.0555  0.1134
 4343SOL     OW13569   4.693   7.250   1.821 -0.2478 -0.2102 -0.0780
 4343SOL    HW113570   4.768   7.301   1.848 -0.5994  0.1942  0.1462
 4343SOL    HW213571   4.650   7.224   1.902 -1.2165  0.8722 -0.2198
 4344SOL     OW13572   4.861   3.447   4.163  0.2138 -0.3771 -0.0804
 4344SOL    HW113573   4.768   3.460   4.145  0.0421 -0.4929  0.6919
 4344SOL    HW213574   4.868   3.355   4.186  0.8681 -0.8963 -2.1420
 4345SOL     OW13575   6.177   4.955   5.827  0.1316  0.1616  0.2384
 4345SOL    HW113576   6.246   4.927   5.766 -2.0630 -0.4561 -2.1785
 4345SOL    HW213577   6.115   4.882   5.827 -0.9701  1.0578  1.5904
 4346SOL     OW13578   7.484   6.914   2.698 -0.3725  0.3241 -0.2244
 4346SOL    HW113579   7.479   6.819   2.685 -1.1706  0.5181 -1.4357
 4346SOL    HW213580   7.414   6.950   2.644  0.8481  1.7227 -0.9513
 4347SOL     OW13581   6.341   4.151   1.643 -0.0443 -1.1556 -0.3286
 4347SOL    HW113582   6.341   4.133   1.737  0.2252 -3.6632 -0.7247
 4347SOL    HW213583   6.254   4.123   1.613 -0.5392  0.6442 -0.7208
 4348SOL     OW13584   5.888   4.336   2.820  0.3765  0.4030 -0.0439
 4348SOL    HW113585   5.954   4.357   2.886  0.1374 -0.0762  0.3564
 4348SOL    HW213586   5.939   4.318   2.740  0.7452 -0.0685  0.2883
 4349SOL     OW13587   6.669   1.493   3.366  0.1929 -0.2940  0.1848
 4349SOL    HW113588   6.728   1.427   3.403 -0.7453 -1.3746 -0.1874
 4349SOL    HW213589   6.719   1.534   3.295  0.9423 -0.2686  0.7067
 4350SOL     OW13590   0.183   4.324   3.285 -0.0525 -0.3932  0.4225
 4350SOL    HW113591   0.136   4.351   3.207 -0.3506 -0.8392  0.4386
 4350SOL    HW213592   0.261   4.379   3.288 -0.6900  0.5227  0.5236
 4351SOL     OW13593   6.716   0.848   6.876  0.0909 -0.5046  0.5558
 4351SOL    HW113594   6.753   0.807   6.954  1.9980 -0.4586 -0.2680
 4351SOL    HW213595   6.785   0.841   6.810 -1.4409 -0.4860 -1.1205
 4352SOL     OW13596   2.954   7.453   1.005 -0.5059  0.3215 -0.0014
 4352SOL    HW113597   2.987   7.365   0.984 -2.1067 -1.0656  2.7145
 4352SOL    HW213598   3.005   7.480   1.081 -0.7475  1.3135 -0.1858
 4353SOL     OW13599   0.038   7.170   2.698 -0.4626 -0.4837  0.7705
 4353SOL    HW113600  -0.012   7.134   2.624 -1.5872  1.4868  0.5137
 4353SOL    HW213601   0.127   7.134   2.686 -0.7970 -0.8130 -1.1119
 4354SOL     OW13602   3.374   5.825   4.533  0.7482 -0.3315  0.0410
 4354SOL    HW113603   3.361   5.736   4.565 -2.2524  0.0417  0.2009
 4354SOL    HW213604   3.318   5.831   4.456  2.2131  0.9594 -0.9829
 4355SOL     OW13605   0.186   5.223   3.363  0.0044 -0.4668 -0.2899
 4355SOL    HW113606   0.106   5.268   3.390  0.7680  0.3673  0.6806
 4355SOL    HW213607   0.167   5.130   3.375 -0.5422 -0.2405  0.7233
 4356SOL     OW13608   4.161   6.440   2.085 -0.2361 -0.4352  0.2148
 4356SOL    HW113609   4.098   6.466   2.017  1.7042 -0.7577 -1.8105
 4356SOL    HW213610   4.138   6.350   2.106 -0.6506 -0.4380 -0.2427
 4357SOL     OW13611   1.725   6.859   5.532  0.1756  0.1138 -0.3080
 4357SOL    HW113612   1.634   6.850   5.503 -0.5370  0.2880  1.7505
 4357SOL    HW213613   1.769   6.782   5.494 -0.9111 -0.2045 -0.9824
 4358SOL     OW13614   2.930   1.939   3.744  0.3523  0.3572  0.2819
 4358SOL    HW113615   2.880   1.866   3.780 -0.3096  0.6548 -0.0017
 4358SOL    HW213616   3.021   1.909   3.744  0.7909  1.1446  4.2723
 4359SOL     OW13617   0.560   5.707   1.424 -0.3209 -0.0387 -0.1016
 4359SOL    HW113618   0.587   5.707   1.516 -2.0297  1.7680  0.4603
 4359SOL    HW213619   0.502   5.631   1.416  2.6297 -2.4673 -0.7271
 4360SOL     OW13620   2.510   1.225   6.379  0.1545  0.1465 -0.2788
 4360SOL    HW113621   2.498   1.145   6.329  1.1713 -0.0630 -0.2059
 4360SOL    HW213622   2.580   1.272   6.334 -0.2821  0.9053 -0.1960
 4361SOL     OW13623   3.325   5.169   2.387 -0.0359  0.3972 -0.4884
 4361SOL    HW113624   3.344   5.217   2.306  0.0389  1.4246  0.1118
 4361SOL    HW213625   3.404   5.117   2.403  0.2704  0.8077 -0.6511
 4362SOL     OW13626   5.937   7.205   1.528  0.4850  0.0315  0.1672
 4362SOL    HW113627   5.859   7.206   1.584  0.4039  1.6801  0.0675
 4362SOL    HW213628   5.934   7.288   1.480  1.8732 -0.2377 -0.4459
 4363SOL     OW13629   1.777   3.081   5.150  0.6015 -0.3737  0.4015
 4363SOL    HW113630   1.699   3.049   5.196  0.9840 -0.6938  0.8382
 4363SOL    HW213631   1.849   3.029   5.186  1.1798  0.6744  0.8107
 4364SOL     OW13632   3.655   6.471   4.917 -0.1216 -0.3301 -0.0833
 4364SOL    HW113633   3.584   6.496   4.858  2.5691  0.7173 -3.2012
 4364SOL    HW213634   3.690   6.553   4.949  1.1224 -0.6628 -0.5279
 4365SOL     OW13635   3.350   1.634   6.623  0.0066 -0.3504  0.3949
 4365SOL    HW113636   3.412   1.700   6.593 -0.2171 -0.1738  0.3137
 4365SOL    HW213637   3.266   1.680   6.625 -0.5709 -1.1758 -1.7318
 4366SOL     OW13638   3.012   2.753   4.916 -0.0145 -0.2982 -0.1348
 4366SOL    HW113639   3.036   2.844   4.937  0.5305 -0.3701 -0.4179
 4366SOL    HW213640   3.011   2.709   5.000 -0.1293 -0.0637 -0.0113
 4367SOL     OW13641   2.340   5.623   1.076 -0.3918 -0.1903  0.0119
 4367SOL    HW113642   2.328   5.662   1.163  0.8603  0.2066  0.0183
 4367SOL    HW213643   2.281   5.548   1.076 -0.6485 -0.0148  1.0897
 4368SOL     OW13644   7.110   3.292   6.525 -0.2398  0.5395  0.9159
 4368SOL    HW113645   7.120   3.237   6.447 -0.6700  1.4732  0.1836
 4368SOL    HW213646   7.018   3.285   6.548  0.1351 -0.7393  2.1205
 4369SOL     OW13647   1.716   4.545   5.946  0.6306 -0.3602  0.3161
 4369SOL    HW113648   1.662   4.616   5.981  0.7045 -0.1437  0.0035
 4369SOL    HW213649   1.653   4.479   5.918  0.5287 -0.1546  0.0510
 4370SOL     OW13650   7.162   7.214   5.299 -0.1725  0.8091  0.0413
 4370SOL    HW113651   7.189   7.153   5.231 -1.5465  0.3732 -0.1372
 4370SOL    HW213652   7.244   7.243   5.339  0.6895  1.4543 -2.1042
 4371SOL     OW13653   7.036   2.327   1.151  0.5566  0.1494  0.0884
 4371SOL    HW113654   7.022   2.422   1.159  0.9830  0.2068  0.2195
 4371SOL    HW213655   7.129   2.316   1.172  0.1663 -0.4846  1.5513
 4372SOL     OW13656   4.324   5.655   5.052  0.3224 -0.2369 -0.4102
 4372SOL    HW113657   4.405   5.610   5.026 -0.2623 -0.4707 -1.9327
 4372SOL    HW213658   4.281   5.678   4.969 -1.3071 -0.3737  0.3465
 4373SOL     OW13659   2.032   5.820   7.091  0.1517  0.4587  0.0008
 4373SOL    HW113660   2.037   5.822   6.995  1.9795 -0.3153  0.0511
 4373SOL    HW213661   1.965   5.753   7.109 -0.4153  0.8117 -0.7204
 4374SOL     OW13662   4.289   3.197   3.654  0.3142 -0.0989  0.0793
 4374SOL    HW113663   4.215   3.239   3.698 -0.0903  0.5473 -1.1936
 4374SOL    HW213664   4.331   3.267   3.604  0.1251 -1.0131 -1.4160
 4375SOL     OW13665   4.257   0.560   6.157 -0.1736  0.0950 -0.1208
 4375SOL    HW113666   4.242   0.630   6.093  0.3448  2.4500  2.1732
 4375SOL    HW213667   4.302   0.492   6.107  1.2944  2.3084 -2.0571
 4376SOL     OW13668   5.935   4.922   1.696 -0.4158  0.0109  0.3500
 4376SOL    HW113669   5.878   4.971   1.755 -0.0230 -1.2967  1.8852
 4376SOL    HW213670   5.986   4.989   1.650 -3.0652  1.2367 -1.0541
 4377SOL     OW13671   0.572   4.417   3.110  0.0530  0.2647 -0.1735
 4377SOL    HW113672   0.624   4.339   3.088  1.2598  0.7440  0.8946
 4377SOL    HW213673   0.628   4.491   3.086 -0.3111  0.7991  0.6091
 4378SOL     OW13674   4.159   1.771   6.787  0.0608 -0.0370  0.0687
 4378SOL    HW113675   4.102   1.849   6.784 -0.0430 -0.1234 -0.4071
 4378SOL    HW213676   4.221   1.785   6.715 -1.0826 -1.2351 -1.2150
 4379SOL     OW13677   4.064   5.095   2.371  0.7103  0.5842  0.5599
 4379SOL    HW113678   4.142   5.043   2.354 -0.6375 -1.1702 -0.6756
 4379SOL    HW213679   4.082   5.179   2.328  2.0757  0.3847  0.6966
 4380SOL     OW13680   3.043   5.502   7.293 -0.4711  0.0151 -0.4863
 4380SOL    HW113681   3.069   5.594   7.291 -0.7819  0.1309  0.3853
 4380SOL    HW213682   3.100   5.459   7.229 -0.9675  0.9707 -1.6093
 4381SOL     OW13683   0.783   6.734   7.022  0.0582 -0.5789  0.2114
 4381SOL    HW113684   0.688   6.746   7.029  0.0790  0.1147 -0.6058
 4381SOL    HW213685   0.817   6.765   7.106 -0.3582  0.1946  0.1037
 4382SOL     OW13686   2.380   6.419   4.326 -0.3088 -0.4615  0.0112
 4382SOL    HW113687   2.398   6.490   4.264  1.7811 -0.6645  0.3142
 4382SOL    HW213688   2.347   6.347   4.273  0.4785 -0.2857 -0.7317
 4383SOL     OW13689   4.628   4.712   6.253  0.0835  0.0871 -1.0470
 4383SOL    HW113690   4.693   4.753   6.310  1.1925 -0.7162 -1.6887
 4383SOL    HW213691   4.640   4.618   6.268 -1.1145 -0.0720 -0.9995
 4384SOL     OW13692   4.883   3.356   7.001 -0.0409  0.4647  0.2910
 4384SOL    HW113693   4.826   3.334   6.928  1.2609  0.7971 -0.8820
 4384SOL    HW213694   4.852   3.303   7.074 -1.2465 -0.0335 -0.5612
 4385SOL     OW13695   0.718   7.260   4.843 -0.2502  0.0454 -0.0298
 4385SOL    HW113696   0.705   7.293   4.754 -1.1611  0.7474  0.3515
 4385SOL    HW213697   0.807   7.225   4.842  0.1520  1.0325 -0.9158
 4386SOL     OW13698   2.842   2.102   5.910 -0.6734 -0.3742 -0.0321
 4386SOL    HW113699   2.874   2.169   5.970 -1.0566  0.1853 -0.4419
 4386SOL    HW213700   2.874   2.020   5.946 -1.2645 -0.0915  1.1901
 4387SOL     OW13701   3.596   3.057   1.298  0.1481  0.1511  0.3129
 4387SOL    HW113702   3.674   3.048   1.244 -0.4431  1.3209 -0.7964
 4387SOL    HW213703   3.623   3.117   1.368  0.2330  0.6256 -0.1181
 4388SOL     OW13704   2.997   3.292   1.980 -0.2827 -0.4567 -0.3765
 4388SOL    HW113705   3.079   3.274   1.934 -0.5169  1.0143 -1.4510
 4388SOL    HW213706   2.999   3.234   2.056  2.0269 -0.0636 -0.0443
 4389SOL     OW13707   1.554   3.359   2.101  0.0545 -0.3356 -0.2528
 4389SOL    HW113708   1.461   3.380   2.087  0.0652 -0.0794  0.0571
 4389SOL    HW213709   1.575   3.299   2.029 -0.9675 -2.3235  1.0200
 4390SOL     OW13710   3.419   4.976   2.147  0.1106  0.9676  0.0846
 4390SOL    HW113711   3.339   4.955   2.099 -0.3011  1.3333  0.6042
 4390SOL    HW213712   3.418   5.071   2.156  0.2030  0.9040  0.7931
 4391SOL     OW13713   5.206   6.780   1.481 -0.1016  0.2584 -0.0988
 4391SOL    HW113714   5.257   6.742   1.552 -0.8303 -0.5808 -0.0115
 4391SOL    HW213715   5.266   6.779   1.406  0.2664  0.0027  0.1941
 4392SOL     OW13716   6.780   6.196   0.089 -0.3825 -0.4656 -0.1730
 4392SOL    HW113717   6.729   6.257   0.035 -1.7235 -1.5082 -0.1408
 4392SOL    HW213718   6.785   6.238   0.175  1.7179  1.1857 -1.0000
 4393SOL     OW13719   4.647   2.720   0.672 -0.2429 -0.2128  0.1113
 4393SOL    HW113720   4.572   2.765   0.632  1.0468  0.6703 -1.4073
 4393SOL    HW213721   4.615   2.694   0.758 -1.6324  2.0215  0.3557
 4394SOL     OW13722   5.740   6.522   4.609 -0.7932  0.4957 -0.0872
 4394SOL    HW113723   5.737   6.529   4.514  1.5711 -0.1109 -0.2612
 4394SOL    HW213724   5.751   6.429   4.627 -1.5576  0.5580  0.8097
 4395SOL     OW13725   2.760   2.902   3.752 -0.0064  0.1961 -0.3068
 4395SOL    HW113726   2.810   2.972   3.709 -0.7363  0.2371 -1.1083
 4395SOL    HW213727   2.690   2.948   3.799  1.8546  0.3270  2.5642
 4396SOL     OW13728   6.522   1.935   6.218  0.6939  0.6486 -0.4900
 4396SOL    HW113729   6.493   1.865   6.160  1.5459 -0.3687  0.2701
 4396SOL    HW213730   6.477   1.919   6.301  0.5084  1.3016 -0.4579
 4397SOL     OW13731   5.080   6.680   4.018  0.2596 -0.5250  0.8036
 4397SOL    HW113732   5.108   6.634   3.938  0.2892 -1.3389  1.2707
 4397SOL    HW213733   4.985   6.669   4.019 -0.2517  2.5967 -1.0025
 4398SOL     OW13734   0.543   2.813   0.160 -0.6291  0.1422  0.2090
 4398SOL    HW113735   0.603   2.739   0.169 -1.4620 -0.4148  1.6741
 4398SOL    HW213736   0.458   2.773   0.141 -0.9725  0.7541  0.4179
 4399SOL     OW13737   4.629   6.716   5.115  0.2038  0.0496  0.0681
 4399SOL    HW113738   4.686   6.777   5.068 -0.0451  0.9591  0.9161
 4399SOL    HW213739   4.687   6.672   5.177 -0.0683  1.3572  1.3029
 4400SOL     OW13740   1.469   6.735   4.418 -0.3043  0.3184 -0.0159
 4400SOL    HW113741   1.402   6.786   4.463 -1.0614 -1.2338  0.7013
 4400SOL    HW213742   1.457   6.646   4.450  1.8279 -0.0985 -0.2060
 4401SOL     OW13743   0.976   5.506   4.969  0.3781  0.1591  0.3763
 4401SOL    HW113744   0.941   5.473   5.051 -0.1326  1.2997  0.6333
 4401SOL    HW213745   1.020   5.431   4.930 -1.2226 -0.9768  0.6653
 4402SOL     OW13746   2.067   2.447   0.930 -0.2936 -0.2294 -0.0516
 4402SOL    HW113747   2.008   2.437   1.005  0.0309 -1.5785  0.0432
 4402SOL    HW213748   2.008   2.460   0.856 -0.6345  0.4822  0.3244
 4403SOL     OW13749   4.443   4.944   1.030 -0.5542 -0.3107 -0.1892
 4403SOL    HW113750   4.351   4.924   1.014 -0.3219 -1.9647  0.3618
 4403SOL    HW213751   4.489   4.861   1.015  1.0709  0.8226 -1.9220
 4404SOL     OW13752   4.330   1.116   4.416 -0.0148  0.0905  0.3570
 4404SOL    HW113753   4.247   1.075   4.391  0.3819 -0.2996 -0.3355
 4404SOL    HW213754   4.342   1.091   4.508 -0.0712 -0.8581  0.1139
 4405SOL     OW13755   4.491   0.223   2.385 -0.0358  0.0847 -0.3478
 4405SOL    HW113756   4.419   0.166   2.357  1.0960 -0.1709 -3.0598
 4405SOL    HW213757   4.566   0.164   2.392  0.5056  0.7801 -0.2712
 4406SOL     OW13758   4.504   5.567   4.772  0.6451 -0.0228 -0.3317
 4406SOL    HW113759   4.564   5.512   4.822  0.9102 -0.4112 -1.0666
 4406SOL    HW213760   4.561   5.629   4.727  0.3851  0.5337  0.0899
 4407SOL     OW13761   4.554   7.180   2.097 -0.2073 -0.2040  0.5660
 4407SOL    HW113762   4.587   7.116   2.160  1.3233  1.6659  1.7895
 4407SOL    HW213763   4.513   7.248   2.151 -0.3099  0.6673 -0.5658
 4408SOL     OW13764   2.291   3.609   2.673 -0.4026  0.5048 -0.3112
 4408SOL    HW113765   2.323   3.644   2.590  0.3867 -2.6260 -1.4921
 4408SOL    HW213766   2.300   3.681   2.735  4.3106  1.4768 -1.6889
 4409SOL     OW13767   1.809   1.105   4.643  0.4659  0.0740 -0.0809
 4409SOL    HW113768   1.851   1.095   4.729 -0.1892  0.6255  0.3135
 4409SOL    HW213769   1.716   1.097   4.661  0.2198  1.6724 -0.4959
 4410SOL     OW13770   3.164   5.290   5.389 -0.0601 -0.0547 -0.0795
 4410SOL    HW113771   3.206   5.372   5.363 -0.2665  0.0475 -0.0876
 4410SOL    HW213772   3.199   5.225   5.328 -1.2681  0.3508 -1.2547
 4411SOL     OW13773   2.181   6.573   2.002  0.4006 -0.5124  0.0013
 4411SOL    HW113774   2.169   6.625   1.923 -0.5243 -0.2289  0.3070
 4411SOL    HW213775   2.226   6.494   1.973  1.4206  0.2443 -0.5496
 4412SOL     OW13776   2.430   2.689   3.564  0.6492  0.3135 -0.1984
 4412SOL    HW113777   2.440   2.641   3.482  1.5999  0.5989 -0.2696
 4412SOL    HW213778   2.389   2.627   3.624 -1.3569  0.5406 -1.2642
 4413SOL     OW13779   1.694   5.332   6.852  0.9870  0.2795  0.7072
 4413SOL    HW113780   1.777   5.311   6.809  0.5354 -0.9242  0.3711
 4413SOL    HW213781   1.667   5.415   6.814  0.9669 -0.3960 -0.8429
 4414SOL     OW13782   6.052   4.420   3.521  0.2370  0.5973 -0.1805
 4414SOL    HW113783   6.126   4.480   3.521 -0.4013  1.5559  2.8370
 4414SOL    HW213784   5.976   4.477   3.533 -0.5700 -0.6441  0.7727
 4415SOL     OW13785   1.008   5.683   2.075  0.2727 -0.2010 -0.1422
 4415SOL    HW113786   1.052   5.750   2.023  0.0441 -0.3285 -0.5125
 4415SOL    HW213787   1.063   5.671   2.152  0.1490  0.6320  0.0808
 4416SOL     OW13788   0.396   3.692   3.256 -0.3061 -0.3185  0.1725
 4416SOL    HW113789   0.412   3.612   3.207  0.1324 -0.2685  0.2291
 4416SOL    HW213790   0.329   3.668   3.320 -0.4463 -0.5402 -0.0546
 4417SOL     OW13791   2.012   4.837   4.042  0.1622  0.0073  0.4168
 4417SOL    HW113792   2.068   4.903   4.001 -0.4874  0.5693  0.4170
 4417SOL    HW213793   2.052   4.821   4.127 -0.3389  1.3264  0.9340
 4418SOL     OW13794   6.897   4.060   7.077  0.2113 -0.3786  0.6576
 4418SOL    HW113795   6.957   4.035   7.007 -1.0462  0.3864 -0.7395
 4418SOL    HW213796   6.949   4.117   7.134  1.5485 -1.8347  0.9795
 4419SOL     OW13797   3.788   7.396   5.937  0.4368  0.4247  0.3002
 4419SOL    HW113798   3.724   7.454   5.895  0.6008  0.1933 -0.2797
 4419SOL    HW213799   3.752   7.378   6.023 -0.9935 -0.8132 -0.5039
 4420SOL     OW13800   1.736   6.439   6.636 -0.0147  0.0869  0.3028
 4420SOL    HW113801   1.776   6.465   6.718 -0.4225  0.6200  0.3427
 4420SOL    HW213802   1.644   6.462   6.646 -0.1195 -0.0877 -0.2055
 4421SOL     OW13803   3.224   0.003   4.363 -0.0711  0.0750  0.1959
 4421SOL    HW113804   3.235   0.084   4.314 -0.0643  0.3183  0.6008
 4421SOL    HW213805   3.134   0.005   4.395  0.6912  1.2025  2.4734
 4422SOL     OW13806   7.480   4.121   4.166 -0.2191  0.5320  0.3749
 4422SOL    HW113807   7.413   4.056   4.186  1.0267 -1.0531 -0.4167
 4422SOL    HW213808   7.503   4.105   4.075  0.3572  1.8996  0.2459
 4423SOL     OW13809   5.061   0.087   3.087 -0.3994 -0.6605 -0.2495
 4423SOL    HW113810   5.124   0.095   3.159  0.2086  0.6267 -0.8860
 4423SOL    HW213811   5.062  -0.006   3.064  1.1802 -0.7077 -0.1403
 4424SOL     OW13812   4.128   1.836   1.251  0.1623 -0.5542  0.2718
 4424SOL    HW113813   4.038   1.810   1.232 -0.0537  1.0224 -1.0906
 4424SOL    HW213814   4.130   1.846   1.347 -1.3657  0.1799  0.2615
 4425SOL     OW13815   0.004   3.779   1.539 -0.3345 -0.2175 -0.5017
 4425SOL    HW113816   0.075   3.841   1.522  0.3460 -0.9267 -0.2886
 4425SOL    HW213817   0.012   3.758   1.632  0.0679 -1.3877 -0.7876
 4426SOL     OW13818   5.858   2.166   4.198 -0.0807 -0.9451  0.6698
 4426SOL    HW113819   5.781   2.113   4.175 -0.1125 -0.5345 -0.2174
 4426SOL    HW213820   5.870   2.224   4.124 -0.5939  0.9454  2.0007
 4427SOL     OW13821   6.698   1.309   2.338 -0.4668  0.1418  0.1649
 4427SOL    HW113822   6.721   1.231   2.288  2.1047  0.4793  0.7159
 4427SOL    HW213823   6.672   1.373   2.272 -1.3196 -0.7314 -0.3794
 4428SOL     OW13824   3.039   5.693   1.454 -0.2647 -0.1618 -0.8869
 4428SOL    HW113825   3.084   5.736   1.381 -2.1517  0.0137 -2.0012
 4428SOL    HW213826   2.946   5.710   1.439 -0.6909  1.3367  2.4663
 4429SOL     OW13827   5.194   6.056   4.017  0.1788 -0.3036  0.3646
 4429SOL    HW113828   5.278   6.021   4.048 -0.1599 -1.4857  0.0207
 4429SOL    HW213829   5.129   6.016   4.075 -0.1709  0.4101  0.4707
 4430SOL     OW13830   3.672   4.571   4.322  0.3882  0.0081 -0.2581
 4430SOL    HW113831   3.764   4.551   4.304  0.5411 -1.1984  1.5516
 4430SOL    HW213832   3.668   4.579   4.418 -1.5360 -0.8054 -0.2322
 4431SOL     OW13833   2.937   6.824   3.028  0.2846  0.0874  0.6007
 4431SOL    HW113834   3.001   6.873   2.976  1.1306  0.2101  1.7162
 4431SOL    HW213835   2.977   6.738   3.039  0.1729  0.1007  1.1340
 4432SOL     OW13836   2.568   0.665   2.920 -0.7274 -0.1233 -0.1503
 4432SOL    HW113837   2.589   0.723   2.846 -1.3424  1.3851  0.8073
 4432SOL    HW213838   2.643   0.606   2.926 -1.1462 -1.0469 -2.6513
 4433SOL     OW13839   4.764   2.319   3.047 -0.7699 -0.3840  0.3287
 4433SOL    HW113840   4.689   2.355   3.000 -1.4927  0.1049  1.8075
 4433SOL    HW213841   4.775   2.377   3.123  1.7954  0.2204 -0.4024
 4434SOL     OW13842   6.976   2.624   6.986 -0.0343  0.7712 -0.4326
 4434SOL    HW113843   6.923   2.562   7.038  0.8151  2.9199  3.3997
 4434SOL    HW213844   7.063   2.586   6.985 -0.2539  0.2706 -1.1678
 4435SOL     OW13845   1.298   2.017   2.658 -0.3222  0.2595 -0.5837
 4435SOL    HW113846   1.322   1.965   2.734 -0.3101  0.1398 -0.6690
 4435SOL    HW213847   1.225   2.071   2.688  1.3077  2.1142  0.2861
 4436SOL     OW13848   0.378   7.274   1.088  0.1806 -0.5422  0.1010
 4436SOL    HW113849   0.468   7.263   1.120  0.0794  0.6076  0.8437
 4436SOL    HW213850   0.358   7.366   1.104 -0.2795 -0.1439 -2.3696
 4437SOL     OW13851   1.353   1.193   4.528  0.6707  0.3550  0.1228
 4437SOL    HW113852   1.336   1.169   4.619  0.4299  1.2582  0.3296
 4437SOL    HW213853   1.418   1.264   4.535  0.8723  0.2253 -0.4230
 4438SOL     OW13854   0.621   6.914   1.011 -0.2945 -0.3161 -0.3170
 4438SOL    HW113855   0.690   6.889   0.949 -0.5322  1.8300 -1.5522
 4438SOL    HW213856   0.668   6.943   1.089  0.2197  0.5966 -0.9460
 4439SOL     OW13857   5.182   1.233   4.351 -0.4644 -0.4633  0.3007
 4439SOL    HW113858   5.150   1.302   4.294  0.5954 -0.3624 -0.1955
 4439SOL    HW213859   5.252   1.274   4.402  0.4218 -1.2362 -0.2529
 4440SOL     OW13860   3.742   3.914   5.127  0.3344 -0.1607 -0.2137
 4440SOL    HW113861   3.667   3.901   5.184  0.0599 -0.8939 -0.7219
 4440SOL    HW213862   3.724   3.859   5.051  1.3369 -0.2676 -0.3913
 4441SOL     OW13863   4.167   4.088   5.206 -0.2522 -0.2450 -0.1025
 4441SOL    HW113864   4.189   4.081   5.113 -1.1559 -1.3552 -0.2530
 4441SOL    HW213865   4.091   4.032   5.217 -0.7634  0.6414  1.1279
 4442SOL     OW13866   1.280   6.518   4.221 -0.1031  0.0197  0.1153
 4442SOL    HW113867   1.357   6.509   4.165 -0.7165  1.0081 -0.9275
 4442SOL    HW213868   1.238   6.599   4.191 -0.6466  0.3897  1.7787
 4443SOL     OW13869   6.514   6.176   0.865  0.1484  0.3869 -0.0505
 4443SOL    HW113870   6.553   6.088   0.861  0.7361  0.6634 -0.6790
 4443SOL    HW213871   6.578   6.228   0.915  0.7402  0.9071 -1.3069
 4444SOL     OW13872   2.263   1.893   2.867  0.7737  0.2431 -0.4085
 4444SOL    HW113873   2.221   1.953   2.805  0.1677  0.1231 -0.1207
 4444SOL    HW213874   2.294   1.821   2.812 -0.4615 -0.2512 -0.5036
 4445SOL     OW13875   4.615   4.494   3.307 -0.0372  0.4718 -0.5713
 4445SOL    HW113876   4.598   4.503   3.213 -0.8217  1.7261 -0.3274
 4445SOL    HW213877   4.677   4.565   3.326  0.8190 -0.3365 -0.3017
 4446SOL     OW13878   6.368   4.730   6.349 -0.3471 -0.1692  0.6031
 4446SOL    HW113879   6.450   4.756   6.306 -1.3283 -1.6520 -2.4595
 4446SOL    HW213880   6.373   4.769   6.436  2.4715  1.9107 -0.3421
 4447SOL     OW13881   4.273   1.642   0.544 -0.2129  0.2255  0.3239
 4447SOL    HW113882   4.216   1.609   0.475  1.1512 -1.7034  0.0153
 4447SOL    HW213883   4.319   1.716   0.505  0.4367 -0.7533 -0.8352
 4448SOL     OW13884   3.156   1.202   3.777  0.0804  0.2364 -0.0344
 4448SOL    HW113885   3.150   1.213   3.682  0.0758  0.1478 -0.0449
 4448SOL    HW213886   3.125   1.113   3.793  3.2036 -1.0123 -0.2874
 4449SOL     OW13887   2.437   6.658   2.785  0.3486  0.3021  0.2156
 4449SOL    HW113888   2.375   6.589   2.758 -0.6993  1.5136 -0.5709
 4449SOL    HW213889   2.450   6.642   2.879 -2.6384  1.0407  0.8891
 4450SOL     OW13890   1.847   4.769   3.311  0.1599 -0.3279 -0.1622
 4450SOL    HW113891   1.756   4.783   3.282  0.3634  0.0460 -0.6451
 4450SOL    HW213892   1.840   4.704   3.381 -0.8090  1.8310  1.9076
 4451SOL     OW13893   0.135   5.184   7.595 -0.1109 -0.0902 -0.3194
 4451SOL    HW113894   0.147   5.270   7.556 -0.9983  0.2336  0.0991
 4451SOL    HW213895   0.177   5.123   7.534  0.5726  0.6390 -0.5860
 4452SOL     OW13896   7.142   5.292   1.215 -0.4820  0.1494 -0.3401
 4452SOL    HW113897   7.116   5.233   1.285 -0.9723  0.9293  0.1505
 4452SOL    HW213898   7.232   5.316   1.235  0.0623 -1.1729 -1.0752
 4453SOL     OW13899   3.017   3.332   7.479  0.7011  0.4960 -0.0271
 4453SOL    HW113900   3.070   3.392   7.428  0.5155  1.4987  0.9089
 4453SOL    HW213901   2.931   3.334   7.436  1.0045  0.0227 -0.6629
 4454SOL     OW13902   5.159   0.322   2.542  0.1397 -0.1771 -0.2594
 4454SOL    HW113903   5.193   0.302   2.455  0.9945  0.1842 -0.0219
 4454SOL    HW213904   5.064   0.320   2.532  0.0116 -4.4539 -0.2451
 4455SOL     OW13905   4.657   3.715   2.082 -0.9392  0.2522  0.2351
 4455SOL    HW113906   4.672   3.757   2.167 -1.6407  1.0527 -0.0166
 4455SOL    HW213907   4.643   3.623   2.103  2.1547 -0.2011  0.6514
 4456SOL     OW13908   0.033   2.780   3.439  0.1408  0.3072 -0.3863
 4456SOL    HW113909   0.128   2.781   3.450  0.2058  0.6781 -0.9837
 4456SOL    HW213910  -0.001   2.773   3.529  0.7167  1.0233 -0.1035
 4457SOL     OW13911   5.024   0.523   0.410 -0.2436 -0.1608  0.3279
 4457SOL    HW113912   5.097   0.469   0.380  0.4391  0.4984  0.7739
 4457SOL    HW213913   5.060   0.611   0.417 -1.5746  0.5954 -1.3245
 4458SOL     OW13914   3.167   4.368   4.957 -0.1471 -0.3111  0.0492
 4458SOL    HW113915   3.251   4.356   5.001  1.1732  2.0734 -1.5654
 4458SOL    HW213916   3.104   4.381   5.028  1.1765 -0.3845  1.2747
 4459SOL     OW13917   7.222   3.508   6.824 -0.4194 -0.1742  0.3641
 4459SOL    HW113918   7.304   3.524   6.870 -0.4022  0.0923  0.2460
 4459SOL    HW213919   7.245   3.448   6.754  0.2855  2.0553 -1.4432
 4460SOL     OW13920   1.355   7.062   7.608  0.1964  0.1267  0.2562
 4460SOL    HW113921   1.302   7.143   7.609 -0.4185 -0.2011 -1.4829
 4460SOL    HW213922   1.364   7.041   7.515  3.5797  0.2418  0.4217
 4461SOL     OW13923   2.988   3.008   7.461  0.5528 -0.8733  0.4974
 4461SOL    HW113924   3.033   3.073   7.516 -1.5022 -0.4202  1.7649
 4461SOL    HW213925   2.985   2.929   7.515  1.0032 -1.3201 -0.1205
 4462SOL     OW13926   4.495   0.348   7.503 -0.4119  0.1042 -0.0611
 4462SOL    HW113927   4.579   0.366   7.545 -0.4333  1.8098 -0.7065
 4462SOL    HW213928   4.517   0.295   7.426 -0.1658 -1.1755  0.8515
 4463SOL     OW13929   2.316   6.885   5.246 -0.0548  0.0545  0.0779
 4463SOL    HW113930   2.278   6.864   5.331 -0.6728 -0.1702 -0.2436
 4463SOL    HW213931   2.407   6.857   5.252 -0.2109 -0.3669  0.5150
 4464SOL     OW13932   3.473   0.853   1.776  0.1265 -0.4189 -0.6591
 4464SOL    HW113933   3.472   0.757   1.767  0.0677 -0.3523 -1.4638
 4464SOL    HW213934   3.491   0.884   1.687 -0.1611  0.3234 -0.4587
 4465SOL     OW13935   1.933   7.170   6.239  0.4796  0.3459  0.4067
 4465SOL    HW113936   1.929   7.101   6.173 -3.4706  1.8305 -1.1826
 4465SOL    HW213937   1.905   7.127   6.320 -0.8476 -0.2083 -0.3211
 4466SOL     OW13938   4.111   5.558   1.543  0.1151 -0.2936 -0.0755
 4466SOL    HW113939   4.049   5.501   1.587  1.2544 -1.8670 -0.4230
 4466SOL    HW213940   4.148   5.504   1.474  1.8180  0.6187  0.0739
 4467SOL     OW13941   4.841   5.774   4.856  0.4407 -0.0409 -0.1062
 4467SOL    HW113942   4.893   5.828   4.917  1.9850 -1.2628 -0.2721
 4467SOL    HW213943   4.876   5.795   4.770  3.1068 -3.2371  0.0098
 4468SOL     OW13944   4.486   0.666   2.024  0.4634 -0.3285 -0.2377
 4468SOL    HW113945   4.435   0.592   2.057 -1.0459  0.9023  0.3098
 4468SOL    HW213946   4.420   0.724   1.985  1.4561  1.2770  0.4078
 4469SOL     OW13947   6.284   2.435   6.093  0.0183  0.2308 -0.5119
 4469SOL    HW113948   6.363   2.457   6.043  1.2476  0.4796  1.4518
 4469SOL    HW213949   6.307   2.355   6.140 -0.9708  0.2023 -0.0503
 4470SOL     OW13950   2.705   1.337   7.230 -0.2517 -0.3029  0.1373
 4470SOL    HW113951   2.692   1.428   7.203 -2.1999 -1.1134 -1.9903
 4470SOL    HW213952   2.664   1.331   7.316  0.1975  0.8874  0.4514
 4471SOL     OW13953   2.565   1.862   0.991 -0.1051  0.0612  0.0097
 4471SOL    HW113954   2.585   1.859   0.898 -0.6342 -1.2781 -0.0753
 4471SOL    HW213955   2.470   1.850   0.996  0.1737 -2.2679  0.8017
 4472SOL     OW13956   6.111   3.628   2.583  0.0021 -0.1848 -0.4212
 4472SOL    HW113957   6.160   3.695   2.536  0.1992 -0.3468 -0.4516
 4472SOL    HW213958   6.074   3.673   2.658  0.3721 -0.1035 -0.2844
 4473SOL     OW13959   3.462   7.490   2.850 -0.4778 -0.2859 -0.4758
 4473SOL    HW113960   3.441   7.566   2.796  2.5963  0.8320 -0.2318
 4473SOL    HW213961   3.395   7.490   2.919 -0.0275  2.7629  0.0655
 4474SOL     OW13962   5.103   4.986   0.527 -0.2407 -0.6201  0.6019
 4474SOL    HW113963   5.162   4.922   0.567 -1.0562 -1.4372  0.5199
 4474SOL    HW213964   5.076   5.043   0.599  0.8718 -0.0427  0.5874
 4475SOL     OW13965   0.715   0.074   4.676 -0.3682  0.3425 -0.3846
 4475SOL    HW113966   0.625   0.083   4.644 -0.3614 -1.2151 -0.9070
 4475SOL    HW213967   0.769   0.108   4.604 -0.5411  2.2367  0.3342
 4476SOL     OW13968   7.263   4.731   5.434 -0.6196  0.6642 -0.5140
 4476SOL    HW113969   7.178   4.690   5.449 -0.8151  1.2869  0.1641
 4476SOL    HW213970   7.243   4.821   5.411 -0.1325  1.7471  2.7488
 4477SOL     OW13971   5.796   2.754   0.685  0.2321  0.2651  0.3709
 4477SOL    HW113972   5.799   2.673   0.736  0.5872  0.6498  0.9689
 4477SOL    HW213973   5.819   2.822   0.747  0.6770  0.7455 -0.3079
 4478SOL     OW13974   5.421   1.348   2.085 -0.2951 -0.4760  0.2483
 4478SOL    HW113975   5.465   1.430   2.062 -0.5027 -0.7874 -1.4335
 4478SOL    HW213976   5.489   1.294   2.124 -0.3977  0.8560  2.4267
 4479SOL     OW13977   4.588   5.523   3.783 -0.0263 -0.4657  0.2029
 4479SOL    HW113978   4.655   5.569   3.733 -0.6794 -0.5377 -0.7711
 4479SOL    HW213979   4.561   5.451   3.727  0.3475 -1.5195  1.3475
 4480SOL     OW13980   4.909   3.904   3.360 -0.5271  0.0805  0.6862
 4480SOL    HW113981   4.816   3.887   3.353 -0.5275 -0.6188  2.0315
 4480SOL    HW213982   4.950   3.843   3.298 -0.8268 -1.6548  2.1064
 4481SOL     OW13983   6.514   5.574   2.422  0.0788 -0.5876 -0.1123
 4481SOL    HW113984   6.481   5.485   2.416 -0.4538 -0.2984 -2.8833
 4481SOL    HW213985   6.571   5.584   2.346  0.3414  1.3479  0.2699
 4482SOL     OW13986   1.047   3.606   3.034  0.5349 -0.0075  0.5203
 4482SOL    HW113987   1.137   3.592   3.065  0.4636 -1.3952  0.1651
 4482SOL    HW213988   1.015   3.519   3.013 -1.0994  0.4010  1.1443
 4483SOL     OW13989   3.483   6.512   3.446 -0.0469 -0.0097  0.0131
 4483SOL    HW113990   3.415   6.501   3.513 -1.6546 -0.8623 -1.6841
 4483SOL    HW213991   3.510   6.603   3.455 -0.1276 -0.1127  1.8627
 4484SOL     OW13992   2.744   5.584   2.047  0.0410  0.5173  0.0790
 4484SOL    HW113993   2.697   5.649   1.994  1.2611  1.4502  0.0888
 4484SOL    HW213994   2.836   5.602   2.030  0.4314 -1.7349 -0.4982
 4485SOL     OW13995   6.411   5.977   7.602 -0.2191  0.7952 -0.0095
 4485SOL    HW113996   6.412   5.982   7.698 -0.6442  0.9485 -0.0131
 4485SOL    HW213997   6.414   5.883   7.583  4.0235  0.6898  0.0923
 4486SOL     OW13998   5.551   1.274   2.463  0.5991 -0.4223  0.2263
 4486SOL    HW113999   5.490   1.330   2.416 -0.5936 -0.1675  1.9909
 4486SOL    HW214000   5.637   1.305   2.437  0.0095 -0.3941 -1.8535
 4487SOL     OW14001   3.898   0.104   6.178  0.2638  0.4917 -0.0665
 4487SOL    HW114002   3.841   0.098   6.101  0.9945  0.3964 -0.6083
 4487SOL    HW214003   3.959   0.175   6.157  1.0671 -0.1597  0.0106
 4488SOL     OW14004   0.322   5.589   1.151 -0.0172  0.2924 -0.0922
 4488SOL    HW114005   0.269   5.509   1.153  0.3561 -0.0549 -1.8755
 4488SOL    HW214006   0.373   5.581   1.071  1.1778  1.6153  0.4978
 4489SOL     OW14007   3.269   2.875   4.686 -0.1662 -0.4850 -0.5106
 4489SOL    HW114008   3.289   2.836   4.771 -2.2616  1.0083  0.7912
 4489SOL    HW214009   3.305   2.964   4.692 -0.3424 -0.3647 -1.1609
 4490SOL     OW14010   5.205   6.071   1.731  0.7919  0.6707  0.2425
 4490SOL    HW114011   5.259   5.998   1.702  0.0549  1.0067 -2.1606
 4490SOL    HW214012   5.123   6.062   1.682  0.6524  3.0525 -0.0923
 4491SOL     OW14013   2.224   3.678   6.662 -0.5782  0.7752  0.6822
 4491SOL    HW114014   2.205   3.639   6.747 -1.4934 -0.9681 -0.2512
 4491SOL    HW214015   2.184   3.764   6.665 -1.5309  0.3217  1.6592
 4492SOL     OW14016   3.112   4.687   5.251  0.2291  0.0426 -0.6435
 4492SOL    HW114017   3.024   4.686   5.290  0.9872  0.5416  1.1554
 4492SOL    HW214018   3.161   4.622   5.301  0.1900 -2.4513 -3.5450
 4493SOL     OW14019   6.204   3.431   4.308  0.0976 -0.1943  0.5739
 4493SOL    HW114020   6.135   3.439   4.374 -0.7500 -0.6975 -0.2301
 4493SOL    HW214021   6.164   3.463   4.227  1.4958  1.5684  0.5040
 4494SOL     OW14022   0.895   7.358   0.439  0.3234 -0.1733  0.1025
 4494SOL    HW114023   0.846   7.298   0.383  1.3315  0.8333 -1.9940
 4494SOL    HW214024   0.831   7.394   0.500 -1.0466 -0.5932 -1.0540
 4495SOL     OW14025   1.533   1.487   4.788  0.4462 -0.0968 -1.0668
 4495SOL    HW114026   1.438   1.487   4.781  0.2900 -2.6792 -0.1948
 4495SOL    HW214027   1.550   1.477   4.882  1.4926 -1.4116 -1.3551
 4496SOL     OW14028   5.490   1.599   7.434 -0.0244 -0.4092 -0.3703
 4496SOL    HW114029   5.578   1.601   7.470 -0.2424  0.1659  0.1427
 4496SOL    HW214030   5.456   1.688   7.448 -1.7881 -1.3793  2.2163
 4497SOL     OW14031   5.279   0.861   1.376 -0.0638 -0.4477 -0.0990
 4497SOL    HW114032   5.295   0.846   1.283 -0.9242 -0.3214 -0.2803
 4497SOL    HW214033   5.214   0.931   1.379 -0.1774 -0.5674  0.5849
 4498SOL     OW14034   3.755   0.633   1.781  0.1773 -0.0500  0.4173
 4498SOL    HW114035   3.804   0.574   1.839  0.8418  0.3028  0.2166
 4498SOL    HW214036   3.664   0.602   1.787  0.1051  0.3917  2.1607
 4499SOL     OW14037   1.825   2.639   2.442 -0.8112  0.4446  0.2297
 4499SOL    HW114038   1.854   2.714   2.390 -0.3914 -0.0816 -0.3069
 4499SOL    HW214039   1.789   2.677   2.522 -2.8527  1.3925 -1.0448
 4500SOL     OW14040   0.541   5.861   5.917  0.7554 -0.1287  0.1046
 4500SOL    HW114041   0.467   5.808   5.945  0.0158  1.2928  0.9641
 4500SOL    HW214042   0.616   5.802   5.919 -0.3434 -1.6247 -0.8849
 4501SOL     OW14043   0.831   2.375   4.867 -0.4713 -0.0557  0.3978
 4501SOL    HW114044   0.863   2.463   4.886  0.5753 -0.6490  1.5091
 4501SOL    HW214045   0.855   2.361   4.775 -2.2617  1.4557 -0.3639
 4502SOL     OW14046   5.831   1.119   4.735 -0.9489  0.3678  0.0195
 4502SOL    HW114047   5.811   1.111   4.642 -0.0747  0.2225 -0.1662
 4502SOL    HW214048   5.926   1.129   4.739 -0.7287 -1.6371  1.0014
 4503SOL     OW14049   3.261   1.337   2.664  0.5461 -0.5249 -0.3943
 4503SOL    HW114050   3.177   1.379   2.680  0.5171 -1.3210  1.9177
 4503SOL    HW214051   3.239   1.254   2.621  0.2014 -0.3952 -0.4670
 4504SOL     OW14052   5.671   2.570   4.811 -0.2424  0.3289  0.3371
 4504SOL    HW114053   5.620   2.490   4.825  1.1816 -1.4995 -3.5973
 4504SOL    HW214054   5.623   2.617   4.743  1.6106  0.1459 -1.1430
 4505SOL     OW14055   1.756   1.964   6.013  0.2303 -0.1589  0.4523
 4505SOL    HW114056   1.720   1.932   5.930 -0.3454  0.9516  0.2609
 4505SOL    HW214057   1.680   1.978   6.068  0.3854  1.6501  0.2514
 4506SOL     OW14058   6.374   3.010   5.281  0.7835  0.1208  0.3544
 4506SOL    HW114059   6.285   3.032   5.308  0.2318 -0.1687 -1.1235
 4506SOL    HW214060   6.418   2.983   5.362 -0.3721  0.5660  1.1520
 4507SOL     OW14061   4.234   0.154   6.262 -0.2339  0.1826  0.0072
 4507SOL    HW114062   4.300   0.178   6.197  1.7624 -2.4125  0.9078
 4507SOL    HW214063   4.177   0.231   6.268  1.3116  1.6533 -2.5222
 4508SOL     OW14064   1.008   0.403   3.300 -0.3094 -0.3306 -0.1262
 4508SOL    HW114065   1.053   0.458   3.363  0.1576 -1.2135  0.3262
 4508SOL    HW214066   0.979   0.463   3.232  1.0341  0.3427 -0.1294
 4509SOL     OW14067   5.484   7.319   2.632  0.7194 -0.3647 -0.0083
 4509SOL    HW114068   5.536   7.240   2.616  0.9506 -0.2517  0.1845
 4509SOL    HW214069   5.425   7.324   2.557  0.0009 -1.2945  0.4657
 4510SOL     OW14070   0.417   0.249   0.027  0.0126 -0.2500  0.7296
 4510SOL    HW114071   0.380   0.178   0.079  0.0755  0.3900  1.6934
 4510SOL    HW214072   0.500   0.269   0.070 -1.3585  2.4174  2.4415
 4511SOL     OW14073   5.638   6.280   7.019  0.0205  0.3043  0.8320
 4511SOL    HW114074   5.726   6.307   6.992  0.3020 -1.6430 -0.4587
 4511SOL    HW214075   5.653   6.204   7.075 -0.8363 -0.2949  0.2700
 4512SOL     OW14076   0.492   3.263   0.130  0.3651  0.4510  0.0789
 4512SOL    HW114077   0.532   3.349   0.136  0.5215  0.4771 -1.0400
 4512SOL    HW214078   0.425   3.272   0.062  0.2953 -0.2741  0.0406
 4513SOL     OW14079   2.129   4.578   2.157 -0.0524  0.0486  0.7227
 4513SOL    HW114080   2.176   4.652   2.119  1.0582 -0.5265  0.9247
 4513SOL    HW214081   2.180   4.501   2.131 -0.8258 -0.5993  1.0564
 4514SOL     OW14082   0.796   1.430   5.209 -0.6234 -0.1113 -0.6026
 4514SOL    HW114083   0.749   1.474   5.279 -1.5797  0.7562 -1.7605
 4514SOL    HW214084   0.810   1.497   5.142 -1.3648 -1.3355 -2.0536
 4515SOL     OW14085   1.997   3.596   4.215 -0.1281  0.2804  0.0189
 4515SOL    HW114086   1.924   3.655   4.196 -0.9358 -0.9683 -0.9592
 4515SOL    HW214087   2.065   3.623   4.154 -0.7950 -0.3051 -1.0137
 4516SOL     OW14088   1.771   0.723   4.256 -0.0414  0.4254 -0.1017
 4516SOL    HW114089   1.812   0.801   4.294 -0.5683 -0.5284  2.6629
 4516SOL    HW214090   1.844   0.672   4.221  0.8723  0.1038  2.1304
 4517SOL     OW14091   5.562   3.798   6.726 -0.4201 -0.1995 -0.2810
 4517SOL    HW114092   5.513   3.878   6.744  0.8914  0.5577  0.0950
 4517SOL    HW214093   5.577   3.800   6.632  0.4511  0.5372 -0.1459
 4518SOL     OW14094   5.313   7.591   7.170  0.3975 -0.6568  0.3120
 4518SOL    HW114095   5.252   7.649   7.125  1.0696 -0.9259 -0.9943
 4518SOL    HW214096   5.329   7.633   7.255 -0.9333 -0.1649  0.3402
 4519SOL     OW14097   2.482   3.273   4.609  0.6038 -0.1885 -0.4720
 4519SOL    HW114098   2.438   3.301   4.529  2.1618  2.8210 -0.4153
 4519SOL    HW214099   2.416   3.222   4.657 -1.5291  0.9830 -2.0346
 4520SOL     OW14100   6.785   5.426   1.222  0.1822  0.3927 -0.0778
 4520SOL    HW114101   6.759   5.470   1.141 -0.1749  3.6362  1.6090
 4520SOL    HW214102   6.866   5.470   1.248  0.6298 -1.0186  1.0376
 4521SOL     OW14103   3.547   2.593   6.347  0.1047 -0.9352  0.0517
 4521SOL    HW114104   3.590   2.671   6.313 -2.4502  0.2331 -0.7337
 4521SOL    HW214105   3.511   2.549   6.270 -0.5002 -1.5908  0.6872
 4522SOL     OW14106   5.060   5.820   0.040  0.2998 -0.5061 -0.2424
 4522SOL    HW114107   5.128   5.875   0.002 -0.4178  0.9739  0.5003
 4522SOL    HW214108   5.099   5.785   0.120  0.3806 -0.0619 -0.0804
 4523SOL     OW14109   4.249   2.761   6.213  0.2986 -0.0686  0.4819
 4523SOL    HW114110   4.190   2.824   6.254  2.0598  3.3821 -1.8251
 4523SOL    HW214111   4.330   2.768   6.263  0.6240 -0.1922 -0.0192
 4524SOL     OW14112   6.440   6.199   7.459  0.1251  0.0628 -0.6418
 4524SOL    HW114113   6.441   6.165   7.370  1.3146  0.1855 -0.6964
 4524SOL    HW214114   6.442   6.121   7.514  2.3953 -0.0206 -0.7650
 4525SOL     OW14115   1.321   3.113   6.354 -0.0828 -0.2200 -0.1601
 4525SOL    HW114116   1.387   3.103   6.286 -1.1125  1.9246 -1.5796
 4525SOL    HW214117   1.338   3.200   6.391 -1.4932 -0.0197  0.0940
 4526SOL     OW14118   3.655   6.129   0.224  0.4064 -0.0569  0.0509
 4526SOL    HW114119   3.740   6.097   0.195  0.4187 -0.6936  0.7517
 4526SOL    HW214120   3.615   6.165   0.145  1.4994  0.6614 -0.1937
 4527SOL     OW14121   5.380   1.023   5.385 -0.3088  0.5154 -0.0522
 4527SOL    HW114122   5.445   1.058   5.324 -0.2292 -0.4295 -0.5406
 4527SOL    HW214123   5.301   1.011   5.333 -1.0616  2.1532  0.6673
 4528SOL     OW14124   6.750   0.122   4.988  0.4589 -0.1767  0.4719
 4528SOL    HW114125   6.845   0.131   4.989  0.3272  1.5821  1.6649
 4528SOL    HW214126   6.723   0.136   5.079 -1.0488  1.2144 -0.1366
 4529SOL     OW14127   0.874   3.169   6.559 -0.6088  0.7106  0.3031
 4529SOL    HW114128   0.804   3.228   6.589 -0.4349  0.5378  1.0628
 4529SOL    HW214129   0.926   3.223   6.499 -0.4387  1.3480  0.9993
 4530SOL     OW14130   2.182   2.657   2.343 -0.0517 -0.4615 -0.0958
 4530SOL    HW114131   2.110   2.665   2.281  0.6687  1.5619 -0.7487
 4530SOL    HW214132   2.250   2.611   2.296 -0.3437 -0.9846 -0.0098
 4531SOL     OW14133   0.739   6.878   0.007  0.5287 -0.1561 -0.1425
 4531SOL    HW114134   0.822   6.832  -0.006 -0.3261 -1.8845  0.1839
 4531SOL    HW214135   0.691   6.864  -0.074 -0.3061 -1.1134  0.4938
 4532SOL     OW14136   1.329   3.290   3.569  0.1990 -0.2490  0.0963
 4532SOL    HW114137   1.310   3.206   3.529 -2.1475  0.3407 -0.1694
 4532SOL    HW214138   1.363   3.268   3.656  1.3178 -1.4636 -0.6128
 4533SOL     OW14139   0.390   4.587   1.054 -0.0669 -0.6186 -0.5193
 4533SOL    HW114140   0.332   4.609   1.127  0.6879  0.1542 -0.1204
 4533SOL    HW214141   0.442   4.513   1.085  0.9402  0.3351  0.1329
 4534SOL     OW14142   4.516   4.313   7.165  0.3645  0.4483 -0.0512
 4534SOL    HW114143   4.553   4.388   7.211  2.7751 -1.0590  0.7006
 4534SOL    HW214144   4.553   4.318   7.077 -0.4824  0.7822 -0.4020
 4535SOL     OW14145   1.069   7.097   2.964  0.4483  0.3060 -0.5681
 4535SOL    HW114146   1.162   7.075   2.959  0.7424  1.7170 -2.4277
 4535SOL    HW214147   1.067   7.190   2.984 -0.6131  0.1071  0.3908
 4536SOL     OW14148   2.173   0.788   1.503  0.2218  0.4583  0.0835
 4536SOL    HW114149   2.136   0.739   1.577  1.2314 -2.4430 -1.1695
 4536SOL    HW214150   2.262   0.811   1.530  0.6493 -0.7492 -0.2333
 4537SOL     OW14151   1.080   2.385   3.369 -0.1285  0.4412  0.5392
 4537SOL    HW114152   1.175   2.396   3.371 -0.1879  0.9044  1.2827
 4537SOL    HW214153   1.066   2.296   3.400  0.0850  0.2124 -0.0171
 4538SOL     OW14154   5.980   2.136   1.828 -0.0408  0.0915  0.2917
 4538SOL    HW114155   6.029   2.058   1.803 -0.2183 -0.4166  1.4434
 4538SOL    HW214156   5.931   2.109   1.906 -0.4305  1.2277  0.4559
 4539SOL     OW14157   4.721   6.047   5.022 -0.1166 -0.5585 -0.1278
 4539SOL    HW114158   4.742   5.959   5.054  0.6109 -0.7601 -1.1265
 4539SOL    HW214159   4.770   6.106   5.078  1.6292 -0.9361 -1.1981
 4540SOL     OW14160   3.058   4.292   7.257  0.1851  0.1042 -0.6999
 4540SOL    HW114161   3.056   4.218   7.318 -0.5425  1.6049  1.1973
 4540SOL    HW214162   2.995   4.268   7.189  0.4050 -1.2581 -0.4697
 4541SOL     OW14163   3.488   5.702   6.198 -0.8442  0.4759 -0.3759
 4541SOL    HW114164   3.479   5.718   6.104 -2.2158 -1.6723 -0.6730
 4541SOL    HW214165   3.556   5.635   6.205 -1.8071 -0.4946  0.0028
 4542SOL     OW14166   0.140   5.258   5.918  0.5628 -0.3501  0.4398
 4542SOL    HW114167   0.209   5.191   5.929 -0.2424 -1.2927 -0.0971
 4542SOL    HW214168   0.079   5.241   5.990  0.9819  0.6224  1.0420
 4543SOL     OW14169   0.689   5.992   0.895  0.2502  0.4569 -0.1013
 4543SOL    HW114170   0.599   5.991   0.928 -0.7415 -1.9828 -2.5111
 4543SOL    HW214171   0.689   6.059   0.827 -0.2813 -0.6535 -1.2376
 4544SOL     OW14172   5.462   1.642   2.189 -0.1963 -0.3781 -0.2165
 4544SOL    HW114173   5.511   1.660   2.269  1.5189 -0.9897 -1.0787
 4544SOL    HW214174   5.451   1.728   2.148 -1.0434 -0.0696  0.6135
 4545SOL     OW14175   6.003   4.978   5.486 -0.1385  0.2603  0.1586
 4545SOL    HW114176   5.967   5.013   5.568  2.2813  1.8652  0.6543
 4545SOL    HW214177   6.031   5.056   5.438 -0.9076 -0.6990 -1.9709
 4546SOL     OW14178   1.848   5.417   1.720  0.1941  0.1619  0.7217
 4546SOL    HW114179   1.888   5.334   1.694  1.0772 -0.0584  2.6232
 4546SOL    HW214180   1.758   5.394   1.743 -0.2444  0.1594 -0.8806
 4547SOL     OW14181   4.579   2.376   5.880 -0.5153 -0.3691  0.2761
 4547SOL    HW114182   4.582   2.286   5.847 -0.9183 -0.1718 -0.3111
 4547SOL    HW214183   4.641   2.377   5.953  0.4639 -0.8045 -0.5198
 4548SOL     OW14184   2.946   0.326   2.241  0.4601 -0.5121  0.1892
 4548SOL    HW114185   2.860   0.353   2.274  0.0855  2.4217 -2.6531
 4548SOL    HW214186   2.931   0.239   2.204 -0.2434 -1.7207  3.0180
 4549SOL     OW14187   4.998   6.040   0.923 -0.2381 -0.1330 -0.0045
 4549SOL    HW114188   4.904   6.047   0.938  0.1887  0.8831  2.8009
 4549SOL    HW214189   5.038   6.073   1.003  2.5447 -0.1409 -1.2565
 4550SOL     OW14190   2.672   5.172   2.706  0.3332  0.4121  0.0246
 4550SOL    HW114191   2.653   5.224   2.784  2.1585 -1.3191  1.7537
 4550SOL    HW214192   2.753   5.209   2.672  1.6013 -1.1238  1.2210
 4551SOL     OW14193   5.456   3.979   2.037 -0.4513 -0.8005  0.4765
 4551SOL    HW114194   5.440   3.894   1.995 -0.8497 -0.6676  0.3483
 4551SOL    HW214195   5.457   4.041   1.964  2.2676 -0.9611  0.2535
 4552SOL     OW14196   6.608   0.359   5.911 -0.2902 -0.0413 -0.0386
 4552SOL    HW114197   6.564   0.338   5.828 -0.2698 -1.9688  0.3712
 4552SOL    HW214198   6.639   0.274   5.943 -0.4800  0.6148  2.0421
 4553SOL     OW14199   3.213   5.078   4.387 -0.3692 -0.0328 -0.5425
 4553SOL    HW114200   3.259   5.145   4.437 -0.0413  0.6499 -1.7103
 4553SOL    HW214201   3.121   5.093   4.405 -0.2715  0.4593 -0.4448
 4554SOL     OW14202   4.416   4.884   5.582 -0.0041 -0.6125  0.0585
 4554SOL    HW114203   4.476   4.813   5.606 -1.3726 -1.1883  2.0132
 4554SOL    HW214204   4.329   4.849   5.599 -0.8610  0.7218 -1.2930
 4555SOL     OW14205   1.746   4.823   7.549 -0.0932 -0.1770  0.2635
 4555SOL    HW114206   1.812   4.790   7.488 -0.6469 -1.0675  0.1156
 4555SOL    HW214207   1.767   4.780   7.632 -1.2193 -1.4740 -0.0926
 4556SOL     OW14208   3.477   2.139   1.954 -0.2303  0.1782  0.4327
 4556SOL    HW114209   3.495   2.208   1.891 -0.9790  0.3858  0.4400
 4556SOL    HW214210   3.558   2.131   2.004  0.4082 -0.0638 -0.6134
 4557SOL     OW14211   2.727   4.503   1.023  0.2619 -0.4513 -0.0192
 4557SOL    HW114212   2.636   4.524   1.044  0.9869  1.4353  1.5438
 4557SOL    HW214213   2.772   4.508   1.107  1.8792 -1.1058 -0.8093
 4558SOL     OW14214   4.646   3.967   0.697  0.1123  0.4717  0.0544
 4558SOL    HW114215   4.722   3.915   0.670  0.0027 -0.8821  2.1733
 4558SOL    HW214216   4.571   3.920   0.661  0.1623  1.0864 -0.9079
 4559SOL     OW14217   2.387   4.954   5.202  0.2436 -0.0956 -0.1917
 4559SOL    HW114218   2.429   5.018   5.260 -0.1481  0.2817 -0.3093
 4559SOL    HW214219   2.458   4.899   5.170  0.7443  0.8890 -0.8417
 4560SOL     OW14220   0.206   6.508   6.698 -0.0433 -0.1271  0.1167
 4560SOL    HW114221   0.212   6.600   6.724 -0.6472 -0.1627  0.3971
 4560SOL    HW214222   0.246   6.505   6.611  0.0080  0.3956  0.1194
 4561SOL     OW14223   4.779   6.769   3.169  0.1745  0.2469  0.5502
 4561SOL    HW114224   4.873   6.784   3.164  0.5539 -1.8007  1.0891
 4561SOL    HW214225   4.768   6.675   3.155 -1.8063  0.4576  0.3865
 4562SOL     OW14226   4.991   5.877   5.044 -0.2378  0.4530  1.1341
 4562SOL    HW114227   5.040   5.956   5.023  1.5903 -0.3757  2.0317
 4562SOL    HW214228   4.989   5.875   5.140 -1.9344  0.3790  1.1268
 4563SOL     OW14229   3.247   5.392   5.019 -0.3888  0.0536  0.0603
 4563SOL    HW114230   3.169   5.379   4.965 -0.7049 -1.4252  0.8268
 4563SOL    HW214231   3.273   5.304   5.046  1.0288  0.5971  0.5509
 4564SOL     OW14232   0.737   3.604   3.667 -0.3729 -0.0891  0.0970
 4564SOL    HW114233   0.725   3.664   3.594 -0.5346 -0.1736  0.0536
 4564SOL    HW214234   0.703   3.520   3.635 -1.2135  0.0649  0.5504
 4565SOL     OW14235   5.668   5.775   5.715  0.4094 -0.2385  0.3263
 4565SOL    HW114236   5.640   5.866   5.714 -0.6614 -0.5136  1.6587
 4565SOL    HW214237   5.604   5.729   5.661  0.8530 -0.2288 -0.2113
 4566SOL     OW14238   2.316   1.301   0.074  0.0062  0.3442 -0.0152
 4566SOL    HW114239   2.389   1.362   0.082  1.1029 -1.1503  2.5817
 4566SOL    HW214240   2.270   1.308   0.158 -1.1535 -0.7901 -0.5327
 4567SOL     OW14241   2.888   1.659   5.513  0.5396 -0.1331 -0.2754
 4567SOL    HW114242   2.955   1.653   5.446  1.0609 -0.9060  0.2965
 4567SOL    HW214243   2.829   1.585   5.495  0.5789 -0.2346  0.0012
 4568SOL     OW14244   2.608   5.385   7.595  0.3449 -0.7784  0.2077
 4568SOL    HW114245   2.685   5.402   7.541 -0.3770  0.8180 -0.3520
 4568SOL    HW214246   2.618   5.293   7.622  0.5597 -1.7940 -2.9133
 4569SOL     OW14247   6.753   3.327   1.433  0.4950  0.5015  0.7676
 4569SOL    HW114248   6.790   3.340   1.346  3.4734 -2.4977  1.4006
 4569SOL    HW214249   6.807   3.382   1.490  2.1324 -1.5091  1.2829
 4570SOL     OW14250   5.352   0.030   2.517  0.3663 -0.1737  0.3058
 4570SOL    HW114251   5.411   0.078   2.574 -0.7140  0.0131  1.3196
 4570SOL    HW214252   5.268   0.032   2.563 -0.5481 -0.0215 -1.3098
 4571SOL     OW14253   5.387   6.026   0.692 -0.4312 -0.6017  0.0620
 4571SOL    HW114254   5.375   5.932   0.707 -0.8686 -0.4208  0.9425
 4571SOL    HW214255   5.304   6.055   0.654 -0.6669 -0.4125  0.6920
 4572SOL     OW14256   6.535   3.925   3.414 -0.1809 -0.0490 -0.2625
 4572SOL    HW114257   6.457   3.950   3.363 -0.2058 -0.8072 -0.6069
 4572SOL    HW214258   6.600   3.991   3.392 -0.3285 -0.1251 -0.9567
 4573SOL     OW14259   6.511   6.548   0.621 -0.0128  0.2214 -0.7728
 4573SOL    HW114260   6.526   6.634   0.659  0.2186 -1.3277  3.1343
 4573SOL    HW214261   6.422   6.525   0.648  1.4173 -2.4359  2.3637
 4574SOL     OW14262   0.479   1.212   6.191  0.0538 -0.0284 -0.2523
 4574SOL    HW114263   0.412   1.222   6.259  1.2989 -1.2368  1.2075
 4574SOL    HW214264   0.458   1.281   6.127 -0.7245  1.6625  1.6999
 4575SOL     OW14265   2.828   3.761   6.769  0.5984  0.8793 -0.3839
 4575SOL    HW114266   2.733   3.776   6.773  0.3797 -0.2027 -1.0701
 4575SOL    HW214267   2.850   3.772   6.676  1.0386  0.5375 -0.3225
 4576SOL     OW14268   0.704   6.766   2.842  0.1569 -0.0737 -0.0390
 4576SOL    HW114269   0.683   6.853   2.878 -1.8155 -0.8607  0.8501
 4576SOL    HW214270   0.800   6.762   2.844  0.2555  1.6813  0.8919
 4577SOL     OW14271   3.345   2.449   7.460 -0.1994 -0.4700 -0.4108
 4577SOL    HW114272   3.337   2.380   7.394 -0.2183 -0.2457 -0.6425
 4577SOL    HW214273   3.437   2.476   7.455 -0.4046  0.1541 -0.9582
 4578SOL     OW14274   0.004   6.781   2.947  0.8300 -0.7629  0.1208
 4578SOL    HW114275  -0.033   6.791   3.035  3.2578 -0.1776  1.1554
 4578SOL    HW214276  -0.040   6.848   2.895 -0.6121 -1.0809  0.8668
 4579SOL     OW14277   1.020   7.114   0.929  0.1458 -0.1153 -0.0383
 4579SOL    HW114278   1.082   7.185   0.937 -0.6436  0.4970  0.8316
 4579SOL    HW214279   0.991   7.097   1.019 -1.3189 -0.0275 -0.4702
 4580SOL     OW14280   6.941   1.608   5.715  0.3705 -0.2937 -0.0356
 4580SOL    HW114281   6.865   1.663   5.736 -0.1326 -0.5580 -1.0311
 4580SOL    HW214282   6.988   1.598   5.797  0.5621  1.7389  0.1454
 4581SOL     OW14283   4.410   0.152   4.355  0.0167 -0.6164 -0.4022
 4581SOL    HW114284   4.387   0.109   4.438 -0.9129 -0.7730 -0.7214
 4581SOL    HW214285   4.457   0.085   4.306 -0.0743 -0.7623 -0.2910
 4582SOL     OW14286   3.780   7.366   5.497 -0.1517  0.0297 -0.1749
 4582SOL    HW114287   3.713   7.421   5.538  1.4483  1.7798  0.2020
 4582SOL    HW214288   3.761   7.372   5.403 -0.6763  0.2882 -0.0598
 4583SOL     OW14289   6.014   1.052   2.929 -0.3733  0.3683 -0.1349
 4583SOL    HW114290   5.981   1.018   3.012 -0.1235  0.5579  0.0430
 4583SOL    HW214291   5.940   1.043   2.868 -0.1779 -0.9204 -0.2194
 4584SOL     OW14292   5.182   2.045   2.907 -0.0752  0.4611 -0.2381
 4584SOL    HW114293   5.144   1.960   2.927 -1.0919  0.6969 -1.0501
 4584SOL    HW214294   5.107   2.099   2.880  0.6908  1.2711 -0.8261
 4585SOL     OW14295   6.535   3.863   1.447  0.1208  0.3308 -0.1516
 4585SOL    HW114296   6.555   3.956   1.438  0.2168  0.2743 -0.5335
 4585SOL    HW214297   6.551   3.844   1.540  0.4663  0.6082 -0.1537
 4586SOL     OW14298   0.242   1.784   7.584  0.3267  0.0434 -0.2607
 4586SOL    HW114299   0.296   1.859   7.559  0.3718 -0.3589 -1.4149
 4586SOL    HW214300   0.240   1.787   7.680  0.3883  1.4794 -0.2769
 4587SOL     OW14301   2.568   3.619   1.173 -0.7980  0.0485  0.4111
 4587SOL    HW114302   2.504   3.690   1.166 -0.0035  0.5963 -1.9197
 4587SOL    HW214303   2.571   3.580   1.086  0.9845 -0.9031  0.8465
 4588SOL     OW14304   4.593   3.941   4.039 -0.6936  0.4886  0.1004
 4588SOL    HW114305   4.621   3.909   4.125 -1.2453  1.3396  0.6044
 4588SOL    HW214306   4.595   3.863   3.984 -2.0959 -0.4750  1.3201
 4589SOL     OW14307   5.156   7.411   0.789  0.0983  0.7015  0.1650
 4589SOL    HW114308   5.158   7.506   0.805 -0.3143  1.1633 -2.1593
 4589SOL    HW214309   5.247   7.389   0.769  0.3313  0.4250  1.4358
 4590SOL     OW14310   4.784   0.395   1.905 -0.4604 -0.0168 -0.1982
 4590SOL    HW114311   4.726   0.337   1.955  1.7999 -1.7326  0.6336
 4590SOL    HW214312   4.738   0.409   1.822 -2.7487  0.0683  0.9821
 4591SOL     OW14313   0.860   0.174   4.463  0.0688 -0.2921  0.6642
 4591SOL    HW114314   0.954   0.158   4.470  0.1875  0.0318 -0.1441
 4591SOL    HW214315   0.830   0.116   4.394 -0.3548 -0.4942  1.0139
 4592SOL     OW14316   5.047   3.323   0.097  0.7165  0.7232  0.1293
 4592SOL    HW114317   5.073   3.268   0.171 -1.2368  0.3874  0.6134
 4592SOL    HW214318   5.011   3.402   0.137 -1.1540  0.1805 -0.3951
 4593SOL     OW14319   1.343   2.912   0.038 -0.1896  0.3155 -0.4454
 4593SOL    HW114320   1.405   2.914  -0.035  1.4213 -2.9176  0.6137
 4593SOL    HW214321   1.369   2.987   0.093  2.8172 -0.8032 -0.1383
 4594SOL     OW14322   7.448   6.177   6.933 -0.3748  0.4788 -0.1981
 4594SOL    HW114323   7.385   6.117   6.972  0.0931 -1.2709 -1.9647
 4594SOL    HW214324   7.413   6.264   6.950 -2.5769 -0.3875 -0.0107
 4595SOL     OW14325   2.805   3.720   5.649 -0.2409  0.0912 -0.3082
 4595SOL    HW114326   2.762   3.757   5.727 -1.6290 -2.0179  0.0170
 4595SOL    HW214327   2.778   3.778   5.578 -1.4903  0.3509  0.3281
 4596SOL     OW14328   3.112   7.439   7.028 -0.3271  0.3176 -0.5796
 4596SOL    HW114329   3.026   7.473   7.006 -0.3132 -0.5142 -1.9994
 4596SOL    HW214330   3.163   7.516   7.054 -2.2188  0.5652  3.0392
 4597SOL     OW14331   0.615   1.196   1.413  0.3966  0.6154 -0.7692
 4597SOL    HW114332   0.684   1.197   1.479  0.2560  2.9503 -0.5936
 4597SOL    HW214333   0.661   1.184   1.330  0.7138 -0.6349 -0.4454
 4598SOL     OW14334   0.338   7.476   1.703  0.2494 -0.0447  0.0879
 4598SOL    HW114335   0.423   7.517   1.684 -0.2404  0.4634 -1.1669
 4598SOL    HW214336   0.310   7.516   1.785 -0.4900  2.7351 -1.3621
 4599SOL     OW14337   4.688   5.070   2.309 -0.8796  0.4271 -0.6506
 4599SOL    HW114338   4.680   5.108   2.222  1.7828  0.8039 -0.8381
 4599SOL    HW214339   4.764   5.115   2.347 -0.9684 -0.8969  1.2280
 4600SOL     OW14340   2.800   2.053   3.538 -0.2724  0.1810 -0.1992
 4600SOL    HW114341   2.706   2.058   3.559 -0.3006  0.6840 -0.4046
 4600SOL    HW214342   2.835   1.985   3.595 -0.7746 -0.0458 -0.1550
 4601SOL     OW14343   2.046   6.161   5.020  0.4179 -0.3596 -0.4073
 4601SOL    HW114344   1.991   6.107   4.964  0.8986 -1.5504  0.2304
 4601SOL    HW214345   2.007   6.153   5.107 -0.3095  1.4528 -0.5307
 4602SOL     OW14346   4.675   6.942   5.461 -0.4911 -0.2736  0.2121
 4602SOL    HW114347   4.761   6.922   5.499  1.0344  0.9488 -2.3114
 4602SOL    HW214348   4.636   6.856   5.446  0.7049 -0.9077  0.5166
 4603SOL     OW14349   3.482   6.539   2.366  0.0977 -0.1547  0.2021
 4603SOL    HW114350   3.423   6.471   2.399  0.6386 -0.5679  0.3270
 4603SOL    HW214351   3.567   6.496   2.360  0.6084  0.7152  0.9940
 4604SOL     OW14352   3.417   1.982   1.184 -0.1841  0.6413  0.5573
 4604SOL    HW114353   3.374   2.035   1.117  1.2638  1.5626  0.3219
 4604SOL    HW214354   3.473   2.044   1.231  0.8493 -0.4991  0.8660
 4605SOL     OW14355   2.766   0.594   0.077  0.1718  0.1751  0.0887
 4605SOL    HW114356   2.852   0.594   0.118 -0.8712  0.3310  2.4202
 4605SOL    HW214357   2.767   0.517   0.020  1.3402 -0.7089  1.2376
 4606SOL     OW14358   0.306   2.767   3.427  0.0569  0.1343 -0.1963
 4606SOL    HW114359   0.355   2.732   3.352 -0.4972  1.4783 -1.2304
 4606SOL    HW214360   0.359   2.746   3.503  1.7878  0.7403 -1.1930
 4607SOL     OW14361   5.593   6.487   3.833  0.4944 -0.4083  0.3463
 4607SOL    HW114362   5.549   6.566   3.867 -0.2958 -0.6066 -0.1910
 4607SOL    HW214363   5.670   6.477   3.889  1.3564  1.5049 -0.3965
 4608SOL     OW14364   4.160   2.147   7.584 -0.0948  0.3333 -0.6366
 4608SOL    HW114365   4.139   2.206   7.656 -0.4560  1.2983 -1.5040
 4608SOL    HW214366   4.097   2.076   7.592  1.5470 -0.9806  1.5593
 4609SOL     OW14367   4.090   0.699   7.553  0.1385 -0.3156  0.2339
 4609SOL    HW114368   4.128   0.763   7.613 -0.6335  0.6668 -0.2859
 4609SOL    HW214369   4.164   0.643   7.528  1.2836  1.4926 -0.6941
 4610SOL     OW14370   5.425   6.234   0.940  0.7694 -0.2930  0.6934
 4610SOL    HW114371   5.392   6.260   0.854  0.5822  1.1658  1.1853
 4610SOL    HW214372   5.411   6.139   0.943 -2.4840  0.0526  0.4621
 4611SOL     OW14373   7.212   1.318   5.577 -0.1430  0.0991 -0.2042
 4611SOL    HW114374   7.215   1.379   5.651 -1.6115  0.2869 -0.2735
 4611SOL    HW214375   7.133   1.343   5.528  0.9194  0.1301 -1.9806
 4612SOL     OW14376   1.998   6.212   3.527  0.0893 -0.3754  0.2252
 4612SOL    HW114377   1.930   6.144   3.533 -0.8768  0.5920  0.6118
 4612SOL    HW214378   2.008   6.227   3.433 -0.7002 -0.0917  0.1773
 4613SOL     OW14379   4.055   0.574   2.627 -0.3104  0.0646 -0.5172
 4613SOL    HW114380   4.113   0.505   2.661  0.7205  0.2169 -1.8930
 4613SOL    HW214381   4.025   0.541   2.543 -0.3174  1.0193 -0.9036
 4614SOL     OW14382   5.846   0.946   0.704 -0.0162  0.3719  0.4023
 4614SOL    HW114383   5.808   0.860   0.721 -0.1786  0.5997  1.2310
 4614SOL    HW214384   5.940   0.935   0.718  0.2388 -0.1456 -1.4611
 4615SOL     OW14385   5.529   2.870   2.598  0.0430 -0.3993 -0.6009
 4615SOL    HW114386   5.532   2.948   2.543 -1.1208  1.0356  1.2389
 4615SOL    HW214387   5.545   2.902   2.687 -1.2046 -2.1309  0.3181
 4616SOL     OW14388   3.381   0.571   5.561  0.2489  0.7489 -0.5420
 4616SOL    HW114389   3.438   0.525   5.498  0.1939  1.1070 -0.8567
 4616SOL    HW214390   3.295   0.530   5.549  0.5860 -0.3210  0.4711
 4617SOL     OW14391   3.829   1.791   3.719  0.5453 -0.1908  0.4685
 4617SOL    HW114392   3.895   1.795   3.788  1.9799  0.8562 -0.9052
 4617SOL    HW214393   3.746   1.801   3.766  1.3388 -1.2017  2.2052
 4618SOL     OW14394   1.468   3.959   6.094  0.3073 -0.7738  0.0558
 4618SOL    HW114395   1.522   3.989   6.168  0.0472 -2.0883  0.8139
 4618SOL    HW214396   1.431   4.039   6.058  0.5704 -0.0710  1.2698
 4619SOL     OW14397   4.199   7.081   2.521  0.1240  0.1389  0.7441
 4619SOL    HW114398   4.106   7.063   2.536 -0.5356  2.0428 -0.5915
 4619SOL    HW214399   4.243   6.999   2.540 -1.8203 -0.7884  1.5251
 4620SOL     OW14400   6.755   4.950   1.605 -0.2738  0.1824  0.6381
 4620SOL    HW114401   6.778   5.009   1.534  0.8661  0.8005  1.4857
 4620SOL    HW214402   6.728   5.008   1.677 -2.3470 -0.4523  0.4400
 4621SOL     OW14403   0.053   6.917   1.007 -0.3399  0.2240  0.0947
 4621SOL    HW114404   0.036   6.836   0.959 -0.4912 -0.0898  0.6577
 4621SOL    HW214405   0.042   6.987   0.943  1.1640 -0.2656 -0.7528
 4622SOL     OW14406   7.605   6.709   4.593 -0.2379  0.2156  0.2405
 4622SOL    HW114407   7.562   6.780   4.545  1.8470  1.8540  0.6413
 4622SOL    HW214408   7.635   6.648   4.525  0.7586  1.3912 -0.4072
 4623SOL     OW14409   4.618   5.995   7.530 -0.3635  0.4084  0.0764
 4623SOL    HW114410   4.588   6.060   7.467 -0.0859  0.1049 -0.3709
 4623SOL    HW214411   4.571   6.016   7.611  0.5147  1.8293  0.2456
 4624SOL     OW14412   4.295   5.568   4.337 -0.3494 -0.2252 -0.5064
 4624SOL    HW114413   4.268   5.607   4.421  0.2968 -2.1051  0.6484
 4624SOL    HW214414   4.223   5.509   4.314 -0.3649  0.0243 -1.1131
 4625SOL     OW14415   3.402   6.083   3.745  0.3880  0.7185 -0.1780
 4625SOL    HW114416   3.390   5.990   3.767 -1.2900  1.4649  2.4871
 4625SOL    HW214417   3.323   6.106   3.696  0.6645  0.8170 -0.5804
 4626SOL     OW14418   1.656   4.441   2.065 -0.2751 -0.3900  0.6485
 4626SOL    HW114419   1.659   4.379   2.138  1.0581 -0.3276  0.6698
 4626SOL    HW214420   1.622   4.522   2.104  0.5799 -0.3059  1.2640
 4627SOL     OW14421   2.726   3.444   3.896 -0.0379 -0.1276 -0.2446
 4627SOL    HW114422   2.700   3.450   3.988  0.6900 -1.3083  0.0672
 4627SOL    HW214423   2.696   3.357   3.868  1.1419 -0.4326 -0.6408
 4628SOL     OW14424   3.739   4.177   0.589 -0.1033 -0.5642 -0.4100
 4628SOL    HW114425   3.817   4.133   0.623  0.0750 -0.0931 -0.1999
 4628SOL    HW214426   3.731   4.256   0.642 -0.8238 -0.6948 -0.3254
 4629SOL     OW14427   3.167   7.036   1.791  0.4657  0.5248  0.1308
 4629SOL    HW114428   3.145   6.970   1.726 -0.1325  1.2405 -0.4069
 4629SOL    HW214429   3.236   6.996   1.844 -0.9221 -1.1125  0.7872
 4630SOL     OW14430   4.930   3.384   2.063 -0.0464  0.1143 -0.2011
 4630SOL    HW114431   4.977   3.431   1.994  0.4420 -0.7017 -0.4351
 4630SOL    HW214432   4.997   3.330   2.105 -0.2897  0.7580  1.0700
 4631SOL     OW14433   3.506   7.531   7.089 -0.1834 -0.2217  0.3931
 4631SOL    HW114434   3.532   7.621   7.106  0.4784 -0.7022  2.1547
 4631SOL    HW214435   3.461   7.534   7.004  1.1317  1.4867 -0.2900
 4632SOL     OW14436   3.668   4.891   0.429 -0.1129 -0.1709  0.0884
 4632SOL    HW114437   3.619   4.972   0.444  1.1736  0.6124  0.2174
 4632SOL    HW214438   3.682   4.889   0.334 -2.0133 -1.3915 -0.2044
 4633SOL     OW14439   6.704   2.715   2.328 -0.1214  0.6441 -0.0384
 4633SOL    HW114440   6.777   2.777   2.325  0.2721  0.1844  0.0403
 4633SOL    HW214441   6.647   2.743   2.256  0.5206  0.5231 -0.6082
 4634SOL     OW14442   0.447   5.580   0.585  0.2172  0.7015  0.2650
 4634SOL    HW114443   0.526   5.530   0.605 -0.3419 -1.0341 -1.5501
 4634SOL    HW214444   0.475   5.672   0.590  2.6748  0.1354 -1.4042
 4635SOL     OW14445   6.098   3.803   7.448  0.2471  0.3192 -0.0921
 4635SOL    HW114446   6.191   3.825   7.439  0.8173 -1.1648  1.5737
 4635SOL    HW214447   6.053   3.886   7.435  1.7998  1.1026 -0.8346
 4636SOL     OW14448   1.610   1.629   7.577  0.6611 -0.0835 -0.4031
 4636SOL    HW114449   1.530   1.679   7.559  1.7850  1.4720 -1.2383
 4636SOL    HW214450   1.578   1.549   7.620 -1.4498 -0.0430 -1.7251
 4637SOL     OW14451   6.326   2.707   1.507  0.6535  0.1105  0.3129
 4637SOL    HW114452   6.319   2.670   1.595  0.6184  0.8931  0.6490
 4637SOL    HW214453   6.403   2.763   1.511  2.9872 -2.7132 -1.2368
 4638SOL     OW14454   0.663   0.027   4.960  0.2413 -0.1444 -0.2787
 4638SOL    HW114455   0.690   0.073   4.880  1.5712 -0.2277  0.1098
 4638SOL    HW214456   0.602   0.088   5.002  2.1938  1.4647  0.3739
 4639SOL     OW14457   3.516   0.649   2.142  0.6440 -0.2491  0.4337
 4639SOL    HW114458   3.444   0.712   2.136 -0.0210 -1.0406 -0.1319
 4639SOL    HW214459   3.586   0.697   2.186  1.3665  1.9759 -2.7893
 4640SOL     OW14460   3.840   6.884   3.300 -0.1394  0.1774 -0.1606
 4640SOL    HW114461   3.901   6.908   3.231  0.6499 -0.4738  0.2864
 4640SOL    HW214462   3.827   6.965   3.350 -2.2126  1.1740 -2.1163
 4641SOL     OW14463   6.976   5.233   0.984  0.0317  0.4490  0.0944
 4641SOL    HW114464   6.901   5.275   1.028 -1.1343 -1.4888  0.0876
 4641SOL    HW214465   7.052   5.278   1.020 -0.9504  0.2183  2.7684
 4642SOL     OW14466   4.604   4.421   4.003 -0.1569  0.1133  0.8366
 4642SOL    HW114467   4.684   4.472   4.004 -0.2886  0.5576 -2.3652
 4642SOL    HW214468   4.620   4.350   4.066  1.7526  1.4974  2.0306
 4643SOL     OW14469   0.210   0.940   3.259 -0.4468  0.2423  0.2737
 4643SOL    HW114470   0.285   0.885   3.279 -2.1593 -2.5531 -0.4725
 4643SOL    HW214471   0.237   0.989   3.180  0.6002 -0.6555  0.0527
 4644SOL     OW14472   7.159   5.671   6.363 -0.1503  0.3888 -0.0872
 4644SOL    HW114473   7.226   5.705   6.423 -0.4562  0.6110  0.1339
 4644SOL    HW214474   7.205   5.607   6.309  0.3415  0.8788 -0.2481
 4645SOL     OW14475   2.230   2.551   1.240  0.2216 -0.1191  0.6435
 4645SOL    HW114476   2.302   2.530   1.181  0.9030 -1.2333  1.8222
 4645SOL    HW214477   2.165   2.483   1.225 -1.3053  1.6517 -1.4330
 4646SOL     OW14478   1.577   2.908   1.117 -0.6464 -0.2674 -0.5667
 4646SOL    HW114479   1.561   2.872   1.204  0.8041 -0.4650 -0.3710
 4646SOL    HW214480   1.655   2.963   1.127 -0.6553 -0.0206 -1.6743
 4647SOL     OW14481   1.114   6.138   1.219  0.1468 -0.0905  0.8197
 4647SOL    HW114482   1.113   6.083   1.141  2.8475  2.4663 -1.2979
 4647SOL    HW214483   1.023   6.165   1.232 -0.4175 -0.8673 -1.2659
 4648SOL     OW14484   6.655   0.480   4.931  0.0156 -0.4184  0.4265
 4648SOL    HW114485   6.702   0.415   4.878  0.7774  0.2143  0.3146
 4648SOL    HW214486   6.648   0.438   5.017 -1.6080 -1.6252 -0.2474
 4649SOL     OW14487   5.622   3.858   5.233  0.8007  0.2956 -0.0871
 4649SOL    HW114488   5.650   3.773   5.269 -0.2946  0.4033  1.1183
 4649SOL    HW214489   5.538   3.839   5.192  0.2226  0.9151  0.7926
 4650SOL     OW14490   0.134   5.671   5.534  0.4249 -0.1032  0.5490
 4650SOL    HW114491   0.102   5.676   5.625  0.4863  3.0745  0.5065
 4650SOL    HW214492   0.223   5.637   5.542  0.3984  0.0365  1.6971
 4651SOL     OW14493   6.929   4.266   4.207 -0.3238 -0.2518  0.0899
 4651SOL    HW114494   6.920   4.203   4.278  0.7015 -1.5435 -0.8740
 4651SOL    HW214495   7.011   4.312   4.225 -0.9343  0.6515  0.6454
 4652SOL     OW14496   1.030   7.596   6.885 -0.2718 -0.2518 -0.0092
 4652SOL    HW114497   1.031   7.501   6.882 -0.4190 -0.2785  0.7444
 4652SOL    HW214498   0.940   7.620   6.864 -0.7781 -0.3692  1.8455
 4653SOL     OW14499   0.150   3.101   1.818  0.3859 -0.2213 -0.4241
 4653SOL    HW114500   0.074   3.154   1.797  1.1383  1.1515  0.2046
 4653SOL    HW214501   0.122   3.045   1.890 -0.4587 -0.8059 -1.1890
 4654SOL     OW14502   6.101   2.948   3.778  0.8111 -0.1397  0.0126
 4654SOL    HW114503   6.134   3.019   3.833  0.7457 -0.2485  0.1940
 4654SOL    HW214504   6.171   2.882   3.780  1.2042  0.2349 -0.7721
 4655SOL     OW14505   4.092   1.530   0.367 -0.1618  0.2937 -1.0899
 4655SOL    HW114506   4.105   1.436   0.376  1.3292  0.4740 -1.2456
 4655SOL    HW214507   3.997   1.540   0.358 -0.4283 -1.0980 -0.0636
 4656SOL     OW14508   7.330   4.760   2.164 -0.8574  0.0130  0.3180
 4656SOL    HW114509   7.353   4.846   2.130 -1.8251 -0.0049 -0.4402
 4656SOL    HW214510   7.413   4.712   2.168 -0.3054  0.9824  0.7974
 4657SOL     OW14511   0.905   2.343   2.845 -0.2086  0.1226  0.1311
 4657SOL    HW114512   0.819   2.363   2.880  0.6243 -0.4263  2.6864
 4657SOL    HW214513   0.961   2.416   2.874  0.3528  0.1534 -0.9488
 4658SOL     OW14514   0.559   3.761   7.126  0.4257  0.6380  0.2257
 4658SOL    HW114515   0.488   3.825   7.116  1.2022  1.2093 -2.1433
 4658SOL    HW214516   0.556   3.737   7.219 -1.4331  2.3014  0.6681
 4659SOL     OW14517   5.061   4.727   6.710  0.0584  0.8507 -0.9084
 4659SOL    HW114518   5.046   4.642   6.752  0.3351  0.6371 -1.2432
 4659SOL    HW214519   5.028   4.791   6.774  0.8729  0.5542 -0.1747
 4660SOL     OW14520   3.555   1.782   2.708  0.1849 -0.5092 -0.3691
 4660SOL    HW114521   3.628   1.838   2.734  0.6134 -1.2669  0.0924
 4660SOL    HW214522   3.535   1.731   2.786 -0.7417 -0.4258 -0.5391
 4661SOL     OW14523   1.219   7.511   7.214 -0.9006  0.1454  0.4402
 4661SOL    HW114524   1.296   7.475   7.170 -0.9434  0.0611  0.4351
 4661SOL    HW214525   1.204   7.453   7.288 -0.6766  0.4323  0.7162
 4662SOL     OW14526   6.314   1.492   6.605  0.4241 -0.1396  0.5243
 4662SOL    HW114527   6.283   1.462   6.690 -4.5013 -1.9032 -1.5231
 4662SOL    HW214528   6.332   1.412   6.556  1.5479  0.7910 -0.6679
 4663SOL     OW14529   6.510   4.466   7.176 -0.3195 -0.1915  0.2102
 4663SOL    HW114530   6.588   4.411   7.185  1.1897  1.6014 -0.9974
 4663SOL    HW214531   6.467   4.461   7.261  1.2791 -1.0457  1.0141
 4664SOL     OW14532   3.511   0.784   6.260 -0.9449 -0.3353 -0.0771
 4664SOL    HW114533   3.429   0.735   6.254 -0.4250 -1.1071 -1.5657
 4664SOL    HW214534   3.571   0.738   6.201 -0.2017  1.6521 -0.9817
 4665SOL     OW14535   6.424   2.119   7.442  0.0226 -0.2297 -0.5154
 4665SOL    HW114536   6.345   2.168   7.419  1.0206  1.8682  0.3072
 4665SOL    HW214537   6.487   2.138   7.373  1.2711  1.8501  1.0779
 4666SOL     OW14538   0.127   2.136   2.652  0.3535  0.0696  0.2980
 4666SOL    HW114539   0.199   2.073   2.654  0.7004  0.4860  2.1198
 4666SOL    HW214540   0.073   2.113   2.727  0.2140  1.6292  0.7036
 4667SOL     OW14541   5.860   0.365   3.480  0.5145 -0.5108 -0.0514
 4667SOL    HW114542   5.832   0.453   3.505  0.3212 -0.9359  1.2839
 4667SOL    HW214543   5.872   0.319   3.563  1.1814 -1.5748 -0.7186
 4668SOL     OW14544   4.347   5.472   5.548 -0.5660 -0.2443  0.1821
 4668SOL    HW114545   4.284   5.404   5.572 -1.7421  0.4642 -0.7586
 4668SOL    HW214546   4.300   5.554   5.564 -0.5026  0.2878 -2.0518
 4669SOL     OW14547   6.268   5.512   6.894 -0.1513 -0.5540 -0.0985
 4669SOL    HW114548   6.264   5.493   6.800  1.3412  0.1243 -0.3325
 4669SOL    HW214549   6.360   5.536   6.910 -0.8575  1.7694  1.0301
 4670SOL     OW14550   1.957   1.033   2.371  0.3116  0.0299 -0.3591
 4670SOL    HW114551   1.899   1.023   2.296 -1.6557  1.4869  0.8798
 4670SOL    HW214552   1.992   1.121   2.363 -1.3325  0.8972  1.3049
 4671SOL     OW14553   7.559   3.989   1.063  0.5861 -0.2478  0.0163
 4671SOL    HW114554   7.480   3.941   1.037 -0.0574 -0.2618  1.8385
 4671SOL    HW214555   7.629   3.946   1.015 -0.2056 -1.8879  0.2363
 4672SOL     OW14556   0.818   4.057   0.800 -0.7827 -0.3252  0.1147
 4672SOL    HW114557   0.834   4.137   0.849 -0.5743 -0.3458  0.0806
 4672SOL    HW214558   0.865   4.069   0.718  0.8049 -1.2404  0.8447
 4673SOL     OW14559   0.900   2.182   5.532 -0.0030  0.8340  0.1549
 4673SOL    HW114560   0.935   2.175   5.621  1.7031  0.0926 -0.5165
 4673SOL    HW214561   0.814   2.139   5.537  0.9838 -1.2251  1.0101
 4674SOL     OW14562   0.032   1.966   6.437  0.2682  0.2772  0.0647
 4674SOL    HW114563  -0.040   1.931   6.489 -1.0117 -0.6015 -2.1550
 4674SOL    HW214564   0.038   2.058   6.462 -0.9352  0.1095  1.0227
 4675SOL     OW14565   5.420   4.050   1.281 -0.1745 -0.1163 -0.0058
 4675SOL    HW114566   5.483   4.049   1.352  0.1073 -0.4810 -0.2555
 4675SOL    HW214567   5.422   3.961   1.246  0.3601  0.2862 -1.0484
 4676SOL     OW14568   5.402   2.459   6.451  0.1887 -0.0182  0.5839
 4676SOL    HW114569   5.484   2.506   6.441  0.3907 -0.5358 -0.2434
 4676SOL    HW214570   5.420   2.370   6.421 -0.7694 -0.0409  0.0192
 4677SOL     OW14571   6.177   7.372   2.518  0.2032 -0.1048 -0.1265
 4677SOL    HW114572   6.227   7.453   2.530 -0.1372  0.2182 -0.8677
 4677SOL    HW214573   6.111   7.393   2.452 -0.5542 -0.6923  0.4247
 4678SOL     OW14574   6.490   4.755   6.597  0.6088 -0.2257  0.1345
 4678SOL    HW114575   6.542   4.711   6.665  2.0743 -0.4339 -1.0551
 4678SOL    HW214576   6.494   4.848   6.621  0.4517 -0.3756  0.7593
 4679SOL     OW14577   5.003   2.426   0.617 -0.4160  0.2373 -0.3648
 4679SOL    HW114578   5.020   2.393   0.529  0.6308 -1.8742  0.5335
 4679SOL    HW214579   5.065   2.497   0.629 -0.6566  0.6351 -1.3454
 4680SOL     OW14580   2.259   5.891   4.758 -0.6291  0.1180  0.1632
 4680SOL    HW114581   2.312   5.815   4.737  0.8079  1.7084 -2.5675
 4680SOL    HW214582   2.231   5.877   4.848  1.3044 -2.6166  0.4527
 4681SOL     OW14583   4.951   5.633   5.837  0.6378  0.5295 -0.9558
 4681SOL    HW114584   4.926   5.650   5.928  2.1710  0.3728 -0.4599
 4681SOL    HW214585   5.041   5.665   5.832  1.1515 -0.9699 -1.9462
 4682SOL     OW14586   6.626   3.681   7.589 -0.1087 -0.1699 -1.0295
 4682SOL    HW114587   6.595   3.768   7.616  0.4452 -0.6408  1.4174
 4682SOL    HW214588   6.683   3.653   7.661 -0.0901 -2.4573 -1.8535
 4683SOL     OW14589   5.927   4.395   5.295  0.0089  0.0022 -0.0280
 4683SOL    HW114590   6.012   4.370   5.332  0.6099  1.2038 -0.5418
 4683SOL    HW214591   5.939   4.387   5.200 -0.3502  0.4888 -0.1142
 4684SOL     OW14592   5.630   5.740   0.778  0.1599 -0.8522  0.2328
 4684SOL    HW114593   5.702   5.692   0.738  0.6545 -0.5569  0.7554
 4684SOL    HW214594   5.565   5.673   0.799  0.4492 -1.1705  0.1252
 4685SOL     OW14595   0.953   1.070   1.148  0.0608 -0.1572  0.8686
 4685SOL    HW114596   0.958   1.020   1.230  1.2758 -2.8681 -0.7357
 4685SOL    HW214597   0.894   1.019   1.093 -0.4838  1.4603 -0.0841
 4686SOL     OW14598   7.207   1.813   5.156  0.1633  0.1548  0.2245
 4686SOL    HW114599   7.213   1.860   5.073  0.0545 -0.9582 -0.4275
 4686SOL    HW214600   7.122   1.838   5.192  0.1967  0.6179 -0.0030
 4687SOL     OW14601   1.290   6.744   3.442  0.5670 -0.4830  0.0438
 4687SOL    HW114602   1.217   6.702   3.397  0.2268 -0.5491  0.6496
 4687SOL    HW214603   1.361   6.744   3.377 -0.3851  0.8624 -1.0625
 4688SOL     OW14604   2.630   3.736   2.345 -0.5197 -0.5210  0.2448
 4688SOL    HW114605   2.713   3.771   2.312 -0.1104 -1.1718  0.5736
 4688SOL    HW214606   2.638   3.641   2.336 -1.1350 -0.6005  0.5018
 4689SOL     OW14607   4.763   0.269   1.164 -0.5536  0.5929  0.1835
 4689SOL    HW114608   4.777   0.339   1.100  0.1395  0.0160 -0.3084
 4689SOL    HW214609   4.737   0.193   1.111  3.0373 -0.8128  0.1459
 4690SOL     OW14610   6.303   0.789   0.528 -0.1297 -0.6567 -0.3643
 4690SOL    HW114611   6.261   0.703   0.537  0.8525 -1.1461 -0.3258
 4690SOL    HW214612   6.366   0.793   0.600 -1.3173  0.8024  0.6494
 4691SOL     OW14613   3.556   2.935   6.724  0.2953  0.2593  0.4069
 4691SOL    HW114614   3.499   2.883   6.666 -1.2276 -0.3767  2.3514
 4691SOL    HW214615   3.555   3.023   6.686 -1.1969  0.0183 -0.1791
 4692SOL     OW14616   5.823   6.405   2.957  0.1875 -0.2630 -0.1044
 4692SOL    HW114617   5.850   6.491   2.988  1.0873  0.0361 -1.6502
 4692SOL    HW214618   5.874   6.343   3.009  2.9499  0.2629 -1.9856
 4693SOL     OW14619   1.962   5.117   5.555  0.0328  0.0154 -0.2186
 4693SOL    HW114620   1.958   5.197   5.606 -2.0793  0.9298 -1.6768
 4693SOL    HW214621   1.871   5.086   5.552  0.4046 -1.0256 -1.7933
 4694SOL     OW14622   3.822   7.089   5.361  0.6039  0.2878  0.3728
 4694SOL    HW114623   3.791   7.142   5.435  1.4460  1.1213  0.1394
 4694SOL    HW214624   3.897   7.137   5.326  0.4466 -0.2849 -0.8040
 4695SOL     OW14625   6.318   0.578   7.060 -0.0306 -0.4686  0.5711
 4695SOL    HW114626   6.400   0.530   7.057 -1.0771 -2.3949  1.3044
 4695SOL    HW214627   6.344   0.670   7.072  1.9897 -1.0969  1.3657
 4696SOL     OW14628   3.856   1.010   4.454 -0.4498 -0.0581 -0.1147
 4696SOL    HW114629   3.835   1.081   4.394 -0.9374 -1.1362 -1.2632
 4696SOL    HW214630   3.936   1.038   4.497 -1.6273  2.0351  0.8805
 4697SOL     OW14631   1.960   7.365   6.511  0.4775  0.1058  0.0535
 4697SOL    HW114632   1.870   7.396   6.498  1.0367  1.6218 -0.3607
 4697SOL    HW214633   1.954   7.270   6.499 -1.1852  0.0802  0.7472
 4698SOL     OW14634   1.110   3.269   5.384  0.1143  0.2052 -0.2629
 4698SOL    HW114635   1.026   3.229   5.407  0.4406  0.0924  0.8133
 4698SOL    HW214636   1.167   3.247   5.458  0.1352  3.1988  0.7450
 4699SOL     OW14637   6.205   7.377   4.179 -0.5146  0.2512  0.5738
 4699SOL    HW114638   6.277   7.343   4.232 -1.6437 -1.8165  0.8582
 4699SOL    HW214639   6.231   7.359   4.089 -0.3073  0.2887  0.6252
 4700SOL     OW14640   5.110   2.413   3.132  0.1877 -0.2101  0.0915
 4700SOL    HW114641   5.072   2.480   3.075 -0.9770 -1.5092 -0.7358
 4700SOL    HW214642   5.104   2.450   3.220 -0.2052  0.8677 -0.3659
 4701SOL     OW14643   5.243   3.837   4.579  0.5915  0.4511 -0.8263
 4701SOL    HW114644   5.291   3.881   4.509  0.4149  1.2800 -0.4356
 4701SOL    HW214645   5.181   3.902   4.610  1.7496  0.6619  1.1866
 4702SOL     OW14646   1.511   6.824   6.336 -0.3037 -0.1023  0.0873
 4702SOL    HW114647   1.514   6.751   6.274 -1.0541 -1.1715  1.2838
 4702SOL    HW214648   1.461   6.892   6.289 -0.8415 -0.8771 -0.5056
 4703SOL     OW14649   7.210   7.108   5.040  0.1481 -0.3901 -0.4859
 4703SOL    HW114650   7.167   7.193   5.028 -1.4692 -1.2485 -1.1076
 4703SOL    HW214651   7.299   7.121   5.009 -0.8482  0.3825 -3.4153
 4704SOL     OW14652   2.108   4.750   6.597 -0.2901 -0.2864  0.4054
 4704SOL    HW114653   2.087   4.817   6.662  2.3304 -0.1452  1.2499
 4704SOL    HW214654   2.190   4.780   6.557 -1.0677 -1.1102 -1.9897
 4705SOL     OW14655   1.593   0.813   1.512  0.1302 -0.5602  0.2723
 4705SOL    HW114656   1.527   0.759   1.470  0.9618 -1.2545 -0.1589
 4705SOL    HW214657   1.576   0.803   1.606  1.5333 -3.2865  0.3252
 4706SOL     OW14658   4.802   1.079   7.605  0.5446 -0.0596 -0.4057
 4706SOL    HW114659   4.853   1.006   7.638  3.3244  2.2496  0.8350
 4706SOL    HW214660   4.711   1.057   7.626  1.3127 -2.8125  0.4243
 4707SOL     OW14661   7.561   1.333   0.907  0.2810  0.3417  0.2239
 4707SOL    HW114662   7.645   1.339   0.862  0.4076 -0.8104  0.2818
 4707SOL    HW214663   7.558   1.243   0.940 -0.1899  0.8903  1.7683
 4708SOL     OW14664   6.304   1.692   2.910 -0.2255  0.1272  0.4429
 4708SOL    HW114665   6.252   1.745   2.849 -0.8823 -0.8478  0.1437
 4708SOL    HW214666   6.387   1.677   2.864 -1.0489 -1.3610 -0.6255
 4709SOL     OW14667   0.356   3.575   4.661  0.5631 -0.5351  0.3332
 4709SOL    HW114668   0.315   3.648   4.615 -0.0813 -0.7310  0.5854
 4709SOL    HW214669   0.449   3.583   4.640  0.6888  1.0369  1.2990
 4710SOL     OW14670   5.335   1.938   1.089  0.4023  0.2251  0.6336
 4710SOL    HW114671   5.353   2.018   1.139  1.8138  0.7498 -0.6233
 4710SOL    HW214672   5.245   1.915   1.111  0.3681  1.4915  1.9395
 4711SOL     OW14673   5.084   5.175   5.165 -0.0011 -0.2294 -0.1881
 4711SOL    HW114674   5.080   5.082   5.186 -1.5341 -0.3936 -1.0818
 4711SOL    HW214675   5.176   5.191   5.143 -0.2050 -2.2152 -2.8909
 4712SOL     OW14676   7.252   1.337   0.039 -0.3188  0.0150 -0.7322
 4712SOL    HW114677   7.244   1.432   0.050  1.4194  0.1327 -0.1000
 4712SOL    HW214678   7.193   1.316  -0.033 -2.9026  1.1215  0.9250
 4713SOL     OW14679   4.064   7.556   2.204  0.3147  0.1161  0.0565
 4713SOL    HW114680   4.021   7.612   2.139  1.8567 -0.1224 -1.2329
 4713SOL    HW214681   3.999   7.489   2.226 -0.2817  0.2727 -1.1803
 4714SOL     OW14682   0.056   5.546   7.315  0.6026  0.3537 -0.1385
 4714SOL    HW114683   0.118   5.507   7.378  1.9525  0.7405 -1.1896
 4714SOL    HW214684   0.094   5.631   7.293  0.4210  0.0260 -1.8491
 4715SOL     OW14685   1.116   3.906   3.052  0.2315  0.4233 -0.0136
 4715SOL    HW114686   1.170   3.899   3.131 -2.4009  0.6907  1.9332
 4715SOL    HW214687   1.098   3.815   3.028  1.3218  0.3338 -0.5848
 4716SOL     OW14688   2.336   1.061   4.887  0.5408  0.3224  0.1290
 4716SOL    HW114689   2.389   1.140   4.891  0.7001  0.1770  0.9932
 4716SOL    HW214690   2.296   1.063   4.800  0.2362  1.5524  0.2890
 4717SOL     OW14691   1.721   0.628   7.233  0.8263  0.0860  0.0480
 4717SOL    HW114692   1.812   0.645   7.211  0.5295 -0.0699 -1.4243
 4717SOL    HW214693   1.715   0.533   7.239  1.1769  0.1608  2.2002
 4718SOL     OW14694   6.809   1.997   2.441  0.0994  0.5189 -0.5335
 4718SOL    HW114695   6.727   1.955   2.465  0.7541 -0.3561  0.2595
 4718SOL    HW214696   6.834   2.047   2.519 -0.0954  1.4761 -1.0698
 4719SOL     OW14697   0.340   5.347   5.738 -0.1633 -0.5750  0.0756
 4719SOL    HW114698   0.268   5.310   5.789 -1.3862 -0.8486 -1.7315
 4719SOL    HW214699   0.391   5.271   5.710 -0.0442 -0.5153  0.1321
 4720SOL     OW14700   2.266   5.883   5.497 -0.4757  0.0744  0.0101
 4720SOL    HW114701   2.231   5.865   5.410 -1.3237  1.1665  0.0965
 4720SOL    HW214702   2.230   5.814   5.553 -0.8065 -0.0118 -0.3079
 4721SOL     OW14703   3.480   1.438   6.955 -0.9045  0.5264  0.0679
 4721SOL    HW114704   3.393   1.400   6.940 -1.2611  1.5346 -0.5014
 4721SOL    HW214705   3.464   1.531   6.966 -0.2446  0.3538  3.2890
 4722SOL     OW14706   5.567   1.411   1.343  0.0329  0.5948  0.3343
 4722SOL    HW114707   5.489   1.454   1.306 -1.5825 -0.9409  1.7449
 4722SOL    HW214708   5.569   1.326   1.299 -0.3440 -0.1891  1.7689
 4723SOL     OW14709   6.386   3.422   3.646  0.1169  0.0644  0.3337
 4723SOL    HW114710   6.386   3.364   3.722  0.3492 -0.0767  0.2297
 4723SOL    HW214711   6.382   3.362   3.571  2.8903  0.0014  0.1162
 4724SOL     OW14712   7.044   6.714   3.132 -0.0435  0.6661  0.4924
 4724SOL    HW114713   6.971   6.710   3.070 -0.1676 -1.8240  0.6844
 4724SOL    HW214714   7.049   6.806   3.157 -0.9437  1.5148 -2.0515
 4725SOL     OW14715   6.708   5.595   3.538  0.0152 -0.3629  0.0033
 4725SOL    HW114716   6.626   5.604   3.490 -0.9980  0.1113  1.7219
 4725SOL    HW214717   6.773   5.641   3.485 -1.0436  0.1094 -0.9147
 4726SOL     OW14718   1.372   2.784   0.949 -0.0619 -0.3622  0.3396
 4726SOL    HW114719   1.434   2.798   1.021  1.7612 -0.5187 -1.1081
 4726SOL    HW214720   1.356   2.872   0.915  0.5452 -0.4400 -0.1795
 4727SOL     OW14721   5.382   3.103   5.715 -0.3503  0.1213  0.5745
 4727SOL    HW114722   5.448   3.149   5.768 -1.2174 -0.2869  2.0843
 4727SOL    HW214723   5.433   3.056   5.649  0.6429  2.1034 -0.1357
 4728SOL     OW14724   7.350   2.252   0.410 -1.2015 -0.1687 -0.0401
 4728SOL    HW114725   7.326   2.192   0.480 -0.0336 -0.8403 -0.1962
 4728SOL    HW214726   7.293   2.328   0.423  0.0945  0.4663  2.6593
 4729SOL     OW14727   5.301   4.057   4.986  0.2529 -0.6350 -0.1353
 4729SOL    HW114728   5.306   4.106   4.903 -0.9607 -0.6868 -0.2627
 4729SOL    HW214729   5.296   3.965   4.959  0.1716 -0.6729  0.0120
 4730SOL     OW14730   1.973   2.020   6.722 -0.2162  0.6574 -0.7981
 4730SOL    HW114731   2.065   2.027   6.749  0.2443 -0.1798 -2.0860
 4730SOL    HW214732   1.976   2.022   6.627 -1.4697 -0.2716 -0.8711
 4731SOL     OW14733   4.436   0.572   0.684 -0.2155  0.4191  0.1364
 4731SOL    HW114734   4.516   0.519   0.692 -1.5589 -1.7092  0.5309
 4731SOL    HW214735   4.443   0.636   0.755  2.9422  3.0689 -2.2650
 4732SOL     OW14736   6.487   0.516   0.442  0.7219  0.2561  0.1837
 4732SOL    HW114737   6.550   0.482   0.378  0.9227  2.1947 -0.7455
 4732SOL    HW214738   6.413   0.545   0.389 -0.4032 -0.7788  1.1441
 4733SOL     OW14739   0.148   0.971   2.641  0.0808 -0.4385 -0.4233
 4733SOL    HW114740   0.175   1.054   2.603  1.5508 -0.3916  0.6675
 4733SOL    HW214741   0.230   0.925   2.660 -0.6061 -0.7785  1.9595
 4734SOL     OW14742   3.875   7.199   5.785  0.1456 -0.1041 -1.2383
 4734SOL    HW114743   3.834   7.270   5.835  0.6965 -0.2867 -0.5023
 4734SOL    HW214744   3.801   7.147   5.752 -0.2737  1.1369 -2.2913
 4735SOL     OW14745   3.169   1.590   4.285  0.0287 -0.4869  0.2279
 4735SOL    HW114746   3.078   1.560   4.284 -0.6406  1.4405  0.3034
 4735SOL    HW214747   3.164   1.681   4.313  1.9491 -0.1858 -0.2916
 4736SOL     OW14748   5.947   0.474   2.126 -0.1040  0.2952 -0.2677
 4736SOL    HW114749   5.915   0.558   2.159 -2.1733 -0.6154  0.2166
 4736SOL    HW214750   5.885   0.452   2.056  1.0089 -0.3743 -1.0606
 4737SOL     OW14751   6.792   1.801   4.233  0.2571 -0.4774  0.0958
 4737SOL    HW114752   6.756   1.830   4.316  1.7419  1.7869  0.0402
 4737SOL    HW214753   6.887   1.796   4.248  0.4357 -1.2821 -1.1117
 4738SOL     OW14754   6.980   1.696   2.575 -0.2078 -0.2597 -0.4007
 4738SOL    HW114755   6.993   1.623   2.636 -1.4207  1.7708  2.4955
 4738SOL    HW214756   6.896   1.677   2.532 -0.2259 -0.8461 -0.1102
 4739SOL     OW14757   5.146   7.386   4.621  0.3926  0.2464 -0.5272
 4739SOL    HW114758   5.149   7.291   4.625  0.7015  0.2812  0.5025
 4739SOL    HW214759   5.054   7.407   4.606  0.0594 -0.1988  0.7293
 4740SOL     OW14760   5.111   7.280   1.129 -0.6780 -0.1730 -0.3685
 4740SOL    HW114761   5.071   7.340   1.191  0.4418  0.3745 -0.1423
 4740SOL    HW214762   5.095   7.319   1.043 -1.2768 -0.3541 -0.3384
 4741SOL     OW14763   1.830   7.314   0.049 -0.2054  0.1802  0.1902
 4741SOL    HW114764   1.876   7.257   0.111  0.3166 -0.4669 -0.7614
 4741SOL    HW214765   1.827   7.263  -0.032  2.2995  2.2693 -1.4030
 4742SOL     OW14766   3.416   1.648   1.308  0.0343  0.3021 -0.1583
 4742SOL    HW114767   3.370   1.630   1.226 -0.3217 -1.5742  0.4064
 4742SOL    HW214768   3.508   1.632   1.288 -0.0350  0.0004 -0.2416
 4743SOL     OW14769   0.685   6.856   1.731 -0.4954  0.0281  0.2755
 4743SOL    HW114770   0.670   6.915   1.805 -0.7588  0.0934  0.1741
 4743SOL    HW214771   0.691   6.769   1.770 -1.7283 -0.0761  0.2835
 4744SOL     OW14772   4.732   3.891   4.456  0.4707 -0.2126  0.3844
 4744SOL    HW114773   4.822   3.904   4.427  0.5754  1.2714  1.2622
 4744SOL    HW214774   4.717   3.961   4.519 -1.0219 -0.9637  0.9102
 4745SOL     OW14775   1.111   1.249   2.759  0.4518 -0.2319  0.0902
 4745SOL    HW114776   1.144   1.234   2.848 -0.5151 -1.5514  0.2612
 4745SOL    HW214777   1.016   1.244   2.767  0.2542  1.5807 -0.7169
 4746SOL     OW14778   0.626   5.185   3.748  0.2617  0.3612  0.2603
 4746SOL    HW114779   0.639   5.159   3.657 -1.1991 -0.8171  0.3648
 4746SOL    HW214780   0.657   5.111   3.799  2.5274  1.6049  0.8373
 4747SOL     OW14781   2.850   0.390   6.088 -1.1408 -0.3393  0.7137
 4747SOL    HW114782   2.864   0.295   6.086 -0.3579 -0.2225  0.0131
 4747SOL    HW214783   2.898   0.420   6.165  0.7054 -0.2282 -0.4176
 4748SOL     OW14784   4.723   5.918   7.061  0.3077 -0.0226 -0.0923
 4748SOL    HW114785   4.747   5.825   7.066 -0.7723 -0.3254 -0.2807
 4748SOL    HW214786   4.629   5.919   7.076  0.3873  1.1039  0.4064
 4749SOL     OW14787   1.600   6.760   6.608  0.1583  0.1580 -0.2299
 4749SOL    HW114788   1.538   6.818   6.563  0.2389  1.1486  0.8793
 4749SOL    HW214789   1.678   6.761   6.552 -0.2977  0.0746 -0.8822
 4750SOL     OW14790   4.930   3.456   4.501  0.1692 -0.1656  0.8505
 4750SOL    HW114791   4.996   3.501   4.449 -2.0696  0.5388 -1.6364
 4750SOL    HW214792   4.958   3.364   4.501  1.5415  0.2292  0.6116
 4751SOL     OW14793   2.441   3.318   3.323 -0.4113  0.0927 -0.6674
 4751SOL    HW114794   2.358   3.301   3.279  0.0412 -0.9980 -1.1176
 4751SOL    HW214795   2.421   3.310   3.416 -1.0460  0.9541 -0.7130
 4752SOL     OW14796   4.411   4.259   4.296 -0.0470  0.1608 -0.4677
 4752SOL    HW114797   4.406   4.184   4.237 -0.3280  0.6374 -1.0600
 4752SOL    HW214798   4.500   4.256   4.331 -0.1645 -0.6360 -0.2277
 4753SOL     OW14799   5.271   1.989   4.606 -0.0637 -0.3414 -0.0284
 4753SOL    HW114800   5.183   2.012   4.637 -0.2262 -0.7093 -0.2218
 4753SOL    HW214801   5.310   1.940   4.679  0.2534  0.4399  0.3516
 4754SOL     OW14802   5.225   1.652   1.025 -0.4740  0.2834  0.3414
 4754SOL    HW114803   5.234   1.712   0.952 -0.7320 -0.9568 -0.7511
 4754SOL    HW214804   5.146   1.681   1.070  0.3031  1.7422  0.8264
 4755SOL     OW14805   3.559   2.283   3.700 -0.2340 -0.0792  0.3813
 4755SOL    HW114806   3.600   2.267   3.615  0.6440  0.8032  0.6170
 4755SOL    HW214807   3.582   2.373   3.720 -0.7284 -0.1731  1.3974
 4756SOL     OW14808   0.346   2.301   3.262 -0.4376 -0.3616  0.4469
 4756SOL    HW114809   0.420   2.362   3.263 -0.2446 -0.5866  1.8344
 4756SOL    HW214810   0.341   2.272   3.171 -0.3216  1.4375 -0.1779
 4757SOL     OW14811   6.129   1.052   2.274 -0.1504  0.6117 -0.4185
 4757SOL    HW114812   6.200   1.113   2.297 -0.5795  1.5784 -1.5418
 4757SOL    HW214813   6.081   1.097   2.204 -0.7024 -0.8827 -1.0359
 4758SOL     OW14814   3.802   4.112   1.298  0.2479  0.0099  0.2047
 4758SOL    HW114815   3.879   4.068   1.334  0.9135  0.9399 -0.0648
 4758SOL    HW214816   3.787   4.068   1.214 -0.0479 -0.7471  0.6397
 4759SOL     OW14817   4.821   5.282   5.204 -0.0880 -0.0165  0.3389
 4759SOL    HW114818   4.907   5.240   5.208 -1.2365 -2.8858 -1.7519
 4759SOL    HW214819   4.831   5.351   5.139  0.1675 -1.8690 -1.7022
 4760SOL     OW14820   7.215   5.833   2.908 -0.2875  0.4305  0.8260
 4760SOL    HW114821   7.291   5.883   2.878 -0.4148  0.6914  0.9300
 4760SOL    HW214822   7.207   5.762   2.845 -1.3805  1.7404 -0.6052
 4761SOL     OW14823   3.771   2.590   5.370  0.2196 -0.4517 -0.1533
 4761SOL    HW114824   3.804   2.545   5.292  0.5075  1.3305 -1.1060
 4761SOL    HW214825   3.681   2.559   5.379 -0.1294 -0.0202 -1.7751
 4762SOL     OW14826   4.855   2.187   7.556 -0.1735  0.6191 -0.3035
 4762SOL    HW114827   4.876   2.148   7.641  1.9604 -1.1391 -1.5295
 4762SOL    HW214828   4.880   2.279   7.566  1.1050  0.2040  0.6813
 4763SOL     OW14829   1.506   2.254   3.809 -0.2829 -0.0225 -0.1796
 4763SOL    HW114830   1.466   2.271   3.724  0.6946  1.1477 -0.4412
 4763SOL    HW214831   1.481   2.329   3.863  0.3148 -0.0185  0.1074
 4764SOL     OW14832   0.257   5.671   2.124 -0.0657 -0.6903  0.4190
 4764SOL    HW114833   0.207   5.703   2.049  0.5811 -1.2368 -0.2579
 4764SOL    HW214834   0.200   5.688   2.200 -0.7951 -0.2853 -0.2052
 4765SOL     OW14835   4.191   6.132   5.466  0.9620  0.7791 -0.1272
 4765SOL    HW114836   4.216   6.107   5.377  0.2219 -0.5620  0.0282
 4765SOL    HW214837   4.114   6.188   5.455  1.8895  2.0607 -0.3993
 4766SOL     OW14838   2.575   5.081   0.428  0.5118 -0.3886 -0.4848
 4766SOL    HW114839   2.630   5.015   0.471 -1.4721 -2.3196 -0.6984
 4766SOL    HW214840   2.559   5.046   0.341 -0.7845  0.2506 -0.5258
 4767SOL     OW14841   6.652   2.342   0.988  0.2120  0.4143  0.4815
 4767SOL    HW114842   6.582   2.309   0.931 -0.2503 -0.3631  1.4611
 4767SOL    HW214843   6.666   2.432   0.959 -2.9465  1.4907  1.7866
 4768SOL     OW14844   1.526   3.767   3.126 -0.6994 -0.2436  0.0301
 4768SOL    HW114845   1.557   3.827   3.194  1.0795 -0.5368 -0.4862
 4768SOL    HW214846   1.595   3.701   3.119 -2.3458 -2.0879  0.2040
 4769SOL     OW14847   6.651   6.726   1.510  0.0376 -0.0356 -0.1910
 4769SOL    HW114848   6.682   6.642   1.476  1.5409 -0.0299  1.0636
 4769SOL    HW214849   6.727   6.763   1.556 -1.3727  0.7893  1.5684
 4770SOL     OW14850   6.434   2.551   1.280 -0.1758 -0.1566  0.2731
 4770SOL    HW114851   6.393   2.558   1.366 -1.4784  0.7921 -0.3840
 4770SOL    HW214852   6.429   2.639   1.244  0.8915 -0.4109 -0.5577
 4771SOL     OW14853   4.216   1.773   4.797 -0.2332  0.1243 -0.4586
 4771SOL    HW114854   4.176   1.789   4.882  1.1310  0.9261  0.0682
 4771SOL    HW214855   4.262   1.854   4.777  1.4313 -0.8734 -0.8423
 4772SOL     OW14856   2.661   2.626   3.771  0.4862 -0.3868 -1.2957
 4772SOL    HW114857   2.593   2.679   3.730  1.1584  0.9209 -0.7884
 4772SOL    HW214858   2.743   2.668   3.744  0.9541  0.8637  1.7266
 4773SOL     OW14859   7.535   6.654   1.573  0.4243 -0.7713  0.0256
 4773SOL    HW114860   7.442   6.647   1.555  0.6169 -0.2730 -1.3544
 4773SOL    HW214861   7.541   6.678   1.665 -0.7794 -1.2380  0.2393
 4774SOL     OW14862   3.431   4.871   3.610  0.6159 -0.0870  0.3173
 4774SOL    HW114863   3.453   4.779   3.627  0.1835 -0.3553 -0.5423
 4774SOL    HW214864   3.515   4.913   3.591  0.6850 -0.5456 -0.3981
 4775SOL     OW14865   4.009   2.293   2.982  0.6262  0.3540  0.4191
 4775SOL    HW114866   4.026   2.387   2.982 -0.6748  0.6264  1.5766
 4775SOL    HW214867   3.929   2.283   2.931  0.3196 -0.0226  0.9607
 4776SOL     OW14868   3.193   5.851   2.948 -0.4128  0.1668 -0.2444
 4776SOL    HW114869   3.180   5.770   2.899 -0.3808  0.7036 -1.1644
 4776SOL    HW214870   3.119   5.906   2.923 -1.3743 -0.1483  1.6480
 4777SOL     OW14871   4.335   5.435   1.256 -0.5970  0.0506  0.5106
 4777SOL    HW114872   4.426   5.460   1.241 -0.2796 -1.0337  0.5155
 4777SOL    HW214873   4.286   5.476   1.185 -0.2637  1.5124  1.1050
 4778SOL     OW14874   6.804   0.004   0.537  0.4041  0.6279 -0.3190
 4778SOL    HW114875   6.809   0.014   0.442 -0.3648  0.6263 -0.3643
 4778SOL    HW214876   6.884   0.045   0.570  0.5398  0.8728 -0.9460
 4779SOL     OW14877   7.216   6.829   1.471 -0.1637  0.1875 -0.5684
 4779SOL    HW114878   7.292   6.880   1.443 -1.5251  1.1006 -2.8123
 4779SOL    HW214879   7.169   6.808   1.391 -3.2005  1.1254  0.8065
 4780SOL     OW14880   4.613   5.982   4.351 -0.0486  0.8763  0.3992
 4780SOL    HW114881   4.639   5.893   4.376  0.3461  0.0091 -2.6592
 4780SOL    HW214882   4.523   5.973   4.319  0.9595  0.8604 -2.7369
 4781SOL     OW14883   4.332   2.728   5.672 -0.0150 -0.2328 -0.2386
 4781SOL    HW114884   4.407   2.787   5.678  0.2002 -0.1642 -2.6762
 4781SOL    HW214885   4.272   2.759   5.740  0.8530  1.6617 -0.2761
 4782SOL     OW14886   0.095   4.772   7.151  0.0365 -0.0944 -0.1049
 4782SOL    HW114887   0.027   4.765   7.084 -0.5500 -0.2574  0.4930
 4782SOL    HW214888   0.053   4.738   7.231  1.1501 -1.1775  0.0402
 4783SOL     OW14889   3.305   2.067   2.398  0.0057 -0.1887  0.6668
 4783SOL    HW114890   3.232   2.091   2.341  1.8857 -1.1249 -2.3875
 4783SOL    HW214891   3.290   1.975   2.419  0.4420 -0.4902 -0.2809
 4784SOL     OW14892   1.811   3.648   6.787  0.1398  0.1253 -0.2499
 4784SOL    HW114893   1.753   3.592   6.736 -0.9782  0.8157  0.2192
 4784SOL    HW214894   1.900   3.618   6.766 -0.3570 -0.4911 -1.5184
 4785SOL     OW14895   3.137   0.679   3.906 -0.1353  0.3512  0.9412
 4785SOL    HW114896   3.120   0.675   3.812 -0.7839 -1.5908  1.0991
 4785SOL    HW214897   3.222   0.721   3.913  1.3386 -2.0993 -0.7344
 4786SOL     OW14898   7.574   2.553   2.614 -0.5387  0.1506  0.2297
 4786SOL    HW114899   7.565   2.459   2.603 -2.0050  0.4013 -0.9753
 4786SOL    HW214900   7.537   2.591   2.535 -0.1187  1.7618  0.7533
 4787SOL     OW14901   1.943   2.181   3.445 -0.1648  0.1768 -0.3126
 4787SOL    HW114902   1.864   2.169   3.391 -0.5483 -1.5666  0.5707
 4787SOL    HW214903   2.013   2.140   3.394  0.3908  2.3677 -1.4406
 4788SOL     OW14904   5.438   7.542   2.296 -1.0072  0.2385  0.2057
 4788SOL    HW114905   5.401   7.602   2.361  0.3290 -0.4658  1.6816
 4788SOL    HW214906   5.529   7.529   2.324 -0.7161 -0.9800 -1.1663
 4789SOL     OW14907   3.383   3.994   1.635  0.3720 -0.2971  0.4623
 4789SOL    HW114908   3.460   3.993   1.692 -0.1225 -1.2866  1.1270
 4789SOL    HW214909   3.409   4.050   1.562  1.2497  0.4679  1.3270
 4790SOL     OW14910   3.904   3.989   4.759  0.0474  0.2813 -0.6585
 4790SOL    HW114911   3.999   3.978   4.761 -0.0695 -1.0437  1.7701
 4790SOL    HW214912   3.871   3.905   4.726 -0.3257 -0.8152  2.2229
 4791SOL     OW14913   6.818   0.741   7.138  0.3767 -0.1473 -0.0760
 4791SOL    HW114914   6.912   0.749   7.122  0.7516 -0.4649  1.7655
 4791SOL    HW214915   6.793   0.823   7.180 -0.4278  0.3756 -1.4817
 4792SOL     OW14916   4.281   1.162   5.110 -0.3562  0.7874 -0.0456
 4792SOL    HW114917   4.237   1.107   5.046  3.1505 -0.4811 -1.6014
 4792SOL    HW214918   4.314   1.237   5.060 -0.5336  1.5996  1.0075
 4793SOL     OW14919   4.160   3.246   6.705 -0.0400 -0.3713  0.2441
 4793SOL    HW114920   4.102   3.265   6.631 -0.0293 -0.0015  0.3303
 4793SOL    HW214921   4.206   3.328   6.721  1.5308 -1.0293 -0.7237
 4794SOL     OW14922   4.329   1.803   3.703  0.8507 -0.0799 -0.4400
 4794SOL    HW114923   4.395   1.860   3.743 -0.3124  0.1547  1.2389
 4794SOL    HW214924   4.254   1.861   3.688 -0.4639 -1.1659  1.5621
 4795SOL     OW14925   0.365   2.697   4.919  0.0096 -0.4763  0.1380
 4795SOL    HW114926   0.374   2.791   4.933 -0.4631 -0.3443 -0.4070
 4795SOL    HW214927   0.292   2.671   4.975  0.5738 -0.6478  0.8054
 4796SOL     OW14928   2.697   2.494   6.949 -0.3166  0.1053 -0.0784
 4796SOL    HW114929   2.657   2.566   6.900 -0.0063  0.1436 -0.2773
 4796SOL    HW214930   2.775   2.533   6.990 -0.2366 -0.0774 -0.0557
 4797SOL     OW14931   3.217   2.496   2.269  0.4317 -0.4590  0.1180
 4797SOL    HW114932   3.267   2.433   2.216  0.0724  0.5183 -1.4559
 4797SOL    HW214933   3.129   2.460   2.271  0.5152 -0.6526  0.3041
 4798SOL     OW14934   6.818   1.429   4.828  0.1942 -0.3556 -0.5357
 4798SOL    HW114935   6.743   1.486   4.843 -0.1958 -1.0443  0.2286
 4798SOL    HW214936   6.803   1.392   4.741 -1.1248 -1.5766  0.1599
 4799SOL     OW14937   1.961   2.850   4.582  0.1095  0.1546 -0.0493
 4799SOL    HW114938   2.050   2.827   4.555 -0.2590 -0.2020 -1.0380
 4799SOL    HW214939   1.909   2.773   4.557 -0.7494  1.0374 -1.1021
 4800SOL     OW14940   2.797   5.191   5.843  0.3488  0.3844  0.5470
 4800SOL    HW114941   2.772   5.109   5.884 -2.3678  1.5912  1.5268
 4800SOL    HW214942   2.806   5.170   5.750  0.8565 -1.2004  0.9170
 4801SOL     OW14943   2.399   2.319   2.843 -0.9737 -0.1419  0.7027
 4801SOL    HW114944   2.330   2.313   2.909 -1.6458  2.4203  0.3217
 4801SOL    HW214945   2.352   2.339   2.762  0.0910 -0.2121  0.0554
 4802SOL     OW14946   7.322   4.770   2.977 -0.3777  0.3192 -0.2477
 4802SOL    HW114947   7.234   4.760   2.941 -0.3598  0.2649 -0.2761
 4802SOL    HW214948   7.310   4.754   3.071 -0.5640  1.2370 -0.1040
 4803SOL     OW14949   2.304   1.725   6.851 -0.3560  0.0509  0.5121
 4803SOL    HW114950   2.213   1.698   6.839 -0.4919  1.0522 -0.9809
 4803SOL    HW214951   2.304   1.774   6.933 -0.9828 -0.6542  0.9420
 4804SOL     OW14952   2.570   0.454   0.799 -0.4311 -0.2154 -0.3062
 4804SOL    HW114953   2.487   0.453   0.752 -0.7556 -0.8453  0.2690
 4804SOL    HW214954   2.607   0.540   0.781 -1.7989  0.5629  0.4694
 4805SOL     OW14955   2.814   3.940   1.324 -0.1175  0.2507  0.4134
 4805SOL    HW114956   2.908   3.926   1.336 -0.0641  1.0320  1.0037
 4805SOL    HW214957   2.808   4.023   1.278 -0.5466  0.7795  1.4022
 4806SOL     OW14958   3.697   1.148   1.622 -0.0358 -0.1951 -0.2372
 4806SOL    HW114959   3.673   1.217   1.560  0.2694 -0.0386 -0.1826
 4806SOL    HW214960   3.737   1.080   1.567  1.8962  0.7026 -0.0332
 4807SOL     OW14961   3.055   4.632   0.655  0.5923  0.1884 -0.1127
 4807SOL    HW114962   3.076   4.550   0.610  1.3824  0.0765  0.4428
 4807SOL    HW214963   3.140   4.668   0.680  0.2300  0.9661  0.0273
 4808SOL     OW14964   0.039   2.307   1.548  0.2698 -0.5188  0.2092
 4808SOL    HW114965   0.099   2.273   1.483  1.1030  1.4767 -0.1263
 4808SOL    HW214966   0.087   2.376   1.593 -0.9417 -0.5317  1.6420
 4809SOL     OW14967   1.927   2.381   4.190 -0.7900 -0.0326 -0.4429
 4809SOL    HW114968   1.955   2.307   4.135  0.1661  0.5803 -0.7882
 4809SOL    HW214969   1.940   2.458   4.135  1.0715  0.6958  0.9479
 4810SOL     OW14970   3.522   4.362   0.065 -0.0222 -0.0479  0.5783
 4810SOL    HW114971   3.591   4.351  -0.000 -1.6562 -0.6288 -1.1141
 4810SOL    HW214972   3.504   4.456   0.065  1.7664  0.3602  2.1736
 4811SOL     OW14973   5.262   4.145   6.248 -0.2523  0.3690 -0.0306
 4811SOL    HW114974   5.259   4.056   6.215 -1.4261  0.5544 -0.4684
 4811SOL    HW214975   5.236   4.200   6.174  0.0905  1.0464  0.3368
 4812SOL     OW14976   5.714   0.697   4.471  0.3665 -0.8375 -0.3085
 4812SOL    HW114977   5.789   0.689   4.413  0.2773  1.8454 -0.9174
 4812SOL    HW214978   5.751   0.697   4.560  0.6626 -3.1334 -0.3631
 4813SOL     OW14979   5.433   4.999   7.524 -0.4594 -0.1178  0.3945
 4813SOL    HW114980   5.472   4.973   7.440 -0.1917  0.8322  0.2184
 4813SOL    HW214981   5.340   4.980   7.515 -0.6293  1.0515 -0.5593
 4814SOL     OW14982   4.995   6.345   1.528  0.3647 -0.3864  0.4189
 4814SOL    HW114983   5.012   6.292   1.605 -2.3541 -0.9993  0.6708
 4814SOL    HW214984   4.988   6.282   1.456  2.4205  0.1453 -0.3256
 4815SOL     OW14985   1.252   2.957   6.767  0.3368 -0.2433 -0.4727
 4815SOL    HW114986   1.277   2.920   6.851  0.3847 -0.1953 -0.4665
 4815SOL    HW214987   1.156   2.957   6.769  0.2981  1.9408  0.5560
 4816SOL     OW14988   0.513   6.686   0.324 -0.0415  0.1550 -0.2084
 4816SOL    HW114989   0.418   6.696   0.311  0.0322 -0.3886 -1.2306
 4816SOL    HW214990   0.536   6.607   0.274  1.3071  1.4449 -1.7196
 4817SOL     OW14991   3.845   5.602   7.278  0.5489  0.0678 -0.3752
 4817SOL    HW114992   3.812   5.602   7.188  0.0439  0.3489 -0.1890
 4817SOL    HW214993   3.789   5.540   7.324  0.7263  0.0236 -0.2182
 4818SOL     OW14994   3.682   3.286   2.080  1.0864 -0.5629 -0.6959
 4818SOL    HW114995   3.760   3.266   2.133  0.1058 -0.6250  0.7681
 4818SOL    HW214996   3.609   3.255   2.133 -0.0514  1.0076 -1.2906
 4819SOL     OW14997   4.151   7.372   1.441 -0.2795  0.1001 -0.5846
 4819SOL    HW114998   4.114   7.317   1.510 -0.2097 -0.2032 -0.7851
 4819SOL    HW214999   4.232   7.408   1.479  0.5453 -1.2461 -1.0060
 4820SOL     OW15000   1.923   7.282   0.956 -0.1129 -0.2228 -0.4046
 4820SOL    HW115001   1.862   7.262   0.885  2.4849  0.8886 -3.1331
 4820SOL    HW215002   1.985   7.209   0.955  0.1306 -0.0412  0.5552
 4821SOL     OW15003   3.262   5.942   6.371  0.6630 -0.0170  0.4825
 4821SOL    HW115004   3.232   6.008   6.434  1.1961  4.1888 -3.2470
 4821SOL    HW215005   3.357   5.947   6.375  0.7641 -1.5295  0.8901
 4822SOL     OW15006   7.011   3.290   2.353  0.2351  0.0405  0.3147
 4822SOL    HW115007   6.988   3.350   2.283  0.7418  0.1562  0.2524
 4822SOL    HW215008   7.056   3.218   2.310 -0.3462 -0.3794  0.3906
 4823SOL     OW15009   6.347   6.364   0.757  0.2186 -0.4211 -0.1067
 4823SOL    HW115010   6.382   6.287   0.800  1.6180  1.4291  2.3528
 4823SOL    HW215011   6.253   6.346   0.746  0.6170 -2.6518 -0.2210
 4824SOL     OW15012   3.937   5.743   5.029  0.4671  0.5250  0.1946
 4824SOL    HW115013   3.842   5.742   5.016 -0.2500 -1.8233  4.0542
 4824SOL    HW215014   3.954   5.829   5.068  0.3293  1.6314 -2.0032
 4825SOL     OW15015   7.129   3.059   3.399  0.1161  0.2886 -0.3866
 4825SOL    HW115016   7.177   3.007   3.464 -1.6635  0.7008  1.3766
 4825SOL    HW215017   7.193   3.080   3.332  2.2178  0.2391  1.4915
 4826SOL     OW15018   1.623   1.746   2.521 -0.2819 -0.5856 -0.2008
 4826SOL    HW115019   1.657   1.744   2.611  0.3640 -2.1889 -0.4544
 4826SOL    HW215020   1.552   1.683   2.521 -0.1814 -0.7037 -0.8499
 4827SOL     OW15021   0.061   5.646   2.317 -0.4214 -0.1289 -0.4551
 4827SOL    HW115022   0.001   5.571   2.312 -0.2033 -0.5246  1.7164
 4827SOL    HW215023   0.058   5.673   2.409  1.8338  0.5860 -0.5255
 4828SOL     OW15024   4.166   1.519   3.937 -0.4316  0.0669  0.7768
 4828SOL    HW115025   4.212   1.450   3.986 -1.3347 -1.1449 -0.0253
 4828SOL    HW215026   4.214   1.525   3.854  0.2708  1.1590  1.2427
 4829SOL     OW15027   3.937   1.632   2.916  0.4418 -0.0726  0.2382
 4829SOL    HW115028   3.859   1.676   2.950  0.7129  0.4309  0.2148
 4829SOL    HW215029   3.921   1.624   2.822  0.8967  1.0365  0.0563
 4830SOL     OW15030   6.510   6.818   3.554 -0.3697 -0.0117 -0.0580
 4830SOL    HW115031   6.510   6.910   3.526 -2.1021  0.6390  1.7693
 4830SOL    HW215032   6.601   6.800   3.576  0.0300  1.2382 -0.5544
 4831SOL     OW15033   6.066   2.877   6.884 -0.3423 -0.2921 -0.0233
 4831SOL    HW115034   6.061   2.897   6.790 -1.6319  2.0835  0.4692
 4831SOL    HW215035   6.111   2.952   6.922 -2.0691  0.0419  1.5320
 4832SOL     OW15036   4.665   4.145   1.814  0.4757  0.5597 -0.2082
 4832SOL    HW115037   4.649   4.238   1.831 -1.6801  0.0274  1.0600
 4832SOL    HW215038   4.750   4.127   1.854  1.5358  2.2163 -1.5891
 4833SOL     OW15039   4.807   1.834   0.097  0.0851  0.3800  0.1610
 4833SOL    HW115040   4.884   1.839   0.154  0.2432  0.3953 -0.0516
 4833SOL    HW215041   4.843   1.814   0.010 -0.0456  1.7392 -0.2175
 4834SOL     OW15042   2.898   4.207   5.779  0.4013 -0.0638 -0.0759
 4834SOL    HW115043   2.955   4.263   5.727  1.5839 -1.1408  0.0358
 4834SOL    HW215044   2.955   4.166   5.843 -0.2258 -2.0926 -0.7136
 4835SOL     OW15045   2.962   6.770   3.333  0.6380  0.3972 -0.8988
 4835SOL    HW115046   2.990   6.837   3.271  0.4705  0.8670 -0.4716
 4835SOL    HW215047   3.030   6.702   3.327  0.3746  0.2037 -1.9455
 4836SOL     OW15048   2.750   3.375   7.387 -0.5553  0.2230 -0.0984
 4836SOL    HW115049   2.733   3.450   7.329 -0.5482  0.7583  0.5852
 4836SOL    HW215050   2.692   3.389   7.462  0.2813  0.1469  0.5698
 4837SOL     OW15051   6.021   6.991   0.061  0.5681 -0.7702 -0.4455
 4837SOL    HW115052   6.035   7.048  -0.014  0.3773 -1.7455 -1.2415
 4837SOL    HW215053   6.098   6.934   0.063  1.6416  0.6077  1.4068
 4838SOL     OW15054   5.038   4.167   0.326 -0.0245 -0.2493  0.9395
 4838SOL    HW115055   5.051   4.208   0.241  0.8497 -0.5480  0.9250
 4838SOL    HW215056   5.112   4.195   0.379  1.1334 -2.5000  0.6479
 4839SOL     OW15057   1.852   6.557   3.994 -0.5694 -0.0047  0.1597
 4839SOL    HW115058   1.804   6.571   3.912 -1.0039  1.2143  0.5916
 4839SOL    HW215059   1.786   6.571   4.063  0.3907  1.8497  0.7657
 4840SOL     OW15060   3.574   2.228   4.875  0.6639  0.8348  0.0658
 4840SOL    HW115061   3.531   2.301   4.920  0.7398 -0.1830  1.8828
 4840SOL    HW215062   3.666   2.256   4.867  0.3585  1.6451 -0.8733
 4841SOL     OW15063   2.875   1.786   2.337 -0.1968 -0.0596  0.0827
 4841SOL    HW115064   2.893   1.710   2.392 -0.6854 -0.6376 -0.5305
 4841SOL    HW215065   2.896   1.862   2.392  0.0117 -0.6317  0.8057
 4842SOL     OW15066   5.339   4.617   4.987  0.1740  0.0214  0.3885
 4842SOL    HW115067   5.342   4.704   5.027 -0.6047 -0.1295  0.7912
 4842SOL    HW215068   5.247   4.592   4.989  0.5376 -1.4731  1.7579
 4843SOL     OW15069   1.662   6.312   4.605 -0.6069  0.3677  0.0931
 4843SOL    HW115070   1.632   6.221   4.597 -0.6109  0.4501 -0.9679
 4843SOL    HW215071   1.615   6.346   4.681 -0.6663 -0.4938  0.4582
 4844SOL     OW15072   2.616   3.588   0.534  0.2283 -0.0020  0.4982
 4844SOL    HW115073   2.685   3.554   0.591  1.0647  0.1866 -0.3814
 4844SOL    HW215074   2.536   3.574   0.583  0.4659 -3.4046  0.2056
 4845SOL     OW15075   3.665   1.492   3.277 -0.7747 -0.5791  0.3870
 4845SOL    HW115076   3.678   1.469   3.369 -0.9747  0.1328  0.6035
 4845SOL    HW215077   3.635   1.583   3.279  0.5075 -0.0994 -0.4524
 4846SOL     OW15078   3.101   7.240   7.206  0.0037  0.0915 -0.0206
 4846SOL    HW115079   3.018   7.273   7.241  0.2359 -0.5116  1.1648
 4846SOL    HW215080   3.135   7.313   7.154 -0.8509  0.6664  0.1861
 4847SOL     OW15081   0.539   6.469   0.093  0.6854  0.1498 -0.0127
 4847SOL    HW115082   0.543   6.525   0.016  0.6203  0.0910 -0.0600
 4847SOL    HW215083   0.626   6.428   0.097  0.9283  0.6954  0.3601
 4848SOL     OW15084   7.192   6.940   5.544 -0.3312  0.3380  0.0714
 4848SOL    HW115085   7.197   6.999   5.619 -1.9555 -0.3728  0.8021
 4848SOL    HW215086   7.189   6.998   5.468  0.6100  1.0966  0.5956
 4849SOL     OW15087   6.554   5.662   4.693  0.0723  0.1663 -0.2802
 4849SOL    HW115088   6.543   5.661   4.788  0.0289  2.7504 -0.1698
 4849SOL    HW215089   6.593   5.578   4.672 -1.2204 -1.0532  1.8407
 4850SOL     OW15090   7.466   3.939   4.458  0.1557  0.2501 -0.1111
 4850SOL    HW115091   7.498   3.907   4.542  0.5440 -1.2820 -0.8268
 4850SOL    HW215092   7.380   3.977   4.478  0.7069  0.8809  1.1429
 4851SOL     OW15093   1.482   4.811   1.605  0.2756  0.1789  0.1235
 4851SOL    HW115094   1.410   4.752   1.626  1.6499 -1.6690 -0.1279
 4851SOL    HW215095   1.529   4.821   1.688 -0.6326  2.0214  0.4859
 4852SOL     OW15096   3.437   1.645   0.670 -0.1752 -0.1598 -1.0678
 4852SOL    HW115097   3.358   1.631   0.722 -0.3256  1.0282 -0.9569
 4852SOL    HW215098   3.477   1.558   0.664 -1.2846 -0.7046 -0.8095
 4853SOL     OW15099   1.048   4.747   2.155  0.3874 -0.5592 -0.0910
 4853SOL    HW115100   1.056   4.764   2.249  0.1639 -0.7150 -0.0429
 4853SOL    HW215101   1.070   4.830   2.113  1.1135 -0.6585  0.0751
 4854SOL     OW15102   3.558   4.051   0.404 -0.7274  0.1871 -0.4341
 4854SOL    HW115103   3.612   4.072   0.481 -1.8871 -1.9252  1.0727
 4854SOL    HW215104   3.527   4.135   0.372  0.0288  1.1470  1.2338
 4855SOL     OW15105   5.546   6.658   5.370  0.6073  0.3475  0.5383
 4855SOL    HW115106   5.630   6.689   5.404  1.5107  1.6929 -2.6243
 4855SOL    HW215107   5.561   6.565   5.352  1.0052  0.2952  1.1014
 4856SOL     OW15108   5.875   0.922   6.708  0.3684 -0.0158 -0.3053
 4856SOL    HW115109   5.871   0.895   6.800  0.3718 -0.0494 -0.3146
 4856SOL    HW215110   5.965   0.903   6.681  0.7640  1.2575  0.0662
 4857SOL     OW15111   6.416   2.709   6.777  0.4746  0.4574  0.6394
 4857SOL    HW115112   6.351   2.769   6.814  1.3017  1.8397 -0.0599
 4857SOL    HW215113   6.365   2.635   6.744 -0.8632  1.8421 -0.5544
 4858SOL     OW15114   5.236   3.982   2.258  0.0254  0.0780  0.5916
 4858SOL    HW115115   5.295   3.994   2.183  0.7885 -1.0672  0.9686
 4858SOL    HW215116   5.257   4.055   2.317 -0.0844  0.5923 -0.0030
 4859SOL     OW15117   5.183   6.086   7.508  0.9538 -0.4246 -0.0064
 4859SOL    HW115118   5.206   5.994   7.499  1.4108 -0.4279  1.0614
 4859SOL    HW215119   5.264   6.133   7.486  1.0795 -0.3255  0.6607
 4860SOL     OW15120   4.074   0.029   4.083  0.2115 -0.2414 -0.4017
 4860SOL    HW115121   4.116   0.101   4.130 -0.0025 -0.2278 -0.2273
 4860SOL    HW215122   4.089   0.048   3.990 -1.0769  0.8108 -0.4238
 4861SOL     OW15123   6.698   3.014   6.207  0.3462 -0.0165  0.2847
 4861SOL    HW115124   6.682   2.920   6.214 -0.1063  0.1231  1.2268
 4861SOL    HW215125   6.722   3.027   6.115  2.7915 -1.4026  0.6409
 4862SOL     OW15126   6.937   4.030   2.210 -0.2088 -0.2143  0.2222
 4862SOL    HW115127   6.928   3.960   2.274 -1.5446  0.3014  0.6279
 4862SOL    HW215128   6.895   4.106   2.250  0.8673  0.7443 -0.3609
 4863SOL     OW15129   5.052   6.279   0.628 -0.4062 -0.2532  0.0919
 4863SOL    HW115130   4.969   6.240   0.599 -0.9997  1.3603 -0.5295
 4863SOL    HW215131   5.114   6.207   0.628 -1.5277 -1.2617 -0.6492
 4864SOL     OW15132   2.004   6.364   4.511  0.0019 -0.2946 -0.6111
 4864SOL    HW115133   1.953   6.445   4.519  0.2528 -0.0871 -1.0556
 4864SOL    HW215134   1.993   6.339   4.419  0.0165 -0.7032 -0.5005
 4865SOL     OW15135   0.637   3.890   1.150  0.1224  0.2199  0.8175
 4865SOL    HW115136   0.621   3.797   1.132 -0.2976  0.4360  0.0054
 4865SOL    HW215137   0.729   3.893   1.178  0.9199 -0.1675 -1.5194
 4866SOL     OW15138   6.038   1.854   1.309  0.2387 -0.1443  0.0013
 4866SOL    HW115139   5.959   1.850   1.255 -0.9237  1.3630  1.5040
 4866SOL    HW215140   6.036   1.775   1.362 -0.3261 -0.0544  0.1142
 4867SOL     OW15141   5.501   3.735   0.886 -0.1342 -0.3811 -0.0014
 4867SOL    HW115142   5.429   3.745   0.948 -0.9674 -1.8277 -0.6836
 4867SOL    HW215143   5.568   3.688   0.935  0.1286  0.4878  0.4762
 4868SOL     OW15144   2.990   6.610   1.812 -0.5758  0.8830  0.2505
 4868SOL    HW115145   2.912   6.555   1.808  0.3599 -0.7188  2.2447
 4868SOL    HW215146   2.984   6.654   1.896  0.3426  1.2669  0.1283
 4869SOL     OW15147   0.228   2.615   0.474 -0.4790  0.6237 -0.6355
 4869SOL    HW115148   0.227   2.710   0.485  1.0540  0.6852 -0.7209
 4869SOL    HW215149   0.308   2.598   0.424 -1.0104 -0.6750 -1.0917
 4870SOL     OW15150   2.747   7.229   5.773  0.4361 -0.4817 -0.2921
 4870SOL    HW115151   2.741   7.178   5.854  0.2550  0.1779  0.1143
 4870SOL    HW215152   2.675   7.291   5.779  3.1040  2.7811  1.3004
 4871SOL     OW15153   4.437   3.090   1.765 -0.0045 -0.0499  0.3905
 4871SOL    HW115154   4.428   3.066   1.673  0.7697  0.8891  0.0531
 4871SOL    HW215155   4.372   3.160   1.778 -0.4113 -0.4751  0.6760
 4872SOL     OW15156   1.395   2.620   7.391 -0.2190 -0.0797 -0.3833
 4872SOL    HW115157   1.378   2.527   7.381  0.8568 -0.3903  0.4329
 4872SOL    HW215158   1.473   2.624   7.446  0.7943  1.2589 -1.7999
 4873SOL     OW15159   3.796   3.835   6.222  0.3824 -0.2731 -0.3904
 4873SOL    HW115160   3.754   3.784   6.291 -0.3243  0.0509 -0.5707
 4873SOL    HW215161   3.742   3.914   6.215  0.6052 -0.1838 -1.1334
 4874SOL     OW15162   3.448   4.684   2.883  0.2786  0.3303  0.4697
 4874SOL    HW115163   3.529   4.641   2.909  1.0040  0.9558 -0.7069
 4874SOL    HW215164   3.470   4.777   2.880 -0.0645  0.3955 -1.2008
 4875SOL     OW15165   0.121   4.429   0.521 -0.1500  0.5213 -0.0736
 4875SOL    HW115166   0.134   4.522   0.534 -0.7227  0.4064  1.5400
 4875SOL    HW215167   0.032   4.413   0.553 -0.1700 -0.5214 -0.6147
 4876SOL     OW15168   5.948   1.635   1.490 -0.0790 -0.3700  0.3264
 4876SOL    HW115169   6.012   1.564   1.487 -0.4987 -0.8272  1.6703
 4876SOL    HW215170   5.969   1.684   1.569 -0.9924 -0.1366  0.4359
 4877SOL     OW15171   6.911   7.065   1.346  0.3453  0.4220  0.3649
 4877SOL    HW115172   6.901   7.067   1.441 -0.2949 -0.4620  0.3310
 4877SOL    HW215173   7.004   7.052   1.332  0.2408 -1.2227  0.9256
 4878SOL     OW15174   3.026   3.557   3.975  0.5223 -0.1214 -0.2558
 4878SOL    HW115175   2.958   3.504   3.932 -0.0136  0.9392 -0.7760
 4878SOL    HW215176   3.077   3.494   4.026 -1.6034 -0.8036  1.1494
 4879SOL     OW15177   2.730   3.085   4.876 -0.0147 -0.2864 -0.0747
 4879SOL    HW115178   2.733   3.059   4.968 -2.1253 -0.5935 -0.0376
 4879SOL    HW215179   2.776   3.168   4.873  2.0841 -1.3303  0.8037
 4880SOL     OW15180   6.813   3.922   1.975 -0.1312 -0.2417  0.4868
 4880SOL    HW115181   6.829   3.990   2.041 -1.6870 -0.0173  0.6819
 4880SOL    HW215182   6.773   3.850   2.024  1.0032 -1.1171  0.1830
 4881SOL     OW15183   7.514   1.847   2.917 -0.1417 -0.1007  0.5155
 4881SOL    HW115184   7.431   1.820   2.878  0.4244 -1.6532  0.3205
 4881SOL    HW215185   7.519   1.941   2.901 -2.3232  0.2329  1.4005
 4882SOL     OW15186   3.657   5.326   3.099  0.1109  0.3137 -0.0286
 4882SOL    HW115187   3.662   5.419   3.078 -0.2640  0.1142 -1.0622
 4882SOL    HW215188   3.574   5.297   3.060  0.5727 -0.6054 -0.3458
 4883SOL     OW15189   5.474   5.690   5.539  0.3944 -0.3680 -0.2708
 4883SOL    HW115190   5.503   5.618   5.483 -0.9986 -0.6780 -0.6226
 4883SOL    HW215191   5.379   5.693   5.527  0.1421  0.0158  1.5471
 4884SOL     OW15192   5.366   4.921   4.170  0.1314  0.6147 -0.4859
 4884SOL    HW115193   5.275   4.891   4.172  0.7303 -1.3949 -1.0068
 4884SOL    HW215194   5.406   4.880   4.247  1.4346 -1.6965 -2.2569
 4885SOL     OW15195   2.941   4.226   6.100  0.0879  0.5857  0.1183
 4885SOL    HW115196   2.934   4.309   6.054 -0.3140  0.0062 -0.8955
 4885SOL    HW215197   2.919   4.160   6.034 -1.6410 -0.2126  1.4029
 4886SOL     OW15198   3.240   3.068   2.325 -0.1040  0.7324  0.1249
 4886SOL    HW115199   3.247   3.026   2.410 -0.7832  0.8607  0.2563
 4886SOL    HW215200   3.301   3.021   2.269 -2.3221 -1.9111 -0.3042
 4887SOL     OW15201   1.682   1.780   6.435 -0.0495  0.1209 -0.4346
 4887SOL    HW115202   1.607   1.731   6.469 -1.1416 -0.5519 -3.5105
 4887SOL    HW215203   1.667   1.870   6.466 -0.3499 -0.5831  1.6434
 4888SOL     OW15204   2.697   5.385   6.839  0.5390 -0.3304  0.3515
 4888SOL    HW115205   2.774   5.399   6.895  0.6298  0.0984  0.1194
 4888SOL    HW215206   2.732   5.349   6.758  0.3021 -2.0652  0.9732
 4889SOL     OW15207   4.992   4.253   1.788  0.0962 -0.1656 -0.2299
 4889SOL    HW115208   5.027   4.338   1.816  2.9052 -0.1256 -3.2700
 4889SOL    HW215209   4.897   4.265   1.788  0.3046  2.1649  1.6546
 4890SOL     OW15210   6.077   1.506   5.684 -0.1431  0.1317 -0.1861
 4890SOL    HW115211   5.995   1.551   5.663 -1.2914 -2.1028 -0.8431
 4890SOL    HW215212   6.138   1.534   5.616 -1.0726  0.0687 -1.0668
 4891SOL     OW15213   3.867   3.352   7.107 -0.2901 -0.1054  0.3649
 4891SOL    HW115214   3.901   3.429   7.153  0.1051  0.9547 -1.6051
 4891SOL    HW215215   3.878   3.372   7.014 -1.3173 -2.0418 -0.2363
 4892SOL     OW15216   1.432   5.485   0.762  0.4078 -0.2030 -0.0570
 4892SOL    HW115217   1.443   5.571   0.802  4.0336  0.1843 -1.5656
 4892SOL    HW215218   1.437   5.424   0.836 -0.8957  0.7547  0.8699
 4893SOL     OW15219   6.676   6.262   5.320 -0.1457 -0.0095 -0.0929
 4893SOL    HW115220   6.765   6.269   5.356 -0.5337 -0.7345  1.0577
 4893SOL    HW215221   6.661   6.168   5.312  0.0766  0.1028 -2.6344
 4894SOL     OW15222   5.456   4.104   3.502  0.4578  0.0381 -0.1472
 4894SOL    HW115223   5.468   4.168   3.432 -0.1619 -0.9975 -1.2652
 4894SOL    HW215224   5.439   4.022   3.455  1.5130 -1.0081  1.2251
 4895SOL     OW15225   7.093   4.044   5.889 -0.0800  0.1158 -0.3309
 4895SOL    HW115226   7.159   4.095   5.937 -0.0342  0.7579 -1.0481
 4895SOL    HW215227   7.010   4.066   5.932  0.0939 -0.2247  0.1889
 4896SOL     OW15228   7.238   2.608   0.802  0.3171 -0.0783  0.1407
 4896SOL    HW115229   7.234   2.515   0.782 -1.4797 -0.0363  0.1039
 4896SOL    HW215230   7.153   2.642   0.775  0.6584  1.4325  0.8430
 4897SOL     OW15231   2.123   3.861   5.993  0.5495  0.1805 -0.2832
 4897SOL    HW115232   2.110   3.766   5.997  0.6751  0.1263 -1.0185
 4897SOL    HW215233   2.039   3.898   6.020 -0.0524 -0.1526 -1.6011
 4898SOL     OW15234   5.820   4.061   3.306  0.0169  0.7631 -0.2305
 4898SOL    HW115235   5.757   4.003   3.262 -1.0840  2.2091 -0.6216
 4898SOL    HW215236   5.864   4.004   3.369 -0.1350 -0.7865 -1.4478
 4899SOL     OW15237   4.306   6.113   2.299  0.1539 -0.3930 -0.1250
 4899SOL    HW115238   4.212   6.109   2.280 -0.1820  1.2038  0.9844
 4899SOL    HW215239   4.347   6.128   2.214 -0.9641  2.5968 -0.2678
 4900SOL     OW15240   7.510   0.406   4.142 -0.5410 -0.7062  0.1734
 4900SOL    HW115241   7.530   0.324   4.186 -0.9498 -0.0126  1.6897
 4900SOL    HW215242   7.556   0.400   4.058  0.5946 -1.8685  0.8576
 4901SOL     OW15243   7.091   6.042   2.508 -0.1694  0.3246  0.0061
 4901SOL    HW115244   7.075   6.011   2.419 -0.5711  0.4757  0.0217
 4901SOL    HW215245   7.023   6.108   2.523  0.2213  0.6803  0.2379
 4902SOL     OW15246   7.333   2.913   5.111 -0.0147 -0.3018 -0.0421
 4902SOL    HW115247   7.336   2.839   5.172  1.3768 -1.3318 -1.2716
 4902SOL    HW215248   7.296   2.985   5.162  0.3880 -1.3252  1.7823
 4903SOL     OW15249   4.737   3.586   3.215 -0.0767  0.3534  0.1129
 4903SOL    HW115250   4.757   3.505   3.168 -1.2312  1.1730 -1.9091
 4903SOL    HW215251   4.712   3.557   3.303  1.8966 -1.2538  0.2094
 4904SOL     OW15252   0.470   3.064   2.182  0.2232 -0.0027  0.1376
 4904SOL    HW115253   0.556   3.088   2.147  0.0787  1.3050  0.6193
 4904SOL    HW215254   0.443   2.988   2.130  0.2969  1.4479 -2.1688
 4905SOL     OW15255   5.836   5.195   5.576  0.2277 -0.9088 -0.0166
 4905SOL    HW115256   5.845   5.225   5.485  0.4567  0.4175  0.4078
 4905SOL    HW215257   5.859   5.273   5.628  1.5093 -2.0328  1.1812
 4906SOL     OW15258   0.480   4.662   6.029  0.1970 -0.4066  0.0500
 4906SOL    HW115259   0.520   4.700   5.951 -0.1738 -1.3753 -0.6249
 4906SOL    HW215260   0.545   4.599   6.061 -0.6128 -1.7592 -0.8714
 4907SOL     OW15261   0.728   4.042   2.298 -0.8784 -0.1339  0.4547
 4907SOL    HW115262   0.709   4.012   2.387 -2.6073  1.0019  0.5213
 4907SOL    HW215263   0.743   3.962   2.248 -2.7085 -0.9970  1.1728
 4908SOL     OW15264   1.297   0.516   2.855  1.2863 -0.0292  0.3045
 4908SOL    HW115265   1.285   0.464   2.934  1.0226 -0.8780 -0.2838
 4908SOL    HW215266   1.214   0.562   2.843  0.4314 -1.7395 -0.7715
 4909SOL     OW15267   5.117   5.605   0.507 -0.1798 -0.1820  0.7477
 4909SOL    HW115268   5.160   5.531   0.551 -0.4059  0.3508  1.8715
 4909SOL    HW215269   5.024   5.583   0.507 -0.2208 -0.0050  0.8539
 4910SOL     OW15270   1.086   6.774   6.130 -0.5485 -0.2117  0.4010
 4910SOL    HW115271   1.009   6.731   6.094  0.2813 -0.1811 -1.5396
 4910SOL    HW215272   1.148   6.778   6.057  1.0283  0.4059  1.6992
 4911SOL     OW15273   0.115   2.164   1.023  0.2758  0.0318  0.2811
 4911SOL    HW115274   0.101   2.175   1.117  1.5083 -0.4056  0.5256
 4911SOL    HW215275   0.158   2.245   0.996 -1.1226  0.6679 -0.1583
 4912SOL     OW15276   2.165   2.964   6.416 -0.8030  0.3660  0.2926
 4912SOL    HW115277   2.083   2.915   6.426 -0.0216 -0.8890  0.8033
 4912SOL    HW215278   2.152   3.044   6.467 -2.0754  0.6798 -0.4722
 4913SOL     OW15279   6.411   3.140   7.614 -0.5048  0.4049  0.2165
 4913SOL    HW115280   6.417   3.046   7.631 -1.5867  0.3005  0.1174
 4913SOL    HW215281   6.498   3.164   7.583 -0.7079 -0.9299 -1.5424
 4914SOL     OW15282   5.286   4.219   4.766 -0.1234 -0.6898  0.1245
 4914SOL    HW115283   5.308   4.211   4.674 -1.0846 -1.1119 -0.0802
 4914SOL    HW215284   5.271   4.313   4.779 -1.6783 -0.8006 -0.5775
 4915SOL     OW15285   0.344   6.187   4.151 -0.3133 -0.3721 -0.2990
 4915SOL    HW115286   0.416   6.125   4.163 -2.0075 -2.4525 -0.1967
 4915SOL    HW215287   0.369   6.263   4.203  1.4161 -1.3674  0.4222
 4916SOL     OW15288   0.362   1.656   1.521  0.0193 -0.5201  0.0076
 4916SOL    HW115289   0.417   1.691   1.452 -0.7240  0.0419 -0.3158
 4916SOL    HW215290   0.273   1.662   1.486 -0.2583 -1.3534  0.5364
 4917SOL     OW15291   1.536   2.778   1.759 -0.0528 -0.1083  0.2331
 4917SOL    HW115292   1.592   2.839   1.711 -0.7663 -0.4562 -1.0786
 4917SOL    HW215293   1.450   2.821   1.761 -0.4804 -0.9237 -0.4200
 4918SOL     OW15294   1.503   1.962   2.990  0.5424  0.5807 -0.0699
 4918SOL    HW115295   1.445   1.891   2.963 -0.5014  1.0316  0.8890
 4918SOL    HW215296   1.445   2.038   2.996  1.1202  0.9334  1.4445
 4919SOL     OW15297   0.395   4.879   6.183 -0.5758  0.6671 -0.0390
 4919SOL    HW115298   0.421   4.822   6.111 -2.1442 -3.5143  2.3058
 4919SOL    HW215299   0.458   4.858   6.253 -2.7615 -0.3705  1.7361
 4920SOL     OW15300   4.747   5.017   4.468 -0.1824 -0.1033  0.6381
 4920SOL    HW115301   4.684   4.997   4.537 -1.9164  2.7860  0.0715
 4920SOL    HW215302   4.831   5.028   4.513 -0.5294 -1.6932  1.7349
 4921SOL     OW15303   0.909   0.708   1.562 -0.6355  0.3202  0.0743
 4921SOL    HW115304   0.887   0.752   1.644  1.6526  2.4730 -0.3481
 4921SOL    HW215305   0.898   0.776   1.495  3.8921  0.7799 -0.5015
 4922SOL     OW15306   3.504   6.941   7.521  0.2066 -0.2776 -0.3865
 4922SOL    HW115307   3.409   6.956   7.523  0.3340  0.8039 -1.2121
 4922SOL    HW215308   3.537   7.008   7.460  1.4187 -1.0794 -0.6363
 4923SOL     OW15309   6.369   5.684   1.688 -0.4024 -0.1002 -0.8778
 4923SOL    HW115310   6.379   5.617   1.620  0.4499  0.0822 -0.9395
 4923SOL    HW215311   6.428   5.657   1.758 -1.1283 -0.1748 -0.2865
 4924SOL     OW15312   3.619   5.166   6.092 -0.0880 -0.0622  0.2019
 4924SOL    HW115313   3.647   5.076   6.075 -1.1783 -0.2619 -0.6691
 4924SOL    HW215314   3.600   5.202   6.006  0.7355  1.1604  0.5065
 4925SOL     OW15315   1.973   2.196   3.972 -0.1378  1.0839 -0.3885
 4925SOL    HW115316   1.987   2.219   3.880 -0.6273 -1.0365 -1.0412
 4925SOL    HW215317   1.878   2.186   3.981  0.0643 -2.2593 -0.6679
 4926SOL     OW15318   5.451   0.343   6.282  0.0637 -0.2266 -0.1717
 4926SOL    HW115319   5.378   0.402   6.265  0.5741  1.1824  2.0625
 4926SOL    HW215320   5.423   0.258   6.247 -1.3421  0.9397 -2.0536
 4927SOL     OW15321   4.251   5.133   1.284 -0.1508  0.2539 -0.5161
 4927SOL    HW115322   4.242   5.226   1.266 -2.8017 -0.0004 -0.9423
 4927SOL    HW215323   4.163   5.098   1.271  0.6556 -2.2203  0.1954
 4928SOL     OW15324   6.478   0.513   3.942  0.1295  0.4218  0.3178
 4928SOL    HW115325   6.451   0.435   3.892  1.5258 -1.3884  2.2031
 4928SOL    HW215326   6.554   0.546   3.895  0.4010 -0.2432  0.2748
 4929SOL     OW15327   0.885   2.255   7.594  0.4130  0.3971 -0.2039
 4929SOL    HW115328   0.976   2.248   7.622  0.3522 -0.9259 -0.2627
 4929SOL    HW215329   0.874   2.186   7.529 -1.2114 -1.0826  1.4928
 4930SOL     OW15330   1.874   3.981   3.227  0.0816 -0.4228 -0.2654
 4930SOL    HW115331   1.891   3.902   3.175 -1.3039  0.5260 -2.2969
 4930SOL    HW215332   1.922   4.050   3.182 -0.2026  0.2280  0.4150
 4931SOL     OW15333   4.463   2.845   3.774  0.4433 -0.4643 -0.6661
 4931SOL    HW115334   4.489   2.771   3.829 -0.5605 -0.8663 -0.7078
 4931SOL    HW215335   4.541   2.900   3.769  0.2335  0.2652  2.1987
 4932SOL     OW15336   0.139   4.715   0.580  0.0299  0.6609 -0.3453
 4932SOL    HW115337   0.174   4.795   0.539  0.9516 -0.2831 -1.4538
 4932SOL    HW215338   0.113   4.744   0.667  0.8684  2.0650 -0.5116
 4933SOL     OW15339   3.081   3.012   5.005 -0.1820 -0.6095 -0.0081
 4933SOL    HW115340   3.172   3.039   5.012 -0.4685  0.2367  0.7772
 4933SOL    HW215341   3.032   3.094   4.995 -0.8996 -1.0074  0.1143
 4934SOL     OW15342   2.278   3.422   1.756  0.0342  0.8787  0.6629
 4934SOL    HW115343   2.186   3.442   1.735  0.6907  1.3070 -2.1697
 4934SOL    HW215344   2.304   3.357   1.692  1.1827 -0.8577  2.7589
 4935SOL     OW15345   0.506   5.401   4.317  0.3179 -0.3536 -0.0727
 4935SOL    HW115346   0.495   5.459   4.393 -1.0517  0.3776 -0.7958
 4935SOL    HW215347   0.537   5.459   4.248 -1.1536 -0.4193 -0.8296
 4936SOL     OW15348   1.672   3.823   1.662 -0.3169  0.5207  0.0511
 4936SOL    HW115349   1.672   3.887   1.591 -1.2309  0.4192 -0.0453
 4936SOL    HW215350   1.602   3.853   1.721 -1.5672 -1.0353 -0.5894
 4937SOL     OW15351   3.772   3.128   0.519 -0.3420 -0.7070 -0.9689
 4937SOL    HW115352   3.824   3.199   0.482 -0.5625  0.3961  0.7348
 4937SOL    HW215353   3.685   3.138   0.480  0.1749 -1.3754 -2.3466
 4938SOL     OW15354   5.051   6.858   2.663  0.2138  0.0865 -0.0299
 4938SOL    HW115355   5.026   6.785   2.606 -0.6627  0.6767 -0.4181
 4938SOL    HW215356   5.101   6.917   2.605  0.9752 -0.2201  0.2978
 4939SOL     OW15357   4.151   2.651   3.166  0.2962  0.4059 -0.8440
 4939SOL    HW115358   4.106   2.608   3.239  3.5581 -0.3621  0.9400
 4939SOL    HW215359   4.178   2.736   3.202  0.2010  0.8980 -1.9019
 4940SOL     OW15360   6.844   7.061   2.526 -0.4227 -0.5446 -0.3741
 4940SOL    HW115361   6.842   7.094   2.436 -1.1665  1.1107  0.2032
 4940SOL    HW215362   6.873   7.136   2.578  2.4511 -2.1591  0.5473
 4941SOL     OW15363   1.812   5.067   6.149  0.1323 -0.8140  0.2578
 4941SOL    HW115364   1.792   4.975   6.135 -0.4060 -0.7218  0.3751
 4941SOL    HW215365   1.795   5.082   6.242 -0.2895 -0.4800  0.1308
 4942SOL     OW15366   3.939   6.826   6.136 -0.4504 -0.4431  0.2115
 4942SOL    HW115367   3.917   6.912   6.169 -0.7956 -0.4636  0.0422
 4942SOL    HW215368   3.867   6.803   6.077  0.3404 -0.2228 -0.8963
 4943SOL     OW15369   7.073   3.581   0.920  0.0541  0.2161  0.6296
 4943SOL    HW115370   7.015   3.576   0.844 -1.3760 -0.1632  1.7023
 4943SOL    HW215371   7.079   3.674   0.940 -0.9778  0.1847  1.0964
 4944SOL     OW15372   4.879   3.867   0.571  0.1175 -0.4428 -0.5811
 4944SOL    HW115373   4.974   3.867   0.583  0.3287  0.7515 -1.9760
 4944SOL    HW215374   4.864   3.813   0.494 -0.3067 -0.3992 -0.5294
 4945SOL     OW15375   5.586   4.814   0.576  0.1188 -0.2046 -0.3908
 4945SOL    HW115376   5.653   4.775   0.632  0.5470 -0.1235 -0.8362
 4945SOL    HW215377   5.604   4.778   0.489 -1.2548 -1.2539 -0.2756
 4946SOL     OW15378   3.164   0.429   4.601  0.1847  0.2363  0.8958
 4946SOL    HW115379   3.128   0.509   4.562 -0.2290 -2.0528 -4.1866
 4946SOL    HW215380   3.089   0.388   4.645 -0.8649  0.4056 -0.6806
 4947SOL     OW15381   0.628   3.562   1.462 -0.0599  0.0933  0.4948
 4947SOL    HW115382   0.550   3.606   1.429  0.8308  2.0662  0.8860
 4947SOL    HW215383   0.693   3.632   1.473  1.2570 -1.2317  1.6871
 4948SOL     OW15384   7.552   4.928   5.020 -0.0408  0.4406  0.4596
 4948SOL    HW115385   7.554   4.836   4.996  0.6148  0.0553  1.8927
 4948SOL    HW215386   7.636   4.963   4.990 -0.8156  0.9352 -1.2850
 4949SOL     OW15387   2.891   2.466   6.275 -0.2888  0.5125  0.0889
 4949SOL    HW115388   2.814   2.520   6.294  0.4109  0.9568  1.7781
 4949SOL    HW215389   2.962   2.507   6.324  0.6220 -0.9902  0.0866
 4950SOL     OW15390   2.334   0.802   1.233 -0.6066 -0.5011 -0.6679
 4950SOL    HW115391   2.414   0.846   1.263 -0.0883 -0.4169 -2.1082
 4950SOL    HW215392   2.263   0.853   1.272  0.0216  0.6339 -0.9628
 4951SOL     OW15393   2.870   2.794   4.666  0.0046 -0.1955  0.2098
 4951SOL    HW115394   2.903   2.811   4.755 -0.2188  0.4187  0.1796
 4951SOL    HW215395   2.802   2.727   4.678 -1.2214  1.0823  0.7409
 4952SOL     OW15396   6.730   5.798   5.433  0.0048  0.0012 -0.0732
 4952SOL    HW115397   6.655   5.764   5.482 -0.0808 -0.2073 -0.3434
 4952SOL    HW215398   6.774   5.720   5.399 -1.1201  0.1622 -2.0598
 4953SOL     OW15399   2.773   4.065   2.419 -0.1466 -0.3801 -0.3203
 4953SOL    HW115400   2.854   4.022   2.390  0.1204  1.0652 -1.8440
 4953SOL    HW215401   2.750   4.020   2.500  1.6153 -1.5235 -0.4033
 4954SOL     OW15402   7.156   2.531   0.166 -0.0257  0.0557  0.7153
 4954SOL    HW115403   7.230   2.571   0.120 -0.6864 -0.1105 -0.5660
 4954SOL    HW215404   7.138   2.590   0.239  0.5895  0.7563  0.3152
 4955SOL     OW15405   1.997   3.020   1.720  0.1925 -0.2651 -0.0844
 4955SOL    HW115406   1.992   2.961   1.796  1.1157 -1.4200 -0.8841
 4955SOL    HW215407   1.937   2.983   1.656  1.6047 -1.0268 -1.0175
 4956SOL     OW15408   2.972   0.454   4.839 -0.0627  0.2081  0.1982
 4956SOL    HW115409   3.004   0.543   4.821 -1.3267  0.2356 -2.3059
 4956SOL    HW215410   2.904   0.466   4.905  0.7564  0.8953  0.9467
 4957SOL     OW15411   1.422   0.288   1.438 -0.1936  0.3450 -0.1737
 4957SOL    HW115412   1.333   0.274   1.471  0.8048  0.1538  2.7643
 4957SOL    HW215413   1.452   0.201   1.412  0.0348 -0.1129  1.4959
 4958SOL     OW15414   7.252   0.511   6.116 -0.0056 -0.2479  0.1414
 4958SOL    HW115415   7.278   0.518   6.024 -1.7486  2.2511 -0.2604
 4958SOL    HW215416   7.335   0.507   6.164  1.1079  2.2037 -1.3784
 4959SOL     OW15417   4.569   4.787   7.567  0.6920  0.4275 -0.4307
 4959SOL    HW115418   4.581   4.880   7.586  0.8313  0.8486 -2.3811
 4959SOL    HW215419   4.557   4.783   7.472 -1.3071 -1.3357 -0.1888
 4960SOL     OW15420   1.141   5.464   1.636  0.2125 -0.6741  0.0861
 4960SOL    HW115421   1.101   5.431   1.555 -0.3613 -1.2136  0.5803
 4960SOL    HW215422   1.098   5.549   1.650 -0.1803 -0.8837  0.1800
 4961SOL     OW15423   7.313   2.681   4.165 -0.8849 -0.0435 -0.1826
 4961SOL    HW115424   7.357   2.718   4.241 -0.2772 -0.0981 -0.5038
 4961SOL    HW215425   7.361   2.601   4.145 -1.1695 -0.1403 -0.4976
 4962SOL     OW15426   7.286   2.007   1.302  0.1857  0.1608  0.2952
 4962SOL    HW115427   7.249   1.935   1.252  0.8190  0.0982 -0.0976
 4962SOL    HW215428   7.227   2.018   1.377 -1.8144  1.4314 -1.3693
 4963SOL     OW15429   0.682   2.008   6.711 -0.4059 -0.1817  0.2918
 4963SOL    HW115430   0.688   1.930   6.655 -0.0832 -0.6820  1.0033
 4963SOL    HW215431   0.608   2.057   6.676  0.5672  0.1631 -1.3594
 4964SOL     OW15432   4.575   3.873   5.702  0.4489  0.2607  0.5510
 4964SOL    HW115433   4.531   3.938   5.648  1.7484  0.7904  0.0984
 4964SOL    HW215434   4.620   3.816   5.640  0.0840 -0.5239  0.9866
 4965SOL     OW15435   3.896   5.369   3.407  0.1272  0.1314  0.4018
 4965SOL    HW115436   3.951   5.413   3.472  0.2691  0.9055 -0.2224
 4965SOL    HW215437   3.846   5.440   3.367 -0.7526 -0.4725  0.4187
 4966SOL     OW15438   4.938   2.178   2.848 -0.3843  0.1932 -0.3959
 4966SOL    HW115439   4.960   2.243   2.781 -0.3014  0.4169 -0.1558
 4966SOL    HW215440   4.894   2.229   2.916 -0.6828 -0.0707 -0.3877
 4967SOL     OW15441   5.041   4.049   2.514  0.6418 -0.0568  0.0733
 4967SOL    HW115442   4.960   4.055   2.464 -0.4961  2.1671  2.0154
 4967SOL    HW215443   5.104   4.102   2.465  0.5691 -0.6789 -0.7211
 4968SOL     OW15444   2.574   4.654   4.004  0.3203  0.3292  0.0538
 4968SOL    HW115445   2.662   4.673   3.973  0.3635  1.3698  0.7760
 4968SOL    HW215446   2.518   4.674   3.929  0.5796  1.0956  0.0530
 4969SOL     OW15447   2.623   6.814   5.028  0.4460 -0.3769  0.2532
 4969SOL    HW115448   2.644   6.900   4.993  1.2179 -0.5216  0.3442
 4969SOL    HW215449   2.536   6.794   4.994  0.7658 -0.0852 -0.7585
 4970SOL     OW15450   5.929   5.519   1.606  0.5161 -0.1362 -0.3698
 4970SOL    HW115451   5.963   5.530   1.695  0.3787  0.7379 -0.4205
 4970SOL    HW215452   5.865   5.590   1.596 -0.3255 -0.9295 -0.7543
 4971SOL     OW15453   6.823   3.794   6.606  0.4298 -0.1043 -0.0401
 4971SOL    HW115454   6.877   3.808   6.683  0.4113 -1.1552  0.1728
 4971SOL    HW215455   6.885   3.771   6.537  0.3119 -0.7813  0.0723
 4972SOL     OW15456   4.857   5.512   0.866  0.7745  0.6665 -0.3814
 4972SOL    HW115457   4.898   5.426   0.875  0.1485  0.3811 -0.2470
 4972SOL    HW215458   4.763   5.495   0.874  0.5923  1.2450 -1.2068
 4973SOL     OW15459   0.722   3.434   2.953 -0.1784  0.3041  0.3212
 4973SOL    HW115460   0.686   3.515   2.989  0.5716  0.8874 -0.2063
 4973SOL    HW215461   0.655   3.368   2.972 -0.4587  0.8781  1.4471
 4974SOL     OW15462   5.606   7.537   1.308 -0.2180  0.3638 -0.0433
 4974SOL    HW115463   5.681   7.478   1.322  0.9725  1.9033  0.3160
 4974SOL    HW215464   5.641   7.605   1.250 -1.6956  0.5040 -0.8012
 4975SOL     OW15465   0.056   1.958   3.801 -0.2121  0.1232 -0.6767
 4975SOL    HW115466   0.013   2.039   3.773  1.9200  1.4293 -0.4474
 4975SOL    HW215467   0.010   1.933   3.881 -0.9229  1.0884 -0.7623
 4976SOL     OW15468   5.761   0.346   4.243 -0.0807 -0.1057 -0.2919
 4976SOL    HW115469   5.829   0.413   4.245 -1.3564  1.2927 -1.7245
 4976SOL    HW215470   5.784   0.290   4.169  0.6799 -0.9561  0.5653
 4977SOL     OW15471   6.640   4.012   6.705 -0.3590  1.0234 -0.3138
 4977SOL    HW115472   6.669   4.031   6.795 -1.9301 -0.3031  0.5494
 4977SOL    HW215473   6.715   3.967   6.665 -0.5426 -0.8425  1.2854
 4978SOL     OW15474   0.611   0.712   1.404  0.4210 -0.0611 -0.2298
 4978SOL    HW115475   0.604   0.779   1.472  2.2064 -0.4562  0.3956
 4978SOL    HW215476   0.632   0.632   1.451  0.2314 -0.6596 -1.1343
 4979SOL     OW15477   4.069   4.751   4.853 -0.4155  0.3453 -0.1062
 4979SOL    HW115478   4.130   4.824   4.866 -1.0353  1.0084 -0.7784
 4979SOL    HW215479   4.113   4.695   4.788 -1.1462  1.6309 -1.7993
 4980SOL     OW15480   7.557   4.213   6.276 -0.5192 -0.1100 -0.4431
 4980SOL    HW115481   7.646   4.224   6.310 -1.0699 -0.4819  1.2246
 4980SOL    HW215482   7.561   4.133   6.224 -0.4106 -1.6846  1.8255
 4981SOL     OW15483   2.402   5.406   1.298 -0.7402  0.2150 -0.1558
 4981SOL    HW115484   2.425   5.313   1.289 -0.2377  0.2577  0.6032
 4981SOL    HW215485   2.453   5.450   1.229 -0.3352  0.0251  0.0183
 4982SOL     OW15486   3.046   3.998   1.130 -0.2368 -0.4429 -0.2561
 4982SOL    HW115487   2.968   3.959   1.091 -1.1233  0.1837  0.8232
 4982SOL    HW215488   3.047   4.088   1.097  0.0616 -0.4663 -0.3127
 4983SOL     OW15489   6.050   0.056   7.136  0.5870 -0.2151 -0.1083
 4983SOL    HW115490   6.019   0.041   7.047 -3.8988 -1.3781  1.3617
 4983SOL    HW215491   6.081   0.146   7.136  1.1225 -0.3172 -2.8603
 4984SOL     OW15492   7.360   0.215   7.420 -0.5664  0.0773  0.1065
 4984SOL    HW115493   7.268   0.225   7.399 -0.0789  1.3066 -1.7047
 4984SOL    HW215494   7.379   0.123   7.402 -1.4111 -0.1619  0.3952
 4985SOL     OW15495   2.773   5.842   6.175 -0.1718 -0.6184 -0.2158
 4985SOL    HW115496   2.763   5.747   6.168 -1.1295 -0.4017 -2.4607
 4985SOL    HW215497   2.685   5.877   6.168  0.2233  0.4947  0.0825
 4986SOL     OW15498   4.400   7.536   3.233 -0.2704 -0.1846  0.8514
 4986SOL    HW115499   4.339   7.593   3.278 -0.8017 -0.6678  0.7523
 4986SOL    HW215500   4.472   7.594   3.206 -0.6338  0.3643  1.0524
 4987SOL     OW15501   6.896   3.739   7.475  0.3193 -0.0784 -0.3592
 4987SOL    HW115502   6.856   3.734   7.561  0.4187  0.1802 -0.2982
 4987SOL    HW215503   6.822   3.741   7.414  0.2120 -2.9326 -0.4530
 4988SOL     OW15504   2.374   4.225   5.449 -0.3018 -0.0079  0.3530
 4988SOL    HW115505   2.318   4.231   5.372  0.5924 -0.6118 -0.3665
 4988SOL    HW215506   2.368   4.311   5.490  1.1144  1.1901 -1.7489
 4989SOL     OW15507   5.161   1.830   7.015 -0.6072  0.0812 -0.5709
 4989SOL    HW115508   5.235   1.834   6.954 -1.1742 -0.0637 -1.2892
 4989SOL    HW215509   5.196   1.861   7.098  0.2943 -0.1103 -0.8687
 4990SOL     OW15510   0.465   3.330   0.759 -0.0443 -0.6918 -0.7315
 4990SOL    HW115511   0.540   3.272   0.756 -0.8857 -2.4419  3.5690
 4990SOL    HW215512   0.502   3.418   0.768  1.5848 -1.4955  1.1446
 4991SOL     OW15513   0.226   2.485   1.643  0.3345  0.0525 -0.6754
 4991SOL    HW115514   0.232   2.570   1.687  0.6433 -0.2413 -0.1491
 4991SOL    HW215515   0.301   2.435   1.676  1.4263  0.3170 -2.5971
 4992SOL     OW15516   3.272   2.629   5.135 -0.4654 -0.5525  0.1123
 4992SOL    HW115517   3.281   2.681   5.055 -0.4242 -0.9765 -0.1596
 4992SOL    HW215518   3.206   2.676   5.186 -0.8529 -0.5385 -0.3866
 4993SOL     OW15519   2.805   2.699   7.374 -0.2878 -0.1713 -0.2601
 4993SOL    HW115520   2.739   2.631   7.367 -0.3702  0.0247 -1.7103
 4993SOL    HW215521   2.758   2.780   7.357  0.0974  0.0874 -0.0972
 4994SOL     OW15522   2.348   4.621   1.244 -0.5499 -0.7093  0.3171
 4994SOL    HW115523   2.290   4.559   1.289 -2.4893  1.0791  0.4226
 4994SOL    HW215524   2.388   4.672   1.314 -0.6522 -0.4196  0.1678
 4995SOL     OW15525   2.970   6.679   0.108  0.0222  0.1228 -0.1999
 4995SOL    HW115526   2.896   6.739   0.118 -2.1018 -2.3487 -0.2945
 4995SOL    HW215527   2.936   6.607   0.055  1.6676 -2.3679  1.8936
 4996SOL     OW15528   4.992   0.796   2.472  0.4303 -1.0593 -0.1882
 4996SOL    HW115529   5.087   0.801   2.483  0.3700 -1.5298  0.6502
 4996SOL    HW215530   4.971   0.704   2.489 -0.3145 -0.7137  0.9128
 4997SOL     OW15531   2.436   2.242   0.061  0.7079  0.0481 -0.1493
 4997SOL    HW115532   2.423   2.159   0.015 -1.0051  0.2772 -0.1506
 4997SOL    HW215533   2.428   2.219   0.154 -0.4226  0.2876 -0.1727
 4998SOL     OW15534   4.350   2.961   2.872  0.3324  0.1239 -0.4029
 4998SOL    HW115535   4.332   2.880   2.920 -1.5049  0.7477  0.0513
 4998SOL    HW215536   4.376   2.932   2.785 -0.2596 -0.9469 -0.2398
 4999SOL     OW15537   0.475   1.398   7.173  0.2441  0.3836  0.5083
 4999SOL    HW115538   0.485   1.490   7.198  0.7284  0.2759  0.7176
 4999SOL    HW215539   0.531   1.389   7.095  0.2625  0.2447  0.5387
 5000SOL     OW15540   2.766   1.699   5.855  0.0369 -0.2442 -0.3889
 5000SOL    HW115541   2.802   1.644   5.785  1.3832 -0.1932  0.2480
 5000SOL    HW215542   2.709   1.761   5.809  0.8486 -0.2398 -1.4311
 5001SOL     OW15543   4.448   2.450   1.030  1.1264 -0.1505  0.7986
 5001SOL    HW115544   4.517   2.463   0.964  1.1328  1.0399  1.0054
 5001SOL    HW215545   4.470   2.512   1.100 -1.4039  2.1048 -0.1828
 5002SOL     OW15546   0.283   3.638   0.005  0.5467 -0.2171  0.8113
 5002SOL    HW115547   0.212   3.673   0.060 -0.7174 -1.0205 -0.2543
 5002SOL    HW215548   0.351   3.613   0.068 -1.0198 -1.4991  2.0946
 5003SOL     OW15549   2.988   7.553   1.316 -0.5532 -1.4453 -0.8534
 5003SOL    HW115550   3.059   7.513   1.366 -0.5570  0.5127  0.8725
 5003SOL    HW215551   2.910   7.501   1.338 -0.3288 -1.3258  0.2831
 5004SOL     OW15552   4.204   3.916   6.667  0.3106 -0.0174 -0.2149
 5004SOL    HW115553   4.115   3.892   6.639  0.9656 -1.5894 -1.1125
 5004SOL    HW215554   4.210   3.882   6.756  0.3083 -0.8248 -0.5053
 5005SOL     OW15555   3.095   1.552   1.907 -0.0255 -0.0150 -0.7226
 5005SOL    HW115556   3.136   1.475   1.868  1.0213 -0.1453  0.5908
 5005SOL    HW215557   3.006   1.523   1.929  0.0624 -0.5569 -1.0734
 5006SOL     OW15558   7.014   2.916   0.289 -0.8434  0.2424 -1.0165
 5006SOL    HW115559   7.055   2.970   0.356  2.2318 -0.9943 -1.7499
 5006SOL    HW215560   6.941   2.873   0.334 -0.6198  1.5803  0.7250
 5007SOL     OW15561   2.213   6.905   3.629  0.3723 -0.2941 -0.0226
 5007SOL    HW115562   2.274   6.979   3.620  1.3325 -1.2327 -1.5782
 5007SOL    HW215563   2.260   6.830   3.592 -1.3458 -1.2709 -0.3173
 5008SOL     OW15564   0.835   3.269   5.767 -0.5123 -0.5924 -0.3213
 5008SOL    HW115565   0.880   3.206   5.824 -1.6587 -0.6590  0.5450
 5008SOL    HW215566   0.745   3.271   5.800 -1.4143 -1.1425 -2.5567
 5009SOL     OW15567   2.339   1.069   7.223  0.4722  0.2111 -0.4954
 5009SOL    HW115568   2.320   1.105   7.309 -2.1262  1.8213 -1.6269
 5009SOL    HW215569   2.335   1.144   7.164  0.8245 -1.0628 -2.2267
 5010SOL     OW15570   1.272   2.484   3.696 -0.1640  0.1775  0.2054
 5010SOL    HW115571   1.251   2.453   3.784 -0.6943 -0.9658 -0.3004
 5010SOL    HW215572   1.300   2.574   3.708  0.9428 -0.3314  1.6868
 5011SOL     OW15573   7.015   2.188   1.770  0.3700 -0.2781 -0.2793
 5011SOL    HW115574   7.014   2.227   1.682  1.4007  1.5927  0.4662
 5011SOL    HW215575   7.092   2.132   1.770  0.2880 -0.3960 -0.6026
 5012SOL     OW15576   2.718   6.338   0.411 -0.2085  0.1557 -0.1379
 5012SOL    HW115577   2.805   6.305   0.391 -0.2866  0.9149 -1.8153
 5012SOL    HW215578   2.667   6.260   0.434  0.3933 -0.5434 -1.1235
 5013SOL     OW15579   2.505   2.819   7.536 -0.0895 -0.1386  0.6404
 5013SOL    HW115580   2.567   2.833   7.464 -0.3919 -2.7599 -0.2387
 5013SOL    HW215581   2.549   2.856   7.613  2.3456 -1.4008 -0.0480
 5014SOL     OW15582   1.997   2.438   2.542 -0.3840  0.7454  0.0667
 5014SOL    HW115583   1.963   2.365   2.491  0.1927  0.3554  0.2230
 5014SOL    HW215584   1.941   2.512   2.520 -0.4339  0.4666 -0.7657
 5015SOL     OW15585   3.284   1.427   2.947 -0.0124  0.3743 -0.4127
 5015SOL    HW115586   3.286   1.341   2.989  0.4537  0.9855  0.8755
 5015SOL    HW215587   3.246   1.411   2.860  0.6332 -1.2220 -0.4321
 5016SOL     OW15588   2.481   6.235   5.957 -0.5192 -0.2913 -0.3656
 5016SOL    HW115589   2.399   6.193   5.932 -0.3273 -0.7223 -0.2815
 5016SOL    HW215590   2.528   6.248   5.875 -0.8592  0.3619 -0.4619
 5017SOL     OW15591   3.260   3.775   3.557  0.4361 -0.8875  0.6756
 5017SOL    HW115592   3.214   3.756   3.640  2.0039 -0.7441  1.6066
 5017SOL    HW215593   3.325   3.705   3.549  0.6712 -0.5824 -0.1678
 5018SOL     OW15594   2.388   6.225   1.032 -0.2605 -0.3179  0.0005
 5018SOL    HW115595   2.348   6.213   1.118  0.2315 -1.4968  0.0777
 5018SOL    HW215596   2.415   6.137   1.005  0.8123  0.2274 -0.7627
 5019SOL     OW15597   6.462   7.544   6.630 -0.0953 -0.7200 -0.3617
 5019SOL    HW115598   6.501   7.623   6.667 -0.2215 -0.3028 -1.0928
 5019SOL    HW215599   6.528   7.476   6.643  0.0778 -0.4572  0.1295
 5020SOL     OW15600   3.239   6.874   5.219  0.1414  0.3649  0.1117
 5020SOL    HW115601   3.163   6.831   5.181  1.9187 -1.2189 -1.9014
 5020SOL    HW215602   3.204   6.954   5.259 -2.8370 -1.3351  1.2353
 5021SOL     OW15603   6.331   4.619   5.958  0.2625 -0.0170 -0.0507
 5021SOL    HW115604   6.315   4.688   6.022  0.1442 -0.1807  0.0960
 5021SOL    HW215605   6.244   4.601   5.921  0.3666  0.2495 -0.4339
 5022SOL     OW15606   1.202   5.740   4.388  0.3702  0.1857 -0.0066
 5022SOL    HW115607   1.193   5.684   4.465 -1.2752 -0.9336 -0.9537
 5022SOL    HW215608   1.294   5.733   4.363  1.0416  0.8726  2.0248
 5023SOL     OW15609   4.622   5.670   5.548 -0.3343  0.3079  0.0834
 5023SOL    HW115610   4.618   5.600   5.613 -1.2175  0.4106  0.1642
 5023SOL    HW215611   4.574   5.636   5.473 -0.1592  0.5565 -0.1415
 5024SOL     OW15612   6.136   4.020   6.087  0.0725  0.2183 -0.0122
 5024SOL    HW115613   6.076   4.016   6.013 -0.0689  1.0578  0.0432
 5024SOL    HW215614   6.080   4.038   6.162  0.4034  1.2481  0.0034
 5025SOL     OW15615   7.385   0.128   2.165  0.0107  0.1742 -0.0587
 5025SOL    HW115616   7.335   0.162   2.239 -0.8051  1.1493 -1.0068
 5025SOL    HW215617   7.476   0.138   2.191 -0.2686 -0.5576  1.2498
 5026SOL     OW15618   5.267   2.983   2.155  0.1614  0.3166 -0.3009
 5026SOL    HW115619   5.233   2.894   2.149  1.3506 -0.4331  2.4560
 5026SOL    HW215620   5.363   2.972   2.155  0.3460  1.6897 -0.6403
 5027SOL     OW15621   2.328   3.672   5.701  0.4148  0.2833 -0.3473
 5027SOL    HW115622   2.310   3.764   5.682 -0.0529  0.4615  0.9134
 5027SOL    HW215623   2.333   3.668   5.796 -1.8581 -1.4172 -0.2513
 5028SOL     OW15624   1.742   4.783   4.380  0.0031  0.0087  0.4714
 5028SOL    HW115625   1.776   4.872   4.375 -0.4759  0.1380 -1.2398
 5028SOL    HW215626   1.650   4.794   4.405  0.8736 -0.2914  4.2702
 5029SOL     OW15627   1.871   5.322   3.590  0.8250 -0.2056  0.0666
 5029SOL    HW115628   1.859   5.377   3.666  1.7761  0.0449  0.0429
 5029SOL    HW215629   1.895   5.382   3.519 -1.2807 -0.2643 -0.7838
 5030SOL     OW15630   7.030   2.993   1.980 -0.3602 -0.2177 -0.6547
 5030SOL    HW115631   7.021   3.086   1.959  0.6986  0.2697  0.8444
 5030SOL    HW215632   6.940   2.963   1.993 -0.7915  0.2802 -2.3185
 5031SOL     OW15633   6.933   4.790   5.241 -0.1191 -0.3505  0.1835
 5031SOL    HW115634   6.924   4.867   5.298 -0.6105 -0.3244  0.0732
 5031SOL    HW215635   6.859   4.796   5.181  0.0947 -0.6705 -0.1154
 5032SOL     OW15636   3.498   1.243   3.725  0.1539  0.0968 -0.7621
 5032SOL    HW115637   3.410   1.263   3.693  0.2663  1.2100 -0.4052
 5032SOL    HW215638   3.557   1.285   3.663  0.4477 -0.6827 -1.0241
 5033SOL     OW15639   1.754   3.791   5.042 -0.0141  0.1517  0.0816
 5033SOL    HW115640   1.776   3.704   5.009 -0.9672 -0.5006  1.0968
 5033SOL    HW215641   1.788   3.792   5.131  0.1675  0.9023  0.0061
 5034SOL     OW15642   1.748   1.393   4.182  0.3261  0.1866 -0.1223
 5034SOL    HW115643   1.699   1.323   4.227  0.9416 -0.9981 -1.2303
 5034SOL    HW215644   1.763   1.358   4.094  0.5700  1.7809 -0.7356
 5035SOL     OW15645   6.709   3.848   0.807 -0.3859 -0.2513  0.2382
 5035SOL    HW115646   6.728   3.815   0.895 -0.1010 -1.0475 -0.1154
 5035SOL    HW215647   6.654   3.781   0.767  2.4517 -1.7192 -1.4668
 5036SOL     OW15648   7.200   6.753   1.182  0.1207 -0.7819  0.3970
 5036SOL    HW115649   7.294   6.764   1.171 -0.1584  0.6649 -0.6978
 5036SOL    HW215650   7.172   6.707   1.103 -0.4517  1.1076 -0.5480
 5037SOL     OW15651   6.995   7.616   2.209  0.1948  0.3080 -0.2741
 5037SOL    HW115652   6.916   7.628   2.157 -0.3550  2.1138  0.8948
 5037SOL    HW215653   7.062   7.593   2.146 -1.2660 -1.4704 -1.2863
 5038SOL     OW15654   5.719   0.364   6.249  0.4383 -0.1633 -0.2808
 5038SOL    HW115655   5.628   0.369   6.278  0.7754 -0.1051  0.7945
 5038SOL    HW215656   5.734   0.270   6.235 -0.5362 -0.0123 -3.0408
 5039SOL     OW15657   1.636   4.245   3.646  0.5155  0.0770  0.1589
 5039SOL    HW115658   1.644   4.271   3.554  0.7884  0.9050  0.4111
 5039SOL    HW215659   1.621   4.327   3.693 -0.5156 -0.4403  0.7595
 5040SOL     OW15660   1.709   6.751   0.521 -0.7287 -0.0199  0.1040
 5040SOL    HW115661   1.672   6.703   0.595  1.4306 -1.3081  0.4307
 5040SOL    HW215662   1.726   6.839   0.555 -0.5718 -0.3395  0.8679
 5041SOL     OW15663   1.877   7.438   2.073 -0.4952 -0.6249  0.1007
 5041SOL    HW115664   1.938   7.464   2.141  1.5616  0.6540 -2.0830
 5041SOL    HW215665   1.875   7.343   2.077 -0.5137 -0.5752  1.9554
 5042SOL     OW15666   3.273   3.564   5.534  0.2140  0.1045 -0.5365
 5042SOL    HW115667   3.244   3.483   5.576  0.4712  0.3345  0.0817
 5042SOL    HW215668   3.291   3.624   5.606 -0.4119  0.8704 -0.9976
 5043SOL     OW15669   2.602   4.582   0.419  0.5746  0.4356  0.0372
 5043SOL    HW115670   2.670   4.545   0.362  0.0272 -0.8925  0.2126
 5043SOL    HW215671   2.556   4.506   0.453 -0.8073  1.3063  0.1756
 5044SOL     OW15672   1.036   2.474   4.173  0.7225  0.3337 -0.1079
 5044SOL    HW115673   0.951   2.503   4.140  0.3022 -0.9363 -0.2264
 5044SOL    HW215674   1.038   2.500   4.265 -0.2035 -0.4405  0.1450
 5045SOL     OW15675   4.297   5.022   7.362  0.5340 -0.3669 -0.3441
 5045SOL    HW115676   4.231   4.954   7.376  0.5076 -0.2770 -0.0317
 5045SOL    HW215677   4.350   5.021   7.441  0.0127  0.5566  0.0379
 5046SOL     OW15678   5.337   3.557   1.074 -0.2689 -0.3435  0.2285
 5046SOL    HW115679   5.352   3.463   1.067  0.1087 -0.2116 -1.0247
 5046SOL    HW215680   5.270   3.566   1.142 -1.3827 -1.6307 -0.6399
 5047SOL     OW15681   7.574   6.514   3.780 -0.6692  0.0254  0.5214
 5047SOL    HW115682   7.483   6.542   3.769 -1.2233 -1.1972  1.7178
 5047SOL    HW215683   7.576   6.473   3.867  0.9629 -0.2348  0.3918
 5048SOL     OW15684   2.711   7.166   4.419  0.1094  0.6943 -0.2075
 5048SOL    HW115685   2.763   7.128   4.349  1.4854 -0.2677  1.2615
 5048SOL    HW215686   2.622   7.137   4.402  0.4330  0.4166 -1.4946
 5049SOL     OW15687   1.916   1.703   5.527 -0.3729  0.5658  0.1876
 5049SOL    HW115688   1.989   1.758   5.498 -0.5340  2.2236  2.5937
 5049SOL    HW215689   1.916   1.712   5.623 -4.0916  1.1590  0.2947
 5050SOL     OW15690   4.170   2.293   4.861 -0.4407  0.4904  0.0112
 5050SOL    HW115691   4.144   2.363   4.921 -2.7829  0.5286 -0.9390
 5050SOL    HW215692   4.157   2.330   4.774  1.5289 -0.0464 -0.5601
 5051SOL     OW15693   2.250   3.351   0.675  0.3175  0.0568 -0.0690
 5051SOL    HW115694   2.288   3.318   0.756 -1.6245  0.5407  1.1109
 5051SOL    HW215695   2.168   3.302   0.665  1.1247 -0.9627 -2.4971
 5052SOL     OW15696   2.978   5.190   3.800  0.1395  0.2473  0.8140
 5052SOL    HW115697   3.010   5.276   3.770  1.0574  0.2723  1.7983
 5052SOL    HW215698   3.012   5.128   3.736  0.1856  0.5373  0.5547
 5053SOL     OW15699   2.722   1.658   3.977  0.0160 -0.3185 -0.1140
 5053SOL    HW115700   2.803   1.673   4.025  0.5712 -1.3073 -0.7170
 5053SOL    HW215701   2.677   1.590   4.027 -0.5094  0.3062  0.2819
 5054SOL     OW15702   3.101   6.523   0.961  0.5979  0.9996  0.4790
 5054SOL    HW115703   3.074   6.441   1.001 -2.0862  3.0983  3.4856
 5054SOL    HW215704   3.175   6.553   1.014  0.6207  1.2037  0.3338
 5055SOL     OW15705   5.612   7.322   5.430  0.2146 -0.0823 -0.1111
 5055SOL    HW115706   5.643   7.384   5.364  1.6011 -0.7658 -0.1304
 5055SOL    HW215707   5.645   7.238   5.401  1.0801 -0.3668  1.5816
 5056SOL     OW15708   5.179   2.197   4.412  0.2772 -0.1724 -0.7022
 5056SOL    HW115709   5.240   2.127   4.433  1.7909  1.3283  0.0964
 5056SOL    HW215710   5.234   2.269   4.380 -1.0509  1.2540  0.0667
 5057SOL     OW15711   6.557   3.482   1.588 -0.1233  0.5332 -0.1512
 5057SOL    HW115712   6.558   3.397   1.631 -1.5170  0.4794 -0.1904
 5057SOL    HW215713   6.642   3.487   1.542 -0.4231 -1.2551 -0.9765
 5058SOL     OW15714   7.270   6.947   2.522 -0.4579  0.4093  0.1858
 5058SOL    HW115715   7.178   6.931   2.545 -0.2918 -1.4681 -0.2683
 5058SOL    HW215716   7.266   6.995   2.439 -1.0297  0.9003  0.4942
 5059SOL     OW15717   3.524   3.196   7.622  0.1503 -0.4908  0.1428
 5059SOL    HW115718   3.608   3.242   7.619 -0.5856  0.9203  0.4628
 5059SOL    HW215719   3.509   3.168   7.532  0.3119  0.4965 -0.2093
 5060SOL     OW15720   1.801   3.744   7.212 -0.1688 -0.3487  0.0510
 5060SOL    HW115721   1.858   3.672   7.237 -0.7429 -0.7949  0.0953
 5060SOL    HW215722   1.760   3.772   7.293 -0.8352 -0.7521 -0.1412
 5061SOL     OW15723   2.874   4.307   2.413  0.9728  0.7810 -0.5053
 5061SOL    HW115724   2.824   4.361   2.474  0.8125  0.8609 -0.7060
 5061SOL    HW215725   2.817   4.232   2.396  0.3543  1.5060 -1.7503
 5062SOL     OW15726   2.188   2.278   5.751  0.7263 -0.0737  0.1614
 5062SOL    HW115727   2.202   2.200   5.698 -0.4695 -0.3142  0.1763
 5062SOL    HW215728   2.191   2.248   5.842  0.9953  0.0256  0.1859
 5063SOL     OW15729   6.414   4.238   3.655  0.2100 -1.0144  0.0324
 5063SOL    HW115730   6.351   4.247   3.584  1.4919 -0.0681 -1.0388
 5063SOL    HW215731   6.402   4.317   3.709  1.0708 -0.3526 -0.7057
 5064SOL     OW15732   6.349   2.467   2.523 -0.4973  0.5045  0.0395
 5064SOL    HW115733   6.441   2.489   2.536 -0.2786  0.3114 -1.0537
 5064SOL    HW215734   6.342   2.376   2.552  0.1490 -0.1695 -1.7684
 5065SOL     OW15735   2.011   1.255   7.083 -0.3548  0.1642 -0.3744
 5065SOL    HW115736   1.994   1.165   7.112  2.3920 -0.1941  0.4656
 5065SOL    HW215737   2.018   1.305   7.165 -0.3556  0.8198 -0.7731
 5066SOL     OW15738   5.148   6.612   3.232  0.1023  0.2654  0.2760
 5066SOL    HW115739   5.105   6.696   3.219  0.3743  0.6838  1.9022
 5066SOL    HW215740   5.076   6.550   3.248 -0.1233  0.0731 -1.2944
 5067SOL     OW15741   1.551   2.142   1.617  0.2309  0.2045 -0.2585
 5067SOL    HW115742   1.496   2.109   1.546  0.9475 -0.9489 -0.2906
 5067SOL    HW215743   1.637   2.154   1.578  0.0814  1.8968 -0.1729
 5068SOL     OW15744   3.867   6.843   4.179  0.5182  0.4134 -0.1239
 5068SOL    HW115745   3.826   6.762   4.209  1.7441 -0.8305 -1.6338
 5068SOL    HW215746   3.794   6.902   4.159 -0.3886 -0.3138  0.9850
 5069SOL     OW15747   5.320   4.499   6.229 -0.0433  0.1929  0.0896
 5069SOL    HW115748   5.259   4.547   6.286  0.1921  0.2280  0.3147
 5069SOL    HW215749   5.402   4.497   6.279  0.3945  0.9097 -0.5740
 5070SOL     OW15750   6.757   4.661   2.793 -0.0301  0.0806 -0.4580
 5070SOL    HW115751   6.786   4.633   2.706 -1.1591 -0.8365 -0.5584
 5070SOL    HW215752   6.727   4.751   2.780 -2.0597 -0.6890 -1.4871
 5071SOL     OW15753   3.331   1.068   7.143 -0.2172 -0.1485  0.2572
 5071SOL    HW115754   3.297   1.124   7.074 -0.6242  0.8957  1.2779
 5071SOL    HW215755   3.325   1.121   7.222  1.7923 -0.7084  0.8416
 5072SOL     OW15756   6.399   0.395   6.782  0.1360  0.3161 -0.2277
 5072SOL    HW115757   6.439   0.452   6.716  0.6404  0.7243  0.4151
 5072SOL    HW215758   6.464   0.391   6.852  0.7585 -2.2623 -0.8732
 5073SOL     OW15759   4.581   6.600   4.112  0.3666  0.5507  0.2449
 5073SOL    HW115760   4.571   6.507   4.131 -0.5187  0.1040 -2.0773
 5073SOL    HW215761   4.494   6.628   4.081  1.3552  1.3281 -2.0711
 5074SOL     OW15762   0.496   6.462   3.560 -0.8131 -0.1595  0.0548
 5074SOL    HW115763   0.443   6.485   3.485 -1.0715  0.7885  0.5109
 5074SOL    HW215764   0.446   6.394   3.606 -0.1983 -1.4728 -1.1262
 5075SOL     OW15765   5.668   0.609   0.022 -0.4632  0.9643 -0.0647
 5075SOL    HW115766   5.648   0.606   0.116 -1.8628 -0.9803 -0.3535
 5075SOL    HW215767   5.721   0.688   0.011 -0.9087  1.6638  2.2314
 5076SOL     OW15768   1.951   1.248   2.002  0.0297 -0.3970  0.2256
 5076SOL    HW115769   1.888   1.254   1.930  1.9733  0.1085 -1.5512
 5076SOL    HW215770   1.935   1.326   2.054 -0.6272 -0.1218 -0.3661
 5077SOL     OW15771   5.886   4.823   1.460  0.0224  0.2063  0.3526
 5077SOL    HW115772   5.899   4.849   1.551  0.3806 -1.4277  0.8050
 5077SOL    HW215773   5.792   4.806   1.453  0.4450 -3.3242  1.5419
 5078SOL     OW15774   0.409   2.389   0.250  0.1467 -0.0604 -0.1136
 5078SOL    HW115775   0.477   2.331   0.214 -1.0914 -0.5744 -1.7134
 5078SOL    HW215776   0.391   2.354   0.337  0.8897 -0.8035 -0.2508
 5079SOL     OW15777   2.423   2.993   4.487  0.1919 -0.3783  0.1561
 5079SOL    HW115778   2.468   3.019   4.567  1.0787  0.4355 -0.5839
 5079SOL    HW215779   2.335   2.969   4.516  0.2438  0.6772  1.2666
 5080SOL     OW15780   1.297   4.469   5.816  0.1535 -0.0936 -0.0894
 5080SOL    HW115781   1.255   4.523   5.883  0.1997  1.1170 -1.0050
 5080SOL    HW215782   1.226   4.415   5.780  0.1817 -0.9608  1.0937
 5081SOL     OW15783   5.205   6.566   3.785  0.2233  0.3394  0.2988
 5081SOL    HW115784   5.213   6.575   3.690 -3.0152 -0.2201 -0.1673
 5081SOL    HW215785   5.251   6.485   3.806  0.1940 -0.0243 -0.9577
 5082SOL     OW15786   6.476   6.691   1.903 -0.6227 -0.5417  0.1727
 5082SOL    HW115787   6.554   6.719   1.952  0.5250 -1.5533 -1.0269
 5082SOL    HW215788   6.475   6.596   1.913 -0.6600 -0.7133 -1.3265
 5083SOL     OW15789   2.322   4.388   6.357  0.8801 -0.2214 -0.2193
 5083SOL    HW115790   2.286   4.474   6.338 -0.3642 -0.8181 -0.6128
 5083SOL    HW215791   2.405   4.385   6.309  0.7505  0.6032 -0.5003
 5084SOL     OW15792   7.198   5.330   0.334 -1.0259 -0.3211  0.1824
 5084SOL    HW115793   7.190   5.362   0.245 -0.3588  1.1178  0.6150
 5084SOL    HW215794   7.226   5.239   0.325 -1.3010 -0.2957 -1.0628
 5085SOL     OW15795   0.896   1.286   7.487  0.5703 -0.5772 -0.7228
 5085SOL    HW115796   0.838   1.218   7.522  1.6981 -2.0924 -1.6868
 5085SOL    HW215797   0.896   1.271   7.392  3.8497 -1.8214 -0.6600
 5086SOL     OW15798   3.824   0.681   0.912  0.3426 -0.0396  0.1741
 5086SOL    HW115799   3.789   0.685   1.001 -0.7453 -0.5536 -0.2139
 5086SOL    HW215800   3.870   0.597   0.909 -0.3000 -0.3889  0.0152
 5087SOL     OW15801   0.316   5.640   6.323  0.1946 -0.0653 -0.4186
 5087SOL    HW115802   0.314   5.583   6.400  0.4308  0.7819  0.2344
 5087SOL    HW215803   0.324   5.728   6.359  0.3702  0.3427 -1.4217
 5088SOL     OW15804   2.960   0.804   4.265  0.1914 -0.3678 -0.2228
 5088SOL    HW115805   3.049   0.814   4.301 -0.3877 -1.5470  1.7024
 5088SOL    HW215806   2.924   0.892   4.267  0.3805 -0.2782  1.7546
 5089SOL     OW15807   6.993   1.917   5.299 -0.1466  0.4215  0.0259
 5089SOL    HW115808   6.999   1.853   5.370  1.5485 -0.0623 -0.4874
 5089SOL    HW215809   6.900   1.932   5.287 -1.0980 -4.9876 -2.4314
 5090SOL     OW15810   7.247   3.518   3.942 -1.2369  0.4275 -0.1737
 5090SOL    HW115811   7.292   3.532   3.859 -0.4031  1.3924  0.4209
 5090SOL    HW215812   7.273   3.430   3.969 -0.6147  0.5409 -0.3972
 5091SOL     OW15813   1.702   6.547   1.662  0.0868  1.3174 -0.3240
 5091SOL    HW115814   1.751   6.621   1.627  1.5688  0.6699  0.3213
 5091SOL    HW215815   1.697   6.485   1.589  1.3454  0.8605 -0.0464
 5092SOL     OW15816   2.556   6.932   6.703  0.5607 -0.0318 -0.6201
 5092SOL    HW115817   2.517   7.001   6.755  2.0001 -0.2763  0.8808
 5092SOL    HW215818   2.491   6.912   6.636 -1.2373  0.5501  0.8589
 5093SOL     OW15819   2.953   5.546   2.672  1.5498  0.0268 -0.1390
 5093SOL    HW115820   2.896   5.470   2.684  2.8337 -0.9535  0.0608
 5093SOL    HW215821   2.910   5.616   2.720 -0.5624 -0.0580 -1.7474
 5094SOL     OW15822   3.490   4.106   6.683 -0.2958  0.4121 -0.4182
 5094SOL    HW115823   3.586   4.116   6.680 -0.3779  1.1082 -3.0830
 5094SOL    HW215824   3.476   4.013   6.666 -0.1104 -0.0065  1.4857
 5095SOL     OW15825   6.791   4.410   0.278  0.2054 -0.0504  0.1762
 5095SOL    HW115826   6.861   4.448   0.330  0.3530  0.5539 -0.4377
 5095SOL    HW215827   6.798   4.316   0.291  0.9871  0.0223  0.2948
 5096SOL     OW15828   0.849   6.715   3.514  0.2601 -0.6311  0.0786
 5096SOL    HW115829   0.935   6.748   3.542 -0.4242  0.2224  1.2721
 5096SOL    HW215830   0.817   6.782   3.453  0.1686 -0.6047  0.1545
 5097SOL     OW15831   3.813   0.068   4.706  0.5699  0.1723  0.1609
 5097SOL    HW115832   3.882   0.033   4.650 -0.2793  0.0069 -0.8240
 5097SOL    HW215833   3.779   0.143   4.657 -1.1689 -0.8412 -0.2926
 5098SOL     OW15834   1.827   6.078   5.974 -0.0214  0.0927  0.3343
 5098SOL    HW115835   1.734   6.104   5.975 -0.0253  0.0925 -0.0006
 5098SOL    HW215836   1.825   5.982   5.982 -0.0539  0.0844  0.2294
 5099SOL     OW15837   7.574   5.179   6.098 -0.0509  0.3014  0.6574
 5099SOL    HW115838   7.548   5.217   6.182 -0.9136 -1.2229  1.1218
 5099SOL    HW215839   7.522   5.099   6.091  0.6796 -0.0742 -0.9193
 5100SOL     OW15840   1.941   1.225   2.646 -0.3704 -0.1382 -0.2255
 5100SOL    HW115841   2.013   1.185   2.596 -0.0002 -0.3525  0.4732
 5100SOL    HW215842   1.985   1.278   2.713 -0.8572 -1.0173  0.8035
 5101SOL     OW15843   0.547   0.026   1.619  0.6578 -0.1308  0.1598
 5101SOL    HW115844   0.501   0.110   1.628  1.4885  0.2773  0.8163
 5101SOL    HW215845   0.615   0.043   1.554  1.4366  0.0091  0.9791
 5102SOL     OW15846   2.955   0.472   2.614 -0.0615 -0.6847 -0.5478
 5102SOL    HW115847   3.007   0.495   2.691 -0.1684 -0.3190 -0.5869
 5102SOL    HW215848   2.932   0.555   2.573 -0.8991 -0.8280 -0.3924
 5103SOL     OW15849   5.504   1.978   6.184  0.7629 -0.3614  0.2736
 5103SOL    HW115850   5.563   1.986   6.109 -0.5457  2.1355 -0.6036
 5103SOL    HW215851   5.538   1.903   6.233  2.6144 -1.1006 -1.9469
 5104SOL     OW15852   5.554   2.595   7.062 -0.0458  0.2698  0.3794
 5104SOL    HW115853   5.636   2.644   7.049 -0.3834  1.4291  2.3127
 5104SOL    HW215854   5.491   2.638   7.005 -0.2333  1.9277  1.7512
 5105SOL     OW15855   5.555   1.436   5.865  0.2664 -0.2502 -0.6412
 5105SOL    HW115856   5.464   1.417   5.843  0.1122  0.3299 -0.5086
 5105SOL    HW215857   5.605   1.407   5.789  0.1194 -1.9349 -0.1362
 5106SOL     OW15858   5.998   2.833   7.449 -0.3929  0.3872  0.2428
 5106SOL    HW115859   5.985   2.902   7.385  1.6085  0.6074 -0.0006
 5106SOL    HW215860   5.924   2.774   7.437 -0.4139  0.7739 -1.8272
 5107SOL     OW15861   2.595   7.190   2.905  0.0921 -0.0112  0.6002
 5107SOL    HW115862   2.641   7.201   2.988 -0.8338  0.4389  1.0734
 5107SOL    HW215863   2.636   7.254   2.847  1.5964 -1.1943  0.3136
 5108SOL     OW15864   2.384   4.928   6.736  0.1499  0.0400  0.3350
 5108SOL    HW115865   2.474   4.909   6.763 -0.0493 -0.0531  0.9528
 5108SOL    HW215866   2.378   4.892   6.647  0.7920  0.2634  0.1956
 5109SOL     OW15867   6.795   5.339   1.551 -0.2504 -0.0574  0.0951
 5109SOL    HW115868   6.854   5.339   1.475  1.4100  4.0574  1.0962
 5109SOL    HW215869   6.854   5.338   1.626 -1.6663  0.1369  1.2412
 5110SOL     OW15870   6.226   3.242   1.430  0.1315  0.3239 -0.0013
 5110SOL    HW115871   6.201   3.152   1.409 -1.1851  1.1005 -2.0066
 5110SOL    HW215872   6.319   3.248   1.405  0.2420 -0.4779  0.1915
 5111SOL     OW15873   0.510   3.119   4.607  0.7626 -0.3758 -0.0149
 5111SOL    HW115874   0.552   3.197   4.572 -0.5007  0.9119  1.2022
 5111SOL    HW215875   0.527   3.051   4.542  0.8884  1.1952 -1.6884
 5112SOL     OW15876   7.198   2.372   6.488 -0.1115 -0.1707 -0.0784
 5112SOL    HW115877   7.223   2.416   6.407  0.8490 -0.7829 -0.1276
 5112SOL    HW215878   7.141   2.435   6.532  0.7935  0.9125 -0.3886
 5113SOL     OW15879   2.264   5.596   3.740 -0.2576  0.0850  0.1776
 5113SOL    HW115880   2.341   5.565   3.692 -1.0917 -0.1956 -1.0156
 5113SOL    HW215881   2.274   5.691   3.743 -1.0776  0.3092 -2.2165
 5114SOL     OW15882   3.577   3.232   5.653 -0.2405 -0.0199 -0.3765
 5114SOL    HW115883   3.670   3.247   5.639 -0.2522  1.1258  0.6925
 5114SOL    HW215884   3.559   3.263   5.741 -1.7348  0.2155 -0.7227
 5115SOL     OW15885   7.485   0.366   6.482 -0.1720  0.1552 -0.1995
 5115SOL    HW115886   7.566   0.349   6.435 -0.6267 -1.0955 -0.5479
 5115SOL    HW215887   7.421   0.306   6.444 -0.9861  0.3467  0.8213
 5116SOL     OW15888   5.671   3.707   5.799  0.0932 -0.5946  0.0482
 5116SOL    HW115889   5.756   3.730   5.762 -0.2143  1.8115  0.6376
 5116SOL    HW215890   5.611   3.709   5.724 -0.0252  1.3778  0.1396
 5117SOL     OW15891   1.509   3.271   5.325 -0.2062 -0.0880  0.5132
 5117SOL    HW115892   1.515   3.252   5.419  0.7882 -0.0104  0.4707
 5117SOL    HW215893   1.502   3.185   5.284 -3.3066 -0.0997  0.7794
 5118SOL     OW15894   0.282   3.739   5.605  0.1716  0.0207  0.1570
 5118SOL    HW115895   0.306   3.776   5.689 -1.7907  0.6762  0.4799
 5118SOL    HW215896   0.339   3.783   5.542 -0.4319  1.7981  0.8078
 5119SOL     OW15897   3.188   4.594   2.963  0.0157  0.2362  0.1522
 5119SOL    HW115898   3.277   4.628   2.951 -0.2569  1.1774  0.6737
 5119SOL    HW215899   3.141   4.621   2.884  1.2277 -4.0895 -2.3530
 5120SOL     OW15900   0.864   4.344   3.403 -0.1230 -0.2848  0.1501
 5120SOL    HW115901   0.893   4.283   3.471  0.8033  1.1561  1.1196
 5120SOL    HW215902   0.777   4.314   3.379 -0.7876 -0.4482  2.5052
 5121SOL     OW15903   6.550   2.831   0.968 -0.7702  0.0839 -0.1633
 5121SOL    HW115904   6.524   2.823   1.060 -0.5133 -0.0094 -0.0970
 5121SOL    HW215905   6.579   2.743   0.944 -0.4601  0.1990 -0.2171
 5122SOL     OW15906   1.529   5.245   4.010  0.2186  0.0711 -0.2870
 5122SOL    HW115907   1.605   5.202   3.974  0.1767  0.6011 -1.0369
 5122SOL    HW215908   1.543   5.245   4.105 -0.1347 -2.2066 -0.1810
 5123SOL     OW15909   4.728   7.602   1.247  0.2335  0.7298  0.8458
 5123SOL    HW115910   4.723   7.680   1.302  0.8943  0.4001  1.3843
 5123SOL    HW215911   4.673   7.623   1.172 -0.2108  1.4172  1.3458
 5124SOL     OW15912   4.768   1.455   2.946  0.1120  0.2664 -0.4322
 5124SOL    HW115913   4.803   1.399   3.015 -0.8768 -0.6407 -0.6311
 5124SOL    HW215914   4.828   1.444   2.873  0.6858  0.5566 -0.0155
 5125SOL     OW15915   2.737   5.820   3.499  0.1490 -0.1589  0.2539
 5125SOL    HW115916   2.816   5.766   3.500 -0.1283 -0.6033 -0.4354
 5125SOL    HW215917   2.717   5.831   3.406  0.6723  1.8592  0.3354
 5126SOL     OW15918   7.160   1.984   4.926  0.0977 -0.1214  0.5434
 5126SOL    HW115919   7.069   2.013   4.931  0.1652 -0.0987  2.7893
 5126SOL    HW215920   7.210   2.065   4.922  0.0445 -0.1375 -0.9725
 5127SOL     OW15921   1.825   4.691   0.146 -0.3290 -0.1879 -0.6256
 5127SOL    HW115922   1.884   4.642   0.203 -2.5844 -1.5605  0.6816
 5127SOL    HW215923   1.743   4.642   0.149 -1.4448  1.3815 -2.7132
 5128SOL     OW15924   0.056   7.374   5.258 -0.2815  0.6565  0.6729
 5128SOL    HW115925   0.082   7.451   5.308 -1.2158  0.7640  1.0065
 5128SOL    HW215926   0.026   7.311   5.323  1.9403 -0.6301  0.5558
 5129SOL     OW15927   6.602   6.840   5.878  0.4313  0.3061 -0.0759
 5129SOL    HW115928   6.695   6.856   5.893  0.3981 -0.8137  1.6020
 5129SOL    HW215929   6.592   6.745   5.886 -1.0606  0.5314  1.3417
 5130SOL     OW15930   2.761   3.045   5.159  0.7156  0.3230  0.0527
 5130SOL    HW115931   2.840   2.991   5.153 -0.1338 -0.8617 -1.5881
 5130SOL    HW215932   2.730   3.034   5.249 -0.2913 -3.3736 -0.5596
 5131SOL     OW15933   5.931   7.260   1.183  0.4806  0.7084  0.6783
 5131SOL    HW115934   5.972   7.176   1.202 -0.5962 -0.0096 -0.0861
 5131SOL    HW215935   5.840   7.239   1.160  0.4600  1.9631 -0.5797
 5132SOL     OW15936   3.039   4.485   0.265  0.2337 -0.2024  0.6401
 5132SOL    HW115937   2.945   4.469   0.255 -0.0262  1.6772 -0.3554
 5132SOL    HW215938   3.077   4.459   0.181  0.2098  1.4052  0.0951
 5133SOL     OW15939   5.501   4.966   3.467 -0.3371 -0.2228  0.3541
 5133SOL    HW115940   5.537   5.052   3.487 -1.2704  0.1118  0.6329
 5133SOL    HW215941   5.406   4.979   3.466 -0.4647 -1.1151 -0.2303
 5134SOL     OW15942   0.533   1.481   0.703  0.2765  0.5108  0.1835
 5134SOL    HW115943   0.494   1.529   0.777  0.8067  1.7753 -0.3410
 5134SOL    HW215944   0.488   1.397   0.704  0.4386  0.3921  2.1023
 5135SOL     OW15945   4.271   1.237   2.651  0.3270  0.3054 -0.0080
 5135SOL    HW115946   4.324   1.158   2.651  0.4404  0.3680 -1.1388
 5135SOL    HW215947   4.330   1.307   2.680  1.1120  0.5093 -1.9415
 5136SOL     OW15948   0.440   7.081   2.187 -0.2926  0.3437  0.0714
 5136SOL    HW115949   0.363   7.080   2.243  0.2117  0.2141  0.7890
 5136SOL    HW215950   0.406   7.094   2.098 -1.1731 -0.3507  0.2986
 5137SOL     OW15951   5.493   3.062   0.172 -0.0463 -0.0613 -0.2640
 5137SOL    HW115952   5.439   3.075   0.249 -2.1365 -1.9822 -1.2620
 5137SOL    HW215953   5.576   3.030   0.206 -0.5101  0.2549  1.2290
 5138SOL     OW15954   5.233   3.118   3.662  0.4996  0.1926 -0.5591
 5138SOL    HW115955   5.272   3.096   3.578  1.5534 -1.8196  0.3867
 5138SOL    HW215956   5.307   3.146   3.716 -0.2598  2.1962 -0.4431
 5139SOL     OW15957   2.824   2.863   1.037  0.2177 -0.4010  0.1104
 5139SOL    HW115958   2.863   2.905   0.960 -0.3268 -0.3630 -0.1517
 5139SOL    HW215959   2.775   2.789   1.001  0.7820 -0.9845  0.5246
 5140SOL     OW15960   0.494   5.981   2.122  0.4604  0.6438  1.4603
 5140SOL    HW115961   0.496   5.944   2.210  0.4036  0.6940  1.4829
 5140SOL    HW215962   0.406   6.017   2.114 -2.1410 -5.0712 -0.9939
 5141SOL     OW15963   3.973   3.348   1.961 -0.1688 -0.1112 -0.2466
 5141SOL    HW115964   3.956   3.293   2.037 -0.0803  0.3663  0.1248
 5141SOL    HW215965   4.066   3.369   1.966 -0.3149  0.5107 -0.0882
 5142SOL     OW15966   1.128   2.299   0.187 -0.5579 -0.0362  0.3806
 5142SOL    HW115967   1.152   2.207   0.174 -0.8272 -0.0903  0.2333
 5142SOL    HW215968   1.151   2.318   0.278 -2.8224 -0.9939  1.2269
 5143SOL     OW15969   7.011   3.277   4.889  0.2778 -0.2996  0.0852
 5143SOL    HW115970   6.986   3.185   4.888 -0.2175 -0.1727 -1.2593
 5143SOL    HW215971   7.085   3.283   4.828  0.7669  0.0855  0.6960
 5144SOL     OW15972   6.574   5.082   4.386  0.0590  0.0441  0.2970
 5144SOL    HW115973   6.608   5.103   4.298  1.2449  1.3514  1.0251
 5144SOL    HW215974   6.508   5.015   4.370  0.9200 -0.4567 -1.5042
 5145SOL     OW15975   2.880   2.187   3.878 -0.3256 -0.0640 -0.2058
 5145SOL    HW115976   2.879   2.110   3.820  1.3121  0.1277 -0.5279
 5145SOL    HW215977   2.890   2.150   3.965 -2.2381 -0.3240 -0.0497
 5146SOL     OW15978   7.429   3.978   2.362 -0.1885  0.0574  0.7317
 5146SOL    HW115979   7.494   3.942   2.302  0.6383  1.8271  0.5034
 5146SOL    HW215980   7.348   3.980   2.311  0.3793  1.0188 -0.1602
 5147SOL     OW15981   6.678   1.094   7.514 -0.3476 -0.6708  0.0490
 5147SOL    HW115982   6.667   1.100   7.419 -1.4730  0.3899  0.2249
 5147SOL    HW215983   6.589   1.088   7.549  0.0909 -2.1656  0.9994
 5148SOL     OW15984   2.743   3.180   4.564 -0.1479  0.0923 -0.1893
 5148SOL    HW115985   2.657   3.219   4.579  1.0237  2.4419  0.9752
 5148SOL    HW215986   2.750   3.112   4.631 -1.1369 -0.2521 -0.4140
 5149SOL     OW15987   3.389   0.326   2.889  0.7808  0.2358  0.0617
 5149SOL    HW115988   3.303   0.348   2.925 -0.0742 -0.9030 -1.2012
 5149SOL    HW215989   3.438   0.292   2.965 -0.7325 -1.4056  0.3836
 5150SOL     OW15990   0.233   2.502   1.330  0.1668 -0.0835 -0.0557
 5150SOL    HW115991   0.271   2.478   1.415  1.7492 -0.2176 -0.7623
 5150SOL    HW215992   0.249   2.596   1.323 -0.6178  0.0675  0.0958
 5151SOL     OW15993   3.938   2.702   1.288 -0.6631 -0.7104 -0.2245
 5151SOL    HW115994   3.968   2.689   1.378 -0.0714  0.1696 -0.2827
 5151SOL    HW215995   3.989   2.638   1.237 -2.9241 -3.1310  0.3580
 5152SOL     OW15996   5.730   4.143   1.967  0.1305  0.1004  0.2933
 5152SOL    HW115997   5.749   4.152   2.060  1.0559 -1.5494  0.3170
 5152SOL    HW215998   5.635   4.149   1.961  0.1783  2.8455  0.9571
 5153SOL     OW15999   7.619   4.118   1.310  0.0514  0.2479 -0.5100
 5153SOL    HW116000   7.539   4.167   1.328 -0.7486 -0.8082 -1.0878
 5153SOL    HW216001   7.594   4.054   1.244  0.9708 -1.1845  0.4687
 5154SOL     OW16002   1.687   6.682   4.261  0.3373  0.1027  0.7367
 5154SOL    HW116003   1.613   6.717   4.311  0.2369 -0.9310  1.3255
 5154SOL    HW216004   1.725   6.616   4.317  1.8981  0.8031  0.5434
 5155SOL     OW16005   7.585   2.828   4.905  0.1267  0.5543  0.3028
 5155SOL    HW116006   7.494   2.835   4.878  0.4251  0.5373 -0.7427
 5155SOL    HW216007   7.597   2.899   4.967 -1.2936 -1.0343  2.5643
 5156SOL     OW16008   1.335   1.479   4.160  0.4059 -0.1867 -0.1329
 5156SOL    HW116009   1.362   1.428   4.083  0.7176 -2.1518  1.1933
 5156SOL    HW216010   1.243   1.498   4.146  0.4364 -0.6113 -0.9503
 5157SOL     OW16011   0.435   4.869   2.809  0.2905  0.5033  0.4212
 5157SOL    HW116012   0.468   4.786   2.841  0.9118  1.4713  2.4644
 5157SOL    HW216013   0.482   4.884   2.727  0.2382 -1.0591  0.0734
 5158SOL     OW16014   6.925   3.156   5.663  0.7082  0.0919 -0.7169
 5158SOL    HW116015   6.905   3.158   5.570  2.7660 -2.5486 -1.3265
 5158SOL    HW216016   6.891   3.072   5.694  0.7678  0.5737  0.7481
 5159SOL     OW16017   5.436   7.536   5.086 -0.6052 -0.1466  1.1342
 5159SOL    HW116018   5.390   7.607   5.131  0.3016  0.6057  0.9108
 5159SOL    HW216019   5.526   7.568   5.075 -0.4838 -0.8322 -0.0908
 5160SOL     OW16020   6.002   1.244   0.707  0.1919  0.2445  0.1823
 5160SOL    HW116021   6.036   1.333   0.710 -0.8075  0.7006 -0.9681
 5160SOL    HW216022   5.940   1.240   0.780  0.8238  0.2134  0.7319
 5161SOL     OW16023   4.576   7.157   2.499  0.4688  0.1537 -0.2206
 5161SOL    HW116024   4.499   7.117   2.459  0.8072 -1.2843  0.5000
 5161SOL    HW216025   4.553   7.249   2.509 -1.0000 -0.1758 -0.3858
 5162SOL     OW16026   2.356   0.032   0.540 -0.6034  0.1633 -0.5885
 5162SOL    HW116027   2.331   0.122   0.520  0.6257  0.7716  0.5193
 5162SOL    HW216028   2.292   0.003   0.605  0.3103  1.0201  0.7233
 5163SOL     OW16029   6.344   6.303   3.184 -0.0250 -0.2790  0.3689
 5163SOL    HW116030   6.315   6.212   3.176 -1.3608 -0.2079  3.2619
 5163SOL    HW216031   6.388   6.307   3.269  0.9908  1.5696 -0.1913
 5164SOL     OW16032   4.268   4.736   6.519 -0.4637 -0.0310 -0.8443
 5164SOL    HW116033   4.178   4.766   6.512  0.0013  1.5765 -0.3991
 5164SOL    HW216034   4.306   4.752   6.433  0.0722  1.7474 -0.3142
 5165SOL     OW16035   4.474   0.166   6.066 -0.0957  0.1752  0.1207
 5165SOL    HW116036   4.517   0.250   6.048 -2.4124  1.5793  0.6357
 5165SOL    HW216037   4.542   0.113   6.106  1.2435  2.1332  0.6257
 5166SOL     OW16038   0.126   3.490   1.872 -0.3421 -0.3879 -0.2526
 5166SOL    HW116039   0.096   3.449   1.791 -0.5203  1.8410 -1.3663
 5166SOL    HW216040   0.220   3.472   1.875 -0.5332 -1.4554 -0.3339
 5167SOL     OW16041   7.279   6.003   3.555 -0.7328 -0.4190 -0.4303
 5167SOL    HW116042   7.290   6.097   3.563 -0.2818 -0.3010 -2.0633
 5167SOL    HW216043   7.264   5.988   3.462 -0.4387 -1.9850 -0.2619
 5168SOL     OW16044   7.568   3.095   3.642 -1.0597  0.1857  0.1096
 5168SOL    HW116045   7.629   3.022   3.634  0.8405  1.7868 -0.9645
 5168SOL    HW216046   7.483   3.058   3.618 -0.2878 -1.7961  0.2414
 5169SOL     OW16047   5.707   4.800   2.049  0.1713  0.0252  0.2363
 5169SOL    HW116048   5.773   4.865   2.025  0.6522 -0.2659  0.7322
 5169SOL    HW216049   5.722   4.784   2.142 -0.6369 -0.0111  0.3720
 5170SOL     OW16050   0.930   0.241   2.986  0.1820  0.0659  0.0040
 5170SOL    HW116051   0.967   0.198   3.063  2.4211 -0.7186 -1.4065
 5170SOL    HW216052   0.990   0.219   2.915 -1.8436  0.6638 -2.0198
 5171SOL     OW16053   1.140   3.520   4.039 -0.0173 -0.3617  0.4359
 5171SOL    HW116054   1.115   3.473   3.959 -0.1346  0.6077 -0.1137
 5171SOL    HW216055   1.058   3.557   4.071  0.1237 -0.2595  0.6802
 5172SOL     OW16056   2.585   6.475   7.607  0.3505 -0.2690 -0.0754
 5172SOL    HW116057   2.535   6.395   7.587  0.5915 -0.6121  0.6539
 5172SOL    HW216058   2.553   6.539   7.543 -2.8072  0.2817  1.8096
 5173SOL     OW16059   2.415   4.470   5.575  0.2524  0.3019  0.2447
 5173SOL    HW116060   2.373   4.538   5.523  1.2717  0.6233 -0.1977
 5173SOL    HW216061   2.444   4.514   5.655  0.0975  0.1802  0.3671
 5174SOL     OW16062   1.533   7.456   5.387 -0.5182  0.2968 -0.3480
 5174SOL    HW116063   1.531   7.407   5.305  1.4273  0.7654 -0.7388
 5174SOL    HW216064   1.574   7.396   5.450 -1.7973  0.0186  0.2453
 5175SOL     OW16065   5.379   1.685   3.899 -0.5700  0.3573 -0.9517
 5175SOL    HW116066   5.292   1.693   3.938 -0.4349 -0.7932 -0.3839
 5175SOL    HW216067   5.372   1.611   3.839 -0.0984  0.5480 -1.2529
 5176SOL     OW16068   6.006   3.605   5.980  0.3202  0.5773 -0.2052
 5176SOL    HW116069   5.930   3.658   6.005 -1.1171 -0.7248 -1.5775
 5176SOL    HW216070   6.020   3.625   5.888  0.2413 -0.8105 -0.5447
 5177SOL     OW16071   0.145   0.103   6.110 -0.0739  0.2071  0.3916
 5177SOL    HW116072   0.202   0.165   6.065 -1.3293  1.0749 -0.0612
 5177SOL    HW216073   0.066   0.152   6.129 -1.8953 -1.6834 -1.6586
 5178SOL     OW16074   0.597   5.066   5.381  0.4079 -0.1149 -0.4690
 5178SOL    HW116075   0.676   5.080   5.328  0.9582  0.3360  0.4418
 5178SOL    HW216076   0.532   5.032   5.319  1.6450 -1.5848 -1.0370
 5179SOL     OW16077   5.193   3.927   0.610 -0.3717  0.0809  0.5371
 5179SOL    HW116078   5.230   4.002   0.655  0.6181 -1.6671  2.8536
 5179SOL    HW216079   5.263   3.899   0.550 -0.4095  0.4920  0.2999
 5180SOL     OW16080   1.281   2.360   5.347 -0.6031  0.0463 -0.1247
 5180SOL    HW116081   1.360   2.338   5.396 -0.6335  0.1425 -0.0308
 5180SOL    HW216082   1.225   2.283   5.356 -0.6915  0.1437  0.1664
 5181SOL     OW16083   7.357   1.415   2.020 -0.0858 -0.0606  0.4373
 5181SOL    HW116084   7.355   1.479   2.092 -0.3848  0.7287 -0.2513
 5181SOL    HW216085   7.337   1.331   2.062 -0.7461  0.4549  1.1981
 5182SOL     OW16086   5.732   1.862   0.451 -0.3515 -0.0411 -0.1851
 5182SOL    HW116087   5.809   1.808   0.434 -1.5801 -2.5997  1.6679
 5182SOL    HW216088   5.673   1.841   0.378 -0.8565 -1.3665  0.5685
 5183SOL     OW16089   4.528   4.276   0.827 -0.0448 -0.4814 -0.0030
 5183SOL    HW116090   4.541   4.358   0.874  0.5533 -1.1655  1.0696
 5183SOL    HW216091   4.608   4.226   0.843 -0.2944 -1.1789 -0.8487
 5184SOL     OW16092   5.298   4.661   6.018 -0.3644 -0.1388  0.2008
 5184SOL    HW116093   5.331   4.599   6.082 -0.6674  0.3581  0.8567
 5184SOL    HW216094   5.369   4.724   6.007 -0.8086  0.5425  1.0925
 5185SOL     OW16095   2.002   5.452   2.794  0.0951  0.4600  0.3259
 5185SOL    HW116096   2.070   5.477   2.856  0.8090 -0.5633 -0.0070
 5185SOL    HW216097   2.049   5.407   2.724 -0.8201  0.6109 -0.4055
 5186SOL     OW16098   0.132   4.058   0.607  0.8954 -0.0474  0.5141
 5186SOL    HW116099   0.199   4.125   0.621 -1.1443  2.0126  1.0859
 5186SOL    HW216100   0.118   4.020   0.694  2.3606 -1.6204  0.1135
 5187SOL     OW16101   2.122   6.872   5.034  0.2242 -0.0648 -0.0972
 5187SOL    HW116102   2.208   6.873   5.076  0.2652 -4.8400  0.4117
 5187SOL    HW216103   2.061   6.846   5.103 -0.9368 -0.8954 -1.3768
 5188SOL     OW16104   2.563   0.090   2.665  0.0775  0.3180  0.0497
 5188SOL    HW116105   2.474   0.081   2.701 -0.5822  1.2618 -1.2698
 5188SOL    HW216106   2.600   0.165   2.712 -0.0061  0.2484  0.2298
 5189SOL     OW16107   0.193   3.131   1.011 -0.2224 -0.2367  0.6944
 5189SOL    HW116108   0.130   3.072   1.054 -0.1257  0.0460  1.2192
 5189SOL    HW216109   0.278   3.106   1.047  0.1206 -1.2934 -0.7374
 5190SOL     OW16110   4.546   6.036   4.061 -0.6753  0.4418  0.3865
 5190SOL    HW116111   4.557   6.129   4.081 -0.4542  0.4821  0.0730
 5190SOL    HW216112   4.595   5.991   4.130  1.4810  0.6124 -0.9588
 5191SOL     OW16113   3.013   3.012   4.613 -0.8338 -0.3319 -0.5231
 5191SOL    HW116114   2.944   2.953   4.641 -0.0799 -0.3105  1.5512
 5191SOL    HW216115   3.093   2.978   4.654  0.1133  0.5480 -1.5459
 5192SOL     OW16116   0.685   3.348   1.059  0.2663  0.0350  0.4366
 5192SOL    HW116117   0.592   3.367   1.052  0.3952  0.0769 -3.1478
 5192SOL    HW216118   0.727   3.434   1.061  0.2761  0.0190  2.2994
 5193SOL     OW16119   5.261   4.531   4.504 -0.1560 -0.2357 -0.9595
 5193SOL    HW116120   5.348   4.504   4.475  0.4726 -0.0563  0.6427
 5193SOL    HW216121   5.231   4.592   4.437  1.3479  0.4067 -1.0780
 5194SOL     OW16122   2.805   3.861   6.401  0.1369 -0.1238  0.3133
 5194SOL    HW116123   2.866   3.830   6.468  1.7192 -0.4533 -1.2007
 5194SOL    HW216124   2.821   3.955   6.395  0.0913 -0.1152  0.3315
 5195SOL     OW16125   7.474   5.991   4.162 -0.2545 -0.2814  0.7623
 5195SOL    HW116126   7.460   6.036   4.078  1.0924 -1.2368 -0.0116
 5195SOL    HW216127   7.387   5.958   4.186 -0.9827  1.4385  0.6175
 5196SOL     OW16128   4.579   0.657   4.658 -0.4303 -0.1138  0.2698
 5196SOL    HW116129   4.500   0.695   4.620 -0.4471 -1.0564 -0.6961
 5196SOL    HW216130   4.561   0.563   4.659  1.3862 -0.5454 -1.7360
 5197SOL     OW16131   0.879   4.785   6.166  0.3796  0.1580  0.6792
 5197SOL    HW116132   0.974   4.775   6.168  0.3358 -0.2332  2.5376
 5197SOL    HW216133   0.845   4.697   6.150  0.3113  0.3055 -0.0366
 5198SOL     OW16134   4.631   1.249   5.686 -0.8395 -0.5614  0.1889
 5198SOL    HW116135   4.691   1.296   5.629 -0.4528  0.5139  1.4476
 5198SOL    HW216136   4.686   1.216   5.758 -1.7564  0.8546  1.6179
 5199SOL     OW16137   3.103   1.016   6.243  0.0696  0.0343  0.4212
 5199SOL    HW116138   3.121   0.949   6.309  0.3757 -1.0532 -0.7324
 5199SOL    HW216139   3.010   1.004   6.222  0.1713 -0.1648  0.0760
 5200SOL     OW16140   3.982   5.868   0.839 -0.4266  0.2559 -0.3504
 5200SOL    HW116141   4.067   5.908   0.855  0.5117 -1.6380 -0.3731
 5200SOL    HW216142   4.001   5.792   0.785 -2.2907  0.4364 -1.3446
 5201SOL     OW16143   2.049   5.084   4.440  0.0647  0.1020  0.2112
 5201SOL    HW116144   2.098   5.150   4.390 -1.0403  0.4310 -0.4811
 5201SOL    HW216145   2.115   5.023   4.471  1.1900  1.7171  1.1797
 5202SOL     OW16146   3.730   0.704   4.854  0.0633  0.4240  0.3669
 5202SOL    HW116147   3.708   0.643   4.784 -0.1487  0.1106  0.7039
 5202SOL    HW216148   3.725   0.790   4.813 -0.2718  0.2563  0.0462
 5203SOL     OW16149   3.772   4.271   1.562 -0.0965  0.0166 -0.2198
 5203SOL    HW116150   3.858   4.239   1.590  0.0594 -0.8377 -1.5935
 5203SOL    HW216151   3.719   4.192   1.552 -0.4374  0.3643 -1.3087
 5204SOL     OW16152   4.709   1.615   0.739 -0.6165  0.1363  0.2509
 5204SOL    HW116153   4.622   1.655   0.730 -0.3202  0.7302 -0.0298
 5204SOL    HW216154   4.729   1.624   0.833 -0.3458  1.1102  0.1107
 5205SOL     OW16155   1.379   7.489   1.047 -0.1724 -0.2781  0.4364
 5205SOL    HW116156   1.383   7.422   1.116  0.1411 -1.1156 -0.3715
 5205SOL    HW216157   1.470   7.508   1.027 -0.2566  0.8779  1.1047
 5206SOL     OW16158   3.921   2.437   0.013  0.0662  0.3474  0.4543
 5206SOL    HW116159   3.835   2.481   0.017  0.2891  0.9343 -0.8111
 5206SOL    HW216160   3.901   2.344   0.025 -0.9340  0.2993 -1.2849
 5207SOL     OW16161   1.313   3.881   0.155 -1.0683  0.8393 -0.1517
 5207SOL    HW116162   1.382   3.886   0.222  1.4788 -2.0156 -2.2466
 5207SOL    HW216163   1.353   3.919   0.077 -2.0785 -0.2637 -1.2574
 5208SOL     OW16164   6.329   2.861   6.413 -0.3059  0.6454  0.0527
 5208SOL    HW116165   6.313   2.872   6.506 -2.2295 -0.0197 -0.1581
 5208SOL    HW216166   6.250   2.896   6.370  0.4416  0.7373 -1.3123
 5209SOL     OW16167   5.430   0.187   0.301 -0.4236 -0.8170 -0.3190
 5209SOL    HW116168   5.459   0.178   0.210 -0.4309 -0.1483 -0.3937
 5209SOL    HW216169   5.477   0.118   0.347  1.8543  0.6278 -0.3211
 5210SOL     OW16170   1.008   1.507   7.329  0.2658 -0.2600 -0.0881
 5210SOL    HW116171   1.094   1.471   7.351  0.4732  0.8941  1.1705
 5210SOL    HW216172   0.950   1.431   7.321  0.8281 -0.9302  1.8013
 5211SOL     OW16173   7.617   2.016   1.584  0.1557 -0.3538 -0.2678
 5211SOL    HW116174   7.647   2.102   1.556 -0.0440 -0.0676  0.3896
 5211SOL    HW216175   7.695   1.973   1.618  0.1591 -0.2545 -0.1509
 5212SOL     OW16176   3.572   5.871   1.093 -0.4474  0.1348  0.1573
 5212SOL    HW116177   3.575   5.925   1.172  1.5769 -1.3256  1.1787
 5212SOL    HW216178   3.637   5.911   1.034  2.9872 -2.3433  1.8904
 5213SOL     OW16179   6.734   3.104   5.954  0.6063  0.4229  0.0997
 5213SOL    HW116180   6.685   3.058   5.886 -0.8820 -0.1309  1.5029
 5213SOL    HW216181   6.726   3.197   5.931  1.5120  0.1934 -1.3399
 5214SOL     OW16182   1.230   0.486   2.221  0.2408  0.2105 -0.1255
 5214SOL    HW116183   1.294   0.444   2.279 -0.5539  0.6104  1.0804
 5214SOL    HW216184   1.282   0.547   2.169  0.9953 -0.2412  0.0816
 5215SOL     OW16185   4.182   6.268   5.950  0.4275  0.0718 -0.0313
 5215SOL    HW116186   4.218   6.349   5.913 -1.4811  1.3225  0.7047
 5215SOL    HW216187   4.165   6.212   5.874  0.2919  0.9975 -0.6993
 5216SOL     OW16188   5.618   6.831   0.418  0.2605  0.0485 -0.1030
 5216SOL    HW116189   5.587   6.840   0.508 -0.4609  0.8170 -0.4168
 5216SOL    HW216190   5.680   6.758   0.422 -1.4106 -1.4240  0.6044
 5217SOL     OW16191   5.608   6.820   3.658  0.2377  0.0883 -0.3577
 5217SOL    HW116192   5.596   6.796   3.750  0.2038 -0.6523 -0.5508
 5217SOL    HW216193   5.582   6.912   3.654  2.0787  0.7290  0.7757
 5218SOL     OW16194   0.929   5.437   4.378 -0.0521  0.4623  0.4356
 5218SOL    HW116195   0.968   5.473   4.298  1.4196 -3.3878 -0.8257
 5218SOL    HW216196   1.002   5.421   4.436 -0.2816 -1.9658  0.1748
 5219SOL     OW16197   0.904   3.257   1.616  0.4324 -0.1268 -0.3714
 5219SOL    HW116198   0.901   3.332   1.558 -0.0149  0.0227 -0.1646
 5219SOL    HW216199   0.935   3.293   1.700  1.7919 -0.4753 -0.7082
 5220SOL     OW16200   1.815   1.269   3.946  0.3603 -0.5635 -0.1053
 5220SOL    HW116201   1.769   1.195   3.985  1.1335 -1.1076 -0.2160
 5220SOL    HW216202   1.795   1.264   3.853 -0.3452 -0.0811  0.0134
 5221SOL     OW16203   2.130   3.419   2.820 -0.3019 -0.6074  0.1853
 5221SOL    HW116204   2.184   3.470   2.760  1.5515 -1.0467  1.3923
 5221SOL    HW216205   2.105   3.341   2.770  0.4850 -0.5626 -0.2871
 5222SOL     OW16206   5.784   4.592   5.431  0.1584  0.2321 -0.6289
 5222SOL    HW116207   5.717   4.601   5.363  0.7769 -1.1028 -1.4576
 5222SOL    HW216208   5.849   4.534   5.392  1.8552  1.5424  0.1235
 5223SOL     OW16209   1.545   6.742   2.461 -0.6661 -0.5483 -0.3103
 5223SOL    HW116210   1.520   6.754   2.553 -1.9022 -2.0493 -0.4074
 5223SOL    HW216211   1.461   6.732   2.415 -0.0224 -1.3098 -1.3682
 5224SOL     OW16212   5.647   6.360   1.033 -0.0172 -0.5571 -0.1407
 5224SOL    HW116213   5.669   6.284   1.087 -0.0785  0.0289  0.7347
 5224SOL    HW216214   5.565   6.335   0.989 -0.1526 -0.9222  0.3067
 5225SOL     OW16215   0.171   4.044   5.797 -0.1251  0.2575  0.2981
 5225SOL    HW116216   0.228   4.077   5.728 -0.7095  2.4255  0.7745
 5225SOL    HW216217   0.178   4.109   5.867 -1.3878 -0.6386  1.3082
 5226SOL     OW16218   1.648   6.575   0.734  0.0707  0.1821  0.2321
 5226SOL    HW116219   1.561   6.536   0.731  0.7353 -1.3322 -0.5480
 5226SOL    HW216220   1.656   6.610   0.823 -1.3002  0.2926  0.3326
 5227SOL     OW16221   6.920   1.074   2.440 -0.1824 -0.5448 -0.2295
 5227SOL    HW116222   6.980   1.148   2.444 -1.2863  0.4118 -0.6371
 5227SOL    HW216223   6.907   1.060   2.346  0.0163 -1.2609 -0.1535
 5228SOL     OW16224   7.570   0.194   2.691 -0.3016 -0.6341 -0.0339
 5228SOL    HW116225   7.482   0.160   2.703 -0.5219  0.0991  0.5110
 5228SOL    HW216226   7.558   0.278   2.647 -0.1195  0.7698  2.3918
 5229SOL     OW16227   6.476   7.556   6.273 -0.5402  0.0424  0.0573
 5229SOL    HW116228   6.553   7.613   6.271 -0.5623  0.0448 -0.8086
 5229SOL    HW216229   6.476   7.520   6.362 -0.1939  0.9296  0.4286
 5230SOL     OW16230   7.514   6.668   4.841 -0.5425 -0.2272 -0.1104
 5230SOL    HW116231   7.511   6.759   4.868 -0.3871  0.1481 -1.2978
 5230SOL    HW216232   7.553   6.670   4.753 -2.6333 -1.1653 -1.1437
 5231SOL     OW16233   0.776   6.325   5.146  0.0053 -0.3093 -0.4468
 5231SOL    HW116234   0.760   6.419   5.154  0.8014 -0.2559  0.8291
 5231SOL    HW216235   0.705   6.294   5.089 -1.9088  0.6374  1.2676
 5232SOL     OW16236   6.324   4.838   1.230  0.1068  0.0696 -0.5970
 5232SOL    HW116237   6.242   4.878   1.258  0.2214 -0.9965  1.4601
 5232SOL    HW216238   6.383   4.849   1.305  1.4035 -0.3970 -1.5070
 5233SOL     OW16239   1.265   3.189   1.214 -0.0848  0.3106  0.0135
 5233SOL    HW116240   1.183   3.162   1.175 -0.1688  0.1256  0.3177
 5233SOL    HW216241   1.316   3.224   1.141 -0.4657  0.5077 -0.1591
 5234SOL     OW16242   3.612   1.842   6.805  0.3097  0.0512 -0.3768
 5234SOL    HW116243   3.534   1.865   6.856  1.5702 -0.6245  1.9436
 5234SOL    HW216244   3.603   1.749   6.787  0.5898 -0.0245 -0.1187
 5235SOL     OW16245   6.999   4.118   7.439  0.2766 -0.0818  0.1830
 5235SOL    HW116246   7.023   4.026   7.428 -2.0776 -0.6366 -1.0979
 5235SOL    HW216247   7.021   4.159   7.355 -0.1068  0.1679  0.2030
 5236SOL     OW16248   0.297   3.588   7.136  0.0517  0.4781 -0.0797
 5236SOL    HW116249   0.271   3.664   7.083 -0.3747  0.2697 -0.1729
 5236SOL    HW216250   0.325   3.626   7.219 -0.2073  0.7384 -0.1063
 5237SOL     OW16251   0.709   7.325   7.071 -0.8008  0.1716 -0.0633
 5237SOL    HW116252   0.673   7.413   7.060 -1.0890  0.1670  0.7404
 5237SOL    HW216253   0.778   7.318   7.006 -0.7188  1.0304 -0.0697
 5238SOL     OW16254   1.902   3.034   6.726  0.1165 -0.8541  0.4426
 5238SOL    HW116255   1.822   2.983   6.739 -0.2843 -0.2455  0.3845
 5238SOL    HW216256   1.878   3.102   6.663  1.2448 -1.9403 -1.2548
 5239SOL     OW16257   3.524   4.604   3.454 -0.0692  0.4645 -0.5017
 5239SOL    HW116258   3.462   4.559   3.396 -1.0122  1.8205 -0.5821
 5239SOL    HW216259   3.482   4.602   3.540  0.1276  0.7188 -0.3985
 5240SOL     OW16260   0.477   0.332   1.199 -0.5306 -0.1107 -0.1753
 5240SOL    HW116261   0.526   0.259   1.239 -0.3728  0.2877  0.3671
 5240SOL    HW216262   0.385   0.313   1.222 -0.5760 -0.5547 -0.7075
 5241SOL     OW16263   1.003   5.318   1.438 -0.4986  0.1303 -0.3934
 5241SOL    HW116264   0.985   5.238   1.487  1.2601  0.9436  1.7720
 5241SOL    HW216265   0.926   5.330   1.382 -1.9690 -1.6820  1.0909
 5242SOL     OW16266   4.297   4.747   0.115  0.2593 -0.5373 -0.0245
 5242SOL    HW116267   4.210   4.725   0.148  0.5347 -0.8205  0.5190
 5242SOL    HW216268   4.340   4.663   0.102  1.2906 -0.3738  1.9983
 5243SOL     OW16269   0.953   4.075   3.941 -0.0334 -0.7532 -0.0441
 5243SOL    HW116270   0.973   4.056   4.033 -0.7836  0.9697  0.5309
 5243SOL    HW216271   0.882   4.015   3.919 -1.2732  0.1586  1.1984
 5244SOL     OW16272   7.138   6.832   0.270 -0.0048  0.0252 -0.6264
 5244SOL    HW116273   7.071   6.766   0.253 -1.6585  1.1258  1.1680
 5244SOL    HW216274   7.124   6.857   0.362  2.6823  0.5492 -0.2562
 5245SOL     OW16275   4.348   5.715   3.223 -0.1948  0.0166 -0.3251
 5245SOL    HW116276   4.277   5.742   3.165  0.1368  0.0601 -0.7207
 5245SOL    HW216277   4.423   5.704   3.165 -0.0670 -0.7782 -0.0193
 5246SOL     OW16278   3.836   1.839   1.203  0.0300  0.2157  0.0143
 5246SOL    HW116279   3.742   1.829   1.185 -0.5361  2.3622  1.4448
 5246SOL    HW216280   3.871   1.876   1.122 -0.2765 -0.8149 -0.6142
 5247SOL     OW16281   4.495   6.050   0.140  0.5186 -0.1984 -0.0462
 5247SOL    HW116282   4.447   5.984   0.190  1.6079 -0.6451  0.4595
 5247SOL    HW216283   4.443   6.130   0.148  0.1261 -0.5344  0.9160
 5248SOL     OW16284   6.388   5.992   1.126  0.6852 -0.3322  0.2969
 5248SOL    HW116285   6.433   5.951   1.199  0.4406  1.3946  1.4757
 5248SOL    HW216286   6.415   6.084   1.129 -0.4364  0.0750 -0.9025
 5249SOL     OW16287   1.111   2.545   0.703 -0.3062  0.1119 -0.1657
 5249SOL    HW116288   1.195   2.571   0.664 -0.8071  0.1125 -1.2943
 5249SOL    HW216289   1.114   2.579   0.792  0.7136  0.4890 -0.3314
 5250SOL     OW16290   0.484   7.324   0.516 -0.0358  0.3913 -0.2344
 5250SOL    HW116291   0.546   7.381   0.471 -0.6968 -0.1221 -1.8943
 5250SOL    HW216292   0.420   7.300   0.448 -2.5724  1.5758  1.5511
 5251SOL     OW16293   0.602   2.640   0.698 -0.4136  0.2699 -0.1360
 5251SOL    HW116294   0.588   2.552   0.663 -1.7757  0.2445  0.3883
 5251SOL    HW216295   0.667   2.629   0.767 -2.6926 -0.9150  1.9704
 5252SOL     OW16296   2.210   4.279   2.225  0.4676  0.4854 -0.1415
 5252SOL    HW116297   2.217   4.298   2.319 -0.7223  0.1572  0.0214
 5252SOL    HW216298   2.284   4.326   2.186  0.1983  1.7548  0.8008
 5253SOL     OW16299   1.714   2.480   0.255  0.6053  0.0956 -0.2143
 5253SOL    HW116300   1.680   2.452   0.340 -0.8411  0.5902 -0.6025
 5253SOL    HW216301   1.654   2.548   0.226  0.7934 -0.3796 -1.8445
 5254SOL     OW16302   2.589   5.447   4.682  0.3566 -0.4961  0.1451
 5254SOL    HW116303   2.680   5.476   4.680  0.5561 -1.1500 -0.8613
 5254SOL    HW216304   2.592   5.360   4.721  0.1982 -0.6346 -0.1493
 5255SOL     OW16305   4.540   1.857   6.195  0.1576  0.2292  0.2608
 5255SOL    HW116306   4.474   1.924   6.179  0.0781  0.3774  1.1445
 5255SOL    HW216307   4.623   1.901   6.176  0.2436  1.1656  2.4112
 5256SOL     OW16308   3.628   5.538   3.536 -0.1215 -0.0859 -0.1943
 5256SOL    HW116309   3.656   5.478   3.605  0.6431 -1.2940 -1.4815
 5256SOL    HW216310   3.627   5.624   3.577  0.1702 -0.7826  1.3425
 5257SOL     OW16311   1.075   0.055   5.785  0.6761 -0.0789 -0.3150
 5257SOL    HW116312   1.112  -0.007   5.848  0.0817  1.3386  1.5020
 5257SOL    HW216313   0.981   0.050   5.799  0.4596 -0.2236 -1.6234
 5258SOL     OW16314   0.281   0.875   1.442 -0.3619  0.4573 -0.2072
 5258SOL    HW116315   0.321   0.947   1.394  2.7723 -0.8800  0.1575
 5258SOL    HW216316   0.238   0.822   1.374  0.1282  0.9541 -0.9232
 5259SOL     OW16317   6.940   6.214   3.921  0.1318  0.3151 -0.2078
 5259SOL    HW116318   7.002   6.258   3.979  1.2575 -1.8577  0.3776
 5259SOL    HW216319   6.991   6.196   3.842  0.6835 -2.2647  0.6065
 5260SOL     OW16320   3.497   5.159   1.287  0.0058 -0.3864 -0.0855
 5260SOL    HW116321   3.420   5.105   1.270  0.1698 -0.5465 -0.3275
 5260SOL    HW216322   3.492   5.179   1.381 -1.0624  0.7585 -0.3524
 5261SOL     OW16323   7.601   0.442   1.154 -0.0869  0.0073  0.0159
 5261SOL    HW116324   7.677   0.453   1.097 -0.2570  0.7149 -0.0845
 5261SOL    HW216325   7.597   0.347   1.171 -0.4770 -0.3333 -1.7665
 5262SOL     OW16326   1.124   4.844   3.995 -0.0022  0.5744 -0.2619
 5262SOL    HW116327   1.053   4.908   3.983 -1.6450 -0.9056  1.1376
 5262SOL    HW216328   1.109   4.807   4.082  1.6227 -0.8724 -0.5451
 5263SOL     OW16329   0.253   3.945   4.481  0.3747  0.0853  0.0145
 5263SOL    HW116330   0.319   3.923   4.415 -1.1582  0.0915 -1.5774
 5263SOL    HW216331   0.188   3.996   4.434 -0.3682  0.8262  1.7468
 5264SOL     OW16332   0.469   0.935   2.526  0.0375 -0.4443 -0.3841
 5264SOL    HW116333   0.527   0.880   2.579  2.5715 -0.4938 -2.9802
 5264SOL    HW216334   0.458   1.015   2.578  2.9913 -0.1928  0.0448
 5265SOL     OW16335   0.149   3.751   1.807 -0.3919 -0.6053 -0.2195
 5265SOL    HW116336   0.109   3.669   1.835  0.2351 -1.1170 -0.8078
 5265SOL    HW216337   0.240   3.730   1.791 -0.5997 -0.2369 -2.1567
 5266SOL     OW16338   6.815   1.230   0.904  0.1705  0.3173  0.2545
 5266SOL    HW116339   6.719   1.223   0.899  0.2244  0.3946 -1.4685
 5266SOL    HW216340   6.840   1.279   0.826  1.7619 -1.2811 -0.3089
 5267SOL     OW16341   6.623   2.094   7.278  0.1574 -0.2119 -0.4276
 5267SOL    HW116342   6.694   2.131   7.226 -0.1649  1.1545  0.0595
 5267SOL    HW216343   6.626   2.000   7.259  0.5267  0.1300 -2.3051
 5268SOL     OW16344   5.223   5.235   4.580 -0.0641  0.1576  0.6328
 5268SOL    HW116345   5.232   5.298   4.509  1.4245 -0.4833  0.2241
 5268SOL    HW216346   5.245   5.284   4.659  0.3001  0.3559  0.4091
 5269SOL     OW16347   0.451   4.272   1.422  0.2731  0.1385  0.2220
 5269SOL    HW116348   0.498   4.259   1.340 -0.6026  0.9282 -0.4352
 5269SOL    HW216349   0.385   4.201   1.423  1.4463 -0.9815  1.1521
 5270SOL     OW16350   3.355   4.804   1.448  0.4784  0.6103  0.6255
 5270SOL    HW116351   3.276   4.763   1.484 -0.3140  0.8235 -0.7913
 5270SOL    HW216352   3.322   4.863   1.380  2.0429 -2.0317 -2.6816
 5271SOL     OW16353   3.417   2.833   5.883 -0.6238 -0.8475 -0.0034
 5271SOL    HW116354   3.371   2.810   5.802 -0.7380  0.2494 -0.2658
 5271SOL    HW216355   3.422   2.928   5.881 -1.0337 -0.7647  1.5064
 5272SOL     OW16356   3.847   1.105   5.807 -1.1283 -0.4598  0.1093
 5272SOL    HW116357   3.817   1.191   5.778 -1.1782 -0.0651  1.2702
 5272SOL    HW216358   3.813   1.044   5.741 -1.9943  0.2899 -0.1643
 5273SOL     OW16359   0.660   1.529   4.386 -0.2498 -0.1148  0.1582
 5273SOL    HW116360   0.632   1.527   4.294  1.3217  0.5316 -0.3801
 5273SOL    HW216361   0.755   1.517   4.382 -0.2185 -0.6305  1.7494
 5274SOL     OW16362   5.691   5.395   3.251 -0.3536  0.2905  0.2841
 5274SOL    HW116363   5.630   5.452   3.297 -0.1563  2.6103 -2.0601
 5274SOL    HW216364   5.639   5.319   3.227 -0.7194 -0.4890  3.2432
 5275SOL     OW16365   4.086   3.155   2.431 -0.1948 -0.3812 -0.2478
 5275SOL    HW116366   4.097   3.242   2.392 -1.7996 -0.3632 -0.7296
 5275SOL    HW216367   4.089   3.171   2.526 -1.7106  0.4185 -0.3028
 5276SOL     OW16368   2.105   3.717   2.967  0.4247 -0.0329 -0.3377
 5276SOL    HW116369   2.140   3.634   3.000  0.9898 -0.3923 -1.7455
 5276SOL    HW216370   2.181   3.775   2.961 -0.1263  0.9896  1.6422
 5277SOL     OW16371   2.985   4.921   0.712  0.3353  0.7418  0.4198
 5277SOL    HW116372   2.958   4.975   0.786  0.1370  1.4288 -0.1389
 5277SOL    HW216373   3.051   4.862   0.748  0.7847  1.5633  0.9835
 5278SOL     OW16374   2.671   0.988   2.399 -0.1311 -0.0020  0.6548
 5278SOL    HW116375   2.577   0.993   2.419 -0.3072  1.7228 -0.4431
 5278SOL    HW216376   2.678   0.913   2.340 -1.0897  0.8286 -0.5580
 5279SOL     OW16377   2.714   0.292   2.904 -0.2906 -0.0993  0.5420
 5279SOL    HW116378   2.739   0.225   2.968 -1.1929  0.5335  1.6026
 5279SOL    HW216379   2.623   0.312   2.926 -0.6129  0.1506 -0.9545
 5280SOL     OW16380   4.241   2.543   0.504  0.2987  0.3863 -0.3227
 5280SOL    HW116381   4.243   2.605   0.431  2.1080 -0.4199 -1.0249
 5280SOL    HW216382   4.155   2.501   0.498  1.1974 -1.3509 -3.5465
 5281SOL     OW16383   2.187   1.469   3.868  0.3640  0.5422  0.5449
 5281SOL    HW116384   2.116   1.455   3.805 -0.4940 -0.7353  1.7340
 5281SOL    HW216385   2.265   1.479   3.814  0.1469 -3.1938 -0.8007
 5282SOL     OW16386   0.480   2.239   3.502 -0.3661 -0.2391 -0.2743
 5282SOL    HW116387   0.445   2.271   3.419  0.5543  0.2520 -0.4920
 5282SOL    HW216388   0.463   2.310   3.564 -1.0305 -0.5953 -0.0425
 5283SOL     OW16389   4.857   1.640   5.965 -0.5028 -0.0387  0.9396
 5283SOL    HW116390   4.895   1.694   6.034 -0.6194 -0.8180  1.6373
 5283SOL    HW216391   4.829   1.560   6.010 -0.1418 -0.7773 -0.0978
 5284SOL     OW16392   1.600   4.338   6.911  0.3531 -0.4985  0.5113
 5284SOL    HW116393   1.680   4.346   6.963  0.7699 -1.4490  0.0253
 5284SOL    HW216394   1.553   4.265   6.951  1.3291 -2.1825 -1.2403
 5285SOL     OW16395   4.713   6.160   5.532  0.0174  0.4820 -0.2960
 5285SOL    HW116396   4.683   6.080   5.575  1.3580  0.5933  0.9257
 5285SOL    HW216397   4.647   6.226   5.554  0.2673  0.3344  0.9351
 5286SOL     OW16398   2.206   1.413   4.240  0.4281  0.6127 -0.0646
 5286SOL    HW116399   2.146   1.466   4.188  2.5576  0.1473 -3.2806
 5286SOL    HW216400   2.153   1.338   4.268 -1.1761  1.6230 -0.2570
 5287SOL     OW16401   0.629   6.839   5.779 -0.0152 -0.3510 -0.0736
 5287SOL    HW116402   0.720   6.808   5.778 -0.2063 -1.0342  0.9517
 5287SOL    HW216403   0.628   6.916   5.722  0.8001 -1.4067 -1.5724
 5288SOL     OW16404   2.345   3.964   6.281 -0.8279 -0.0651  0.0809
 5288SOL    HW116405   2.434   3.945   6.249 -0.8483 -0.4543  0.2544
 5288SOL    HW216406   2.304   4.011   6.209 -0.0475  1.3128  0.5074
 5289SOL     OW16407   2.980   2.716   4.409  0.9804 -0.1094  0.0181
 5289SOL    HW116408   3.071   2.721   4.441  1.3491  1.0932 -1.1565
 5289SOL    HW216409   2.930   2.764   4.475  1.1924 -0.6634  0.6039
 5290SOL     OW16410   4.233   6.515   5.780  0.3912 -0.1590  0.5483
 5290SOL    HW116411   4.164   6.549   5.723  1.6180 -1.3252 -1.7839
 5290SOL    HW216412   4.203   6.536   5.869 -2.9769 -0.6520 -0.3156
 5291SOL     OW16413   0.035   6.109   6.792  0.3673 -0.7172  0.3185
 5291SOL    HW116414  -0.044   6.128   6.843 -1.1742  1.5381 -2.6232
 5291SOL    HW216415   0.097   6.177   6.819 -0.9372  1.3746 -1.5946
 5292SOL     OW16416   3.503   2.092   5.572  0.5284 -0.4201 -0.4425
 5292SOL    HW116417   3.473   2.054   5.654 -0.6962 -0.4497 -0.8774
 5292SOL    HW216418   3.425   2.092   5.516  1.4050 -0.7026 -1.7136
 5293SOL     OW16419   5.701   6.181   4.408 -0.2511 -0.2028 -0.1846
 5293SOL    HW116420   5.614   6.155   4.438 -1.0723  0.8411 -1.5725
 5293SOL    HW216421   5.710   6.143   4.321  0.8931 -0.6840  0.1198
 5294SOL     OW16422   5.000   5.738   0.862 -0.0652  0.3400 -0.1502
 5294SOL    HW116423   4.966   5.827   0.868  1.3956  1.0104 -1.3481
 5294SOL    HW216424   4.923   5.685   0.838 -0.6794  1.4926 -0.8387
 5295SOL     OW16425   1.553   4.904   0.539 -0.3580  0.1983  0.6040
 5295SOL    HW116426   1.584   4.955   0.464 -1.0696 -0.1925  0.0257
 5295SOL    HW216427   1.501   4.965   0.590  0.2517  0.5065  0.8683
 5296SOL     OW16428   3.221   1.957   7.259 -0.3761  0.0941 -0.0393
 5296SOL    HW116429   3.237   1.879   7.206 -1.5636 -1.6029  1.9753
 5296SOL    HW216430   3.129   1.978   7.243 -0.3260  0.4958  0.1819
 5297SOL     OW16431   1.825   6.548   3.236  0.5462 -0.1174 -0.1822
 5297SOL    HW116432   1.784   6.599   3.166  0.2316  0.6561  0.5444
 5297SOL    HW216433   1.752   6.513   3.286  0.6915  1.6217  1.3808
 5298SOL     OW16434   2.319   0.376   2.668 -0.3792 -0.5187 -0.3202
 5298SOL    HW116435   2.324   0.407   2.758 -0.2566 -1.8206  0.1421
 5298SOL    HW216436   2.260   0.438   2.625 -1.0750 -0.3380  0.8535
 5299SOL     OW16437   4.602   4.163   2.871 -0.2152 -0.2540 -1.0412
 5299SOL    HW116438   4.575   4.173   2.780  1.3570 -1.1563 -1.6526
 5299SOL    HW216439   4.631   4.072   2.878 -0.1823 -0.1716  0.3347
 5300SOL     OW16440   1.035   0.909   7.116 -0.3562  0.7448  0.1209
 5300SOL    HW116441   1.066   0.988   7.160  0.9105  1.7809 -2.4033
 5300SOL    HW216442   1.112   0.851   7.114 -0.7368  0.2250  0.2931
 5301SOL     OW16443   7.426   4.118   0.543  0.8751  0.0551  0.2153
 5301SOL    HW116444   7.489   4.183   0.574  0.8939 -0.1547  0.6216
 5301SOL    HW216445   7.479   4.040   0.526  1.0685  0.5212 -1.5313
 5302SOL     OW16446   3.844   5.244   6.547 -0.0009 -0.1134  0.8700
 5302SOL    HW116447   3.920   5.185   6.545  0.4317  0.4230  1.0620
 5302SOL    HW216448   3.811   5.244   6.458  0.3835 -0.1638  0.7253
 5303SOL     OW16449   7.005   1.449   7.037  0.0466  0.3360  0.6505
 5303SOL    HW116450   6.919   1.430   7.000 -1.0684  0.7946  2.8042
 5303SOL    HW216451   6.999   1.541   7.065  1.8187  0.8809 -0.5655
 5304SOL     OW16452   5.396   6.287   1.445  0.3132  0.0641 -0.0527
 5304SOL    HW116453   5.415   6.352   1.377 -0.8256  0.1893 -0.2719
 5304SOL    HW216454   5.482   6.263   1.479  0.7852  1.5669 -0.0772
 5305SOL     OW16455   3.034   1.902   2.720 -0.1977  0.3994  0.0228
 5305SOL    HW116456   3.091   1.958   2.773  0.2692 -0.2855  0.2609
 5305SOL    HW216457   3.095   1.848   2.669 -0.6416  0.8292 -0.9840
 5306SOL     OW16458   6.666   7.128   4.444 -0.1896 -0.1978  0.3136
 5306SOL    HW116459   6.747   7.152   4.489 -0.6562  0.0645  1.0422
 5306SOL    HW216460   6.618   7.075   4.508 -1.2437  0.8952  0.4746
 5307SOL     OW16461   2.833   5.526   4.733 -0.1614  0.2057  0.3462
 5307SOL    HW116462   2.800   5.566   4.813 -0.2016 -0.0181  0.4441
 5307SOL    HW216463   2.915   5.570   4.715 -0.4893  0.7369  0.1300
 5308SOL     OW16464   2.053   5.581   2.063  0.1174  0.4802 -0.0593
 5308SOL    HW116465   2.140   5.620   2.069 -0.1493  0.9840  0.8831
 5308SOL    HW216466   2.069   5.487   2.056  0.7619  0.6992 -1.8531
 5309SOL     OW16467   4.888   5.170   6.939  0.1213 -0.2271  0.5596
 5309SOL    HW116468   4.922   5.179   7.028  1.0560  2.0450  0.0472
 5309SOL    HW216469   4.853   5.256   6.918 -0.0979 -0.7232 -1.2895
 5310SOL     OW16470   4.848   6.144   6.700  0.6709  0.2581 -0.3864
 5310SOL    HW116471   4.809   6.071   6.652  1.7866  0.0759 -1.0273
 5310SOL    HW216472   4.914   6.180   6.642  2.0361  0.0569  0.9718
 5311SOL     OW16473   5.372   4.024   6.659  0.3526 -0.1127 -0.1874
 5311SOL    HW116474   5.396   4.104   6.611 -0.6037  0.4824  0.2866
 5311SOL    HW216475   5.344   3.963   6.591 -1.7196  0.9797 -0.4004
 5312SOL     OW16476   5.538   6.118   6.534  0.7394 -0.4258  0.7385
 5312SOL    HW116477   5.536   6.024   6.517  1.2989 -0.2717 -0.3167
 5312SOL    HW216478   5.611   6.130   6.594 -0.0136 -0.7710  1.7490
 5313SOL     OW16479   4.316   4.376   3.260  0.4329 -0.3537  0.3079
 5313SOL    HW116480   4.395   4.328   3.282  1.2114  1.0933  0.8553
 5313SOL    HW216481   4.304   4.437   3.334  0.1882  1.1032 -0.8855
 5314SOL     OW16482   0.882   6.023   0.578  0.2905  0.8572 -0.2521
 5314SOL    HW116483   0.928   5.996   0.657  0.5798 -0.0505 -0.7178
 5314SOL    HW216484   0.806   6.071   0.610  0.5750  0.7737  0.5690
 5315SOL     OW16485   4.589   7.232   1.535  0.2527 -0.7095 -0.0265
 5315SOL    HW116486   4.614   7.214   1.625 -0.6748 -0.7645  0.2326
 5315SOL    HW216487   4.595   7.328   1.527  0.2166 -0.6940  0.1331
 5316SOL     OW16488   4.593   0.953   4.225 -0.4656  0.5538  0.3802
 5316SOL    HW116489   4.557   0.941   4.313  2.5048 -1.1517  1.4995
 5316SOL    HW216490   4.677   0.907   4.227 -0.4573  0.0756 -3.4968
 5317SOL     OW16491   4.561   4.430   6.268  0.2823  0.1140  0.3633
 5317SOL    HW116492   4.476   4.428   6.312 -0.5778 -3.6402 -1.0829
 5317SOL    HW216493   4.541   4.458   6.179  0.6888 -0.0537  0.2193
 5318SOL     OW16494   4.844   4.519   2.893 -0.3537 -0.3418 -0.5160
 5318SOL    HW116495   4.876   4.435   2.860 -0.8222 -0.1993 -1.3554
 5318SOL    HW216496   4.857   4.580   2.820  1.7538  0.7754  0.7039
 5319SOL     OW16497   1.230   4.940   5.533  0.0270 -0.2511 -0.2571
 5319SOL    HW116498   1.259   4.885   5.606  2.1729 -2.4066 -2.5347
 5319SOL    HW216499   1.135   4.926   5.530  0.3225 -3.0443 -0.0011
 5320SOL     OW16500   2.836   2.060   7.120  0.3027 -0.6478 -0.5121
 5320SOL    HW116501   2.898   2.093   7.185 -1.0511 -0.1224  0.5602
 5320SOL    HW216502   2.847   1.965   7.123 -0.9369 -0.7770  1.7979
 5321SOL     OW16503   5.599   1.737   4.843 -0.3600 -0.4136  0.2345
 5321SOL    HW116504   5.588   1.693   4.759 -1.3541  1.9396 -0.9536
 5321SOL    HW216505   5.686   1.776   4.838 -0.9561  0.8983 -0.3362
 5322SOL     OW16506   6.626   5.346   2.785 -0.1687  0.6930  0.9362
 5322SOL    HW116507   6.541   5.389   2.781 -0.2713  0.3933 -0.9974
 5322SOL    HW216508   6.652   5.352   2.877 -2.2896  0.7286  1.5693
 5323SOL     OW16509   0.938   1.251   6.951  0.5914 -0.0922 -0.1054
 5323SOL    HW116510   0.956   1.196   6.875 -1.8445 -1.6859  0.3739
 5323SOL    HW216511   0.911   1.335   6.913  0.7651 -0.4001 -0.9398
 5324SOL     OW16512   2.587   2.577   2.928  0.4729 -0.3441  0.4656
 5324SOL    HW116513   2.558   2.486   2.926 -0.5757 -0.0287  0.5018
 5324SOL    HW216514   2.513   2.626   2.890  1.4097  0.3904 -0.4798
 5325SOL     OW16515   3.780   3.496   4.606  1.0173  0.0042 -0.5896
 5325SOL    HW116516   3.772   3.441   4.684 -0.5403  1.1974  0.1484
 5325SOL    HW216517   3.841   3.565   4.631  0.1259  0.6780 -0.2141
 5326SOL     OW16518   4.003   1.559   7.468 -0.0327 -0.1567  0.0583
 5326SOL    HW116519   4.043   1.488   7.518 -0.1423 -1.0280 -1.0265
 5326SOL    HW216520   4.070   1.584   7.405 -1.0382 -1.5080 -1.6526
 5327SOL     OW16521   1.082   3.948   2.244  0.1240  0.1241  0.3216
 5327SOL    HW116522   1.036   3.871   2.211 -1.3011  0.7558  0.7412
 5327SOL    HW216523   1.034   3.972   2.324  1.8460  0.1998  1.3913
 5328SOL     OW16524   2.599   4.738   4.391 -0.1819 -0.3317  0.3015
 5328SOL    HW116525   2.679   4.687   4.374  0.9351  0.8738  1.6442
 5328SOL    HW216526   2.555   4.690   4.461 -0.6586 -0.9746 -0.4114
 5329SOL     OW16527   2.478   5.400   5.561  0.4785 -0.0343  0.2894
 5329SOL    HW116528   2.446   5.358   5.641 -0.4554  0.2923  0.0983
 5329SOL    HW216529   2.542   5.464   5.592 -1.7986  2.0304  1.0832
 5330SOL     OW16530   3.799   0.342   5.334  0.0817  0.4163 -0.4706
 5330SOL    HW116531   3.778   0.271   5.273  1.3842 -0.5409  0.1266
 5330SOL    HW216532   3.724   0.401   5.329 -0.9828 -0.9144 -1.1253
 5331SOL     OW16533   1.430   1.980   3.792 -0.0294  0.6539  0.7548
 5331SOL    HW116534   1.450   2.073   3.785 -0.2564  0.6263 -0.3384
 5331SOL    HW216535   1.507   1.942   3.834 -0.1644  1.4085  1.7256
 5332SOL     OW16536   2.021   4.560   4.609 -0.1782  0.3890  0.4653
 5332SOL    HW116537   2.012   4.654   4.597  1.3940  0.4453 -0.5033
 5332SOL    HW216538   2.062   4.529   4.529 -4.2798 -1.8216 -1.1048
 5333SOL     OW16539   1.714   6.123   3.727  0.0180 -0.2802  0.7414
 5333SOL    HW116540   1.695   6.115   3.821 -0.4661 -1.2400  0.5692
 5333SOL    HW216541   1.758   6.040   3.705  2.3996  0.9152  0.6315
 5334SOL     OW16542   6.847   7.141   2.876  0.2455  0.0027  0.4900
 5334SOL    HW116543   6.844   7.218   2.819 -0.9457 -0.3388  0.0664
 5334SOL    HW216544   6.808   7.071   2.823  2.0166 -1.1027  0.5670
 5335SOL     OW16545   1.034   3.263   6.890  0.0007 -0.2861  0.8637
 5335SOL    HW116546   0.979   3.245   6.967  0.1204 -2.4344  0.5065
 5335SOL    HW216547   0.973   3.265   6.817  0.2681 -2.0369  0.5515
 5336SOL     OW16548   5.164   5.668   0.258  0.0228 -0.0192 -0.2698
 5336SOL    HW116549   5.142   5.649   0.349 -2.2189 -0.9886 -0.9471
 5336SOL    HW216550   5.127   5.595   0.209  4.1496 -1.3973 -1.7642
 5337SOL     OW16551   6.468   3.310   0.736 -0.4028  0.2527  0.2320
 5337SOL    HW116552   6.441   3.279   0.650 -0.2657 -0.9971  0.6157
 5337SOL    HW216553   6.474   3.230   0.789 -0.0564  0.9542  1.2763
 5338SOL     OW16554   6.960   5.643   0.411  0.5332  0.1361  0.3911
 5338SOL    HW116555   6.918   5.559   0.398 -0.2506  0.7628 -1.4712
 5338SOL    HW216556   6.908   5.705   0.360  2.1063  1.4410  0.2659
 5339SOL     OW16557   0.306   4.296   0.924  0.7232 -0.7549 -0.1687
 5339SOL    HW116558   0.308   4.279   0.830 -1.0851  0.3164 -0.4407
 5339SOL    HW216559   0.260   4.379   0.933  2.2036 -0.0436  1.6010
 5340SOL     OW16560   2.231   7.178   0.679 -0.0152  0.3745  0.2775
 5340SOL    HW116561   2.249   7.229   0.601  1.6806  0.5253  0.7391
 5340SOL    HW216562   2.311   7.128   0.695 -1.1449 -1.4529  0.5921
 5341SOL     OW16563   5.773   3.492   7.161  0.2276 -0.3526 -0.0908
 5341SOL    HW116564   5.864   3.463   7.147  0.5406  0.1381  0.8268
 5341SOL    HW216565   5.760   3.561   7.097  1.7691  2.1306  2.0529
 5342SOL     OW16566   6.683   6.314   1.002  0.6425  0.3713 -0.0992
 5342SOL    HW116567   6.772   6.278   0.999  0.8775  0.8571  0.6527
 5342SOL    HW216568   6.693   6.398   1.047  0.1018  1.3897 -1.8044
 5343SOL     OW16569   3.809   6.622   7.404  0.8019  0.0221  0.4174
 5343SOL    HW116570   3.746   6.552   7.419 -1.2715  1.7866  0.4584
 5343SOL    HW216571   3.819   6.627   7.309  1.0053 -0.3297  0.4160
 5344SOL     OW16572   0.468   2.690   3.236 -0.4648  0.4375 -0.0211
 5344SOL    HW116573   0.425   2.698   3.151  0.1947  0.1960 -0.3825
 5344SOL    HW216574   0.540   2.753   3.232  0.4028 -0.5472 -0.1695
 5345SOL     OW16575   2.455   5.118   0.684  0.2964  0.6971  0.3212
 5345SOL    HW116576   2.466   5.025   0.702 -0.1069  0.3248 -1.2543
 5345SOL    HW216577   2.502   5.133   0.602 -1.4256  1.4150 -0.5899
 5346SOL     OW16578   0.174   7.183   3.022 -0.5805 -0.3829  0.4933
 5346SOL    HW116579   0.107   7.206   3.086  0.4907 -0.4598  1.6897
 5346SOL    HW216580   0.204   7.096   3.048  0.7576  0.1072  0.6908
 5347SOL     OW16581   4.783   2.832   4.780  0.1750 -0.2270 -0.3068
 5347SOL    HW116582   4.805   2.850   4.871 -1.2510 -1.9579  0.4354
 5347SOL    HW216583   4.695   2.795   4.783 -0.1908  0.3087 -2.4678
 5348SOL     OW16584   4.214   3.242   6.043  0.3477  0.4465  0.3389
 5348SOL    HW116585   4.232   3.162   5.993  1.7051  1.7640 -1.3859
 5348SOL    HW216586   4.268   3.233   6.122 -0.4288 -0.8422  0.7536
 5349SOL     OW16587   7.350   3.868   0.779  0.1305 -0.1081 -0.1707
 5349SOL    HW116588   7.311   3.950   0.748 -0.4273  0.8819  2.8689
 5349SOL    HW216589   7.349   3.811   0.702 -2.2121  1.7345 -1.6580
 5350SOL     OW16590   6.509   7.237   6.748 -0.3395  0.3821 -0.2918
 5350SOL    HW116591   6.567   7.259   6.675 -1.2778  2.1152 -0.5709
 5350SOL    HW216592   6.472   7.152   6.724  1.6793 -0.5528 -0.3114
 5351SOL     OW16593   1.053   7.207   4.569 -0.1399 -0.3418  0.0281
 5351SOL    HW116594   1.044   7.141   4.637 -0.1404 -0.0614  0.3025
 5351SOL    HW216595   1.124   7.264   4.599 -0.3313 -0.0467 -0.0629
 5352SOL     OW16596   3.828   2.818   1.622  0.1319 -0.3083 -0.1557
 5352SOL    HW116597   3.773   2.742   1.643  0.3043 -0.4229 -0.1108
 5352SOL    HW216598   3.897   2.816   1.688 -0.5639  0.6331  0.6162
 5353SOL     OW16599   3.852   4.501   3.294 -0.1216 -0.5267  0.4444
 5353SOL    HW116600   3.852   4.414   3.334  0.8197 -0.4471  0.6320
 5353SOL    HW216601   3.921   4.548   3.339 -2.1207  1.1085  1.9804
 5354SOL     OW16602   2.660   4.152   1.470  0.3665 -0.1075 -0.0393
 5354SOL    HW116603   2.592   4.085   1.462  0.4396 -0.2153  0.2183
 5354SOL    HW216604   2.730   4.109   1.519  1.3865 -0.5756 -1.8244
 5355SOL     OW16605   6.115   5.172   3.139 -0.2795 -0.3048  0.0829
 5355SOL    HW116606   6.193   5.209   3.099  1.1407 -0.4498  2.5535
 5355SOL    HW216607   6.042   5.222   3.101  1.2598  2.2151  0.2432
 5356SOL     OW16608   1.181   1.332   3.561 -0.2168 -0.1884 -0.1277
 5356SOL    HW116609   1.197   1.380   3.479 -2.0333 -0.6812 -0.8195
 5356SOL    HW216610   1.227   1.250   3.550  0.3836  0.1573 -0.2279
 5357SOL     OW16611   1.632   1.817   0.621 -0.1934  0.3378  0.2661
 5357SOL    HW116612   1.586   1.785   0.698 -0.1666 -0.3421  0.0060
 5357SOL    HW216613   1.569   1.810   0.549 -0.0870  0.5825  0.1450
 5358SOL     OW16614   3.453   2.691   2.022 -0.0356  0.5083  0.7511
 5358SOL    HW116615   3.495   2.606   2.011 -1.5625 -0.2214  0.1411
 5358SOL    HW216616   3.434   2.697   2.116 -2.6732 -1.3141  0.4693
 5359SOL     OW16617   1.386   4.490   7.554  0.1809  0.8882  0.6045
 5359SOL    HW116618   1.332   4.546   7.498 -1.1833 -0.0101  0.9892
 5359SOL    HW216619   1.454   4.457   7.495 -0.7116  0.6585 -0.3256
 5360SOL     OW16620   2.720   3.435   5.438 -0.0017  0.0432 -0.4315
 5360SOL    HW116621   2.757   3.381   5.508 -0.6190 -0.1340 -0.2269
 5360SOL    HW216622   2.642   3.474   5.477  1.6380  2.9549  0.1668
 5361SOL     OW16623   6.098   7.409   5.286  0.3289 -0.0759 -0.0621
 5361SOL    HW116624   6.013   7.451   5.297  0.4406 -0.2675  1.8802
 5361SOL    HW216625   6.078   7.326   5.242 -0.4693 -0.0003  0.1370
 5362SOL     OW16626   6.214   0.469   4.802  0.1138 -0.0051 -0.6819
 5362SOL    HW116627   6.167   0.548   4.775  0.3950  1.0568  1.7315
 5362SOL    HW216628   6.297   0.500   4.836 -0.0968 -1.2328  1.1030
 5363SOL     OW16629   3.644   0.372   7.272 -0.3802  0.5457  0.3129
 5363SOL    HW116630   3.596   0.447   7.306 -1.1733  1.1796 -2.0258
 5363SOL    HW216631   3.733   0.405   7.257 -0.8409  1.2337 -1.1496
 5364SOL     OW16632   5.963   7.432   6.164 -0.3848  0.6291 -0.0720
 5364SOL    HW116633   5.927   7.517   6.138  1.1369  1.7288  1.2180
 5364SOL    HW216634   5.995   7.446   6.253 -0.8228 -1.5470  0.4779
 5365SOL     OW16635   2.359   6.886   1.443  0.0086  0.1532  0.0784
 5365SOL    HW116636   2.328   6.816   1.501 -0.7780  1.0107  0.7433
 5365SOL    HW216637   2.445   6.910   1.478 -0.3856  0.5465  0.8189
 5366SOL     OW16638   3.694   0.792   3.742  0.1500  0.1941  0.1005
 5366SOL    HW116639   3.777   0.799   3.789 -0.0642  0.4776  0.4441
 5366SOL    HW216640   3.661   0.882   3.740  0.0836  0.1587 -0.4619
 5367SOL     OW16641   0.165   5.331   7.160  0.1947  0.5151  0.3846
 5367SOL    HW116642   0.124   5.396   7.217 -0.3628  0.6979 -0.1987
 5367SOL    HW216643   0.135   5.247   7.194 -2.2760  0.6658 -1.0991
 5368SOL     OW16644   1.644   0.205   6.805  0.0752 -0.0249 -0.3564
 5368SOL    HW116645   1.605   0.125   6.769  2.1332 -0.6068 -1.4308
 5368SOL    HW216646   1.574   0.243   6.858 -1.8807 -1.0653 -2.0287
 5369SOL     OW16647   3.418   7.056   3.099 -0.3789 -0.2586 -0.4460
 5369SOL    HW116648   3.500   7.104   3.092 -0.8580  0.4201 -1.9862
 5369SOL    HW216649   3.418   6.999   3.021 -1.0826 -0.7123 -0.1211
 5370SOL     OW16650   4.842   6.062   4.225  0.0566  0.0184  0.2535
 5370SOL    HW116651   4.837   6.155   4.202 -1.5213  0.2436  1.2711
 5370SOL    HW216652   4.766   6.048   4.283  0.2462 -1.9082  0.1096
 5371SOL     OW16653   3.163   6.410   2.140 -0.1030 -0.2284  0.0777
 5371SOL    HW116654   3.252   6.425   2.108 -0.1569  1.3923  0.5873
 5371SOL    HW216655   3.151   6.477   2.208 -1.7362 -0.3820 -0.0315
 5372SOL     OW16656   6.507   0.733   2.839 -0.1207 -0.2084  0.4632
 5372SOL    HW116657   6.442   0.663   2.851  0.3663 -0.6516  0.5758
 5372SOL    HW216658   6.590   0.686   2.833  0.1817  0.3525  0.2765
 5373SOL     OW16659   2.179   0.228   6.479  0.2126 -0.2262  0.6897
 5373SOL    HW116660   2.265   0.198   6.508 -0.4902 -0.3345  2.8480
 5373SOL    HW216661   2.180   0.322   6.494 -0.5645 -0.4433  2.3068
 5374SOL     OW16662   5.366   7.352   3.032  0.1071 -0.4099  1.0320
 5374SOL    HW116663   5.346   7.402   3.111  0.3798  1.4379 -0.0053
 5374SOL    HW216664   5.365   7.417   2.962 -1.5701 -2.2212 -0.7472
 5375SOL     OW16665   4.811   7.503   5.125 -0.0334  0.5330 -0.5469
 5375SOL    HW116666   4.876   7.523   5.192 -0.4497  0.3831 -0.0948
 5375SOL    HW216667   4.851   7.434   5.072  1.9865  3.2921 -2.9307
 5376SOL     OW16668   2.266   4.680   5.460  0.1363  0.1444  0.4309
 5376SOL    HW116669   2.347   4.722   5.430  0.1912 -0.2497  0.0194
 5376SOL    HW216670   2.200   4.749   5.458 -0.1939 -0.1782 -1.9262
 5377SOL     OW16671   4.533   1.809   2.866 -0.5976 -0.0299 -0.0396
 5377SOL    HW116672   4.589   1.748   2.914 -0.7798  0.8376  1.3202
 5377SOL    HW216673   4.592   1.880   2.840 -0.9859  0.8332  1.3026
 5378SOL     OW16674   1.897   6.727   1.590  0.3492  0.1395 -0.1635
 5378SOL    HW116675   1.937   6.807   1.623  2.4105 -0.3995 -1.1812
 5378SOL    HW216676   1.960   6.658   1.612 -0.4026 -0.8810 -1.0931
 5379SOL     OW16677   4.064   6.315   5.067 -0.5830 -0.7182 -0.2614
 5379SOL    HW116678   4.048   6.372   5.143 -0.6687 -0.1464 -0.7072
 5379SOL    HW216679   4.095   6.374   4.999  1.6695 -1.5148 -0.0212
 5380SOL     OW16680   7.277   6.124   3.298  0.4322  0.5372  0.1900
 5380SOL    HW116681   7.284   6.167   3.213  0.8271  3.0398  1.3730
 5380SOL    HW216682   7.367   6.113   3.327  0.2802  0.5310  0.6696
 5381SOL     OW16683   0.476   0.732   4.041 -0.4871 -0.0062  0.5209
 5381SOL    HW116684   0.505   0.647   4.009  0.3021 -0.5328  2.5141
 5381SOL    HW216685   0.391   0.715   4.081  0.1302 -0.0829  1.8256
 5382SOL     OW16686   6.911   5.614   6.873  0.6142  0.3375 -0.4836
 5382SOL    HW116687   6.871   5.621   6.786  1.0145  0.6801 -0.6453
 5382SOL    HW216688   6.877   5.689   6.921 -1.2418 -0.9545  0.3520
 5383SOL     OW16689   1.044   7.392   2.992 -0.4477  0.5436 -0.7043
 5383SOL    HW116690   0.983   7.366   3.061  0.6822  0.3484  0.2469
 5383SOL    HW216691   1.111   7.442   3.037  0.4061  0.2666 -1.6306
 5384SOL     OW16692   7.294   2.911   3.985  0.0934  0.7763  0.0288
 5384SOL    HW116693   7.264   2.936   4.073  1.0015  0.0303  0.5679
 5384SOL    HW216694   7.329   2.823   3.996 -2.4425 -0.5849 -1.6713
 5385SOL     OW16695   4.935   7.436   6.115 -0.3427  0.5263 -0.5939
 5385SOL    HW116696   4.904   7.357   6.070 -1.1348  0.4647  0.0430
 5385SOL    HW216697   4.855   7.484   6.139  0.1398  1.7749 -1.3976
 5386SOL     OW16698   1.109   1.614   1.381  0.1432  0.6427  0.1033
 5386SOL    HW116699   1.198   1.592   1.354 -0.3917  0.7984 -1.9763
 5386SOL    HW216700   1.058   1.611   1.300 -1.6597  1.0095  1.1675
 5387SOL     OW16701   5.667   1.747   1.499 -0.4017  0.1322  0.0704
 5387SOL    HW116702   5.693   1.667   1.544  0.4170 -0.7874 -1.9110
 5387SOL    HW216703   5.750   1.793   1.482 -0.6640  0.3858 -0.5753
 5388SOL     OW16704   1.416   6.743   0.855  0.1578  0.2188  0.1198
 5388SOL    HW116705   1.508   6.755   0.880  1.2358 -2.7400 -1.9105
 5388SOL    HW216706   1.384   6.674   0.912 -0.5646  0.6316  0.2235
 5389SOL     OW16707   7.313   2.547   4.619 -0.3393 -0.2385 -0.4117
 5389SOL    HW116708   7.244   2.593   4.667  0.0808  0.8130 -0.7876
 5389SOL    HW216709   7.331   2.603   4.543  1.2814 -0.2418 -0.0632
 5390SOL     OW16710   2.165   0.134   0.265 -0.5531 -0.4937  0.1623
 5390SOL    HW116711   2.169   0.049   0.221 -1.7337 -1.0475  1.0712
 5390SOL    HW216712   2.071   0.153   0.271 -0.4284 -0.3673  2.2668
 5391SOL     OW16713   7.018   1.497   2.268  0.0057  0.2998 -0.1596
 5391SOL    HW116714   7.055   1.473   2.353 -0.3232 -0.5367 -0.2443
 5391SOL    HW216715   7.013   1.415   2.220 -0.7153  0.6105 -0.6386
 5392SOL     OW16716   5.481   4.401   5.847  0.6433  0.1206  0.1852
 5392SOL    HW116717   5.509   4.474   5.901  1.9036 -0.1709 -0.0315
 5392SOL    HW216718   5.468   4.439   5.760 -0.4344  0.4002  0.4462
 5393SOL     OW16719   7.474   4.651   5.567  0.5582 -0.6629  0.2584
 5393SOL    HW116720   7.467   4.669   5.661 -0.7858  1.0248 -0.1208
 5393SOL    HW216721   7.397   4.693   5.529  1.6500 -0.3569 -1.7334
 5394SOL     OW16722   0.227   4.764   3.177 -0.2508 -0.5374 -0.1797
 5394SOL    HW116723   0.281   4.805   3.110 -1.3452 -0.7489 -1.2212
 5394SOL    HW216724   0.248   4.670   3.171  0.3843 -0.4439  0.4694
 5395SOL     OW16725   5.766   4.595   4.871 -0.6740  0.1795  0.2322
 5395SOL    HW116726   5.838   4.545   4.834  0.0316  0.9699  0.5022
 5395SOL    HW216727   5.690   4.537   4.864 -0.3825 -0.0238 -1.6185
 5396SOL     OW16728   0.908   3.050   5.982 -0.7682  0.3536 -0.0013
 5396SOL    HW116729   0.949   2.985   5.925  0.6324  0.3486  0.9620
 5396SOL    HW216730   0.928   3.019   6.070 -1.9230  0.9688  0.4830
 5397SOL     OW16731   6.224   6.622   0.519 -0.7167 -0.2129 -0.0004
 5397SOL    HW116732   6.249   6.714   0.528 -1.5374 -0.0507  0.7617
 5397SOL    HW216733   6.179   6.601   0.601  1.2729 -1.9128  0.7279
 5398SOL     OW16734   2.029   3.649   6.271 -0.0838  0.3855 -0.5383
 5398SOL    HW116735   2.096   3.713   6.248  0.2238  0.5559  0.7318
 5398SOL    HW216736   2.074   3.588   6.331 -0.8282 -0.0074 -0.3696
 5399SOL     OW16737   7.274   1.186   3.953  0.7968  0.1588 -0.2842
 5399SOL    HW116738   7.304   1.277   3.947  1.1110  0.0612 -0.1638
 5399SOL    HW216739   7.178   1.194   3.960  0.9442  0.5988  2.1083
 5400SOL     OW16740   5.491   4.460   4.813  0.3395 -0.0613  0.1281
 5400SOL    HW116741   5.511   4.376   4.854 -2.1643 -1.0863 -0.5803
 5400SOL    HW216742   5.448   4.510   4.882  2.0607  0.8235  0.6293
 5401SOL     OW16743   4.649   3.982   6.927 -0.3833 -0.1455 -0.3981
 5401SOL    HW116744   4.556   3.985   6.950 -0.0571 -1.6465  1.2945
 5401SOL    HW216745   4.690   4.047   6.984 -0.1318 -0.9838  0.4015
 5402SOL     OW16746   6.345   6.699   1.475  0.2803  0.1324  0.0211
 5402SOL    HW116747   6.438   6.691   1.496  0.0777 -1.4561  0.4047
 5402SOL    HW216748   6.300   6.681   1.558 -0.3891 -0.0358 -0.3654
 5403SOL     OW16749   3.330   7.428   4.974 -0.1714 -0.4579  0.3366
 5403SOL    HW116750   3.349   7.337   5.000 -0.5010 -0.5329  0.3235
 5403SOL    HW216751   3.274   7.461   5.044 -0.4230 -0.4098  0.1134
 5404SOL     OW16752   1.396   1.054   3.773 -0.3334 -0.2090 -0.1561
 5404SOL    HW116753   1.301   1.063   3.771 -0.2210  1.8036  1.1779
 5404SOL    HW216754   1.418   1.053   3.867  1.0188  0.2796 -0.4497
 5405SOL     OW16755   2.997   1.008   5.010 -0.2404 -0.4675  0.6079
 5405SOL    HW116756   3.028   0.918   5.017 -0.7793 -0.7444 -0.2997
 5405SOL    HW216757   3.075   1.062   5.027 -0.0848 -1.0753  1.9127
 5406SOL     OW16758   0.795   1.859   3.823  0.3744  0.1755 -0.1094
 5406SOL    HW116759   0.748   1.909   3.890  0.4059 -1.3674  1.1243
 5406SOL    HW216760   0.743   1.869   3.744 -1.0426 -0.0126  0.7750
 5407SOL     OW16761   1.668   0.087   2.355 -0.7689  0.6757  0.0025
 5407SOL    HW116762   1.601   0.063   2.418 -0.5109 -1.4649 -0.4621
 5407SOL    HW216763   1.748   0.097   2.407 -0.2228 -2.5234 -0.0306
 5408SOL     OW16764   0.555   3.484   6.609 -0.2819 -0.5551 -0.2097
 5408SOL    HW116765   0.487   3.520   6.552 -0.0459 -1.1275 -0.8700
 5408SOL    HW216766   0.552   3.538   6.688 -0.8597  0.0213 -0.6198
 5409SOL     OW16767   5.407   2.666   0.883  0.5714  0.0478 -0.2615
 5409SOL    HW116768   5.368   2.754   0.888 -0.5579 -0.3722 -1.2786
 5409SOL    HW216769   5.488   2.673   0.934  0.4755  1.6643 -0.2764
 5410SOL     OW16770   6.495   2.676   2.761 -0.1652 -0.8421  0.0969
 5410SOL    HW116771   6.429   2.733   2.722 -0.2440  0.0308  1.4512
 5410SOL    HW216772   6.554   2.654   2.688  0.5744  1.9421 -0.2497
 5411SOL     OW16773   3.628   5.426   1.651 -0.7070 -0.1982 -0.2800
 5411SOL    HW116774   3.690   5.498   1.642 -2.3285  1.2636 -0.3575
 5411SOL    HW216775   3.550   5.466   1.691 -1.6059 -1.9501 -0.1634
 5412SOL     OW16776   5.484   2.520   4.507  0.0397  0.0347 -0.1785
 5412SOL    HW116777   5.541   2.553   4.437  0.1085 -0.7994 -0.5310
 5412SOL    HW216778   5.531   2.444   4.542  0.1320  0.6008  0.9637
 5413SOL     OW16779   1.686   3.473   5.647  0.1135 -0.0392 -0.6111
 5413SOL    HW116780   1.653   3.525   5.574 -0.0053 -0.2041 -0.6740
 5413SOL    HW216781   1.776   3.450   5.622  0.1446  0.0800 -0.6113
 5414SOL     OW16782   3.091   4.235   1.420  0.6542  0.2658 -0.2447
 5414SOL    HW116783   3.133   4.154   1.390  3.1343  1.3426  0.0518
 5414SOL    HW216784   3.128   4.303   1.364 -1.5437  1.2173 -0.6323
 5415SOL     OW16785   3.358   1.697   5.618 -0.2896  0.0214  0.4227
 5415SOL    HW116786   3.391   1.620   5.665 -0.5025 -1.0158 -1.0618
 5415SOL    HW216787   3.428   1.722   5.558 -0.7395  0.1395 -0.0644
 5416SOL     OW16788   6.856   6.213   2.534 -0.1855 -0.1158  0.0598
 5416SOL    HW116789   6.780   6.154   2.532 -0.7122  0.4774  1.2725
 5416SOL    HW216790   6.862   6.248   2.445 -1.0381 -0.5565 -0.1796
 5417SOL     OW16791   7.134   3.260   4.611 -0.0021 -0.3550  0.2112
 5417SOL    HW116792   7.211   3.306   4.577  0.1153 -0.7824 -0.0997
 5417SOL    HW216793   7.168   3.178   4.646 -0.2539 -0.3357  0.5038
 5418SOL     OW16794   0.474   1.355   4.958 -0.5894  0.3582 -0.2154
 5418SOL    HW116795   0.416   1.426   4.930 -0.9675  0.5345  0.9718
 5418SOL    HW216796   0.420   1.276   4.953 -0.4466  0.2838 -0.6375
 5419SOL     OW16797   1.856   3.487   7.450 -0.3986 -0.3500  0.0232
 5419SOL    HW116798   1.827   3.399   7.425  0.4376 -0.8161  0.6474
 5419SOL    HW216799   1.940   3.473   7.494 -0.3400  0.7485  0.2845
 5420SOL     OW16800   6.084   4.218   1.170 -0.0425 -0.0309  0.4361
 5420SOL    HW116801   5.995   4.223   1.203  0.2308  1.5684  1.0169
 5420SOL    HW216802   6.081   4.265   1.086 -0.0175 -1.1827 -0.2376
 5421SOL     OW16803   5.641   0.970   4.367  0.0228  0.1054  0.4041
 5421SOL    HW116804   5.714   0.974   4.304 -0.6457 -1.5806 -0.5361
 5421SOL    HW216805   5.677   0.922   4.442  0.2634  0.4683  0.5252
 5422SOL     OW16806   3.959   4.034   6.317 -0.0347 -0.4102  0.2606
 5422SOL    HW116807   3.929   3.953   6.275 -1.1101  1.0102 -1.8585
 5422SOL    HW216808   3.896   4.050   6.387 -0.8577 -0.4867 -0.4499
 5423SOL     OW16809   3.417   7.010   1.192  0.3103  0.4148 -0.1926
 5423SOL    HW116810   3.336   6.960   1.187  0.5472 -0.2871  2.0619
 5423SOL    HW216811   3.478   6.961   1.136 -0.8651  1.2005 -2.2734
 5424SOL     OW16812   2.284   1.161   5.671  0.1271  0.1321  0.0763
 5424SOL    HW116813   2.205   1.180   5.723 -0.1653  0.6210 -0.5359
 5424SOL    HW216814   2.312   1.075   5.701  0.4159  0.7322  1.6255
 5425SOL     OW16815   5.666   3.496   6.545  0.4217  0.3479 -0.1250
 5425SOL    HW116816   5.734   3.556   6.573 -0.7468  2.5858 -1.7603
 5425SOL    HW216817   5.710   3.438   6.483  1.0495  1.2460 -0.5438
 5426SOL     OW16818   0.699   1.151   6.830 -0.2273 -0.2896 -0.1417
 5426SOL    HW116819   0.722   1.132   6.739 -2.0544 -0.5598 -0.5793
 5426SOL    HW216820   0.750   1.088   6.881  1.2920  0.2682 -0.9009
 5427SOL     OW16821   3.783   1.022   1.410 -0.0747  0.1869  0.4402
 5427SOL    HW116822   3.786   1.075   1.330  1.1176 -1.1323 -0.4457
 5427SOL    HW216823   3.847   0.953   1.395 -1.7143 -1.6659  1.4314
 5428SOL     OW16824   5.715   4.775   6.575  0.4397 -0.0083  0.0154
 5428SOL    HW116825   5.754   4.823   6.502  1.2382 -0.7892 -0.0988
 5428SOL    HW216826   5.621   4.784   6.563  0.4908 -1.3606 -2.0158
 5429SOL     OW16827   2.207   0.853   5.539 -0.1961 -0.0683  0.2954
 5429SOL    HW116828   2.153   0.775   5.555 -0.2929 -0.2249 -0.7286
 5429SOL    HW216829   2.227   0.850   5.446  0.4038  0.7570  0.3829
 5430SOL     OW16830   3.073   5.464   4.071 -0.1148  0.1194  0.3217
 5430SOL    HW116831   3.094   5.473   4.164 -0.4106  0.9520  0.3173
 5430SOL    HW216832   2.979   5.481   4.066  0.0928  1.1344 -0.2641
 5431SOL     OW16833   3.227   5.778   5.796  0.1345  0.2157  0.1836
 5431SOL    HW116834   3.139   5.804   5.822  0.2500 -0.9891  1.8971
 5431SOL    HW216835   3.228   5.793   5.701 -2.0380 -0.1053  0.0431
 5432SOL     OW16836   5.068   4.435   4.169  0.4320 -0.0885  0.4723
 5432SOL    HW116837   5.122   4.431   4.090  0.2099 -0.7375  0.3496
 5432SOL    HW216838   5.113   4.498   4.225  0.6918  0.2374 -0.0926
 5433SOL     OW16839   2.695   2.273   6.739  0.4177  0.0337 -0.4326
 5433SOL    HW116840   2.674   2.310   6.825  0.9044  0.5097 -0.5117
 5433SOL    HW216841   2.791   2.268   6.739  0.3800 -0.9408 -0.5456
 5434SOL     OW16842   0.562   2.940   6.662  0.0760 -0.0262 -0.1209
 5434SOL    HW116843   0.515   2.857   6.654 -0.3168  0.0590  1.0834
 5434SOL    HW216844   0.610   2.933   6.745  0.6242  0.6640 -0.3679
 5435SOL     OW16845   7.271   7.170   1.749  0.0464 -0.8523 -0.1096
 5435SOL    HW116846   7.225   7.225   1.686 -0.8630 -0.3285  0.9744
 5435SOL    HW216847   7.345   7.134   1.700  1.0226  1.7584 -0.7231
 5436SOL     OW16848   0.272   2.156   0.092 -0.1356  0.2597 -0.7132
 5436SOL    HW116849   0.306   2.142   0.004  1.6665  0.5686 -0.1254
 5436SOL    HW216850   0.214   2.232   0.084 -3.2638 -2.0973 -2.3242
 5437SOL     OW16851   0.656   5.745   6.308 -0.2293 -0.1241 -0.0125
 5437SOL    HW116852   0.695   5.713   6.227 -0.7463  1.1600 -0.7857
 5437SOL    HW216853   0.566   5.712   6.306 -1.2028  2.3894 -1.4851
 5438SOL     OW16854   7.625   5.494   2.847  0.7472 -0.1324  0.0753
 5438SOL    HW116855   7.701   5.435   2.853 -0.6628 -1.9038  1.7327
 5438SOL    HW216856   7.583   5.469   2.765  0.3250 -1.2867  0.6209
 5439SOL     OW16857   3.385   3.097   5.040  0.2341  0.0414 -0.2660
 5439SOL    HW116858   3.339   3.137   5.113 -3.1277  0.6252 -2.4703
 5439SOL    HW216859   3.397   3.168   4.977  1.5109 -0.7684 -0.9905
 5440SOL     OW16860   0.392   1.092   4.940 -0.2402  0.7083  0.6085
 5440SOL    HW116861   0.354   1.044   5.013 -1.8385 -0.8845 -1.1599
 5440SOL    HW216862   0.479   1.054   4.929 -0.9535 -0.8606  0.1260
 5441SOL     OW16863   3.198   5.132   7.060  0.0883  0.0811  0.0882
 5441SOL    HW116864   3.254   5.070   7.107  0.9938 -0.9466 -2.2105
 5441SOL    HW216865   3.118   5.083   7.042 -1.3773  1.3140  2.7211
 5442SOL     OW16866   4.660   2.990   1.311  0.0759 -0.3017 -0.1286
 5442SOL    HW116867   4.741   3.034   1.338 -0.6137  1.6214 -0.9733
 5442SOL    HW216868   4.599   3.005   1.384 -0.3840  0.8801 -0.7181
 5443SOL     OW16869   2.808   0.078   7.351  0.5156 -0.7227 -0.0920
 5443SOL    HW116870   2.731   0.130   7.327 -0.3780 -1.5406  0.9035
 5443SOL    HW216871   2.881   0.122   7.309 -0.1435  1.5872  1.0302
 5444SOL     OW16872   7.404   3.081   1.384 -0.4281  0.2832  0.2381
 5444SOL    HW116873   7.332   3.089   1.447 -0.6741  0.4944 -0.0661
 5444SOL    HW216874   7.431   3.171   1.367  0.1767  0.1847  0.6503
 5445SOL     OW16875   4.131   1.382   1.767  0.0636  0.4261 -0.0020
 5445SOL    HW116876   4.143   1.292   1.735 -0.1072  0.0849  0.8670
 5445SOL    HW216877   4.061   1.418   1.714  0.4225  0.1894 -0.6452
 5446SOL     OW16878   0.271   5.179   2.594 -0.1540  0.3691  0.0419
 5446SOL    HW116879   0.192   5.234   2.591 -0.1012  0.6943  2.2490
 5446SOL    HW216880   0.277   5.153   2.686  1.6693 -0.6380 -0.3285
 5447SOL     OW16881   4.324   1.896   5.520 -0.0031 -0.4279  0.3730
 5447SOL    HW116882   4.282   1.966   5.469  0.4495 -0.5049 -0.1222
 5447SOL    HW216883   4.287   1.904   5.607 -1.8318 -1.1426 -0.2951
 5448SOL     OW16884   0.055   2.747   6.704 -0.2754 -0.0039 -0.6551
 5448SOL    HW116885   0.139   2.719   6.740 -0.1933  2.1552  1.0476
 5448SOL    HW216886  -0.003   2.672   6.716  1.4920 -1.7899 -2.5025
 5449SOL     OW16887   1.396   4.481   2.934  0.0207 -0.4810 -0.1370
 5449SOL    HW116888   1.353   4.535   3.001 -0.3343  0.8001 -1.3357
 5449SOL    HW216889   1.466   4.537   2.899  0.2668 -1.1588 -0.7662
 5450SOL     OW16890   4.980   4.024   2.802 -0.0008 -0.6238 -0.7353
 5450SOL    HW116891   4.912   3.961   2.778 -1.2701  0.6604 -0.6218
 5450SOL    HW216892   5.012   4.057   2.718 -0.6049 -0.1233 -0.7783
 5451SOL     OW16893   3.258   6.093   5.414 -0.0786  0.0556  0.8080
 5451SOL    HW116894   3.318   6.054   5.477  0.3543 -0.3206  0.1733
 5451SOL    HW216895   3.232   6.020   5.358 -0.3000  0.4247  0.4261
 5452SOL     OW16896   2.400   2.613   3.302 -0.1394 -0.3229  0.2852
 5452SOL    HW116897   2.359   2.529   3.323 -1.6506  0.7670  1.9528
 5452SOL    HW216898   2.326   2.674   3.293  1.0062  1.3710  1.7328
 5453SOL     OW16899   5.865   6.127   0.886 -0.3005  1.1519 -0.4974
 5453SOL    HW116900   5.955   6.120   0.855 -0.1161 -1.0277  0.3855
 5453SOL    HW216901   5.812   6.088   0.816  0.0375 -2.9218  1.2752
 5454SOL     OW16902   7.214   2.411   5.516  0.0485  0.1881  0.1754
 5454SOL    HW116903   7.126   2.382   5.539  0.0913  0.6877  1.0212
 5454SOL    HW216904   7.224   2.494   5.562  0.9166  0.2004 -0.0231
 5455SOL     OW16905   4.655   5.951   3.674  0.0717  0.8451  0.5925
 5455SOL    HW116906   4.564   5.972   3.652  0.9097  4.5019 -0.0090
 5455SOL    HW216907   4.701   5.954   3.590  0.7196 -1.7300  0.7732
 5456SOL     OW16908   3.805   3.825   4.407  0.6150 -0.3261  0.6280
 5456SOL    HW116909   3.850   3.748   4.372 -0.1576 -1.9838  3.0011
 5456SOL    HW216910   3.793   3.882   4.331  1.7692 -2.2560 -1.1306
 5457SOL     OW16911   3.871   6.369   5.685 -0.3448 -0.1042  0.4594
 5457SOL    HW116912   3.925   6.293   5.706  0.5063  0.0527 -1.0681
 5457SOL    HW216913   3.874   6.376   5.590 -1.0615  1.3719  0.5134
 5458SOL     OW16914   6.004   2.028   4.376  0.0244  0.2250  0.2533
 5458SOL    HW116915   6.069   2.080   4.423  0.2454 -1.2094  1.5908
 5458SOL    HW216916   5.995   2.073   4.292  0.4409  2.2374  1.2020
 5459SOL     OW16917   2.294   5.862   6.267  0.3418  0.1382 -0.2125
 5459SOL    HW116918   2.219   5.916   6.243  0.3457  0.4810  0.5367
 5459SOL    HW216919   2.368   5.901   6.220  0.0005 -0.4228 -1.2450
 5460SOL     OW16920   0.630   5.524   6.658 -0.2491  0.0588  0.6743
 5460SOL    HW116921   0.723   5.535   6.676 -0.5248  1.1147  1.5634
 5460SOL    HW216922   0.602   5.607   6.621 -0.4428 -0.9332 -1.5312
 5461SOL     OW16923   2.457   4.016   3.985 -0.7118 -0.0849  0.2941
 5461SOL    HW116924   2.394   4.029   4.055 -0.4312 -0.9658  0.7262
 5461SOL    HW216925   2.542   4.031   4.026 -0.5972  0.4315 -0.1209
 5462SOL     OW16926   0.953   2.857   0.974 -0.4906  0.5662 -0.4624
 5462SOL    HW116927   0.981   2.771   1.005 -1.3989  0.3082 -0.3223
 5462SOL    HW216928   0.859   2.858   0.989 -0.8167  0.8155 -2.3218
 5463SOL     OW16929   4.326   3.821   0.137  0.5470  0.4205 -0.1245
 5463SOL    HW116930   4.315   3.794   0.228  0.1556  0.1290 -0.2554
 5463SOL    HW216931   4.320   3.916   0.139  0.3415  0.4037  0.1312
 5464SOL     OW16932   4.898   1.434   5.132  0.5707  0.2069  0.8786
 5464SOL    HW116933   4.906   1.464   5.041  0.4483 -1.2266  0.3705
 5464SOL    HW216934   4.912   1.513   5.184 -0.6609  1.3322 -0.4029
 5465SOL     OW16935   1.936   3.399   5.417 -0.2839 -0.5719 -0.4675
 5465SOL    HW116936   1.848   3.427   5.394 -0.5035 -1.8964 -1.3403
 5465SOL    HW216937   1.992   3.472   5.389 -0.9297 -0.5301 -1.7282
 5466SOL     OW16938   2.588   7.102   2.099 -0.4818 -0.1520  0.1221
 5466SOL    HW116939   2.677   7.123   2.128  0.4844 -0.2659 -2.5257
 5466SOL    HW216940   2.559   7.182   2.054 -0.5735 -1.0512 -1.4821
 5467SOL     OW16941   2.169   5.894   4.223  0.0131  0.7694 -0.1581
 5467SOL    HW116942   2.098   5.947   4.259 -1.4777 -1.8710  1.0336
 5467SOL    HW216943   2.232   5.886   4.294  0.2977  1.0344 -0.3778
 5468SOL     OW16944   6.417   1.073   7.608 -0.2971 -0.1363 -0.1749
 5468SOL    HW116945   6.408   1.040   7.698 -0.4735 -1.3303 -0.6073
 5468SOL    HW216946   6.346   1.137   7.599 -0.2644  0.0079  0.5372
 5469SOL     OW16947   2.126   4.741   3.295 -0.3351  0.1773 -0.4381
 5469SOL    HW116948   2.150   4.833   3.301 -0.0950  0.0453  0.7856
 5469SOL    HW216949   2.031   4.742   3.287 -0.3736  0.5182  0.0331
 5470SOL     OW16950   3.809   1.040   6.227 -0.5060  0.8557 -0.0830
 5470SOL    HW116951   3.760   1.055   6.308  0.5162 -0.2543  0.7733
 5470SOL    HW216952   3.900   1.029   6.255 -0.4296 -1.8498 -1.0766
 5471SOL     OW16953   5.046   0.316   3.260  0.2060 -0.2444  0.3096
 5471SOL    HW116954   5.084   0.233   3.289  0.6568 -0.6635 -1.3445
 5471SOL    HW216955   5.120   0.369   3.233  0.0291  1.2521  2.5413
 5472SOL     OW16956   5.404   1.507   0.869  0.1336 -0.3083 -0.0815
 5472SOL    HW116957   5.346   1.572   0.908 -1.4713 -1.2230 -0.8390
 5472SOL    HW216958   5.425   1.541   0.782  0.8821  0.0804  0.2362
 5473SOL     OW16959   1.741   4.922   0.271  0.3830 -0.1199 -0.1419
 5473SOL    HW116960   1.648   4.928   0.250  0.5213  2.7877 -0.3029
 5473SOL    HW216961   1.769   4.839   0.232 -1.5928  0.1646 -2.4035
 5474SOL     OW16962   5.927   4.827   7.144  0.0137  0.5918 -0.7557
 5474SOL    HW116963   5.867   4.899   7.165  1.0631  1.5347 -0.8748
 5474SOL    HW216964   5.946   4.839   7.051  1.5611  1.2601 -0.3940
 5475SOL     OW16965   5.948   0.245   0.572 -0.1773  0.1543  0.2127
 5475SOL    HW116966   6.006   0.193   0.516 -0.5016  1.9475 -1.9317
 5475SOL    HW216967   6.005   0.277   0.642  0.5613 -1.0460  0.1904
 5476SOL     OW16968   2.513   0.036   1.341 -0.2676  0.0847  0.7845
 5476SOL    HW116969   2.455  -0.020   1.392 -0.7907 -0.2788 -0.1613
 5476SOL    HW216970   2.463   0.118   1.330 -0.0961  0.2160  0.9813
 5477SOL     OW16971   2.956   4.024   4.617  0.0690  0.6506 -0.4015
 5477SOL    HW116972   2.977   3.938   4.655 -2.9456 -0.3060 -0.6274
 5477SOL    HW216973   3.018   4.084   4.658  0.9883 -1.3117  1.2728
 5478SOL     OW16974   1.674   2.723   7.165  0.5880 -0.4465  0.0411
 5478SOL    HW116975   1.677   2.762   7.252  0.1177 -1.1017  0.3598
 5478SOL    HW216976   1.671   2.629   7.181  1.7809 -0.6338 -0.7125
 5479SOL     OW16977   4.166   1.158   3.763 -0.3263 -0.7044  0.3619
 5479SOL    HW116978   4.255   1.156   3.797  0.4709 -0.6467 -1.6282
 5479SOL    HW216979   4.167   1.226   3.696 -1.7480 -1.0345 -0.0320
 5480SOL     OW16980   3.652   5.694   5.762 -0.2036  0.2758  0.2936
 5480SOL    HW116981   3.714   5.689   5.690 -0.1681  0.7503  0.2914
 5480SOL    HW216982   3.705   5.682   5.841 -0.2528 -0.3176  0.2417
 5481SOL     OW16983   2.532   3.021   1.297 -0.7204 -0.5651 -0.6101
 5481SOL    HW116984   2.566   2.948   1.245 -0.0502  0.9984 -2.4933
 5481SOL    HW216985   2.567   3.007   1.384  3.1761 -0.1672 -1.9407
 5482SOL     OW16986   7.140   1.546   4.496 -0.3513 -0.3861 -0.5721
 5482SOL    HW116987   7.189   1.524   4.575 -0.1457 -0.3470 -0.6898
 5482SOL    HW216988   7.126   1.462   4.452 -1.5906 -0.5903  0.1515
 5483SOL     OW16989   7.550   2.502   7.510 -0.4260 -0.6448 -0.0081
 5483SOL    HW116990   7.586   2.452   7.437  0.0267 -0.3622  0.0144
 5483SOL    HW216991   7.610   2.576   7.519  0.1952 -1.2860  1.4007
 5484SOL     OW16992   2.651   5.254   1.506 -0.1195 -0.7992  0.2806
 5484SOL    HW116993   2.604   5.313   1.565 -0.6578 -1.1136  0.1713
 5484SOL    HW216994   2.691   5.189   1.563  0.9059 -0.0486  0.4472
 5485SOL     OW16995   6.744   0.018   3.021 -0.1588 -0.5917  0.1752
 5485SOL    HW116996   6.772  -0.022   2.939  2.8554  1.1420  0.2125
 5485SOL    HW216997   6.781  -0.038   3.090  0.0128 -0.3445  0.2877
 5486SOL     OW16998   2.389   0.508   0.571  0.2805  0.8155  0.2755
 5486SOL    HW116999   2.346   0.454   0.505 -0.2827  1.9285 -0.2927
 5486SOL    HW217000   2.476   0.525   0.535 -0.5459  2.7263 -0.9918
 5487SOL     OW17001   7.623   1.080   0.928  0.6973  0.6569  0.0697
 5487SOL    HW117002   7.716   1.088   0.907  0.7872  0.0101  0.2069
 5487SOL    HW217003   7.585   1.035   0.853  0.5528  0.6619  0.1394
 5488SOL     OW17004   7.429   4.050   4.886 -0.2411  0.2536  0.0145
 5488SOL    HW117005   7.506   4.065   4.940  0.5317  1.0893 -1.2670
 5488SOL    HW217006   7.358   4.039   4.949  0.8509 -0.1849  1.2152
 5489SOL     OW17007   6.101   1.413   1.480 -0.5536  0.4150 -0.1449
 5489SOL    HW117008   6.105   1.377   1.392 -0.5418  2.8354 -1.2076
 5489SOL    HW217009   6.179   1.380   1.524 -0.4501 -0.6386 -1.0865
 5490SOL     OW17010   3.066   0.519   4.322 -0.3799 -0.0232 -0.2910
 5490SOL    HW117011   3.053   0.577   4.398 -0.7158  0.3382 -0.6209
 5490SOL    HW217012   2.988   0.464   4.320 -0.2518 -0.2065 -0.2229
 5491SOL     OW17013   2.521   2.950   0.153 -0.2202 -0.2769 -0.6346
 5491SOL    HW117014   2.463   2.928   0.226  0.1013 -1.0784 -0.6198
 5491SOL    HW217015   2.580   3.016   0.189 -1.6368  1.2025 -0.8859
 5492SOL     OW17016   6.116   0.422   5.189  0.1825  0.0204 -0.1722
 5492SOL    HW117017   6.055   0.489   5.219  1.1011  0.1559  1.5871
 5492SOL    HW217018   6.203   0.460   5.205  0.8079  0.0830 -3.1512
 5493SOL     OW17019   6.122   2.503   4.537  0.3706 -0.2918 -0.0778
 5493SOL    HW117020   6.112   2.572   4.603 -0.2269  0.5477 -1.0110
 5493SOL    HW217021   6.215   2.502   4.516  0.5737 -0.6101  0.8169
 5494SOL     OW17022   4.483   7.047   3.263  0.2818 -0.1176  0.1421
 5494SOL    HW117023   4.513   6.975   3.319 -0.2856 -0.0475  0.5426
 5494SOL    HW217024   4.523   7.029   3.178 -0.6193 -1.4434 -0.0281
 5495SOL     OW17025   6.308   1.354   7.042 -0.5701 -0.2508 -0.1578
 5495SOL    HW117026   6.321   1.439   7.000  0.7729 -0.5590 -0.4095
 5495SOL    HW217027   6.397   1.321   7.057 -1.0612 -1.2404  0.6980
 5496SOL     OW17028   6.248   5.542   6.121  0.6347  0.0917 -0.7309
 5496SOL    HW117029   6.297   5.556   6.040 -0.2843  1.4216 -1.0981
 5496SOL    HW217030   6.295   5.592   6.187  1.6130 -1.3177 -0.3187
 5497SOL     OW17031   2.334   6.912   4.034 -0.4480 -0.4639 -0.2068
 5497SOL    HW117032   2.315   6.988   4.088  0.7005 -0.0485 -0.3605
 5497SOL    HW217033   2.249   6.888   3.995 -1.2906 -0.7297  1.6675
 5498SOL     OW17034   0.307   2.292   0.832 -0.3623 -0.2371  0.2700
 5498SOL    HW117035   0.334   2.382   0.810 -0.0198 -0.0021  1.5592
 5498SOL    HW217036   0.388   2.251   0.863 -0.3886 -1.1981 -0.8670
 5499SOL     OW17037   0.976   7.552   3.767  0.8230  0.0791  0.1490
 5499SOL    HW117038   0.926   7.533   3.688 -1.0145  1.2900  0.9509
 5499SOL    HW217039   0.925   7.511   3.837  1.5868  0.3448  0.8766
 5500SOL     OW17040   5.154   0.024   4.948 -0.1896  1.0004  0.0992
 5500SOL    HW117041   5.089   0.093   4.934  0.9193  2.3864  1.4029
 5500SOL    HW217042   5.221   0.065   5.003  0.0510 -1.3831  1.7649
 5501SOL     OW17043   0.064   3.749   6.640 -0.5069  0.4681 -0.1202
 5501SOL    HW117044   0.003   3.714   6.704  0.9657 -0.2679  0.9352
 5501SOL    HW217045   0.013   3.755   6.559 -1.9812 -0.0323  0.7287
 5502SOL     OW17046   2.036   6.763   0.679 -0.3970  0.4938 -0.2004
 5502SOL    HW117047   2.041   6.710   0.758 -0.6290  0.7825  0.0095
 5502SOL    HW217048   1.989   6.842   0.706 -2.2968 -0.2750 -1.1116
 5503SOL     OW17049   6.778   0.282   2.369 -0.1041  0.1578  0.1792
 5503SOL    HW117050   6.688   0.251   2.357 -1.5904  2.6498  3.2115
 5503SOL    HW217051   6.806   0.243   2.451  0.8459  0.8794  0.2159
 5504SOL     OW17052   0.391   5.075   7.419 -0.1215  0.2240 -0.4864
 5504SOL    HW117053   0.423   5.056   7.331  1.0667 -1.2224  0.2227
 5504SOL    HW217054   0.466   5.112   7.465  0.2536 -2.0141  0.8222
 5505SOL     OW17055   6.065   7.566   2.123 -0.5462 -0.2491  0.4749
 5505SOL    HW117056   5.989   7.582   2.067  0.1905 -0.0011 -0.4778
 5505SOL    HW217057   6.067   7.640   2.183 -0.3093  0.4473 -0.3625
 5506SOL     OW17058   3.865   7.399   7.587  0.2416 -0.3979  0.1208
 5506SOL    HW117059   3.778   7.362   7.601 -0.3460 -0.3808 -2.7752
 5506SOL    HW217060   3.925   7.327   7.607 -0.4670 -0.7026  1.2247
 5507SOL     OW17061   6.174   5.467   4.503  0.3049 -0.2076 -1.1777
 5507SOL    HW117062   6.116   5.527   4.455 -0.7445 -0.6597 -0.4912
 5507SOL    HW217063   6.245   5.448   4.441 -1.1536 -1.0013 -2.6716
 5508SOL     OW17064   2.921   3.793   0.567  0.0843  0.4666  0.5800
 5508SOL    HW117065   2.959   3.877   0.592 -0.6224  0.8587  0.3696
 5508SOL    HW217066   2.841   3.816   0.520  0.2020 -0.3098 -0.0225
 5509SOL     OW17067   2.582   6.678   1.316 -0.0895 -0.1987 -0.3321
 5509SOL    HW117068   2.538   6.740   1.259 -0.4472 -0.7785 -0.6995
 5509SOL    HW217069   2.541   6.594   1.297  1.5951 -0.8812 -1.1513
 5510SOL     OW17070   6.525   4.714   0.730 -0.2327 -0.1272  0.4608
 5510SOL    HW117071   6.433   4.724   0.751 -0.0120  4.3195  0.2820
 5510SOL    HW217072   6.566   4.686   0.812 -1.5500 -1.1551  0.8048
 5511SOL     OW17073   1.300   1.175   1.926  0.2761  0.0078  0.9533
 5511SOL    HW117074   1.376   1.204   1.976  0.2325  0.8206  0.5786
 5511SOL    HW217075   1.253   1.256   1.906 -0.0281 -0.3585  0.1284
 5512SOL     OW17076   0.818   0.259   4.164  0.5720  0.9614 -0.0312
 5512SOL    HW117077   0.906   0.291   4.147  0.7753 -0.6319 -2.6109
 5512SOL    HW217078   0.828   0.165   4.173 -0.8006  0.8317  0.3803
 5513SOL     OW17079   3.521   2.067   3.893 -0.1018 -0.1414 -0.0950
 5513SOL    HW117080   3.538   2.133   3.825  1.3972  0.1040  0.4884
 5513SOL    HW217081   3.450   2.105   3.945  0.8407  1.1097  0.3178
 5514SOL     OW17082   1.358   7.263   1.215 -0.4203  0.3752 -0.3161
 5514SOL    HW117083   1.360   7.247   1.310 -0.7324  0.6875 -0.2589
 5514SOL    HW217084   1.427   7.206   1.181 -1.0804 -0.6208 -0.0343
 5515SOL     OW17085   2.034   3.369   6.759  0.2861 -0.0073 -0.3259
 5515SOL    HW117086   2.093   3.330   6.823 -1.2176  0.4910  1.4494
 5515SOL    HW217087   1.954   3.387   6.808 -0.7868  0.8008 -2.2617
 5516SOL     OW17088   5.104   5.303   1.111 -0.3682 -0.4112 -0.5157
 5516SOL    HW117089   5.038   5.315   1.043 -0.7822 -1.4424 -0.3168
 5516SOL    HW217090   5.185   5.285   1.064  0.1514  2.2670 -0.8121
 5517SOL     OW17091   2.338   5.124   1.506 -0.0999  0.1268 -0.3419
 5517SOL    HW117092   2.391   5.129   1.427  0.8647 -1.6075  0.1320
 5517SOL    HW217093   2.276   5.196   1.499  1.7930  1.7336 -1.3062
 5518SOL     OW17094   0.727   6.224   3.150  0.3476 -0.3373 -0.0659
 5518SOL    HW117095   0.685   6.306   3.177  0.9974 -0.4036  1.2214
 5518SOL    HW217096   0.762   6.243   3.063  0.0148  0.5715 -0.0177
 5519SOL     OW17097   7.474   7.041   1.602 -0.5657 -0.0784 -0.2313
 5519SOL    HW117098   7.476   7.003   1.514  0.3620 -0.6480  0.0297
 5519SOL    HW217099   7.488   6.968   1.661  0.1622  0.5030  0.3332
 5520SOL     OW17100   7.606   7.523   3.988  0.1431 -0.1341  0.1556
 5520SOL    HW117101   7.590   7.433   3.958 -2.1595  1.0730 -2.7757
 5520SOL    HW217102   7.535   7.541   4.049 -0.9492  0.4159 -1.2166
 5521SOL     OW17103   4.207   1.324   5.746  0.3344 -0.2110 -0.0306
 5521SOL    HW117104   4.274   1.258   5.766  1.1653 -0.0297 -1.9871
 5521SOL    HW217105   4.223   1.395   5.808  1.0679 -0.7673  0.4281
 5522SOL     OW17106   3.798   5.884   2.874  0.4182  0.1065  0.0633
 5522SOL    HW117107   3.764   5.943   2.942  3.1058  0.5310  1.1379
 5522SOL    HW217108   3.721   5.862   2.822 -1.0631  3.0020  0.7875
 5523SOL     OW17109   1.733   6.449   0.296 -0.0897 -0.0705  0.2323
 5523SOL    HW117110   1.772   6.460   0.383 -0.5137 -0.9443  0.5391
 5523SOL    HW217111   1.766   6.364   0.265 -1.9753 -1.0142  0.6408
 5524SOL     OW17112   2.924   5.818   4.884 -0.2677 -0.3542  0.1852
 5524SOL    HW117113   2.973   5.813   4.802  0.1225  0.7716  0.3380
 5524SOL    HW217114   2.958   5.895   4.929 -0.3055 -1.0834  1.5371
 5525SOL     OW17115   4.871   4.146   0.551 -0.2974 -0.2261 -0.3118
 5525SOL    HW117116   4.864   4.051   0.538  0.7402 -0.4537  0.6520
 5525SOL    HW217117   4.927   4.176   0.479  1.8838 -0.8334  1.0374
 5526SOL     OW17118   5.735   3.967   3.783 -0.0105  0.5135  0.4814
 5526SOL    HW117119   5.646   3.935   3.801 -0.4947  1.4093 -0.2356
 5526SOL    HW217120   5.784   3.888   3.759 -1.2226  0.2794 -1.4509
 5527SOL     OW17121   7.432   2.929   6.180 -0.1588  0.1469 -0.2262
 5527SOL    HW117122   7.491   2.861   6.149  0.0744  0.3290 -0.1812
 5527SOL    HW217123   7.441   3.000   6.116 -0.9789 -0.1615 -0.7109
 5528SOL     OW17124   5.558   4.082   1.578 -0.3977 -0.5291  0.0469
 5528SOL    HW117125   5.647   4.062   1.608 -0.4750 -1.4592 -0.3163
 5528SOL    HW217126   5.536   4.164   1.622  0.7406 -0.1417 -0.0739
 5529SOL     OW17127   1.489   0.937   5.879  0.4835 -0.2952 -0.3721
 5529SOL    HW117128   1.577   0.952   5.844  0.0161  0.2913 -1.3266
 5529SOL    HW217129   1.478   0.842   5.877  1.4230 -0.4526  0.6176
 5530SOL     OW17130   3.408   6.630   4.347 -0.5184  0.0078 -0.0275
 5530SOL    HW117131   3.387   6.706   4.293  2.7289 -0.3373 -2.0722
 5530SOL    HW217132   3.443   6.666   4.428  1.8455  0.8202 -1.3354
 5531SOL     OW17133   6.795   2.644   7.438 -0.1558 -0.0960  0.6398
 5531SOL    HW117134   6.814   2.661   7.531 -1.5169 -0.4735  1.0067
 5531SOL    HW217135   6.709   2.603   7.439  0.8941 -2.5159 -0.5743
 5532SOL     OW17136   0.890   5.336   4.765  0.7516 -1.0542  0.6485
 5532SOL    HW117137   0.841   5.294   4.694  0.3969 -0.6960  0.6790
 5532SOL    HW217138   0.982   5.322   4.741  0.6436 -0.3374 -0.2452
 5533SOL     OW17139   5.388   3.697   5.142 -0.3818 -0.6644  0.5705
 5533SOL    HW117140   5.323   3.642   5.185 -0.1270 -2.5492 -1.2942
 5533SOL    HW217141   5.341   3.741   5.071 -0.3876  0.9055  1.5049
 5534SOL     OW17142   1.754   2.343   1.362 -0.0074 -0.5264  0.1726
 5534SOL    HW117143   1.708   2.267   1.326  0.9434 -1.0324 -0.0219
 5534SOL    HW217144   1.686   2.408   1.378 -0.4591  0.0070 -3.1825
 5535SOL     OW17145   1.553   2.357   2.282  0.3999  0.1438 -0.1837
 5535SOL    HW117146   1.602   2.331   2.360 -0.8572 -1.4842  0.1342
 5535SOL    HW217147   1.524   2.446   2.300  2.4017  0.8085  0.0057
 5536SOL     OW17148   1.216   3.336   5.683  0.2527 -0.0842 -0.1730
 5536SOL    HW117149   1.130   3.366   5.655  1.6274  2.3732 -2.1710
 5536SOL    HW217150   1.211   3.334   5.778 -1.9261  0.1626 -0.2367
 5537SOL     OW17151   2.392   3.780   5.989  0.7230  0.5522 -0.1285
 5537SOL    HW117152   2.438   3.806   6.069  0.7260 -0.6117  0.2632
 5537SOL    HW217153   2.308   3.825   5.994  0.6877  0.4279  0.5795
 5538SOL     OW17154   3.243   4.667   0.256  0.3892  0.2145 -0.2594
 5538SOL    HW117155   3.210   4.726   0.324 -0.3107  0.4631 -0.7974
 5538SOL    HW217156   3.184   4.592   0.258  1.1664 -0.3986  0.2962
 5539SOL     OW17157   7.429   7.265   6.284  0.0610 -0.4825  0.2537
 5539SOL    HW117158   7.465   7.229   6.203  0.1063 -0.0147  0.0660
 5539SOL    HW217159   7.413   7.188   6.339 -0.5241 -0.8572 -0.4228
 5540SOL     OW17160   7.408   3.533   7.557 -0.2160  0.0523  0.5250
 5540SOL    HW117161   7.419   3.575   7.641  1.5990  0.0024  0.3413
 5540SOL    HW217162   7.457   3.587   7.495 -1.8418  0.3166 -0.6007
 5541SOL     OW17163   4.636   1.295   4.705 -0.5812  0.1446 -0.2064
 5541SOL    HW117164   4.543   1.275   4.718 -0.9671 -0.4389 -3.0318
 5541SOL    HW217165   4.638   1.390   4.691 -1.1500 -0.0845 -2.2129
 5542SOL     OW17166   3.605   6.879   6.828  0.5749  0.1020 -0.2747
 5542SOL    HW117167   3.650   6.958   6.797 -0.5079  0.5125 -0.8456
 5542SOL    HW217168   3.668   6.808   6.812  0.8583  0.5974 -1.4823
 5543SOL     OW17169   7.420   5.525   7.300  0.2945  0.0339 -0.0037
 5543SOL    HW117170   7.384   5.442   7.332 -2.5076  0.2174 -2.2847
 5543SOL    HW217171   7.515   5.516   7.313 -0.0951 -2.5489  1.9041
 5544SOL     OW17172   0.102   2.150   1.328  0.4346 -0.2565 -0.2692
 5544SOL    HW117173   0.013   2.143   1.294 -0.0007  1.5833  0.3663
 5544SOL    HW217174   0.123   2.062   1.359 -1.4006 -0.6068  0.0849
 5545SOL     OW17175   4.937   0.614   4.133 -0.0659  0.3123  0.3936
 5545SOL    HW117176   4.933   0.593   4.039 -0.0736 -0.6888  0.6059
 5545SOL    HW217177   5.030   0.631   4.149 -0.2609  1.9638 -0.0855
 5546SOL     OW17178   4.374   5.353   3.926 -0.5309 -0.9727 -0.3234
 5546SOL    HW117179   4.422   5.436   3.927 -0.0517 -1.2496  0.0704
 5546SOL    HW217180   4.379   5.324   3.835  0.1516 -1.0508 -0.2703
 5547SOL     OW17181   4.491   2.748   5.170  0.9555  0.2367  0.2294
 5547SOL    HW117182   4.421   2.683   5.166  0.6109  0.5514  0.9210
 5547SOL    HW217183   4.476   2.793   5.254  1.5131  0.8328  0.0101
 5548SOL     OW17184   5.327   6.366   2.341 -0.0318 -0.4707  0.0132
 5548SOL    HW117185   5.277   6.317   2.406  0.3901 -0.9558 -0.0152
 5548SOL    HW217186   5.364   6.298   2.284  1.5188 -0.2105  0.6548
 5549SOL     OW17187   3.029   1.612   0.702 -0.2498 -0.5178  0.0300
 5549SOL    HW117188   3.078   1.646   0.627  1.6434 -1.3278  0.8377
 5549SOL    HW217189   3.085   1.629   0.778 -1.5866 -0.7720  1.1260
 5550SOL     OW17190   4.836   6.478   1.857 -0.3390 -0.5962  0.4457
 5550SOL    HW117191   4.858   6.392   1.821  3.8858  0.6585 -0.5747
 5550SOL    HW217192   4.913   6.503   1.908 -0.0356  3.6457 -1.5811
 5551SOL     OW17193   4.329   2.592   4.779 -0.4456 -0.1097 -0.2314
 5551SOL    HW117194   4.406   2.605   4.725 -0.3892  1.4474  0.1875
 5551SOL    HW217195   4.276   2.529   4.730 -0.3197  1.0945 -2.0174
 5552SOL     OW17196   0.194   4.605   4.458  0.2660  0.3372  0.3231
 5552SOL    HW117197   0.158   4.521   4.430  1.0721  0.4395 -1.0888
 5552SOL    HW217198   0.236   4.641   4.380  1.8472  1.0380  1.4389
 5553SOL     OW17199   5.673   6.407   1.509  0.1218 -0.4786  0.3031
 5553SOL    HW117200   5.686   6.350   1.433 -0.6616 -0.2210 -0.0230
 5553SOL    HW217201   5.744   6.382   1.569  2.4864  1.2254 -1.6207
 5554SOL     OW17202   5.961   3.908   6.662  0.1724  0.2352  0.4192
 5554SOL    HW117203   5.935   3.874   6.748  0.0063  0.9306  0.6466
 5554SOL    HW217204   6.033   3.968   6.681  1.4474 -1.0680 -0.1270
 5555SOL     OW17205   7.511   0.852   5.333  0.3057 -0.1604  0.5143
 5555SOL    HW117206   7.546   0.906   5.262  1.5335 -1.1281  0.3434
 5555SOL    HW217207   7.526   0.903   5.412 -2.9268  1.8694  0.0104
 5556SOL     OW17208   0.540   7.335   5.921 -0.1979 -0.5863  0.1307
 5556SOL    HW117209   0.532   7.266   5.986 -3.1388  0.3660  0.9088
 5556SOL    HW217210   0.520   7.292   5.838 -0.8636 -0.9015  0.4497
 5557SOL     OW17211   2.444   4.048   2.573  0.1365 -0.1263  0.2006
 5557SOL    HW117212   2.357   4.052   2.533  0.4398 -0.0913 -0.4694
 5557SOL    HW217213   2.440   4.109   2.647  0.0605  1.0472 -0.7465
 5558SOL     OW17214   5.291   4.739   0.603  0.0826 -0.5634 -0.1813
 5558SOL    HW117215   5.310   4.659   0.650  0.1462 -1.9938 -2.4996
 5558SOL    HW217216   5.375   4.784   0.596  0.1544 -0.5612  0.6010
 5559SOL     OW17217   4.022   3.123   7.401 -0.0203 -0.0105  0.3614
 5559SOL    HW117218   4.074   3.098   7.477  1.1271  0.0375 -0.3876
 5559SOL    HW217219   4.047   3.214   7.384 -1.3888  0.4794  0.8137
 5560SOL     OW17220   0.288   1.668   3.199  0.0508 -0.4444  0.2208
 5560SOL    HW117221   0.263   1.582   3.233  1.1027 -1.0408 -0.4688
 5560SOL    HW217222   0.208   1.720   3.205 -0.4531 -1.2837  1.2076
 5561SOL     OW17223   0.976   5.050   0.309  0.0754  0.2694 -0.4884
 5561SOL    HW117224   0.952   5.116   0.374 -0.7649 -1.1734  0.7308
 5561SOL    HW217225   1.072   5.048   0.312  0.1000  1.1530 -0.2775
 5562SOL     OW17226   5.300   2.469   2.640  0.6056  0.3519  0.3659
 5562SOL    HW117227   5.235   2.529   2.605  0.1506 -0.5679 -0.4306
 5562SOL    HW217228   5.264   2.441   2.724 -0.5350 -0.8625 -0.4769
 5563SOL     OW17229   2.803   2.186   1.034 -0.3428  0.0474  0.2230
 5563SOL    HW117230   2.778   2.174   1.126  1.5039  0.5271  0.8294
 5563SOL    HW217231   2.859   2.264   1.035  2.7529 -1.9883 -0.6646
 5564SOL     OW17232   4.620   0.661   5.901  0.5628  0.2246  0.5721
 5564SOL    HW117233   4.642   0.718   5.975  1.4983  1.0125 -0.2802
 5564SOL    HW217234   4.677   0.691   5.830 -0.8077 -0.0305 -0.6910
 5565SOL     OW17235   5.301   6.039   0.176  0.1848  0.2566  0.0263
 5565SOL    HW117236   5.319   6.109   0.112  1.1318  0.6711  0.7167
 5565SOL    HW217237   5.373   6.046   0.239 -0.3087 -0.6550  0.7057
 5566SOL     OW17238   2.838   2.709   5.807 -0.1527  0.2843  0.2070
 5566SOL    HW117239   2.776   2.743   5.743 -0.5894  2.3637  1.6280
 5566SOL    HW217240   2.879   2.633   5.764 -2.8825 -0.5278 -1.1737
 5567SOL     OW17241   4.661   3.596   0.586 -0.0362 -0.1803 -0.4203
 5567SOL    HW117242   4.585   3.654   0.595 -0.3909 -0.7072  0.0137
 5567SOL    HW217243   4.714   3.638   0.518  1.0734  2.1021  1.7058
 5568SOL     OW17244   2.242   2.184   4.200  0.3489 -0.0947 -0.3107
 5568SOL    HW117245   2.218   2.219   4.114 -1.6960 -1.6650 -0.4375
 5568SOL    HW217246   2.305   2.115   4.181  0.5372  0.1131 -0.4548
 5569SOL     OW17247   6.705   6.306   6.279  0.0927 -0.3721 -0.6058
 5569SOL    HW117248   6.785   6.259   6.256  0.2634 -0.4975  0.2126
 5569SOL    HW217249   6.653   6.242   6.329  1.0512  0.7686  1.9902
 5570SOL     OW17250   5.754   6.237   3.961 -0.1157 -0.0428 -0.3191
 5570SOL    HW117251   5.838   6.259   3.920  0.6080 -0.1574  1.0326
 5570SOL    HW217252   5.777   6.217   4.052 -1.4605 -1.2361 -0.2128
 5571SOL     OW17253   6.455   2.198   3.013  0.1604  0.2495 -0.1290
 5571SOL    HW117254   6.520   2.141   2.973  0.8287  0.0987  1.1024
 5571SOL    HW217255   6.393   2.138   3.056  0.7940  0.4190  1.0616
 5572SOL     OW17256   4.869   4.494   0.967  0.4057  0.3508 -0.1803
 5572SOL    HW117257   4.866   4.445   0.885  0.4910  0.0001  0.0256
 5572SOL    HW217258   4.802   4.453   1.022  1.2414 -0.2599  0.3955
 5573SOL     OW17259   0.080   5.213   0.308 -0.4396 -0.2254 -0.2371
 5573SOL    HW117260   0.073   5.128   0.353  1.3170 -1.0441 -1.3688
 5573SOL    HW217261   0.030   5.202   0.228 -1.4403  0.3580  0.2830
 5574SOL     OW17262   7.610   2.776   7.465 -0.1585 -0.3329 -0.3534
 5574SOL    HW117263   7.692   2.792   7.511 -1.5249  0.6059  1.9167
 5574SOL    HW217264   7.571   2.862   7.453 -0.7055 -0.7353 -1.6912
 5575SOL     OW17265   2.589   4.109   3.037  0.7610 -0.3168 -0.0007
 5575SOL    HW117266   2.550   4.065   3.113 -0.0021 -1.6548 -1.1279
 5575SOL    HW217267   2.666   4.153   3.073 -0.8524  1.1116  1.9957
 5576SOL     OW17268   1.567   4.935   7.172  0.1840 -0.1357  0.0114
 5576SOL    HW117269   1.555   5.011   7.115  0.7363  0.0221  0.0985
 5576SOL    HW217270   1.613   4.969   7.248 -1.0016 -0.2424  0.8075
 5577SOL     OW17271   0.911   0.345   0.063 -0.0140 -0.1858  0.6544
 5577SOL    HW117272   0.924   0.369   0.155  0.8872 -0.5884  0.6389
 5577SOL    HW217273   0.963   0.266   0.051  0.5523  0.3321 -0.4253
 5578SOL     OW17274   0.128   5.941   4.927 -0.1036 -0.1146 -0.0843
 5578SOL    HW117275   0.112   5.851   4.955 -2.6745 -0.0240 -0.9627
 5578SOL    HW217276   0.142   5.989   5.008 -0.9176 -0.9582  0.5904
 5579SOL     OW17277   5.764   4.722   0.752 -0.2589 -0.4329  0.2970
 5579SOL    HW117278   5.729   4.720   0.842  0.0044  1.5645  0.4890
 5579SOL    HW217279   5.841   4.778   0.758 -0.7451  0.4675 -1.3308
 5580SOL     OW17280   0.382   4.833   7.554 -0.0743  0.2559 -0.3084
 5580SOL    HW117281   0.295   4.805   7.580 -1.3212  1.8958 -2.4255
 5580SOL    HW217282   0.370   4.920   7.515  2.6410  0.9448  0.1219
 5581SOL     OW17283   3.413   4.038   1.997 -0.0582  0.1402  0.5424
 5581SOL    HW117284   3.443   4.126   1.973 -0.0371  0.2654  1.0257
 5581SOL    HW217285   3.330   4.052   2.041 -0.3827 -0.1398  0.0368
 5582SOL     OW17286   2.641   3.805   5.403 -0.2597 -0.5573  0.5304
 5582SOL    HW117287   2.606   3.720   5.426  0.1390 -0.5445  1.2086
 5582SOL    HW217288   2.689   3.790   5.321 -1.8479 -0.5557 -0.4418
 5583SOL     OW17289   4.568   6.142   7.277  0.0486  0.6905  0.7011
 5583SOL    HW117290   4.518   6.076   7.228  0.5830  0.5484  0.3435
 5583SOL    HW217291   4.608   6.197   7.210  1.5239 -0.0525  0.9422
 5584SOL     OW17292   3.111   1.594   5.930  0.1918  0.2314  0.3220
 5584SOL    HW117293   3.056   1.518   5.915 -0.5621  0.6685  0.8022
 5584SOL    HW217294   3.103   1.647   5.851 -0.4541  0.5194  0.5773
 5585SOL     OW17295   6.139   6.763   2.549 -0.0853 -0.3697  0.1565
 5585SOL    HW117296   6.195   6.711   2.491  0.4837  0.1014  0.2716
 5585SOL    HW217297   6.050   6.734   2.529  0.0161  0.3924 -1.5784
 5586SOL     OW17298   1.213   6.098   5.953  0.7211  0.2987 -0.3395
 5586SOL    HW117299   1.242   6.155   6.025 -0.1404  0.9823 -0.5181
 5586SOL    HW217300   1.251   6.137   5.875  0.8090  0.1512 -0.3704
 5587SOL     OW17301   0.240   5.276   1.141  0.0179  0.5402 -0.4491
 5587SOL    HW117302   0.212   5.305   1.227  1.5974 -1.8135  0.9784
 5587SOL    HW217303   0.207   5.186   1.134  1.7491 -0.0649 -1.3496
 5588SOL     OW17304   0.318   1.475   6.898  0.2671 -0.0920  0.5233
 5588SOL    HW117305   0.391   1.486   6.960  0.3101 -0.1633  0.4857
 5588SOL    HW217306   0.285   1.564   6.885  0.2391 -0.0800  0.6718
 5589SOL     OW17307   2.026   0.906   5.773  0.1164 -0.0637 -0.4468
 5589SOL    HW117308   2.087   0.881   5.704  0.2904 -0.0510 -0.2973
 5589SOL    HW217309   2.033   0.836   5.838 -0.4639 -0.3652 -0.7069
 5590SOL     OW17310   6.351   4.129   4.923 -0.0695 -0.3604  0.1059
 5590SOL    HW117311   6.391   4.168   4.846  1.5501  0.8560  1.4763
 5590SOL    HW217312   6.402   4.163   4.997 -0.1025 -3.2016  1.5940
 5591SOL     OW17313   1.830   6.451   2.681 -0.9197 -0.1526 -0.1304
 5591SOL    HW117314   1.750   6.472   2.730 -1.8321  0.0354 -1.6464
 5591SOL    HW217315   1.813   6.485   2.593  0.3113 -1.2964 -0.8263
 5592SOL     OW17316   5.603   7.596   0.379  0.0848  0.4718 -0.2433
 5592SOL    HW117317   5.592   7.502   0.366  0.9043  0.3111  0.1951
 5592SOL    HW217318   5.583   7.611   0.471 -1.9932  1.0513 -0.7276
 5593SOL     OW17319   6.775   5.933   2.515 -0.4468  0.1511  0.6683
 5593SOL    HW117320   6.700   5.956   2.569 -0.9036 -1.1369  0.6033
 5593SOL    HW217321   6.848   5.925   2.576 -0.3534  1.3426  0.7379
 5594SOL     OW17322   5.928   5.994   1.440 -0.1766 -0.1950 -0.4815
 5594SOL    HW117323   5.855   6.014   1.499  0.5024 -0.7025  0.5572
 5594SOL    HW217324   6.005   6.031   1.483  0.4604 -1.3245 -0.6109
 5595SOL     OW17325   6.147   1.891   0.289 -0.0682  0.7679 -0.4116
 5595SOL    HW117326   6.141   1.900   0.193  0.8954  0.0651 -0.5455
 5595SOL    HW217327   6.165   1.980   0.320  2.2403  0.6192 -1.1241
 5596SOL     OW17328   6.466   4.751   2.289  0.4328  0.5212  0.5488
 5596SOL    HW117329   6.453   4.657   2.294  2.6558  0.1470  0.1591
 5596SOL    HW217330   6.379   4.786   2.265  0.1319 -1.6724 -2.0776
 5597SOL     OW17331   2.016   4.163   0.821  0.0478 -0.2710  0.6747
 5597SOL    HW117332   1.938   4.218   0.812 -1.3558 -2.3020 -0.4566
 5597SOL    HW217333   1.982   4.076   0.843  2.0364 -1.1147  0.6451
 5598SOL     OW17334   4.936   1.542   0.490 -0.3398  0.1942 -0.2155
 5598SOL    HW117335   5.028   1.564   0.504  0.1120 -1.7572  0.2027
 5598SOL    HW217336   4.933   1.504   0.402 -0.3607 -1.4408  0.4531
 5599SOL     OW17337   7.285   2.615   1.772 -0.4215  0.4401  0.1746
 5599SOL    HW117338   7.250   2.528   1.792  0.6200  0.3664  1.7993
 5599SOL    HW217339   7.378   2.600   1.755 -0.3494  1.1724 -0.0899
 5600SOL     OW17340   5.430   4.026   0.322  0.0882  0.1349  0.3851
 5600SOL    HW117341   5.416   3.952   0.380 -0.6538  0.6346  0.8680
 5600SOL    HW217342   5.473   4.092   0.377  0.0045  0.3561  0.1892
 5601SOL     OW17343   1.641   5.265   0.134  0.5863  0.2614 -0.2163
 5601SOL    HW117344   1.579   5.293   0.067 -0.1804 -1.0681 -0.0861
 5601SOL    HW217345   1.723   5.250   0.086  0.3204  0.2822 -0.6806
 5602SOL     OW17346   1.594   5.591   5.037 -0.2346  0.0087 -0.2217
 5602SOL    HW117347   1.597   5.525   5.106  3.7148 -0.7545 -0.8880
 5602SOL    HW217348   1.590   5.541   4.955 -0.3310  0.7392 -0.6795
 5603SOL     OW17349   7.439   2.217   0.933  0.1891 -0.0738  0.2609
 5603SOL    HW117350   7.511   2.262   0.888  0.3407 -1.5101 -1.0341
 5603SOL    HW217351   7.478   2.182   1.013  1.0374 -1.0319 -0.5360
 5604SOL     OW17352   2.251   1.798   0.616  0.0278  0.3304 -0.4848
 5604SOL    HW117353   2.193   1.767   0.546 -0.5562 -3.2433  1.3536
 5604SOL    HW217354   2.215   1.759   0.695  3.1013  0.6610  1.2167
 5605SOL     OW17355   2.779   4.270   2.789  0.5918 -0.0256  0.0151
 5605SOL    HW117356   2.775   4.258   2.884  1.3195  0.2839  0.0925
 5605SOL    HW217357   2.735   4.193   2.753 -1.1946  0.6763  0.6258
 5606SOL     OW17358   4.705   3.197   3.941 -0.1111 -0.1617 -0.5251
 5606SOL    HW117359   4.672   3.149   4.017 -0.2595 -0.3362 -0.6989
 5606SOL    HW217360   4.795   3.220   3.965 -0.6278  1.1390  0.3440
 5607SOL     OW17361   6.866   0.577   4.523  0.2973 -0.9531  0.5716
 5607SOL    HW117362   6.907   0.623   4.450 -0.1207 -0.4652  0.6386
 5607SOL    HW217363   6.859   0.643   4.592  0.0841 -1.2350  0.8253
 5608SOL     OW17364   3.287   1.774   3.798  0.1686  0.3257 -0.4470
 5608SOL    HW117365   3.353   1.841   3.811 -2.7114  3.0002  1.9669
 5608SOL    HW217366   3.293   1.718   3.876 -1.3282  1.5443  0.5910
 5609SOL     OW17367   0.983   4.276   7.208 -0.6128 -0.4628 -0.0858
 5609SOL    HW117368   0.963   4.369   7.192 -0.3980 -0.1703  1.2097
 5609SOL    HW217369   0.968   4.233   7.124 -0.4670  0.7928 -0.7803
 5610SOL     OW17370   1.397   0.140   5.925  0.0114  0.4945 -0.1203
 5610SOL    HW117371   1.349   0.214   5.961  0.1988  1.3082 -1.4925
 5610SOL    HW217372   1.429   0.092   6.002 -1.5402  0.8751  0.7912
 5611SOL     OW17373   2.364   7.290   5.975  0.5075 -0.4393  0.0242
 5611SOL    HW117374   2.285   7.241   5.955  0.7804  0.1816 -2.9988
 5611SOL    HW217375   2.335   7.358   6.035 -0.5109 -2.2322  1.6831
 5612SOL     OW17376   5.052   0.096   1.450  0.4073  0.1866 -0.6181
 5612SOL    HW117377   5.107   0.094   1.371 -0.0990  0.2479 -0.9726
 5612SOL    HW217378   4.994   0.171   1.436 -0.0101 -0.0989 -0.4033
 5613SOL     OW17379   5.622   4.640   1.691  0.2364 -0.5291  0.0450
 5613SOL    HW117380   5.696   4.583   1.712 -0.5999 -1.8659 -0.4859
 5613SOL    HW217381   5.640   4.670   1.602  0.9573  0.5278  0.5279
 5614SOL     OW17382   5.121   5.860   6.181 -0.2836  0.4681 -0.6163
 5614SOL    HW117383   5.027   5.870   6.169 -0.2747 -0.6166 -1.7584
 5614SOL    HW217384   5.154   5.949   6.187 -1.1182  0.9533 -2.5327
 5615SOL     OW17385   3.793   1.351   2.046  0.1043  0.0586  0.7900
 5615SOL    HW117386   3.745   1.404   2.109 -0.3010 -0.0103  0.5446
 5615SOL    HW217387   3.840   1.286   2.099 -2.3647 -1.7656  0.9280
 5616SOL     OW17388   4.127   2.946   6.648  0.2215  0.1487 -0.3304
 5616SOL    HW117389   4.175   2.979   6.572 -1.2609  3.2760 -0.1082
 5616SOL    HW217390   4.129   3.019   6.710  0.0252 -1.7338  1.9919
 5617SOL     OW17391   1.171   4.259   0.493  0.7044  0.5484 -0.7710
 5617SOL    HW117392   1.169   4.293   0.583  1.6496  1.9735 -1.2463
 5617SOL    HW217393   1.104   4.192   0.491  0.5503  0.5995  0.9643
 5618SOL     OW17394   3.489   4.949   1.786  0.1012 -0.3743 -0.1318
 5618SOL    HW117395   3.557   5.006   1.752 -2.0332  2.3989 -0.0646
 5618SOL    HW217396   3.506   4.944   1.880 -0.0667  0.6999 -0.0420
 5619SOL     OW17397   4.461   2.135   5.737  0.1202 -0.2916 -0.2312
 5619SOL    HW117398   4.382   2.081   5.734 -0.8652  0.9148  2.1356
 5619SOL    HW217399   4.502   2.120   5.651 -2.1325 -1.6973 -1.1740
 5620SOL     OW17400   0.762   5.444   6.209 -0.4507 -0.2783  0.4827
 5620SOL    HW117401   0.688   5.393   6.176 -0.6949  0.8428 -0.7994
 5620SOL    HW217402   0.764   5.427   6.303 -2.0042 -0.7503  0.4467
 5621SOL     OW17403   1.860   0.171   7.416 -0.3152 -0.0320  0.1617
 5621SOL    HW117404   1.857   0.105   7.485 -1.6181 -1.6133 -1.3328
 5621SOL    HW217405   1.909   0.130   7.345  0.9264  1.5325  0.0451
 5622SOL     OW17406   7.258   4.992   2.535 -0.5453 -0.2899 -0.3594
 5622SOL    HW117407   7.237   4.909   2.493 -0.3918  0.4210 -1.8972
 5622SOL    HW217408   7.304   5.043   2.468  0.5510  0.5529  0.9539
 5623SOL     OW17409   7.342   3.079   3.033 -0.2668 -0.7048 -0.0299
 5623SOL    HW117410   7.423   3.034   3.058 -0.5638 -0.1522  2.0916
 5623SOL    HW217411   7.273   3.014   3.047 -0.5054 -0.1891  1.2835
 5624SOL     OW17412   0.633   6.708   6.556  0.3683 -0.0775  0.7930
 5624SOL    HW117413   0.592   6.696   6.642 -0.8850 -1.8932  0.0094
 5624SOL    HW217414   0.725   6.727   6.576  0.0354 -0.1325  2.5340
 5625SOL     OW17415   0.041   5.685   1.365 -0.0022 -0.5565  0.0083
 5625SOL    HW117416   0.039   5.746   1.439 -0.1345 -0.3171 -0.1915
 5625SOL    HW217417   0.126   5.641   1.372 -0.1199 -0.7196  0.4507
 5626SOL     OW17418   0.243   4.951   1.449  0.4073  0.0740 -0.0467
 5626SOL    HW117419   0.266   5.039   1.480 -1.1834  0.4782  0.0824
 5626SOL    HW217420   0.291   4.892   1.508  0.6084  0.8497  0.5878
 5627SOL     OW17421   6.224   0.818   6.352 -0.5088  0.1807 -0.6420
 5627SOL    HW117422   6.277   0.859   6.284 -0.7958  1.8058  0.0763
 5627SOL    HW217423   6.246   0.866   6.432 -0.1915 -1.6720  0.4559
 5628SOL     OW17424   2.863   6.485   0.620  0.1801 -0.2085  0.1996
 5628SOL    HW117425   2.938   6.544   0.624 -1.3012  1.8312 -0.2774
 5628SOL    HW217426   2.844   6.475   0.527 -0.8569  0.3204  0.3351
 5629SOL     OW17427   0.114   2.212   5.448  0.7840 -0.3212 -0.3592
 5629SOL    HW117428   0.033   2.194   5.496  1.2082  0.0868  0.5288
 5629SOL    HW217429   0.097   2.295   5.402  1.0826  0.3745  0.7518
 5630SOL     OW17430   0.098   7.185   7.174  0.1719 -0.3486  0.1797
 5630SOL    HW117431   0.030   7.197   7.239  1.4366 -0.1342  1.5133
 5630SOL    HW217432   0.091   7.262   7.117  0.2103  0.3947  1.1679
 5631SOL     OW17433   3.510   4.860   4.136  0.6008  0.3295  0.2533
 5631SOL    HW117434   3.518   4.955   4.126 -0.1830  0.2645 -1.4844
 5631SOL    HW217435   3.599   4.831   4.158  0.7345  1.5030  1.3599
 5632SOL     OW17436   6.535   4.764   5.838 -0.0926 -0.2456 -0.3943
 5632SOL    HW117437   6.532   4.708   5.760 -1.4282 -2.1418  0.9264
 5632SOL    HW217438   6.515   4.705   5.910 -0.3284  1.7367  1.2422
 5633SOL     OW17439   6.250   6.254   4.215  0.0831 -0.5945  0.9841
 5633SOL    HW117440   6.230   6.226   4.126 -3.5562 -0.8250  1.6799
 5633SOL    HW217441   6.277   6.346   4.207 -0.4585 -0.5340 -0.3443
 5634SOL     OW17442   1.872   6.038   5.257  0.0141 -0.3651  0.2739
 5634SOL    HW117443   1.789   6.082   5.278  0.0278 -0.2182  0.0251
 5634SOL    HW217444   1.880   5.969   5.323 -0.2159 -0.2612  0.4115
 5635SOL     OW17445   3.227   6.164   4.245 -0.0054 -0.3310  0.2024
 5635SOL    HW117446   3.285   6.183   4.171  0.2951 -1.9870 -0.0232
 5635SOL    HW217447   3.151   6.221   4.231  0.4336  0.0139 -0.8892
 5636SOL     OW17448   1.714   4.710   6.804  0.1705  0.0963  0.4675
 5636SOL    HW117449   1.744   4.687   6.892  1.7710  1.1552  0.2458
 5636SOL    HW217450   1.624   4.742   6.816 -0.7655 -2.5752  1.2564
 5637SOL     OW17451   2.461   2.382   6.270  0.1839 -0.1212 -0.0920
 5637SOL    HW117452   2.538   2.408   6.320  0.4683 -0.3885 -0.3839
 5637SOL    HW217453   2.478   2.292   6.245 -0.2294 -0.1836 -0.1532
 5638SOL     OW17454   4.707   6.277   2.169  0.1624  0.6239 -0.2777
 5638SOL    HW117455   4.641   6.304   2.234  0.3032  1.9092 -0.6305
 5638SOL    HW217456   4.657   6.233   2.101  0.0757 -1.2607  0.9307
 5639SOL     OW17457   0.017   1.431   2.753  0.6258  0.4568  0.2573
 5639SOL    HW117458   0.031   1.336   2.752  0.6196  0.4575 -0.5952
 5639SOL    HW217459   0.046   1.459   2.840  0.1303 -0.3969  0.7122
 5640SOL     OW17460   4.033   1.713   4.400 -0.1988 -0.0202 -0.4527
 5640SOL    HW117461   4.072   1.650   4.339  1.2516 -0.2784  0.6846
 5640SOL    HW217462   4.061   1.683   4.487 -0.8730  1.2449  0.2354
 5641SOL     OW17463   5.779   5.972   2.515 -0.2194  0.4677  0.4284
 5641SOL    HW117464   5.690   5.982   2.481 -0.5154  1.9021  1.4989
 5641SOL    HW217465   5.835   5.994   2.441 -0.8340  2.4164  0.4605
 5642SOL     OW17466   6.433   0.415   4.226 -0.6390 -0.2335 -0.1168
 5642SOL    HW117467   6.514   0.432   4.274 -1.0210 -1.1225  0.9101
 5642SOL    HW217468   6.454   0.434   4.135  0.0970  1.5946  0.4026
 5643SOL     OW17469   2.862   0.273   5.726  0.6640  0.1073 -0.2710
 5643SOL    HW117470   2.817   0.344   5.771 -1.5695 -1.8982  0.8943
 5643SOL    HW217471   2.844   0.196   5.779  3.6086 -1.2821 -1.0645
 5644SOL     OW17472   5.003   4.413   3.364  0.1708 -0.6274  0.1024
 5644SOL    HW117473   5.082   4.454   3.399  0.6898 -1.4943 -0.0247
 5644SOL    HW217474   4.970   4.359   3.436  0.5980 -1.5166 -0.3586
 5645SOL     OW17475   7.132   7.005   3.964  0.3074  0.1857 -0.6490
 5645SOL    HW117476   7.149   6.911   3.976 -1.0178  0.0372  0.1585
 5645SOL    HW217477   7.196   7.048   4.022  0.2256 -0.2494 -0.2273
 5646SOL     OW17478   3.202   0.171   0.160  0.1648  0.4970 -0.2112
 5646SOL    HW117479   3.293   0.140   0.168 -0.4009 -1.5260 -0.9854
 5646SOL    HW217480   3.178   0.152   0.070 -1.9072 -1.6600  0.6970
 5647SOL     OW17481   4.516   5.358   2.310 -0.3352 -0.4314  0.1695
 5647SOL    HW117482   4.564   5.347   2.228 -0.7763  1.7441 -0.4492
 5647SOL    HW217483   4.581   5.387   2.373 -0.6229  1.9344 -0.5191
 5648SOL     OW17484   2.350   2.139   5.944 -0.2877  0.3511 -0.5095
 5648SOL    HW117485   2.415   2.110   5.879  0.7729  2.2294 -0.3469
 5648SOL    HW217486   2.372   2.090   6.023  1.1302  1.1562 -0.3812
 5649SOL     OW17487   0.062   4.060   4.334 -0.5039 -0.3923  0.2256
 5649SOL    HW117488  -0.006   4.013   4.383 -1.5746  0.8171 -0.0423
 5649SOL    HW217489   0.023   4.077   4.249 -0.2509  1.1792  0.3941
 5650SOL     OW17490   0.747   5.171   4.584 -0.3177 -0.4271  0.1083
 5650SOL    HW117491   0.695   5.119   4.644  0.9769 -1.2945  0.5165
 5650SOL    HW217492   0.708   5.156   4.498 -1.7192  0.2366  0.5967
 5651SOL     OW17493   1.393   0.354   4.173  0.0004  0.1853 -0.1425
 5651SOL    HW117494   1.337   0.422   4.210  1.2517  0.7465  0.7861
 5651SOL    HW217495   1.417   0.387   4.087  0.9114  1.1111  0.4570
 5652SOL     OW17496   0.166   6.750   2.353 -0.3375  0.2764  0.1974
 5652SOL    HW117497   0.226   6.759   2.427 -1.2808  1.7874  0.8259
 5652SOL    HW217498   0.086   6.794   2.381 -1.1838 -0.2631 -1.2412
 5653SOL     OW17499   1.387   2.778   3.117  0.2230  0.0296  0.1727
 5653SOL    HW117500   1.324   2.846   3.095  0.1393 -0.2099 -0.3517
 5653SOL    HW217501   1.470   2.824   3.130  0.1539  0.2386 -0.1227
 5654SOL     OW17502   3.362   2.601   3.058  0.0894 -0.2536  0.4491
 5654SOL    HW117503   3.452   2.630   3.071  0.1577 -1.2038  2.5877
 5654SOL    HW217504   3.322   2.607   3.145 -1.5214 -1.1260 -0.1811
 5655SOL     OW17505   0.979   6.497   7.202 -0.1719 -0.2376 -0.3874
 5655SOL    HW117506   0.902   6.490   7.259 -0.4104 -0.2646 -0.7147
 5655SOL    HW217507   1.036   6.425   7.229  0.1330  0.3050  0.4569
 5656SOL     OW17508   0.864   1.823   2.622  0.1770 -0.4849 -0.1712
 5656SOL    HW117509   0.857   1.791   2.532 -0.2936  0.0218 -0.3223
 5656SOL    HW217510   0.865   1.919   2.614 -0.8216 -0.4055  0.4106
 5657SOL     OW17511   1.404   6.491   5.303  0.0969 -0.1423  0.2664
 5657SOL    HW117512   1.426   6.441   5.224  0.6870  1.0428 -0.3493
 5657SOL    HW217513   1.309   6.487   5.308  0.1721 -2.4857  1.0346
 5658SOL     OW17514   2.095   1.050   1.038  0.6121 -0.0218 -0.5204
 5658SOL    HW117515   2.090   1.006   1.123 -1.1484 -0.2309 -0.6890
 5658SOL    HW217516   2.150   0.993   0.985  0.1846 -0.8688 -0.0757
 5659SOL     OW17517   1.267   1.438   7.418 -0.0799 -0.3297 -0.2581
 5659SOL    HW117518   1.297   1.349   7.397 -0.3076 -0.2863 -0.7910
 5659SOL    HW217519   1.258   1.439   7.513  2.6579 -0.0270  0.0747
 5660SOL     OW17520   1.358   0.757   5.507 -0.1404  0.0502  0.3355
 5660SOL    HW117521   1.322   0.769   5.419  2.9547 -0.6961 -1.1715
 5660SOL    HW217522   1.378   0.664   5.512  4.1550  0.7393 -0.2252
 5661SOL     OW17523   3.192   2.343   0.675 -0.3873 -0.7482 -0.5216
 5661SOL    HW117524   3.137   2.405   0.628  0.8825 -0.1919 -1.3124
 5661SOL    HW217525   3.165   2.351   0.766 -0.5969  0.5782 -0.6878
 5662SOL     OW17526   6.093   4.372   0.945 -0.5325 -0.1030  0.3185
 5662SOL    HW117527   6.183   4.370   0.978 -0.1254 -0.3349 -0.7787
 5662SOL    HW217528   6.073   4.465   0.935  0.5750 -0.0439 -1.9755
 5663SOL     OW17529   5.366   6.172   6.874  0.1381 -0.2578 -0.1642
 5663SOL    HW117530   5.293   6.163   6.936  0.4990  0.1388  0.3295
 5663SOL    HW217531   5.439   6.202   6.928  1.1035 -2.1083 -0.3720
 5664SOL     OW17532   6.165   0.889   2.500  0.0861 -0.3415 -0.1739
 5664SOL    HW117533   6.124   0.949   2.438 -0.5622 -1.0132 -0.4208
 5664SOL    HW217534   6.150   0.802   2.462  1.1914 -0.6542  0.0657
 5665SOL     OW17535   6.424   6.298   1.539 -0.2339  0.3312 -0.5729
 5665SOL    HW117536   6.328   6.304   1.538 -0.1622  1.9766 -0.7425
 5665SOL    HW217537   6.446   6.279   1.630 -0.7005  0.1204 -0.5000
 5666SOL     OW17538   1.259   3.643   6.906  0.4914 -1.0445 -0.4403
 5666SOL    HW117539   1.289   3.601   6.826 -0.6556 -0.5853 -1.1392
 5666SOL    HW217540   1.166   3.662   6.890  0.0222 -1.6317  1.2847
 5667SOL     OW17541   0.957   2.029   0.326 -0.5535 -0.4193  0.0038
 5667SOL    HW117542   0.996   2.054   0.242 -0.1440 -0.4116  0.1936
 5667SOL    HW217543   0.867   2.006   0.304  0.0924 -2.4222 -0.7870
 5668SOL     OW17544   5.928   2.663   6.571  0.2359  0.1943 -0.5830
 5668SOL    HW117545   5.914   2.613   6.652  0.7309 -0.7726 -1.0710
 5668SOL    HW217546   6.017   2.639   6.544  0.3790  1.1346 -0.9977
 5669SOL     OW17547   3.002   1.358   5.730 -0.5639 -0.1310  0.1488
 5669SOL    HW117548   3.089   1.338   5.694 -0.2668  0.0847  0.7174
 5669SOL    HW217549   2.947   1.374   5.654 -0.1205 -0.3497 -0.2234
 5670SOL     OW17550   5.090   1.082   7.209  0.0289  0.2790 -0.0971
 5670SOL    HW117551   5.160   1.018   7.215  0.1673  0.1918 -2.0562
 5670SOL    HW217552   5.058   1.075   7.119 -1.4386  1.4123  0.2903
 5671SOL     OW17553   3.995   5.294   5.830 -0.1729  0.0047 -0.5727
 5671SOL    HW117554   4.078   5.310   5.874 -1.1846 -0.3303  1.5610
 5671SOL    HW217555   3.997   5.201   5.807 -0.8420 -0.5908  1.5682
 5672SOL     OW17556   5.047   1.219   6.110 -0.0100  0.7050  0.5673
 5672SOL    HW117557   5.126   1.257   6.148  0.1145 -0.3135  1.3647
 5672SOL    HW217558   4.993   1.197   6.185 -0.6909  0.6132  0.0554
 5673SOL     OW17559   1.837   5.634   7.184  0.6476 -0.0107 -0.3430
 5673SOL    HW117560   1.759   5.636   7.240  1.7684  0.7094  1.2640
 5673SOL    HW217561   1.888   5.560   7.218  0.8391 -0.2589 -1.1540
 5674SOL     OW17562   2.432   5.802   2.656  0.3815 -0.0999 -0.4004
 5674SOL    HW117563   2.342   5.777   2.637  0.4268  0.9695 -2.2627
 5674SOL    HW217564   2.477   5.719   2.673 -0.7216 -0.7276 -0.4611
 5675SOL     OW17565   0.319   0.491   5.812  0.4136 -0.4039  0.4750
 5675SOL    HW117566   0.330   0.585   5.825 -0.7368 -0.1911  0.0619
 5675SOL    HW217567   0.239   0.483   5.759  0.4884 -1.6101  0.5071
 5676SOL     OW17568   7.261   6.263   6.210 -0.0977 -0.2187 -0.2727
 5676SOL    HW117569   7.211   6.280   6.130  1.1001 -0.4391 -1.1110
 5676SOL    HW217570   7.319   6.339   6.218 -1.5387  0.7744  1.5236
 5677SOL     OW17571   1.969   0.063   5.446 -0.7238  0.0964  0.3884
 5677SOL    HW117572   1.907  -0.010   5.440 -0.6718 -0.0356  1.2899
 5677SOL    HW217573   1.929   0.123   5.510 -0.8965  0.9923 -0.5384
 5678SOL     OW17574   3.182   5.599   2.812  0.5521 -0.2688  0.2387
 5678SOL    HW117575   3.245   5.528   2.827  1.2788  0.0401 -1.1695
 5678SOL    HW217576   3.109   5.556   2.767  0.4982 -0.3265  0.3813
 5679SOL     OW17577   2.662   4.060   1.983  0.2208 -0.2622 -0.3547
 5679SOL    HW117578   2.745   4.107   1.977  2.1058 -3.2962 -0.1016
 5679SOL    HW217579   2.631   4.077   2.072  0.4619  1.0399 -0.5079
 5680SOL     OW17580   7.205   2.324   0.834 -0.2938 -0.7883  0.1426
 5680SOL    HW117581   7.155   2.245   0.854  0.3542 -0.7235  2.3495
 5680SOL    HW217582   7.284   2.316   0.887  0.9810  0.1926 -1.5098
 5681SOL     OW17583   4.262   0.362   4.029 -0.0864  0.3712  0.4049
 5681SOL    HW117584   4.227   0.318   4.106  0.2338  0.1659  0.4362
 5681SOL    HW217585   4.287   0.291   3.970  1.1704  0.4784  0.7788
 5682SOL     OW17586   1.498   1.711   3.306  0.0114 -0.1108 -0.7643
 5682SOL    HW117587   1.581   1.677   3.273  1.0805  0.0639  1.5525
 5682SOL    HW217588   1.522   1.795   3.346 -1.3509  0.0808 -0.3298
 5683SOL     OW17589   3.638   2.599   5.947  0.5386  0.8753  0.5808
 5683SOL    HW117590   3.678   2.521   5.909  0.1996  0.9209  0.1263
 5683SOL    HW217591   3.623   2.657   5.872 -2.4159 -0.0138  0.3557
 5684SOL     OW17592   5.280   1.592   5.513  0.2384  0.1121  0.2884
 5684SOL    HW117593   5.322   1.531   5.453 -0.0384  1.1157 -0.9747
 5684SOL    HW217594   5.351   1.645   5.548  0.4632 -0.8128  1.2882
 5685SOL     OW17595   2.054   3.134   2.601  0.7275  0.0921  0.4776
 5685SOL    HW117596   2.071   3.043   2.626 -1.5696  0.0246  2.1599
 5685SOL    HW217597   2.046   3.132   2.506  0.7160 -1.4746  0.4872
 5686SOL     OW17598   0.628   5.510   2.156 -0.2196 -0.0710 -0.1890
 5686SOL    HW117599   0.597   5.421   2.137 -1.9364  0.2914  0.7368
 5686SOL    HW217600   0.652   5.508   2.249 -0.3093  0.4478 -0.1509
 5687SOL     OW17601   1.025   3.879   1.924 -0.0862  0.1081  0.0024
 5687SOL    HW117602   1.076   3.938   1.868 -0.8693  0.3717 -0.4501
 5687SOL    HW217603   1.043   3.792   1.888  1.7039 -0.0612  1.1646
 5688SOL     OW17604   6.767   2.260   0.163 -0.0910  0.1646  0.4314
 5688SOL    HW117605   6.737   2.245   0.074  1.5529  1.0253 -0.3061
 5688SOL    HW217606   6.704   2.212   0.218 -1.1541 -0.3383 -1.1623
 5689SOL     OW17607   4.637   4.998   4.201 -0.1530  0.1660  0.6396
 5689SOL    HW117608   4.706   4.993   4.267 -0.6344 -0.6355  1.1013
 5689SOL    HW217609   4.565   4.947   4.238 -1.0214  1.0372  0.1922
 5690SOL     OW17610   3.352   5.211   4.590  0.3358  0.2668  0.1383
 5690SOL    HW117611   3.352   5.177   4.680 -0.9956  0.5744  0.2616
 5690SOL    HW217612   3.425   5.274   4.589 -0.4746  1.2769  1.4057
 5691SOL     OW17613   4.044   5.411   7.537 -0.2817 -0.9405 -0.0727
 5691SOL    HW117614   4.017   5.493   7.579  0.9657 -1.3093  1.5532
 5691SOL    HW217615   4.107   5.439   7.470 -0.1339 -0.5337  0.2324
 5692SOL     OW17616   0.997   7.495   4.465 -0.0490  0.6439  0.5114
 5692SOL    HW117617   1.087   7.473   4.491  0.4095  0.2057 -1.2930
 5692SOL    HW217618   0.948   7.499   4.547  1.4043 -0.0761  1.4491
 5693SOL     OW17619   5.956   0.502   6.268  0.1816 -0.1446 -0.0354
 5693SOL    HW117620   5.927   0.585   6.307  0.1108  1.4438 -3.1806
 5693SOL    HW217621   5.874   0.456   6.249  0.1713 -0.3588  0.5086
 5694SOL     OW17622   6.235   1.232   6.690  0.2429  0.3052 -0.3713
 5694SOL    HW117623   6.266   1.157   6.741  2.1025  2.8245  2.6459
 5694SOL    HW217624   6.291   1.234   6.613 -0.4035 -1.7987 -0.9515
 5695SOL     OW17625   4.586   6.553   1.869 -0.2668  0.2787 -0.6089
 5695SOL    HW117626   4.572   6.609   1.945 -0.6292  0.9089 -1.1342
 5695SOL    HW217627   4.672   6.513   1.884 -0.2301  0.5828  0.0121
 5696SOL     OW17628   5.949   5.397   1.079 -0.0064  0.1425  0.0899
 5696SOL    HW117629   5.988   5.455   1.014 -0.7662  0.7354  0.1457
 5696SOL    HW217630   5.978   5.432   1.163 -0.5975  0.5597  0.1301
 5697SOL     OW17631   4.626   0.071   2.979  0.4502 -0.7437 -0.2691
 5697SOL    HW117632   4.598   0.087   3.070  1.5741 -3.3435  0.6102
 5697SOL    HW217633   4.557   0.111   2.926 -0.0163  1.2697  1.6822
 5698SOL     OW17634   5.632   6.453   2.141 -0.2762  0.5615 -0.4053
 5698SOL    HW117635   5.597   6.457   2.052  0.1736  0.7361 -0.5775
 5698SOL    HW217636   5.658   6.543   2.160 -0.1831  0.4845 -0.1735
 5699SOL     OW17637   7.512   1.791   5.543 -0.1293  0.1479  0.2576
 5699SOL    HW117638   7.490   1.803   5.635 -1.3427  0.4336 -0.0560
 5699SOL    HW217639   7.517   1.879   5.507  0.4698  0.0439  0.0608
 5700SOL     OW17640   4.532   2.255   3.353 -0.0919  0.0522 -0.2687
 5700SOL    HW117641   4.508   2.224   3.441  0.4804 -0.0889 -0.1549
 5700SOL    HW217642   4.506   2.183   3.295  0.3965 -0.2674 -0.1031
 5701SOL     OW17643   3.874   2.288   5.381 -0.1896 -0.3551  0.0571
 5701SOL    HW117644   3.836   2.255   5.299  0.8333  1.2667 -1.1334
 5701SOL    HW217645   3.950   2.339   5.353  0.8365 -0.6361  2.1196
 5702SOL     OW17646   5.937   2.351   4.024 -0.3300  0.1200  0.1605
 5702SOL    HW117647   5.950   2.395   3.940  0.2183 -0.8242 -0.2729
 5702SOL    HW217648   6.014   2.373   4.075 -0.7370  0.8212  0.4828
 5703SOL     OW17649   4.855   4.085   7.305 -0.0999  0.1633  0.3479
 5703SOL    HW117650   4.894   4.053   7.224  0.9966  1.5292  0.2742
 5703SOL    HW217651   4.799   4.014   7.336 -1.1281 -0.1147 -1.9699
 5704SOL     OW17652   5.494   4.855   5.987  0.3597  0.2289  0.0883
 5704SOL    HW117653   5.417   4.906   5.961  0.5166  0.8939  0.8963
 5704SOL    HW217654   5.568   4.912   5.965  0.5386  0.3341  0.9386
 5705SOL     OW17655   1.297   1.164   5.268  0.6708 -0.3986 -0.4812
 5705SOL    HW117656   1.332   1.209   5.344  2.0788  1.1271 -1.9450
 5705SOL    HW217657   1.221   1.216   5.241  0.3698 -0.7524 -0.3411
 5706SOL     OW17658   3.054   5.639   0.304  0.6975  0.7455  0.4685
 5706SOL    HW117659   2.997   5.570   0.272  0.0542  1.8672 -0.9242
 5706SOL    HW217660   3.082   5.610   0.390 -2.2382  0.2858  1.3637
 5707SOL     OW17661   5.151   1.004   4.152  0.6507 -0.1510  0.3669
 5707SOL    HW117662   5.240   0.992   4.187  1.2435 -0.8862 -1.2871
 5707SOL    HW217663   5.129   1.094   4.173  1.6229 -0.0827  1.1848
 5708SOL     OW17664   0.475   7.184   6.181  0.1833 -0.1032 -0.1583
 5708SOL    HW117665   0.424   7.110   6.149  1.3331 -0.8839 -0.2542
 5708SOL    HW217666   0.529   7.147   6.252  0.1089  0.8485  0.4116
 5709SOL     OW17667   6.077   2.028   6.357  0.6526 -0.3851  0.3672
 5709SOL    HW117668   6.051   1.984   6.438 -2.7698 -1.0628 -0.9142
 5709SOL    HW217669   6.102   2.116   6.384 -0.3795 -0.6053  2.1873
 5710SOL     OW17670   4.804   4.509   6.524  0.2744 -0.3632  0.2924
 5710SOL    HW117671   4.713   4.499   6.493  0.2914 -0.6068  0.3163
 5710SOL    HW217672   4.805   4.593   6.569  0.3686  0.2450 -0.8020
 5711SOL     OW17673   6.977   1.691   4.665  0.1979 -0.1344  1.1667
 5711SOL    HW117674   7.002   1.781   4.643 -1.1103  0.4136  1.8163
 5711SOL    HW217675   7.026   1.637   4.603  0.9455  1.0279  0.7090
 5712SOL     OW17676   4.788   3.743   4.843 -0.1780 -0.0687  0.2486
 5712SOL    HW117677   4.785   3.826   4.796  0.7889  0.1631  0.5673
 5712SOL    HW217678   4.860   3.754   4.906 -0.2155 -1.0488  0.4763
 5713SOL     OW17679   5.058   5.632   7.484 -0.0427 -0.4728 -0.1166
 5713SOL    HW117680   5.056   5.692   7.558  0.3606  0.3932 -0.7960
 5713SOL    HW217681   5.143   5.647   7.443  0.3145 -1.9245  0.0243
 5714SOL     OW17682   3.857   4.711   0.470 -0.0156  0.7294  0.2743
 5714SOL    HW117683   3.843   4.619   0.447 -1.5746  0.4972  1.9883
 5714SOL    HW217684   3.772   4.753   0.455  0.4598  1.7229  0.2942
 5715SOL     OW17685   6.296   3.002   2.846  0.3101 -0.0185  0.2282
 5715SOL    HW117686   6.253   2.927   2.887 -1.0673  0.2688 -0.6354
 5715SOL    HW217687   6.367   3.024   2.907  2.1515 -3.2811 -0.4579
 5716SOL     OW17688   4.334   1.984   2.230  0.1495 -0.0273  0.0980
 5716SOL    HW117689   4.289   1.934   2.162  0.4242 -0.6352  0.3561
 5716SOL    HW217690   4.346   1.921   2.301  0.3106  0.4676  0.5088
 5717SOL     OW17691   6.941   6.474   5.259 -0.1385 -0.3630  0.5808
 5717SOL    HW117692   6.917   6.461   5.167  0.0993  0.8780  0.3246
 5717SOL    HW217693   6.958   6.385   5.292 -0.0535 -0.8165 -0.6185
 5718SOL     OW17694   4.228   0.177   4.777  0.1519  0.3465  0.1510
 5718SOL    HW117695   4.264   0.098   4.737  0.7817  0.2790  0.8448
 5718SOL    HW217696   4.189   0.147   4.859 -0.3317  0.6323  0.0311
 5719SOL     OW17697   6.578   6.124   6.835  0.3120  0.1967  0.0186
 5719SOL    HW117698   6.606   6.065   6.905 -0.4329  0.3039  0.4179
 5719SOL    HW217699   6.563   6.208   6.878  0.9143  0.5655 -0.4666
 5720SOL     OW17700   2.444   0.856   3.810  0.6617 -0.4112 -0.6589
 5720SOL    HW117701   2.436   0.951   3.796 -0.6026 -0.3802  0.1249
 5720SOL    HW217702   2.505   0.848   3.883 -0.1927 -0.1322  0.0983
 5721SOL     OW17703   5.147   4.166   7.413 -0.6049  0.0725 -0.1391
 5721SOL    HW117704   5.065   4.139   7.373 -0.2546 -1.0881 -0.0998
 5721SOL    HW217705   5.214   4.113   7.369 -0.0254  0.0252  0.7677
 5722SOL     OW17706   1.724   0.415   5.844  0.1990  0.1550 -0.2035
 5722SOL    HW117707   1.639   0.381   5.814 -0.5773  1.6151  0.2346
 5722SOL    HW217708   1.761   0.458   5.766  0.9031 -1.1198 -0.5954
 5723SOL     OW17709   7.255   3.203   1.161  0.1437  0.2033  0.2689
 5723SOL    HW117710   7.326   3.266   1.172  0.5884 -0.1347 -0.5714
 5723SOL    HW217711   7.299   3.118   1.158 -0.5607 -0.3313  2.8933
 5724SOL     OW17712   3.314   2.319   1.341 -0.3175  0.0151 -0.1868
 5724SOL    HW117713   3.349   2.391   1.289  0.8399 -0.6869 -0.4188
 5724SOL    HW217714   3.223   2.310   1.313 -0.8470  2.1187  0.6740
 5725SOL     OW17715   5.069   0.329   2.000 -1.0179  0.9039  0.5193
 5725SOL    HW117716   5.072   0.233   2.005  0.0132  0.6992 -2.2866
 5725SOL    HW217717   4.987   0.348   1.956 -0.4536  1.1829 -0.4333
 5726SOL     OW17718   4.773   6.047   3.107 -0.2038  0.7532  0.2881
 5726SOL    HW117719   4.809   5.961   3.085 -1.6454  0.2427 -0.1901
 5726SOL    HW217720   4.751   6.042   3.200  0.2588  0.8075  0.4002
 5727SOL     OW17721   3.461   2.414   0.122  0.6015  0.2535  0.3593
 5727SOL    HW117722   3.426   2.326   0.109 -0.4402  0.8784 -1.4480
 5727SOL    HW217723   3.388   2.463   0.160  0.4374  0.8414 -0.6736
 5728SOL     OW17724   1.048   5.572   7.081  0.3241  0.1534  0.2251
 5728SOL    HW117725   1.012   5.487   7.054  1.6005 -0.1220 -0.6833
 5728SOL    HW217726   1.084   5.609   7.000  2.2696  0.3015  1.1103
 5729SOL     OW17727   2.700   1.636   1.077 -0.5876 -0.4655 -0.1928
 5729SOL    HW117728   2.671   1.721   1.044 -1.4656 -0.5796  0.2689
 5729SOL    HW217729   2.684   1.640   1.171 -0.1397 -0.9569 -0.0899
 5730SOL     OW17730   0.890   4.478   0.651  0.4154  0.4148 -0.6718
 5730SOL    HW117731   0.880   4.457   0.744 -0.0176  2.1922 -0.2718
 5730SOL    HW217732   0.826   4.423   0.606  1.2948 -1.1668 -0.0461
 5731SOL     OW17733   2.681   3.436   2.395  0.6021 -0.3001  0.1379
 5731SOL    HW117734   2.661   3.366   2.332  0.2990 -1.0971  1.0898
 5731SOL    HW217735   2.680   3.392   2.480 -0.4791  1.0352  0.8550
 5732SOL     OW17736   5.105   6.494   4.536 -0.4238 -0.0326 -0.0626
 5732SOL    HW117737   5.066   6.580   4.552 -0.3365  0.2491 -1.3147
 5732SOL    HW217738   5.080   6.443   4.613 -0.8160  0.9887  0.5114
 5733SOL     OW17739   5.399   5.257   2.292 -0.0207 -0.8064  0.1984
 5733SOL    HW117740   5.379   5.183   2.349 -1.4109 -1.5373 -1.1484
 5733SOL    HW217741   5.351   5.330   2.330  0.7826 -0.7533  1.1368
 5734SOL     OW17742   1.804   3.683   0.990 -0.3098  0.3034 -0.5586
 5734SOL    HW117743   1.773   3.672   0.900  0.5763  0.3953 -0.8871
 5734SOL    HW217744   1.729   3.718   1.038 -0.5149  1.1491 -1.4739
 5735SOL     OW17745   7.214   5.493   5.671  0.0321 -0.4706  0.4499
 5735SOL    HW117746   7.125   5.459   5.656 -0.5618  1.6691 -1.3495
 5735SOL    HW217747   7.270   5.440   5.615 -0.3724 -0.6705  0.2353
 5736SOL     OW17748   5.762   3.624   0.343  0.2920 -0.6076 -0.3973
 5736SOL    HW117749   5.855   3.639   0.363  0.1654  1.0534 -0.8942
 5736SOL    HW217750   5.731   3.709   0.311 -1.4231 -1.1182 -0.1658
 5737SOL     OW17751   2.716   4.248   4.547  0.0238  0.2448 -0.5692
 5737SOL    HW117752   2.760   4.286   4.471 -0.3487  1.7195 -0.0939
 5737SOL    HW217753   2.735   4.154   4.542  2.0011  0.6221 -1.1717
 5738SOL     OW17754   1.819   6.215   0.168 -0.0792 -0.1468 -0.0804
 5738SOL    HW117755   1.790   6.164   0.092 -1.0855  0.8865 -0.4061
 5738SOL    HW217756   1.911   6.190   0.179 -0.6346 -2.3496  0.0420
 5739SOL     OW17757   4.941   1.899   2.752  0.1760  0.1943  0.2187
 5739SOL    HW117758   4.863   1.848   2.734 -0.5899 -0.0331  3.5833
 5739SOL    HW217759   4.908   1.986   2.777  1.2024  0.9140 -0.7844
 5740SOL     OW17760   4.151   4.519   4.721 -0.5990 -0.2153 -0.1842
 5740SOL    HW117761   4.148   4.496   4.813 -2.1992  1.4085  0.2454
 5740SOL    HW217762   4.119   4.441   4.675  1.0892 -1.3571  0.5075
 5741SOL     OW17763   1.041   5.723   7.470 -0.3544 -0.7354 -0.0638
 5741SOL    HW117764   1.059   5.769   7.553 -0.4287 -0.3414 -0.2644
 5741SOL    HW217765   1.022   5.633   7.497 -0.1590 -0.6648  0.3305
 5742SOL     OW17766   3.746   6.625   5.148 -0.7119 -0.3559 -0.5928
 5742SOL    HW117767   3.803   6.658   5.079 -0.2173  0.3527  0.1442
 5742SOL    HW217768   3.751   6.691   5.217 -1.2225 -1.0411  0.1123
 5743SOL     OW17769   4.459   2.525   4.380  0.4635 -0.0442  0.0186
 5743SOL    HW117770   4.520   2.455   4.356 -0.7503 -0.6301 -1.6130
 5743SOL    HW217771   4.418   2.549   4.297 -0.9633  0.8492  0.9441
 5744SOL     OW17772   2.486   6.120   7.183 -0.4372 -0.0994  0.2210
 5744SOL    HW117773   2.495   6.210   7.215 -0.1238  0.0614 -0.3183
 5744SOL    HW217774   2.478   6.067   7.262  0.7225  0.2511  0.5899
 5745SOL     OW17775   1.656   0.306   0.264 -0.3274 -0.0438  0.8879
 5745SOL    HW117776   1.561   0.310   0.277 -0.7339  1.2373 -1.8480
 5745SOL    HW217777   1.690   0.380   0.313 -1.1391  1.3181 -0.5180
 5746SOL     OW17778   4.675   4.682   0.176 -0.5257  0.4601 -0.2331
 5746SOL    HW117779   4.741   4.644   0.117 -0.4265  2.0508 -1.1928
 5746SOL    HW217780   4.610   4.721   0.118 -2.5068 -1.2623  0.6898
 5747SOL     OW17781   1.295   1.733   6.164 -0.0597 -0.3054 -0.1791
 5747SOL    HW117782   1.346   1.769   6.092 -0.7555  0.5993 -0.2413
 5747SOL    HW217783   1.278   1.808   6.221 -2.9835 -0.0934 -1.1593
 5748SOL     OW17784   5.035   1.458   3.297 -0.3103  0.4058  0.3676
 5748SOL    HW117785   4.964   1.426   3.242  1.2756 -0.3089 -1.4193
 5748SOL    HW217786   5.080   1.523   3.243  1.9204 -1.0592  0.3124
 5749SOL     OW17787   5.595   2.895   3.691 -0.0809  0.2514 -0.1620
 5749SOL    HW117788   5.517   2.907   3.744 -0.1954 -0.8478 -0.0527
 5749SOL    HW217789   5.668   2.901   3.753 -0.2266 -1.2762  0.1926
 5750SOL     OW17790   3.268   2.820   1.629 -0.0766  0.1033 -0.3143
 5750SOL    HW117791   3.306   2.770   1.557  1.5855 -0.3002  0.7821
 5750SOL    HW217792   3.329   2.893   1.643 -0.9504  0.8027 -0.0033
 5751SOL     OW17793   1.720   5.922   2.915  0.5924  0.4835  0.1091
 5751SOL    HW117794   1.681   5.835   2.915 -0.6011  0.9995  0.3608
 5751SOL    HW217795   1.754   5.933   2.826  0.6020 -0.1701  0.0285
 5752SOL     OW17796   2.617   5.152   4.754 -0.0782  0.6983 -0.0469
 5752SOL    HW117797   2.645   5.128   4.665  0.9107  0.4846  0.3126
 5752SOL    HW217798   2.679   5.108   4.811 -1.0609  0.3568  0.7877
 5753SOL     OW17799   5.519   5.561   4.605  0.4162  0.1257 -0.1138
 5753SOL    HW117800   5.509   5.543   4.512  2.0654  1.2547 -0.5546
 5753SOL    HW217801   5.511   5.475   4.647  1.4187 -0.6757 -1.4745
 5754SOL     OW17802   1.552   5.257   3.329 -0.4334  0.6890 -0.1697
 5754SOL    HW117803   1.551   5.327   3.264 -1.7785  0.4867 -0.3961
 5754SOL    HW217804   1.572   5.300   3.412  2.2405  0.8240 -0.8117
 5755SOL     OW17805   1.207   2.029   0.155  0.3942  0.2378 -0.7240
 5755SOL    HW117806   1.218   1.944   0.197 -1.0821  0.0753 -0.6109
 5755SOL    HW217807   1.229   2.014   0.063 -0.5398 -0.4458 -0.8438
 5756SOL     OW17808   6.896   6.115   2.100  0.0578 -0.3145  0.1261
 5756SOL    HW117809   6.913   6.143   2.010  1.0848 -0.2928  0.3086
 5756SOL    HW217810   6.970   6.057   2.121 -0.9164 -1.4873  0.4687
 5757SOL     OW17811   4.707   5.270   3.261 -0.3821 -0.4400 -0.2786
 5757SOL    HW117812   4.673   5.272   3.350 -0.8370  1.2088 -0.4511
 5757SOL    HW217813   4.637   5.308   3.208 -0.6978 -2.6516 -1.5966
 5758SOL     OW17814   4.566   2.977   7.428 -0.0540 -0.6685  0.4515
 5758SOL    HW117815   4.494   3.039   7.414 -0.1478  0.1301  3.6918
 5758SOL    HW217816   4.640   3.017   7.383 -0.4203  1.2561  1.4451
 5759SOL     OW17817   6.891   3.591   6.046  0.0012 -0.3689 -0.0301
 5759SOL    HW117818   6.816   3.546   6.006 -0.4967  0.1911  0.2564
 5759SOL    HW217819   6.883   3.682   6.014  0.0346 -0.0978  0.7238
 5760SOL     OW17820   6.316   5.793   3.226 -0.4944  0.0752  0.6620
 5760SOL    HW117821   6.267   5.874   3.233 -0.4277  0.1420  0.3838
 5760SOL    HW217822   6.263   5.737   3.169  0.1245  0.4388 -0.2956
 5761SOL     OW17823   3.473   4.622   1.143 -0.5515 -0.1246  0.4690
 5761SOL    HW117824   3.568   4.623   1.141 -0.5533 -0.3896  0.2097
 5761SOL    HW217825   3.451   4.585   1.229 -0.4136 -0.8463  0.2013
 5762SOL     OW17826   5.513   6.190   0.502 -0.4799  0.2437 -0.4969
 5762SOL    HW117827   5.562   6.132   0.444  0.9201 -0.7773  1.5672
 5762SOL    HW217828   5.476   6.132   0.569 -1.4408  1.4359  0.0520
 5763SOL     OW17829   6.672   2.719   5.568  0.0882  0.5029 -0.1796
 5763SOL    HW117830   6.750   2.670   5.541  0.0248  0.1470  0.2699
 5763SOL    HW217831   6.599   2.662   5.546 -0.0693  0.9644 -0.8787
 5764SOL     OW17832   6.308   7.600   2.498  0.2291  0.2054  0.4426
 5764SOL    HW117833   6.324   7.666   2.566 -2.8712  1.0348  0.5163
 5764SOL    HW217834   6.268   7.650   2.426 -1.6651 -1.4739  0.2634
 5765SOL     OW17835   3.901   3.024   0.944 -0.4167 -0.1286  0.4902
 5765SOL    HW117836   3.862   3.106   0.912  0.7740  1.1443  2.1450
 5765SOL    HW217837   3.988   3.022   0.903  0.0217  0.0704  1.3983
 5766SOL     OW17838   5.283   5.765   0.701 -0.1722  0.3961  0.2976
 5766SOL    HW117839   5.323   5.718   0.628  1.0265 -0.5975  1.5433
 5766SOL    HW217840   5.242   5.697   0.754  1.2558  0.7419  1.9346
 5767SOL     OW17841   2.323   0.754   6.894 -0.4590 -0.2663  0.4790
 5767SOL    HW117842   2.306   0.797   6.810  0.1232  1.4251  1.1661
 5767SOL    HW217843   2.244   0.705   6.913 -1.4526  1.0639 -0.0650
 5768SOL     OW17844   4.031   2.542   4.293 -0.2967 -0.0613 -0.1962
 5768SOL    HW117845   4.049   2.606   4.225  3.6867 -1.2463 -0.5346
 5768SOL    HW217846   4.060   2.584   4.374  0.5633 -0.6796 -0.1586
 5769SOL     OW17847   2.278   1.798   3.856  0.3905 -0.0461  0.0998
 5769SOL    HW117848   2.372   1.815   3.862  0.2374  1.0881 -0.3398
 5769SOL    HW217849   2.252   1.767   3.943  0.9972  0.5806  0.5073
 5770SOL     OW17850   6.415   0.049   7.018 -0.4066  0.3726 -0.1735
 5770SOL    HW117851   6.435  -0.036   7.056  0.8509  0.0893 -1.3751
 5770SOL    HW217852   6.352   0.030   6.949  0.2166  0.3297 -0.7439
 5771SOL     OW17853   6.205   0.631   2.406  0.0685 -0.3898  0.1065
 5771SOL    HW117854   6.289   0.629   2.359 -0.5479 -0.3478 -1.0095
 5771SOL    HW217855   6.210   0.555   2.465  0.7890 -0.5326 -0.1232
 5772SOL     OW17856   3.430   7.291   0.231 -0.2674 -0.0607  0.3795
 5772SOL    HW117857   3.453   7.366   0.286 -0.1174  0.4008 -0.3019
 5772SOL    HW217858   3.356   7.322   0.179 -0.8119 -0.7010  0.7491
 5773SOL     OW17859   0.556   5.387   3.306  0.1668 -0.7761 -0.5244
 5773SOL    HW117860   0.585   5.442   3.232 -0.9253 -2.0846 -1.9770
 5773SOL    HW217861   0.491   5.440   3.351  2.2291  0.8408  0.7730
 5774SOL     OW17862   4.982   0.752   2.170  0.2424  0.2128  0.5058
 5774SOL    HW117863   4.898   0.708   2.153 -1.2298  2.0386  2.5922
 5774SOL    HW217864   4.984   0.764   2.265  2.7417  0.5476  0.4649
 5775SOL     OW17865   7.032   6.919   2.700 -0.2366 -0.3851 -0.4059
 5775SOL    HW117866   6.954   6.950   2.654  0.8816  0.9923 -1.4783
 5775SOL    HW217867   7.010   6.831   2.729 -1.9570 -0.2556 -1.2433
 5776SOL     OW17868   0.961   4.633   1.868 -0.0408  0.0261 -0.2827
 5776SOL    HW117869   0.891   4.692   1.897  1.9979  2.2055  0.5575
 5776SOL    HW217870   0.985   4.584   1.947  0.1696  0.1492 -0.2702
 5777SOL     OW17871   5.861   7.466   1.356 -0.2476 -0.6222  0.3987
 5777SOL    HW117872   5.903   7.551   1.367 -1.3869 -0.1279  1.1245
 5777SOL    HW217873   5.899   7.431   1.276 -0.8732  1.2680 -0.8060
 5778SOL     OW17874   2.303   6.009   7.560  0.2341  0.4985 -0.1451
 5778SOL    HW117875   2.297   5.963   7.477  0.7342 -3.4897  1.8029
 5778SOL    HW217876   2.396   6.025   7.573  0.4075 -0.9652  0.5920
 5779SOL     OW17877   6.376   7.552   1.635 -0.0321 -0.1297 -0.1663
 5779SOL    HW117878   6.452   7.589   1.680 -0.4849 -1.5288  1.9089
 5779SOL    HW217879   6.392   7.570   1.542  2.7650 -0.2155  0.1943
 5780SOL     OW17880   6.842   4.946   0.477 -0.2574  0.1811 -0.0412
 5780SOL    HW117881   6.845   5.035   0.511 -0.7496  0.2764 -0.2450
 5780SOL    HW217882   6.933   4.927   0.451 -0.4570  1.3002 -1.7138
 5781SOL     OW17883   2.283   2.257   2.303  0.1795 -0.0549  0.0723
 5781SOL    HW117884   2.342   2.329   2.283 -0.9933  0.6280 -1.0839
 5781SOL    HW217885   2.320   2.217   2.382  2.9347 -0.5205 -1.3315
 5782SOL     OW17886   5.049   4.916   3.840  0.0016  0.2637  0.4281
 5782SOL    HW117887   5.086   4.853   3.778 -0.4647 -0.3053  0.7141
 5782SOL    HW217888   4.977   4.869   3.881 -0.7149  1.1805  0.2518
 5783SOL     OW17889   6.838   0.852   5.765 -0.4679  0.5691 -0.0503
 5783SOL    HW117890   6.882   0.806   5.837 -3.2478 -0.6775  0.9891
 5783SOL    HW217891   6.842   0.944   5.789  1.2636  0.4715  0.1356
 5784SOL     OW17892   4.841   0.865   3.422 -0.6697 -0.2503  0.2199
 5784SOL    HW117893   4.910   0.816   3.467 -0.1822  0.8197  0.6746
 5784SOL    HW217894   4.803   0.802   3.360  0.3122 -1.0243  0.3784
 5785SOL     OW17895   2.167   1.810   5.755  0.1059 -0.3267 -0.0804
 5785SOL    HW117896   2.244   1.848   5.797  0.6147 -0.7071 -0.6690
 5785SOL    HW217897   2.129   1.882   5.704 -0.3508  0.0592  0.7582
 5786SOL     OW17898   3.113   4.074   2.860 -0.1307  0.8224 -0.1612
 5786SOL    HW117899   3.029   4.051   2.900  0.2941 -0.4643  0.0444
 5786SOL    HW217900   3.168   4.101   2.933  0.3780 -0.7156  0.0789
 5787SOL     OW17901   2.988   6.811   6.260  0.4451 -0.0989  0.2196
 5787SOL    HW117902   3.079   6.840   6.262  0.3714  0.4042 -1.5617
 5787SOL    HW217903   2.992   6.716   6.262  1.1217 -0.1322 -1.3259
 5788SOL     OW17904   1.109   2.843   3.714 -0.3047 -0.2129 -0.2486
 5788SOL    HW117905   1.177   2.788   3.674  1.1564  1.3936 -0.0783
 5788SOL    HW217906   1.077   2.792   3.788  1.1486 -0.7566  0.0246
 5789SOL     OW17907   3.419   3.855   4.922 -0.0903  0.4383  0.2544
 5789SOL    HW117908   3.349   3.893   4.870 -1.2749 -0.5493  1.0829
 5789SOL    HW217909   3.409   3.894   5.008 -0.5346 -0.7548  0.7645
 5790SOL     OW17910   0.331   6.077   6.150  0.0579  0.4349  0.2042
 5790SOL    HW117911   0.271   6.065   6.076 -0.4058 -1.6781  0.8534
 5790SOL    HW217912   0.297   6.153   6.196 -1.2161  0.2042 -0.3111
 5791SOL     OW17913   1.802   6.608   2.467 -0.4904 -0.1115 -0.1729
 5791SOL    HW117914   1.825   6.581   2.378  2.1625  0.3316  0.3149
 5791SOL    HW217915   1.718   6.653   2.457  0.6451  1.6549 -2.8220
 5792SOL     OW17916   1.833   0.475   6.445  0.2166  0.6462 -0.6138
 5792SOL    HW117917   1.818   0.434   6.531 -1.1885  2.0361 -0.1532
 5792SOL    HW217918   1.922   0.448   6.421  0.2468 -0.6539  0.7646
 5793SOL     OW17919   4.164   2.877   0.632  0.2011  0.3055  0.0865
 5793SOL    HW117920   4.133   2.961   0.597  0.0575  0.8488  1.4336
 5793SOL    HW217921   4.085   2.824   0.640  0.0431  0.6137  0.6807
 5794SOL     OW17922   6.342   2.986   5.009 -0.5474  0.2032 -0.1701
 5794SOL    HW117923   6.352   3.075   4.976  0.2365 -0.1615 -0.9307
 5794SOL    HW217924   6.365   2.992   5.102 -0.8967  0.8679 -0.1247
 5795SOL     OW17925   2.563   2.110   2.717 -0.5582  0.0462 -0.0400
 5795SOL    HW117926   2.606   2.062   2.788  0.8139  0.9073 -0.2363
 5795SOL    HW217927   2.513   2.178   2.761 -2.4866 -1.4644  0.2389
 5796SOL     OW17928   0.272   5.071   3.127  0.1300  0.3072  0.3033
 5796SOL    HW117929   0.208   5.109   3.187 -0.7678 -0.3897 -0.1931
 5796SOL    HW217930   0.352   5.062   3.179 -0.3737  0.5602  1.1297
 5797SOL     OW17931   3.322   2.751   5.629 -0.1992 -0.6036  0.5525
 5797SOL    HW117932   3.389   2.695   5.589  0.3626  0.3551  0.1203
 5797SOL    HW217933   3.240   2.720   5.590 -0.0663 -1.9866  1.3160
 5798SOL     OW17934   6.932   1.704   7.036  0.0045  0.1428  0.3823
 5798SOL    HW117935   6.964   1.781   7.083  0.7970  0.3309 -0.4337
 5798SOL    HW217936   6.852   1.733   6.993  1.4160  1.2009 -1.6918
 5799SOL     OW17937   4.598   0.844   3.035  0.2477 -0.1416  0.0595
 5799SOL    HW117938   4.586   0.790   3.114  0.1505  0.2279  0.3000
 5799SOL    HW217939   4.536   0.808   2.972  0.7779 -0.8526 -0.0679
 5800SOL     OW17940   6.573   4.576   5.616  0.5688 -0.4927 -0.0665
 5800SOL    HW117941   6.517   4.606   5.544  0.8679  0.8702  0.2370
 5800SOL    HW217942   6.660   4.568   5.576  0.9357  1.1702  0.2974
 5801SOL     OW17943   3.400   2.010   4.995  0.1264 -0.4157  0.0224
 5801SOL    HW117944   3.430   2.059   4.918 -0.4171 -0.1816 -0.0441
 5801SOL    HW217945   3.460   2.036   5.065  0.4078 -0.3634 -0.2348
 5802SOL     OW17946   0.204   2.518   6.815 -0.1892  1.0609 -0.0366
 5802SOL    HW117947   0.294   2.488   6.811 -0.5505  0.0619 -1.5881
 5802SOL    HW217948   0.155   2.453   6.764 -2.4066 -0.6115  3.7598
 5803SOL     OW17949   7.412   5.317   1.276  0.4046  0.1452  0.2115
 5803SOL    HW117950   7.425   5.411   1.287  3.8028  0.2912 -2.9677
 5803SOL    HW217951   7.461   5.278   1.348 -2.9574  0.5641  2.9987
 5804SOL     OW17952   2.839   4.656   1.971 -0.1196 -0.2172 -0.4262
 5804SOL    HW117953   2.914   4.634   1.916  0.8397  0.9657  0.3443
 5804SOL    HW217954   2.830   4.581   2.030 -0.0734 -0.7328 -1.0723
 5805SOL     OW17955   2.714   6.847   1.473 -0.4675  0.3327 -0.1637
 5805SOL    HW117956   2.742   6.910   1.406  0.1199 -0.0695 -0.3035
 5805SOL    HW217957   2.679   6.773   1.423  2.3955 -1.1729 -0.2143
 5806SOL     OW17958   3.729   1.264   4.685 -0.3199 -0.0695 -0.1886
 5806SOL    HW117959   3.640   1.227   4.685 -0.4028  0.0472 -1.6120
 5806SOL    HW217960   3.744   1.289   4.593  1.4570 -0.7540 -0.1255
 5807SOL     OW17961   1.423   3.296   5.062 -0.2895 -0.6169  0.3925
 5807SOL    HW117962   1.361   3.234   5.101  1.1010 -1.8467  0.7461
 5807SOL    HW217963   1.481   3.321   5.133 -0.7831  1.0951  0.2336
 5808SOL     OW17964   3.136   3.936   7.522  0.4313 -0.1939 -0.3353
 5808SOL    HW117965   3.104   3.966   7.436  0.0744 -2.3978 -1.0422
 5808SOL    HW217966   3.226   3.968   7.527  0.3800  0.1581 -1.4546
 5809SOL     OW17967   3.751   2.914   4.552  0.0573  0.2110  0.1672
 5809SOL    HW117968   3.797   2.835   4.580  0.0581 -0.5183 -1.7634
 5809SOL    HW217969   3.800   2.986   4.592  0.5070 -0.7023  1.3276
 5810SOL     OW17970   7.181   4.824   4.789 -0.1100  0.5286 -0.6523
 5810SOL    HW117971   7.243   4.766   4.834 -0.5855  0.7149  0.2805
 5810SOL    HW217972   7.196   4.808   4.696 -0.9882 -1.9322 -0.4568
 5811SOL     OW17973   5.910   6.720   4.029 -0.1231 -0.3690  0.4155
 5811SOL    HW117974   5.906   6.754   3.939  0.1230 -0.4636  0.3694
 5811SOL    HW217975   5.842   6.769   4.075 -1.5618 -1.6486 -0.2653
 5812SOL     OW17976   7.074   7.562   6.249  0.2238  0.1911 -0.2879
 5812SOL    HW117977   7.110   7.607   6.325  1.7992 -0.0993 -0.8296
 5812SOL    HW217978   7.103   7.471   6.259 -2.6389 -0.7278  0.6303
 5813SOL     OW17979   3.696   6.080   4.666 -0.2740 -0.1312  0.1564
 5813SOL    HW117980   3.659   6.010   4.612  1.3584 -1.9432  1.2433
 5813SOL    HW217981   3.702   6.042   4.754  1.5314  1.0055  0.5805
 5814SOL     OW17982   5.046   3.565   6.313  0.2929 -0.3673  0.1826
 5814SOL    HW117983   5.071   3.613   6.234 -2.4061  1.5743  0.3820
 5814SOL    HW217984   4.974   3.509   6.285  0.4781 -0.9780  0.9072
 5815SOL     OW17985   4.557   2.040   5.263  0.1599 -0.5485 -0.3207
 5815SOL    HW117986   4.602   2.108   5.213  1.5526 -2.1312 -1.3162
 5815SOL    HW217987   4.559   2.071   5.354  2.7683 -0.2626 -0.4172
 5816SOL     OW17988   0.973   6.785   4.119  0.2544 -0.3382 -0.2608
 5816SOL    HW117989   0.988   6.841   4.195 -0.3394  0.0522 -0.4252
 5816SOL    HW217990   1.060   6.772   4.082  0.1766  3.3731 -2.2640
 5817SOL     OW17991   3.860   4.237   3.434  0.1026  0.2173 -0.5700
 5817SOL    HW117992   3.941   4.269   3.475 -0.9245 -0.1650  1.9578
 5817SOL    HW217993   3.864   4.142   3.443 -0.4525  0.1729 -0.7424
 5818SOL     OW17994   7.138   7.065   7.184  0.0366 -0.0934 -0.1910
 5818SOL    HW117995   7.139   6.998   7.252 -0.5812 -0.3312 -0.4074
 5818SOL    HW217996   7.197   7.031   7.116  0.5163  0.0644  0.1348
 5819SOL     OW17997   5.221   1.527   6.458  0.4065 -0.3874  0.1227
 5819SOL    HW117998   5.186   1.591   6.520  0.5616 -0.2663  0.0860
 5819SOL    HW217999   5.260   1.580   6.388 -2.6042 -0.4598 -1.7729
 5820SOL     OW18000   4.440   3.550   1.262  0.1969  0.1074  0.1181
 5820SOL    HW118001   4.416   3.457   1.259  1.6797 -0.3023 -0.0027
 5820SOL    HW218002   4.453   3.568   1.355  2.1374 -0.4613  0.0064
 5821SOL     OW18003   2.461   2.759   6.214 -0.2877  0.9358 -0.1941
 5821SOL    HW118004   2.457   2.824   6.284 -1.2035  2.4547 -1.5810
 5821SOL    HW218005   2.470   2.810   6.134  0.7277 -0.7462 -1.2163
 5822SOL     OW18006   7.076   6.683   5.574 -0.1835  0.7099 -0.3987
 5822SOL    HW118007   7.085   6.777   5.589  1.2528  0.3758  1.2751
 5822SOL    HW218008   7.111   6.668   5.487  2.3227  1.4251  0.4088
 5823SOL     OW18009   2.353   7.059   2.987 -0.3809 -0.0367 -0.3430
 5823SOL    HW118010   2.427   7.103   2.944 -0.5217  0.4207 -0.1260
 5823SOL    HW218011   2.382   7.047   3.078 -0.3038 -0.4912 -0.4252
 5824SOL     OW18012   7.290   1.729   2.793 -0.2784 -0.3858 -0.0787
 5824SOL    HW118013   7.336   1.706   2.712  1.5183 -0.3770  0.8685
 5824SOL    HW218014   7.268   1.644   2.832  0.6868 -0.4608  0.3598
 5825SOL     OW18015   5.395   6.656   7.054 -0.3589 -0.7458  0.0244
 5825SOL    HW118016   5.335   6.690   6.989 -0.0670  0.9099  0.5738
 5825SOL    HW218017   5.480   6.695   7.032 -0.1026 -0.7542  0.9414
 5826SOL     OW18018   0.779   5.792   4.328  0.0726 -0.2628 -0.3381
 5826SOL    HW118019   0.763   5.747   4.411  0.7286  0.3715  0.1391
 5826SOL    HW218020   0.866   5.763   4.301  1.2006  1.8382  0.7615
 5827SOL     OW18021   6.258   7.560   1.943 -0.1734 -0.0248  0.0467
 5827SOL    HW118022   6.246   7.636   1.886  0.3402  0.3988  0.4992
 5827SOL    HW218023   6.178   7.556   1.995 -0.2312  0.1579 -0.0267
 5828SOL     OW18024   0.500   2.087   2.626 -0.0088 -0.2290 -0.0438
 5828SOL    HW118025   0.567   2.079   2.558  0.3849 -0.6618  0.3795
 5828SOL    HW218026   0.520   2.170   2.670  2.4431 -1.8669  2.3033
 5829SOL     OW18027   5.309   5.118   7.153  0.6740 -0.3872 -0.3779
 5829SOL    HW118028   5.214   5.107   7.153  0.7189 -1.9662  2.5693
 5829SOL    HW218029   5.323   5.204   7.192  0.4424 -0.1834 -0.7461
 5830SOL     OW18030   6.531   2.345   1.698 -0.1508 -0.8895 -0.3591
 5830SOL    HW118031   6.532   2.386   1.784 -1.7957  1.3560 -1.3210
 5830SOL    HW218032   6.615   2.369   1.659  1.1130 -2.8561  0.9080
 5831SOL     OW18033   4.670   5.973   1.853  0.5010  0.0195  0.0147
 5831SOL    HW118034   4.741   5.923   1.813  0.0309  0.3896 -1.3552
 5831SOL    HW218035   4.620   5.909   1.903  1.7328 -0.2589  0.9268
 5832SOL     OW18036   3.876   1.732   6.948  0.2369 -0.0755 -0.4523
 5832SOL    HW118037   3.967   1.730   6.918  0.4000 -1.1905  0.0499
 5832SOL    HW218038   3.836   1.655   6.906 -0.0094 -0.5896  0.7049
 5833SOL     OW18039   7.135   0.795   0.912  0.3912 -0.3392  0.3147
 5833SOL    HW118040   7.214   0.803   0.859  0.6265  0.5382  0.7793
 5833SOL    HW218041   7.095   0.882   0.909 -0.7568 -0.8589 -0.2039
 5834SOL     OW18042   1.340   5.770   2.692  0.0581  0.3849 -0.1749
 5834SOL    HW118043   1.428   5.745   2.663 -0.0893 -1.3134  0.7066
 5834SOL    HW218044   1.355   5.841   2.755  1.0113 -1.0794  1.3513
 5835SOL     OW18045   3.953   4.360   0.011  0.6755 -0.0459  0.2266
 5835SOL    HW118046   4.025   4.378  -0.049 -0.2604  1.1029 -0.5919
 5835SOL    HW218047   3.943   4.440   0.063 -0.1838 -0.0755  0.1314
 5836SOL     OW18048   4.684   6.306   6.053  0.0775 -0.3063  0.1870
 5836SOL    HW118049   4.761   6.259   6.022 -0.7543 -1.0925 -0.7531
 5836SOL    HW218050   4.701   6.322   6.146  2.0477  0.9136 -0.3273
 5837SOL     OW18051   3.737   0.122   3.009 -0.4326 -0.1198  0.6472
 5837SOL    HW118052   3.722   0.210   3.046 -1.4142 -0.2552  0.6020
 5837SOL    HW218053   3.651   0.095   2.977  0.2679 -0.2639 -1.1920
 5838SOL     OW18054   4.070   1.648   2.327 -0.1656  0.4913 -0.2397
 5838SOL    HW118055   3.985   1.676   2.295 -0.8642 -0.4733  0.6686
 5838SOL    HW218056   4.118   1.620   2.249 -1.4465 -0.8679 -0.5746
 5839SOL     OW18057   5.917   3.190   3.876 -0.1642 -0.3661  0.3158
 5839SOL    HW118058   5.936   3.186   3.970  0.0345 -2.3733  0.2412
 5839SOL    HW218059   5.894   3.100   3.853 -2.0657  0.4407 -1.2007
 5840SOL     OW18060   6.728   5.282   2.511  0.0162 -0.9567 -0.0831
 5840SOL    HW118061   6.664   5.233   2.563 -0.6197  0.8534  0.9527
 5840SOL    HW218062   6.769   5.341   2.574  1.2445 -0.6354 -1.1435
 5841SOL     OW18063   4.541   0.758   5.534  0.1652  0.3150 -0.0593
 5841SOL    HW118064   4.563   0.808   5.612 -1.0920  1.0700 -0.1555
 5841SOL    HW218065   4.607   0.782   5.470 -0.0216  1.3315  0.1208
 5842SOL     OW18066   0.088   3.426   0.572  0.5740  0.3223 -0.6169
 5842SOL    HW118067   0.009   3.410   0.625  1.6511 -0.7073  0.7612
 5842SOL    HW218068   0.075   3.512   0.534 -1.3619  0.0369 -0.6926
 5843SOL     OW18069   0.404   2.101   6.539  0.4331 -0.1810 -0.1770
 5843SOL    HW118070   0.355   2.178   6.509  0.0131 -0.6199 -0.6632
 5843SOL    HW218071   0.339   2.049   6.587  0.6813 -0.2895  0.0413
 5844SOL     OW18072   4.415   2.572   2.022  0.2393  0.4028  0.1573
 5844SOL    HW118073   4.498   2.603   1.986  1.1041 -0.1034  1.6232
 5844SOL    HW218074   4.380   2.648   2.069 -1.4948  1.4537 -2.5890
 5845SOL     OW18075   3.782   0.192   0.140  0.3910 -0.1507  0.1704
 5845SOL    HW118076   3.746   0.268   0.093  0.7303  0.3868  0.7607
 5845SOL    HW218077   3.873   0.187   0.111  0.0755 -1.0028 -0.6921
 5846SOL     OW18078   0.973   6.290   5.996 -0.2055  0.2660 -0.2897
 5846SOL    HW118079   1.053   6.311   6.044 -0.9011 -0.7653  1.3891
 5846SOL    HW218080   0.940   6.375   5.967  0.8479  0.8057  0.0463
 5847SOL     OW18081   0.383   7.267   0.279 -0.3534  0.0396  0.0721
 5847SOL    HW118082   0.424   7.330   0.220 -0.6530 -0.2632 -0.4668
 5847SOL    HW218083   0.344   7.202   0.221  0.5961 -1.0642  0.6374
 5848SOL     OW18084   5.605   5.562   5.339  0.7079 -0.2952 -0.1509
 5848SOL    HW118085   5.628   5.652   5.320 -0.1972  0.0227  0.2031
 5848SOL    HW218086   5.657   5.510   5.277  0.0784  0.5476 -1.4167
 5849SOL     OW18087   5.020   1.554   1.264  0.4495  0.2589  0.6648
 5849SOL    HW118088   5.102   1.534   1.309  0.0417 -0.8839  0.9337
 5849SOL    HW218089   4.970   1.608   1.326  0.4750 -0.1108  1.0056
 5850SOL     OW18090   6.382   0.959   3.027  0.4688 -0.2800 -0.6508
 5850SOL    HW118091   6.338   1.031   3.072  1.3384 -0.7753  1.0903
 5850SOL    HW218092   6.411   0.900   3.097  0.3697 -2.0025 -1.9780
 5851SOL     OW18093   6.073   3.513   1.014  0.1656 -0.1648  0.6867
 5851SOL    HW118094   6.133   3.484   0.945  0.4520  0.0470  0.8451
 5851SOL    HW218095   6.021   3.435   1.035  0.5526 -0.4160  0.7215
 5852SOL     OW18096   3.823   2.526   3.254 -0.1439 -0.2603 -0.3006
 5852SOL    HW118097   3.783   2.598   3.302  0.5573  0.4596 -0.7586
 5852SOL    HW218098   3.856   2.566   3.173 -1.6742 -1.5263 -1.6061
 5853SOL     OW18099   3.143   0.343   3.010 -0.7200  0.2157  0.0236
 5853SOL    HW118100   3.106   0.376   3.091 -0.9303  0.7333 -0.2823
 5853SOL    HW218101   3.126   0.249   3.013 -0.9646  0.2690  0.4510
 5854SOL     OW18102   0.386   3.394   1.955 -0.6452  0.1783 -0.0120
 5854SOL    HW118103   0.322   3.358   2.017 -1.5891 -0.0214 -1.0804
 5854SOL    HW218104   0.453   3.433   2.011 -1.8563  0.7077  1.1431
 5855SOL     OW18105   1.542   5.794   4.597 -0.2931  0.1164  0.0614
 5855SOL    HW118106   1.541   5.699   4.581  1.7049 -0.2170  1.5165
 5855SOL    HW218107   1.618   5.808   4.653 -1.2789  2.4400  0.9566
 5856SOL     OW18108   3.333   3.924   5.422 -0.0269  0.1697  0.0453
 5856SOL    HW118109   3.301   3.990   5.360  0.7458  1.8981  1.3679
 5856SOL    HW218110   3.258   3.904   5.477  0.0008  0.8554  0.3512
 5857SOL     OW18111   1.455   7.017   3.431 -0.0082 -1.1986  0.3382
 5857SOL    HW118112   1.483   7.087   3.372  0.4808 -0.3039  1.5622
 5857SOL    HW218113   1.475   6.936   3.384 -1.3159 -0.5410 -1.4458
 5858SOL     OW18114   3.901   2.196   4.636 -0.1790 -0.2502 -0.1852
 5858SOL    HW118115   3.864   2.178   4.550 -2.5012  0.0742  0.6642
 5858SOL    HW218116   3.971   2.133   4.646 -1.0954 -1.5489 -1.5722
 5859SOL     OW18117   2.956   1.199   6.971 -0.0346  0.5708  0.0277
 5859SOL    HW118118   2.985   1.264   7.036  0.4069  0.4265 -0.0202
 5859SOL    HW218119   2.860   1.206   6.972  0.0316  2.0058 -0.7832
 5860SOL     OW18120   3.393   5.221   7.452 -0.4314 -0.3444  0.3444
 5860SOL    HW118121   3.400   5.306   7.408  1.8529 -1.7127 -2.2313
 5860SOL    HW218122   3.303   5.192   7.434 -0.8070  0.8997  0.1014
 5861SOL     OW18123   5.197   1.700   6.011 -0.2921  0.1065 -0.1668
 5861SOL    HW118124   5.158   1.787   6.004 -0.4370  0.1748  1.2734
 5861SOL    HW218125   5.252   1.693   5.933 -0.2704  1.4978 -0.3069
 5862SOL     OW18126   1.098   2.511   6.796 -0.3641  0.7986  0.6709
 5862SOL    HW118127   1.045   2.432   6.793  1.4719 -0.4821 -0.4353
 5862SOL    HW218128   1.096   2.538   6.888 -2.2516  0.3931  0.7880
 5863SOL     OW18129   0.004   3.099   4.065 -0.1761 -0.2856 -0.3730
 5863SOL    HW118130   0.056   3.116   4.144 -1.7096  0.7055  0.4674
 5863SOL    HW218131   0.003   3.004   4.057  1.4582 -0.3367 -0.2181
 5864SOL     OW18132   1.069   3.104   2.863  0.2461  0.5799 -0.0067
 5864SOL    HW118133   1.051   3.197   2.878  0.7789  0.3273  2.7200
 5864SOL    HW218134   0.982   3.066   2.849 -0.3775  1.0355  2.1906
 5865SOL     OW18135   7.506   5.469   0.390  0.6002  0.2069  0.4864
 5865SOL    HW118136   7.424   5.420   0.394  0.7452  0.0269  1.3385
 5865SOL    HW218137   7.489   5.550   0.438  1.2940 -0.3952  1.7830
 5866SOL     OW18138   6.752   2.858   2.658  0.0085  0.0688 -0.1640
 5866SOL    HW118139   6.720   2.843   2.569  1.3708 -2.4585 -0.3273
 5866SOL    HW218140   6.678   2.896   2.704 -0.8915  0.9593 -2.2404
 5867SOL     OW18141   1.904   4.348   6.310  0.4213 -0.4462  0.0980
 5867SOL    HW118142   1.886   4.412   6.241  0.3989 -0.4801  0.0719
 5867SOL    HW218143   1.967   4.392   6.368  0.1286 -0.2684  0.2800
 5868SOL     OW18144   2.570   2.753   3.125 -0.0405  0.2335 -0.8000
 5868SOL    HW118145   2.594   2.695   3.052  0.9306 -0.5406  0.1018
 5868SOL    HW218146   2.503   2.705   3.173  0.5804 -0.0521 -0.1984
 5869SOL     OW18147   5.880   0.745   1.429  0.1391  0.4405  0.1508
 5869SOL    HW118148   5.936   0.770   1.355 -0.6372 -0.8599 -0.9263
 5869SOL    HW218149   5.937   0.753   1.505  1.5262  0.0199 -0.7979
 5870SOL     OW18150   7.263   3.653   3.424 -0.0314 -0.7285 -0.2008
 5870SOL    HW118151   7.258   3.749   3.424  0.2680 -0.6950  1.1467
 5870SOL    HW218152   7.307   3.631   3.343 -0.9379  0.2243 -0.9814
 5871SOL     OW18153   5.447   0.668   4.147  0.4062 -0.0226  0.5814
 5871SOL    HW118154   5.529   0.714   4.131  0.2802  0.2145  0.6098
 5871SOL    HW218155   5.471   0.593   4.202  1.0345 -1.5024 -1.5822
 5872SOL     OW18156   4.264   3.557   4.765 -0.0639 -0.1580 -1.0597
 5872SOL    HW118157   4.250   3.635   4.819 -1.9540 -0.1752 -1.4781
 5872SOL    HW218158   4.212   3.489   4.807 -0.5621 -0.4961 -2.1879
 5873SOL     OW18159   0.557   0.559   6.680 -0.0532  0.1207 -0.0656
 5873SOL    HW118160   0.504   0.639   6.679  0.9755  0.8172 -0.2013
 5873SOL    HW218161   0.549   0.526   6.770  0.2706  0.8934  0.2549
 5874SOL     OW18162   0.939   1.614   1.169  0.1100 -0.2202  0.0414
 5874SOL    HW118163   0.853   1.572   1.168  0.6583 -1.4675 -2.5004
 5874SOL    HW218164   0.964   1.620   1.077  2.0667  1.6146  0.6129
 5875SOL     OW18165   1.147   3.272   3.160  0.2000 -0.0240 -0.0163
 5875SOL    HW118166   1.067   3.324   3.166  1.1987  1.5271  0.6961
 5875SOL    HW218167   1.140   3.209   3.232 -0.5285 -0.1376 -0.1821
 5876SOL     OW18168   6.824   0.274   3.014 -0.6742 -0.0053 -0.6337
 5876SOL    HW118169   6.803   0.183   2.996  1.7183 -0.6428 -0.5850
 5876SOL    HW218170   6.868   0.273   3.099  1.5371  0.7779 -1.6800
 5877SOL     OW18171   6.374   1.372   6.113  0.7493  0.0935 -1.2626
 5877SOL    HW118172   6.332   1.288   6.094  1.2109 -0.3548 -0.3761
 5877SOL    HW218173   6.302   1.430   6.139  0.5529 -0.3292 -0.8661
 5878SOL     OW18174   5.417   0.157   1.158  0.0723 -0.4724 -0.3142
 5878SOL    HW118175   5.329   0.144   1.194 -0.3593 -0.5536 -1.3606
 5878SOL    HW218176   5.462   0.208   1.225 -1.1736  0.6817 -0.2970
 5879SOL     OW18177   7.001   4.168   5.028  0.1139 -0.2281 -0.1221
 5879SOL    HW118178   7.093   4.145   5.040  0.1013 -1.0433 -1.3505
 5879SOL    HW218179   6.985   4.151   4.935 -1.5335 -1.0310  0.2799
 5880SOL     OW18180   0.780   1.175   2.470 -0.1130  0.2203 -0.0742
 5880SOL    HW118181   0.694   1.194   2.432 -0.0393  0.1166 -0.2901
 5880SOL    HW218182   0.805   1.257   2.514 -0.2941  0.2693 -0.0605
 5881SOL     OW18183   2.019   1.728   3.059 -0.3075  0.1403  0.2121
 5881SOL    HW118184   2.049   1.684   2.980  0.7871 -0.4936  0.9516
 5881SOL    HW218185   2.014   1.821   3.035  0.4401  0.0102 -0.4782
 5882SOL     OW18186   5.119   6.478   2.717 -0.2380 -0.1758  0.0488
 5882SOL    HW118187   5.155   6.393   2.744  0.5035  0.1309  0.0509
 5882SOL    HW218188   5.176   6.542   2.758 -0.1866  0.3146 -0.7652
 5883SOL     OW18189   0.155   7.123   5.114 -0.4830  0.3208  0.3606
 5883SOL    HW118190   0.183   7.212   5.135  3.6983 -0.7788  0.2247
 5883SOL    HW218191   0.166   7.075   5.196  1.0981 -0.8090 -0.4761
 5884SOL     OW18192   7.192   0.748   1.165 -0.0046 -0.3639 -0.2492
 5884SOL    HW118193   7.178   0.743   1.071 -0.9778  0.9590 -0.1871
 5884SOL    HW218194   7.273   0.699   1.179 -0.2727 -1.2716 -1.6538
 5885SOL     OW18195   6.003   4.058   1.917  0.3927 -0.2326  0.1897
 5885SOL    HW118196   5.926   4.116   1.916  0.6019  0.2177  2.7851
 5885SOL    HW218197   5.993   4.008   1.998  1.5345 -2.0470 -0.7396
 5886SOL     OW18198   3.625   4.184   5.935  0.0067 -0.5415 -0.3125
 5886SOL    HW118199   3.615   4.155   6.025  1.0860 -1.0951 -0.3560
 5886SOL    HW218200   3.714   4.156   5.910 -0.2377 -0.3203 -1.5054
 5887SOL     OW18201   3.733   3.955   3.631  0.3189  0.3769  0.1990
 5887SOL    HW118202   3.656   3.942   3.576  0.7756  0.5914 -0.5095
 5887SOL    HW218203   3.699   3.959   3.721 -0.5091  0.6782 -0.1213
 5888SOL     OW18204   5.949   4.668   5.193 -0.7092 -0.0986  0.5597
 5888SOL    HW118205   5.901   4.586   5.181  0.2215 -0.3543 -2.0447
 5888SOL    HW218206   5.932   4.718   5.112  3.9811 -0.5968 -1.0204
 5889SOL     OW18207   5.107   1.449   4.203  0.3836 -0.0936  0.2197
 5889SOL    HW118208   5.065   1.420   4.122 -1.3063 -1.3903  1.4802
 5889SOL    HW218209   5.178   1.506   4.174  0.8343 -1.7412 -2.2198
 5890SOL     OW18210   3.895   6.080   1.812  0.6638 -0.2943  0.6141
 5890SOL    HW118211   3.863   5.997   1.848 -0.0468  0.9456  3.0421
 5890SOL    HW218212   3.826   6.143   1.832  0.9713  0.8420 -1.6185
 5891SOL     OW18213   0.182   6.766   7.151  0.5626 -0.0471  0.5790
 5891SOL    HW118214   0.103   6.712   7.148 -0.3581  1.2429  1.1455
 5891SOL    HW218215   0.176   6.822   7.074 -0.3166  1.7121  1.8762
 5892SOL     OW18216   7.102   1.060   4.969 -0.7184 -0.1584  0.1519
 5892SOL    HW118217   7.191   1.088   4.991 -0.3089 -2.5137  1.9562
 5892SOL    HW218218   7.105   1.040   4.876  0.3353  0.7337 -0.0302
 5893SOL     OW18219   3.089   2.143   5.624 -0.1303 -0.3722 -0.2731
 5893SOL    HW118220   3.113   2.085   5.696  0.5347 -1.7671 -1.5770
 5893SOL    HW218221   2.999   2.168   5.643 -0.3205 -1.5681  0.4952
 5894SOL     OW18222   3.769   0.541   4.400 -0.0973  0.2656  0.0748
 5894SOL    HW118223   3.740   0.489   4.326 -0.8830  1.7404 -0.6993
 5894SOL    HW218224   3.815   0.615   4.361  0.4126  0.5181  1.1107
 5895SOL     OW18225   0.136   4.960   3.346 -0.3237 -0.5336 -0.2164
 5895SOL    HW118226   0.053   4.987   3.307  0.2746  0.3198 -0.9631
 5895SOL    HW218227   0.179   4.910   3.276 -0.1682 -0.8855  0.1302
 5896SOL     OW18228   2.486   7.572   0.324  0.5563 -0.3771  0.0658
 5896SOL    HW118229   2.551   7.515   0.367 -0.1539  0.3590  2.2596
 5896SOL    HW218230   2.439   7.614   0.397 -0.5653  1.1775 -1.4720
 5897SOL     OW18231   2.171   3.025   2.175  0.1914  0.4307 -0.0842
 5897SOL    HW118232   2.084   2.984   2.178  1.0724 -1.5045  1.7584
 5897SOL    HW218233   2.179   3.057   2.085 -1.5217 -1.4280 -0.9908
 5898SOL     OW18234   2.708   5.608   4.465  0.3529  0.6308  0.1652
 5898SOL    HW118235   2.630   5.643   4.420  0.7745 -0.9544 -1.9901
 5898SOL    HW218236   2.697   5.634   4.556 -2.0453  1.5867 -0.3169
 5899SOL     OW18237   4.093   6.307   3.850 -0.3745 -0.9934 -0.5546
 5899SOL    HW118238   4.120   6.257   3.928 -1.9591 -0.5895  0.2920
 5899SOL    HW218239   4.043   6.244   3.798 -1.3294 -0.6431 -0.0794
 5900SOL     OW18240   3.145   4.364   1.655 -0.2900  0.4232  0.3322
 5900SOL    HW118241   3.133   4.329   1.567 -1.7697  1.9025 -0.0960
 5900SOL    HW218242   3.238   4.348   1.674  0.1074  0.2249 -1.5577
 5901SOL     OW18243   1.197   7.568   3.114  0.0310 -0.2612 -1.3513
 5901SOL    HW118244   1.138   7.635   3.147  0.1056 -0.7857 -0.1209
 5901SOL    HW218245   1.237   7.607   3.036 -0.8073  0.6623 -1.3280
 5902SOL     OW18246   5.521   0.355   5.324 -0.4241 -0.2971  0.1183
 5902SOL    HW118247   5.601   0.342   5.272  0.0736 -1.3869  1.1125
 5902SOL    HW218248   5.466   0.411   5.269  0.9405  0.3325 -0.6754
 5903SOL     OW18249   6.421   5.865   5.983  0.2994  0.6525 -0.1088
 5903SOL    HW118250   6.447   5.950   6.018  0.7267  0.1409  0.8427
 5903SOL    HW218251   6.329   5.876   5.959  0.0610  1.0837  0.9654
 5904SOL     OW18252   6.980   2.185   4.546 -0.5905 -0.0042 -0.0840
 5904SOL    HW118253   7.073   2.204   4.535 -0.4398 -0.8157 -0.2280
 5904SOL    HW218254   6.938   2.229   4.472 -0.2590 -0.1035 -0.3343
 5905SOL     OW18255   4.462   7.360   4.370  0.5747 -0.0445 -0.3264
 5905SOL    HW118256   4.411   7.299   4.317 -0.9986 -1.2764  2.4044
 5905SOL    HW218257   4.412   7.441   4.367 -0.6471 -0.7145  0.8563
 5906SOL     OW18258   5.464   0.664   5.970 -0.4157 -0.4845  0.1421
 5906SOL    HW118259   5.404   0.610   5.919  0.7332 -0.5813 -1.1728
 5906SOL    HW218260   5.522   0.703   5.905 -0.5889  1.5667  1.1529
 5907SOL     OW18261   2.769   4.791   4.748  0.1560  0.8963  0.1250
 5907SOL    HW118262   2.817   4.829   4.674  1.4669  1.7886  1.3851
 5907SOL    HW218263   2.759   4.698   4.726  1.0171  1.0393 -0.9101
 5908SOL     OW18264   1.340   3.111   4.711 -0.7657 -0.0828 -0.1702
 5908SOL    HW118265   1.415   3.152   4.755 -1.3368 -0.6187  1.3590
 5908SOL    HW218266   1.334   3.157   4.627  0.9424  0.3360 -0.1147
 5909SOL     OW18267   1.208   2.337   1.509 -0.1936 -0.2831 -0.2215
 5909SOL    HW118268   1.169   2.282   1.577 -1.3558 -0.3146 -0.8896
 5909SOL    HW218269   1.134   2.368   1.458  0.5937  0.4724 -0.9346
 5910SOL     OW18270   5.129   1.871   0.568  0.0044  0.6384 -0.2751
 5910SOL    HW118271   5.033   1.870   0.574 -0.1141 -1.3818 -1.3997
 5910SOL    HW218272   5.147   1.925   0.491 -0.5705 -2.0971 -2.5153
 5911SOL     OW18273   3.491   1.909   4.507  0.0060 -0.1117 -0.0050
 5911SOL    HW118274   3.462   1.997   4.530 -0.3773  0.2603 -1.8099
 5911SOL    HW218275   3.451   1.892   4.422 -0.9989 -2.5507  0.8646
 5912SOL     OW18276   5.629   0.916   5.522 -0.5723  0.7407 -0.2483
 5912SOL    HW118277   5.700   0.964   5.479  0.3235 -0.8497 -0.6058
 5912SOL    HW218278   5.550   0.941   5.473 -0.2153  2.1688 -0.1370
 5913SOL     OW18279   3.769   0.130   4.345 -0.0724 -0.0761  0.0596
 5913SOL    HW118280   3.835   0.067   4.316 -0.3971 -0.1437 -0.5666
 5913SOL    HW218281   3.714   0.082   4.405  1.2252  0.3461  1.6616
 5914SOL     OW18282   7.467   3.619   6.928  0.0648  0.0799  0.2884
 5914SOL    HW118283   7.420   3.658   7.002  0.8665 -0.6084  1.1800
 5914SOL    HW218284   7.538   3.569   6.968 -0.8816 -2.2689 -0.7977
 5915SOL     OW18285   5.479   5.766   1.104  0.0063  0.1750 -0.1882
 5915SOL    HW118286   5.434   5.848   1.082  1.0438  2.2649  4.3409
 5915SOL    HW218287   5.569   5.793   1.121  0.1039 -1.6103  2.6204
 5916SOL     OW18288   4.797   0.509   0.997 -0.1733 -0.1480 -0.5652
 5916SOL    HW118289   4.777   0.496   0.905 -1.2190  0.2081 -0.4027
 5916SOL    HW218290   4.883   0.550   0.998  0.3751 -1.2374 -1.3211
 5917SOL     OW18291   4.856   1.956   4.080 -0.1016 -0.1557 -0.4576
 5917SOL    HW118292   4.770   1.927   4.109  1.0928 -2.3020  1.2751
 5917SOL    HW218293   4.901   1.981   4.161  0.9919  0.6959 -1.2954
 5918SOL     OW18294   5.096   3.652   1.644  1.1061 -0.3151 -0.7526
 5918SOL    HW118295   5.115   3.669   1.551  0.7123  1.6738 -0.5211
 5918SOL    HW218296   5.125   3.732   1.688 -1.3316 -0.0474  0.4837
 5919SOL     OW18297   0.350   1.477   4.159  0.5901  0.0931 -0.3664
 5919SOL    HW118298   0.444   1.493   4.160  0.6321 -0.0913  1.1431
 5919SOL    HW218299   0.319   1.515   4.242 -0.5782 -0.2833 -0.6187
 5920SOL     OW18300   6.758   6.879   0.929  0.0366  0.2876  0.1472
 5920SOL    HW118301   6.704   6.904   0.854  0.0270 -0.6305 -0.1630
 5920SOL    HW218302   6.752   6.954   0.989  1.3390  1.7304 -1.4337
 5921SOL     OW18303   5.961   1.837   3.429 -0.0034 -0.2866 -0.3049
 5921SOL    HW118304   5.970   1.755   3.382 -1.8206  0.1294 -1.4667
 5921SOL    HW218305   5.931   1.812   3.517  0.8538 -0.9210 -0.1861
 5922SOL     OW18306   0.997   2.460   6.527 -0.1228  0.3549 -0.1704
 5922SOL    HW118307   1.060   2.473   6.598 -0.6900 -2.7595  1.0696
 5922SOL    HW218308   1.042   2.492   6.449  1.8330  0.9019  1.1063
 5923SOL     OW18309   0.417   5.730   4.959  0.3660  0.4543  0.3167
 5923SOL    HW118310   0.505   5.758   4.986  0.2841 -0.3429  1.4849
 5923SOL    HW218311   0.386   5.676   5.032  0.0748 -1.7304 -1.3418
 5924SOL     OW18312   2.227   4.721   1.761  0.7360  0.8063  0.1293
 5924SOL    HW118313   2.224   4.768   1.678  1.0242 -0.4533 -0.6225
 5924SOL    HW218314   2.291   4.652   1.747 -0.3358 -0.3843  0.8768
 5925SOL     OW18315   6.067   1.384   5.002  0.1960  0.2358 -0.0943
 5925SOL    HW118316   6.078   1.422   5.089  2.9473  0.3525 -0.4004
 5925SOL    HW218317   5.992   1.429   4.965 -0.5008  0.7881  1.9012
 5926SOL     OW18318   6.790   4.275   1.078  0.0063  0.6646  0.1142
 5926SOL    HW118319   6.735   4.309   1.149 -0.2999 -0.3295  0.3688
 5926SOL    HW218320   6.739   4.204   1.039  0.1867  1.1663 -1.0884
 5927SOL     OW18321   2.356   6.925   6.516  0.4874  0.0953  0.2073
 5927SOL    HW118322   2.260   6.918   6.513  0.3893  0.6534  1.3660
 5927SOL    HW218323   2.381   6.946   6.426 -0.3986 -0.8899 -0.2913
 5928SOL     OW18324   6.859   6.319   2.271  0.6246 -0.6989  0.0575
 5928SOL    HW118325   6.858   6.268   2.191 -0.4035 -0.8804  0.1698
 5928SOL    HW218326   6.906   6.399   2.249  0.7685 -0.9592 -0.5838
 5929SOL     OW18327   6.094   7.102   1.905  0.0715  0.1094  0.3660
 5929SOL    HW118328   6.064   7.024   1.952  0.6438  0.1771  0.8439
 5929SOL    HW218329   6.017   7.159   1.902  0.4002  0.7261  2.4798
 5930SOL     OW18330   2.785   4.672   0.706  0.2241  0.2152  0.2153
 5930SOL    HW118331   2.741   4.589   0.720 -0.8214  0.6985 -0.1256
 5930SOL    HW218332   2.873   4.648   0.678 -0.2975 -0.7842 -0.6301
 5931SOL     OW18333   5.536   5.113   5.831  0.1925 -0.9660  0.4489
 5931SOL    HW118334   5.450   5.153   5.844  1.4334  1.6523  1.2150
 5931SOL    HW218335   5.551   5.120   5.737  0.7333  1.3124  0.6536
 5932SOL     OW18336   5.416   4.408   3.799 -0.5842  0.2655 -0.3585
 5932SOL    HW118337   5.335   4.394   3.750 -0.5694 -0.7898 -0.1137
 5932SOL    HW218338   5.482   4.357   3.752 -0.4760 -0.4146  0.4962
 5933SOL     OW18339   5.316   7.319   2.173  0.0478  0.2067  0.3434
 5933SOL    HW118340   5.346   7.403   2.207 -0.2299  0.5596 -0.2657
 5933SOL    HW218341   5.332   7.324   2.078 -1.5556  0.2661  0.0416
 5934SOL     OW18342   1.463   4.137   6.341  0.7231  0.4136 -0.2695
 5934SOL    HW118343   1.384   4.170   6.383  1.1345  0.1954  0.6999
 5934SOL    HW218344   1.521   4.113   6.414  1.7022  0.6191 -0.9640
 5935SOL     OW18345   1.969   7.117   7.199 -0.2774  0.0872  0.1435
 5935SOL    HW118346   2.038   7.102   7.134 -0.4820 -1.0420  0.1577
 5935SOL    HW218347   1.888   7.120   7.148 -0.3155  0.4577  0.2234
 5936SOL     OW18348   6.573   5.686   4.335 -0.7188  0.3744 -0.0044
 5936SOL    HW118349   6.624   5.609   4.360 -2.1621 -0.5519  0.1866
 5936SOL    HW218350   6.561   5.676   4.240 -0.0724  0.8992 -0.1487
 5937SOL     OW18351   3.802   2.023   6.900  0.2860  0.4307  0.3202
 5937SOL    HW118352   3.891   1.989   6.892  0.5629  1.2654 -0.2655
 5937SOL    HW218353   3.746   1.951   6.870  0.9446  1.0340 -2.7138
 5938SOL     OW18354   2.641   0.808   6.420  0.7549  0.4852  0.6401
 5938SOL    HW118355   2.626   0.720   6.386 -1.6966  0.3113  1.9682
 5938SOL    HW218356   2.652   0.796   6.514 -0.8031  1.6749  1.0045
 5939SOL     OW18357   2.819   7.345   6.083  0.7243 -0.4624  0.0916
 5939SOL    HW118358   2.864   7.332   6.000  1.4275 -1.0855  0.5614
 5939SOL    HW218359   2.888   7.341   6.149  0.0741 -0.7990  0.7716
 5940SOL     OW18360   2.707   1.799   0.285 -0.3392 -0.1935 -0.4247
 5940SOL    HW118361   2.639   1.738   0.314 -0.4838 -0.6439 -1.6409
 5940SOL    HW218362   2.665   1.884   0.286 -0.1566 -0.0907  1.2289
 5941SOL     OW18363   2.318   7.306   2.247 -0.0204 -0.3255  0.5525
 5941SOL    HW118364   2.307   7.369   2.318 -1.0726  1.1188 -0.8352
 5941SOL    HW218365   2.264   7.231   2.274 -2.0685  1.0043  0.4180
 5942SOL     OW18366   1.102   5.908   2.936 -0.2204 -0.3834 -0.8576
 5942SOL    HW118367   1.175   5.864   2.979 -2.0150 -2.2914  0.4516
 5942SOL    HW218368   1.096   5.993   2.979 -0.0392 -1.0307  0.4861
 5943SOL     OW18369   0.745   0.637   3.744 -0.7563  0.1655 -0.3831
 5943SOL    HW118370   0.783   0.607   3.662 -0.4733  0.1955 -0.2629
 5943SOL    HW218371   0.735   0.557   3.796 -0.2625  0.2418 -0.1700
 5944SOL     OW18372   1.215   1.175   3.013 -0.3918 -0.3676 -0.7035
 5944SOL    HW118373   1.260   1.254   3.043 -2.2589  0.7941 -0.8026
 5944SOL    HW218374   1.283   1.108   3.011  0.4656  0.0683  3.6253
 5945SOL     OW18375   5.739   4.220   6.131  0.7250 -0.6761 -0.2420
 5945SOL    HW118376   5.710   4.180   6.049 -0.0375 -0.1211 -0.2550
 5945SOL    HW218377   5.711   4.311   6.124 -1.9692 -1.2141  1.8050
 5946SOL     OW18378   0.743   0.971   0.490 -0.2484  0.1758 -0.1078
 5946SOL    HW118379   0.678   1.035   0.461 -2.1006 -2.2660 -1.7504
 5946SOL    HW218380   0.743   0.904   0.422  0.9634 -1.9917  1.8739
 5947SOL     OW18381   6.759   4.454   2.003 -0.6447 -0.2806  0.4918
 5947SOL    HW118382   6.730   4.524   1.945  0.9183  0.4524  0.5504
 5947SOL    HW218383   6.851   4.472   2.018 -0.2695 -2.2179  0.7388
 5948SOL     OW18384   0.051   2.287   0.738  0.2108  0.4027 -0.4439
 5948SOL    HW118385   0.037   2.199   0.703 -0.5487  0.9071 -1.4467
 5948SOL    HW218386   0.143   2.287   0.766  0.3556 -0.5543 -0.8805
 5949SOL     OW18387   3.259   5.359   2.560  0.6736  0.9270  0.4837
 5949SOL    HW118388   3.295   5.283   2.514  0.4423  0.1297  1.5864
 5949SOL    HW218389   3.282   5.345   2.652 -3.3963 -0.3018  1.5522
 5950SOL     OW18390   3.170   6.762   1.658  0.1481 -0.8546  0.1540
 5950SOL    HW118391   3.239   6.703   1.686  0.8307  0.2188  0.7821
 5950SOL    HW218392   3.094   6.736   1.710  0.4049 -1.2369  0.3419
 5951SOL     OW18393   1.095   7.349   3.481 -0.0098  0.5784 -0.0701
 5951SOL    HW118394   1.107   7.335   3.575 -2.2006  0.1856  0.2193
 5951SOL    HW218395   1.036   7.424   3.475 -1.8134 -0.8112 -0.9661
 5952SOL     OW18396   3.037   4.313   6.493 -0.0721 -0.6508  0.0753
 5952SOL    HW118397   3.019   4.402   6.465  0.1238 -0.3803  0.7921
 5952SOL    HW218398   3.132   4.304   6.487 -0.0457 -0.6544  0.4401
 5953SOL     OW18399   6.090   4.342   7.068  0.0493 -0.5760  0.1769
 5953SOL    HW118400   6.145   4.273   7.105 -1.3197 -2.2285 -0.7391
 5953SOL    HW218401   6.018   4.296   7.025 -1.9561  1.4744  1.0972
 5954SOL     OW18402   1.160   5.358   4.114  0.2747  0.0504 -0.1730
 5954SOL    HW118403   1.143   5.429   4.052  1.1413 -0.5419 -1.1102
 5954SOL    HW218404   1.205   5.402   4.187  1.3886  0.3909 -1.0281
 5955SOL     OW18405   7.151   1.447   4.027 -0.0393 -0.7251  0.4188
 5955SOL    HW118406   7.220   1.472   3.966 -0.5891  1.3646  0.5687
 5955SOL    HW218407   7.193   1.451   4.113 -0.1629 -0.0222  0.4587
 5956SOL     OW18408   4.036   1.969   3.130  0.5196 -0.1947 -0.0974
 5956SOL    HW118409   4.029   2.046   3.075  1.7546 -0.0456 -0.0816
 5956SOL    HW218410   4.130   1.958   3.144  0.4623 -2.3292 -0.9842
 5957SOL     OW18411   0.866   3.552   0.995  0.2499  0.1200  0.5277
 5957SOL    HW118412   0.845   3.511   0.911  0.7747 -0.0938  0.4944
 5957SOL    HW218413   0.889   3.642   0.972  0.1657  0.1270  0.4701
 5958SOL     OW18414   5.370   1.635   6.235  0.2856  0.1471 -0.1028
 5958SOL    HW118415   5.343   1.640   6.143  1.3777  0.6399 -0.4191
 5958SOL    HW218416   5.435   1.565   6.237  1.1872  0.9703  0.0403
 5959SOL     OW18417   2.095   7.152   2.993 -0.1194 -0.2849 -0.0706
 5959SOL    HW118418   2.176   7.104   2.978  0.1627  0.6281 -1.7106
 5959SOL    HW218419   2.047   7.144   2.910 -0.3891  1.6385 -0.1330
 5960SOL     OW18420   6.243   6.914   0.815  0.0655  0.0681 -0.5987
 5960SOL    HW118421   6.190   6.837   0.832 -1.0285  1.1884  1.5712
 5960SOL    HW218422   6.252   6.917   0.720 -0.6199 -2.1870 -0.7905
 5961SOL     OW18423   1.446   5.795   5.074  0.4150 -0.5194 -0.0821
 5961SOL    HW118424   1.499   5.716   5.060 -1.6523 -1.9699 -0.1442
 5961SOL    HW218425   1.450   5.842   4.991  1.6029 -0.5622 -0.0680
 5962SOL     OW18426   4.901   3.432   3.024 -0.6260  0.2680  0.4214
 5962SOL    HW118427   4.946   3.426   2.940 -1.7508  0.8945 -0.2452
 5962SOL    HW218428   4.946   3.369   3.080  1.4969  1.3012 -0.0049
 5963SOL     OW18429   3.600   4.544   5.513 -0.3775 -0.6121  0.4668
 5963SOL    HW118430   3.558   4.621   5.549  1.7342  2.2499 -2.5935
 5963SOL    HW218431   3.679   4.531   5.567 -0.3909 -0.2060  0.5810
 5964SOL     OW18432   4.190   2.777   5.200  0.5906 -0.4680 -0.5748
 5964SOL    HW118433   4.198   2.704   5.261  0.2166 -1.2754 -1.4821
 5964SOL    HW218434   4.110   2.823   5.228  1.6420  0.5282  0.9506
 5965SOL     OW18435   5.852   0.731   2.133 -0.1288  0.0763  0.2922
 5965SOL    HW118436   5.882   0.800   2.073 -1.2352  0.9487  0.7041
 5965SOL    HW218437   5.762   0.714   2.105 -0.3432 -0.1718  1.1278
 5966SOL     OW18438   6.442   6.363   3.475 -0.0723  0.5177 -0.3829
 5966SOL    HW118439   6.479   6.408   3.551  0.6572  0.5519 -0.7435
 5966SOL    HW218440   6.508   6.298   3.452  0.0981  1.0505 -1.4731
 5967SOL     OW18441   0.741   0.876   0.085  0.2472  0.5472  0.0304
 5967SOL    HW118442   0.661   0.922   0.111 -0.6383 -1.3472  0.8672
 5967SOL    HW218443   0.741   0.880  -0.011 -1.3776 -0.2214 -0.0346
 5968SOL     OW18444   3.542   5.770   3.651 -0.1994  0.0639 -0.4027
 5968SOL    HW118445   3.454   5.781   3.688 -0.4939 -0.6515 -0.8735
 5968SOL    HW218446   3.560   5.853   3.607 -0.1623  0.6393  0.6632
 5969SOL     OW18447   3.016   2.407   7.039  0.3858  0.1085 -0.5477
 5969SOL    HW118448   2.972   2.492   7.046 -1.7379 -0.7384 -2.2760
 5969SOL    HW218449   2.981   2.356   7.113  0.2653  0.1843 -0.5519
 5970SOL     OW18450   4.344   1.666   5.390  0.1863  0.7178  0.0334
 5970SOL    HW118451   4.439   1.653   5.384  0.1507 -0.3568  1.4773
 5970SOL    HW218452   4.334   1.754   5.425  0.6646  0.5519  0.5945
 5971SOL     OW18453   2.935   2.058   6.355 -0.1867  0.0246 -0.3464
 5971SOL    HW118454   3.007   2.095   6.406  0.3110 -0.1353 -0.9351
 5971SOL    HW218455   2.925   2.117   6.281 -0.0743 -0.4477 -0.7398
 5972SOL     OW18456   2.712   0.373   3.195 -0.1051  0.0596  0.5895
 5972SOL    HW118457   2.665   0.295   3.223 -1.7593 -0.2112 -2.4571
 5972SOL    HW218458   2.780   0.340   3.136 -0.3161  0.8250 -0.1075
 5973SOL     OW18459   1.258   1.936   5.576  0.0213  0.5145 -0.2074
 5973SOL    HW118460   1.196   1.980   5.518 -1.1770 -0.2538  0.4553
 5973SOL    HW218461   1.246   1.980   5.661 -0.0304 -0.0089  0.0605
 5974SOL     OW18462   2.217   4.426   0.314  0.1223 -0.1551 -0.2994
 5974SOL    HW118463   2.216   4.364   0.240 -0.4746 -1.0409  0.4264
 5974SOL    HW218464   2.229   4.370   0.391  0.8452  0.7674  0.2788
 5975SOL     OW18465   7.101   2.129   6.597 -0.0553  0.1052 -0.4009
 5975SOL    HW118466   7.127   2.220   6.587  1.6152 -0.3206 -0.2737
 5975SOL    HW218467   7.014   2.123   6.556 -0.7462  1.9847  0.6737
 5976SOL     OW18468   5.139   1.359   2.623  0.1049  0.5330 -0.5817
 5976SOL    HW118469   5.184   1.443   2.611  2.1433 -0.6803 -2.2072
 5976SOL    HW218470   5.116   1.332   2.535 -1.5556 -0.1201  0.0268
 5977SOL     OW18471   4.990   3.827   3.609  0.0270  0.9648 -0.1339
 5977SOL    HW118472   4.933   3.881   3.664 -0.0815  0.7942 -0.0800
 5977SOL    HW218473   4.967   3.852   3.520 -2.1210 -1.0701 -0.2444
 5978SOL     OW18474   0.512   5.745   6.587  0.2782  0.0663 -0.1430
 5978SOL    HW118475   0.426   5.725   6.623 -0.3161  1.4283 -0.7309
 5978SOL    HW218476   0.510   5.840   6.572  0.8402 -0.2503 -2.7624
 5979SOL     OW18477   4.687   4.192   6.247 -0.1691  0.3320 -0.8901
 5979SOL    HW118478   4.676   4.186   6.152  1.7161 -1.3605 -1.0399
 5979SOL    HW218479   4.649   4.278   6.269  1.1112  1.6795 -3.4401
 5980SOL     OW18480   4.619   3.010   6.188 -0.2587  0.3285  0.0518
 5980SOL    HW118481   4.589   3.016   6.098  0.9693  2.0060 -0.2982
 5980SOL    HW218482   4.621   3.101   6.219  1.5788  0.0185  0.9724
 5981SOL     OW18483   7.121   5.202   2.024  0.3849 -0.5520  0.1992
 5981SOL    HW118484   7.062   5.214   2.098  0.5998  1.0196  0.1498
 5981SOL    HW218485   7.137   5.108   2.021 -4.6948 -1.6455 -1.8254
 5982SOL     OW18486   1.796   4.633   1.371  0.6360  0.0353 -0.0968
 5982SOL    HW118487   1.878   4.586   1.357  1.8141  2.3376 -1.2807
 5982SOL    HW218488   1.792   4.646   1.466  0.8954 -1.2689  0.1198
 5983SOL     OW18489   3.239   4.030   4.448 -0.0558 -0.0237  0.1422
 5983SOL    HW118490   3.316   4.076   4.414 -0.1253  0.4677  0.6240
 5983SOL    HW218491   3.167   4.090   4.432 -0.4502 -0.7424 -0.8606
 5984SOL     OW18492   5.937   3.184   7.625 -0.0169  0.1147  0.1860
 5984SOL    HW118493   5.961   3.139   7.544 -0.5514  0.7672 -0.3392
 5984SOL    HW218494   6.012   3.168   7.683  0.4292 -0.2483 -0.4711
 5985SOL     OW18495   6.307   5.854   5.166 -0.2026 -0.3020 -0.4378
 5985SOL    HW118496   6.285   5.794   5.094  3.4002 -0.8873 -1.2395
 5985SOL    HW218497   6.385   5.901   5.135 -0.2471  1.5550  1.9872
 5986SOL     OW18498   2.734   0.504   5.422 -0.2794 -0.1761 -0.3076
 5986SOL    HW118499   2.768   0.419   5.448 -1.0815 -0.9569 -1.6721
 5986SOL    HW218500   2.639   0.498   5.437 -0.1571  1.1359  1.2643
 5987SOL     OW18501   6.886   6.766   1.620  0.0125  0.6351  0.2228
 5987SOL    HW118502   6.942   6.839   1.646  0.1249  0.0982  1.6282
 5987SOL    HW218503   6.896   6.702   1.691 -0.7991 -0.3490 -0.5101
 5988SOL     OW18504   1.964   6.921   4.372 -0.3675  0.5434 -0.2655
 5988SOL    HW118505   2.005   6.834   4.374 -2.3490 -0.4582 -0.3800
 5988SOL    HW218506   1.878   6.908   4.413 -1.2375  2.1587 -1.4632
 5989SOL     OW18507   2.639   3.395   4.156 -0.6785  0.3342 -0.1258
 5989SOL    HW118508   2.549   3.417   4.134 -0.6053 -0.6614 -1.5077
 5989SOL    HW218509   2.635   3.307   4.191 -0.6237  1.4469  2.9480
 5990SOL     OW18510   4.404   4.253   1.571 -0.1152 -0.3372 -0.3295
 5990SOL    HW118511   4.374   4.258   1.480 -1.7244  1.3119  0.2323
 5990SOL    HW218512   4.460   4.176   1.573  1.2835  0.4695 -3.0799
 5991SOL     OW18513   0.905   5.268   0.994  0.0466  0.1577 -0.0997
 5991SOL    HW118514   0.918   5.173   1.000  1.9456  0.2266 -1.9142
 5991SOL    HW218515   0.817   5.277   0.956  0.5396 -0.9892 -1.6287
 5992SOL     OW18516   3.954   2.030   2.815  0.4068  0.7723  0.4650
 5992SOL    HW118517   4.039   2.073   2.825  0.0640  1.1506  2.0738
 5992SOL    HW218518   3.892   2.102   2.803  0.1006  0.6150  1.0624
 5993SOL     OW18519   0.275   7.133   1.494 -0.0527  0.0211 -0.1678
 5993SOL    HW118520   0.226   7.051   1.486  0.1733 -0.2513  1.0635
 5993SOL    HW218521   0.364   7.107   1.518  0.2930  0.5867 -0.7854
 5994SOL     OW18522   3.138   2.190   2.208  0.3881  0.0028  0.1771
 5994SOL    HW118523   3.061   2.219   2.258  0.2421 -0.5979  0.3098
 5994SOL    HW218524   3.101   2.146   2.131  0.6079  0.2142 -0.0518
 5995SOL     OW18525   2.881   4.754   7.195  0.7533 -0.0333  0.1808
 5995SOL    HW118526   2.842   4.840   7.210  0.8423  0.4707 -2.1858
 5995SOL    HW218527   2.821   4.692   7.237 -1.7089  0.8620 -1.8241
 5996SOL     OW18528   0.087   4.490   4.097 -0.3660  0.5445 -0.0507
 5996SOL    HW118529   0.048   4.575   4.116 -1.0874  0.4521 -1.0448
 5996SOL    HW218530   0.079   4.480   4.003 -1.3156 -1.1146  0.1695
 5997SOL     OW18531   2.356   1.501   6.408 -0.6062 -0.2070 -0.4698
 5997SOL    HW118532   2.391   1.514   6.496 -0.5356  0.0099 -0.5279
 5997SOL    HW218533   2.393   1.418   6.379  1.1142  0.7209 -1.1194
 5998SOL     OW18534   4.534   1.183   3.542 -0.4107 -0.1347  0.1427
 5998SOL    HW118535   4.517   1.156   3.633  1.0742 -0.1433  0.4449
 5998SOL    HW218536   4.527   1.103   3.491 -1.3302 -0.1176  0.2335
 5999SOL     OW18537   7.251   3.399   5.997  0.2355 -0.1728 -0.5394
 5999SOL    HW118538   7.270   3.493   5.996  1.6862 -0.4643 -1.2259
 5999SOL    HW218539   7.283   3.369   6.082 -2.0824  0.2697  0.5912
 6000SOL     OW18540   7.239   6.075   6.731 -0.0883  0.2333 -0.3053
 6000SOL    HW118541   7.310   6.043   6.674  2.4214  1.5156  1.8615
 6000SOL    HW218542   7.206   5.996   6.774  1.8463 -0.1911  0.5080
 6001SOL     OW18543   4.470   1.744   0.710  0.1532 -0.1690 -0.8325
 6001SOL    HW118544   4.456   1.799   0.633 -3.0140  0.3928 -0.0100
 6001SOL    HW218545   4.415   1.667   0.694 -1.9938  0.7365  1.4826
 6002SOL     OW18546   3.853   5.741   3.446 -0.3750 -0.1877 -0.0467
 6002SOL    HW118547   3.815   5.678   3.386  1.5878 -2.0242  0.5165
 6002SOL    HW218548   3.945   5.714   3.455 -0.0504  1.3274  2.0474
 6003SOL     OW18549   3.791   5.181   4.502 -0.2851 -0.1968  0.0291
 6003SOL    HW118550   3.818   5.133   4.580 -0.4559  1.4058  1.1127
 6003SOL    HW218551   3.870   5.228   4.475 -0.2740 -0.6096 -0.6875
 6004SOL     OW18552   7.565   3.721   5.355  0.1426 -0.4712  0.1096
 6004SOL    HW118553   7.541   3.813   5.362  0.5718 -0.4025  0.8197
 6004SOL    HW218554   7.618   3.704   5.433  1.7053 -0.8280 -0.9883
 6005SOL     OW18555   5.502   6.447   3.582  0.5300  0.1696  0.3024
 6005SOL    HW118556   5.576   6.395   3.551 -0.0420  0.0387 -0.9168
 6005SOL    HW218557   5.524   6.469   3.673  1.6763 -0.5462  0.2184
 6006SOL     OW18558   5.434   6.915   2.906  0.1008  0.3395 -0.4193
 6006SOL    HW118559   5.472   6.978   2.968  2.7294 -0.2182 -1.3299
 6006SOL    HW218560   5.406   6.968   2.832  2.8488  0.5294 -1.4452
 6007SOL     OW18561   5.608   2.602   2.155  0.4244  0.0784 -0.2166
 6007SOL    HW118562   5.639   2.660   2.225  0.0959  1.0768 -0.8619
 6007SOL    HW218563   5.558   2.534   2.200  1.7911 -0.3938  0.6615
 6008SOL     OW18564   4.024   3.475   5.788  0.1475 -0.3667 -0.2138
 6008SOL    HW118565   4.100   3.450   5.736  1.0090  1.6644 -0.0067
 6008SOL    HW218566   4.058   3.484   5.877 -0.3650  0.4462 -0.0940
 6009SOL     OW18567   6.813   0.912   3.394 -0.1358 -0.5429  0.4638
 6009SOL    HW118568   6.835   0.868   3.312  0.3628 -0.6868  0.6754
 6009SOL    HW218569   6.814   1.006   3.372  0.2312 -0.5719  0.3651
 6010SOL     OW18570   3.208   3.092   1.399  0.0003  0.8295  0.5053
 6010SOL    HW118571   3.114   3.099   1.383 -0.0122 -1.1157 -0.5426
 6010SOL    HW218572   3.247   3.163   1.348 -0.6966 -0.2176 -1.5822
 6011SOL     OW18573   6.791   3.313   1.179 -0.1950 -0.1373 -0.0811
 6011SOL    HW118574   6.879   3.320   1.140 -0.2503 -2.0732 -0.6916
 6011SOL    HW218575   6.734   3.357   1.116  0.1840 -0.0132 -0.3463
 6012SOL     OW18576   5.466   0.408   4.720 -0.2224  0.0182  0.0607
 6012SOL    HW118577   5.432   0.445   4.639 -2.2297  0.4897  1.0508
 6012SOL    HW218578   5.437   0.469   4.788  1.6156 -0.2413  1.1405
 6013SOL     OW18579   3.286   6.381   2.497 -0.9416 -0.5577  0.0178
 6013SOL    HW118580   3.200   6.416   2.473 -1.3223 -1.9091 -0.6955
 6013SOL    HW218581   3.272   6.345   2.585 -0.0145  2.7570  1.7154
 6014SOL     OW18582   0.916   3.333   2.063 -0.4438  0.0191 -0.7112
 6014SOL    HW118583   0.977   3.263   2.088 -0.2788 -0.0007 -1.1618
 6014SOL    HW218584   0.829   3.296   2.078 -0.3458  0.1526  0.2309
 6015SOL     OW18585   5.037   5.879   3.397  0.2175 -0.0802 -0.1628
 6015SOL    HW118586   5.038   5.787   3.373 -2.0546 -0.6463  1.6174
 6015SOL    HW218587   4.945   5.902   3.402  0.7013  1.8869  0.8838
 6016SOL     OW18588   6.121   3.421   3.343 -0.5341 -0.0753  0.1534
 6016SOL    HW118589   6.081   3.490   3.290  1.6811  0.4696 -0.9112
 6016SOL    HW218590   6.200   3.396   3.295 -0.4254 -2.2525  1.3233
 6017SOL     OW18591   3.020   2.278   3.022 -0.3921 -0.0797 -0.6682
 6017SOL    HW118592   3.024   2.340   2.949 -0.6808 -0.1603 -0.7543
 6017SOL    HW218593   2.965   2.321   3.086  0.3222  0.2370 -0.2562
 6018SOL     OW18594   4.149   3.982   3.567 -0.2924  0.0785 -0.1803
 6018SOL    HW118595   4.150   3.895   3.606  0.1852 -0.2881 -0.9896
 6018SOL    HW218596   4.233   4.020   3.592 -0.6804  0.4867  0.5419
 6019SOL     OW18597   3.335   3.191   3.421  0.1690 -0.1158  0.2178
 6019SOL    HW118598   3.321   3.281   3.449  1.1494  0.5639 -1.3438
 6019SOL    HW218599   3.421   3.192   3.378  0.8944 -2.1203  1.4608
 6020SOL     OW18600   5.979   6.696   7.232 -0.1326 -0.2216  0.3973
 6020SOL    HW118601   5.908   6.662   7.179 -1.5631 -0.0962  2.1193
 6020SOL    HW218602   5.942   6.772   7.277  0.9613 -0.3504  1.6090
 6021SOL     OW18603   1.830   2.306   4.795  0.4139  0.2225 -0.8008
 6021SOL    HW118604   1.824   2.318   4.890  2.0044 -0.1905 -0.6290
 6021SOL    HW218605   1.790   2.385   4.758 -1.1189 -0.0493  0.1798
 6022SOL     OW18606   2.100   1.903   0.037  0.2325 -0.0172  0.1370
 6022SOL    HW118607   2.173   1.850   0.067  1.5626  1.8581  0.4169
 6022SOL    HW218608   2.067   1.945   0.116 -1.3968 -1.0633  0.0603
 6023SOL     OW18609   3.299   2.120   4.610 -0.4267  0.4231  0.4003
 6023SOL    HW118610   3.307   2.209   4.643  0.1547  1.0785 -1.4247
 6023SOL    HW218611   3.280   2.130   4.517 -1.0142 -1.3639  0.2875
 6024SOL     OW18612   4.388   1.997   4.601  0.1005 -0.1533  0.5073
 6024SOL    HW118613   4.419   2.057   4.533  0.5838 -0.3454  0.5567
 6024SOL    HW218614   4.456   1.999   4.668 -0.5122  0.2586  1.1243
 6025SOL     OW18615   2.545   0.868   2.719  0.3325  0.2769 -0.4994
 6025SOL    HW118616   2.482   0.933   2.749  1.0204  1.2992 -1.1841
 6025SOL    HW218617   2.511   0.838   2.635 -0.4013 -0.8716  0.1881
 6026SOL     OW18618   6.499   6.208   6.452  0.1491  0.2242  0.2218
 6026SOL    HW118619   6.502   6.259   6.533 -2.0641 -2.9429  2.5663
 6026SOL    HW218620   6.424   6.242   6.404 -0.2708  0.2849  0.9123
 6027SOL     OW18621   5.654   6.927   3.217 -0.2180  0.0010 -0.2355
 6027SOL    HW118622   5.623   6.847   3.260  2.0088 -0.6581  0.3179
 6027SOL    HW218623   5.586   6.950   3.155 -0.8639 -2.4411 -0.5082
 6028SOL     OW18624   0.742   4.022   4.261 -0.0234 -0.3664  0.1320
 6028SOL    HW118625   0.693   4.044   4.340  0.0486  0.8145 -0.1354
 6028SOL    HW218626   0.713   4.086   4.196  0.0441 -1.2126 -0.7565
 6029SOL     OW18627   7.528   3.098   6.828 -0.0497 -0.7402 -0.1316
 6029SOL    HW118628   7.601   3.109   6.889 -1.3133 -1.8217  1.6784
 6029SOL    HW218629   7.486   3.016   6.855 -0.7022 -1.2494 -2.4675
 6030SOL     OW18630   5.313   3.461   5.736  0.1693  0.3495 -0.8295
 6030SOL    HW118631   5.240   3.522   5.746  1.7894  2.3455 -0.6136
 6030SOL    HW218632   5.320   3.418   5.822  0.4211  1.5263 -0.2471
 6031SOL     OW18633   0.606   0.944   7.114 -0.1313 -0.2083  0.2560
 6031SOL    HW118634   0.609   0.881   7.187 -1.1446  0.0002  0.4932
 6031SOL    HW218635   0.687   0.927   7.065  0.3608 -0.6470  1.1793
 6032SOL     OW18636   6.288   4.121   1.332 -0.2767 -0.4251  0.3493
 6032SOL    HW118637   6.223   4.166   1.279  0.5176 -2.1731 -2.3473
 6032SOL    HW218638   6.370   4.133   1.284  0.4974 -2.1023  1.1572
 6033SOL     OW18639   7.294   0.364   1.663  0.4940 -0.4451 -0.0205
 6033SOL    HW118640   7.309   0.356   1.757 -0.2486 -1.8935  0.0135
 6033SOL    HW218641   7.340   0.288   1.625 -0.6228 -0.8441 -0.6266
 6034SOL     OW18642   1.868   7.417   4.322 -0.1511 -0.0209 -0.2025
 6034SOL    HW118643   1.783   7.444   4.357 -0.1477  1.1865 -1.0662
 6034SOL    HW218644   1.930   7.480   4.359  0.2628 -0.4293 -0.1939
 6035SOL     OW18645   3.485   0.687   3.595  0.3384  0.2219  0.1635
 6035SOL    HW118646   3.573   0.703   3.630  0.7843  0.1670 -0.8719
 6035SOL    HW218647   3.487   0.728   3.508 -0.6122  0.0814  0.0697
 6036SOL     OW18648   4.570   2.977   4.257  0.3579  0.2690 -0.6818
 6036SOL    HW118649   4.590   3.055   4.309  0.7755 -0.0650 -0.3398
 6036SOL    HW218650   4.654   2.949   4.221  0.4230 -0.7148  0.1733
 6037SOL     OW18651   2.645   1.409   0.965  0.0711  0.1416  0.1949
 6037SOL    HW118652   2.666   1.499   0.990 -1.8893  0.4157  1.0347
 6037SOL    HW218653   2.550   1.404   0.971  0.1591 -2.1143  0.5478
 6038SOL     OW18654   1.736   1.279   7.214 -0.1126 -0.5206  0.5642
 6038SOL    HW118655   1.693   1.363   7.196 -1.2586 -1.2879 -0.4572
 6038SOL    HW218656   1.826   1.291   7.186 -0.8751 -0.4180 -2.1480
 6039SOL     OW18657   5.032   1.331   1.071 -0.1935 -0.3695  0.0052
 6039SOL    HW118658   5.012   1.399   1.135 -0.4365  0.0990 -0.5559
 6039SOL    HW218659   5.127   1.320   1.076 -0.0096  0.7656 -0.6314
 6040SOL     OW18660   2.182   5.416   5.686  0.0446  0.3381 -0.2080
 6040SOL    HW118661   2.137   5.349   5.737  0.4374 -1.7596 -2.4597
 6040SOL    HW218662   2.259   5.438   5.738  0.6547 -2.0183 -0.0158
 6041SOL     OW18663   6.401   3.397   5.872  0.1061 -0.1674  0.3631
 6041SOL    HW118664   6.368   3.337   5.805  0.2050 -0.4284  0.5486
 6041SOL    HW218665   6.355   3.479   5.855 -1.8043 -0.9330  1.5327
 6042SOL     OW18666   4.516   5.320   3.071  0.5552 -0.7388 -0.1754
 6042SOL    HW118667   4.589   5.310   3.010  0.4690 -1.1838 -0.2074
 6042SOL    HW218668   4.453   5.375   3.025  1.0925  0.0737  0.0481
 6043SOL     OW18669   6.648   0.128   5.253  0.3135 -0.3584  0.2401
 6043SOL    HW118670   6.675   0.108   5.342 -1.3918  0.2617  0.9406
 6043SOL    HW218671   6.660   0.222   5.244  0.7575 -0.4596 -0.2998
 6044SOL     OW18672   3.689   4.309   6.658  0.0073 -0.2002  0.0774
 6044SOL    HW118673   3.630   4.385   6.656  0.2110 -0.0012  1.0375
 6044SOL    HW218674   3.764   4.336   6.606  0.1849  0.3650  0.6059
 6045SOL     OW18675   2.588   4.879   0.230  0.2488  0.1959  0.2855
 6045SOL    HW118676   2.514   4.824   0.256 -0.1386  1.3828  1.8027
 6045SOL    HW218677   2.644   4.821   0.178 -2.6310 -0.2889 -2.5923
 6046SOL     OW18678   5.471   3.234   7.596  0.1467 -0.1684  0.5665
 6046SOL    HW118679   5.428   3.175   7.535  0.4639 -0.7462  0.8853
 6046SOL    HW218680   5.493   3.178   7.671  1.9555 -0.0304  0.1737
 6047SOL     OW18681   1.369   0.251   0.022  0.6524  0.1529  0.9251
 6047SOL    HW118682   1.313   0.212   0.089 -0.2849 -0.6075 -0.2586
 6047SOL    HW218683   1.308   0.286  -0.043  1.4121 -2.5408 -1.4763
 6048SOL     OW18684   2.248   1.646   7.367 -0.0078 -0.6465 -0.3685
 6048SOL    HW118685   2.278   1.720   7.315  0.3340  0.3795  1.2220
 6048SOL    HW218686   2.180   1.682   7.424 -1.6062 -2.1152 -1.2588
 6049SOL     OW18687   0.292   1.144   4.659 -0.3162 -0.0092 -0.3015
 6049SOL    HW118688   0.293   1.159   4.753 -0.5885  1.4601 -0.5118
 6049SOL    HW218689   0.278   1.231   4.621  0.7571 -0.4278 -1.7295
 6050SOL     OW18690   6.134   4.520   7.299  0.3102  0.0470  0.4058
 6050SOL    HW118691   6.052   4.567   7.312  1.1803  2.0230 -0.8365
 6050SOL    HW218692   6.125   4.480   7.213  0.8226  0.6963  0.0429
 6051SOL     OW18693   1.506   0.822   7.189  0.1412  0.0552  0.4115
 6051SOL    HW118694   1.591   0.778   7.196  0.1016  0.0651  1.0786
 6051SOL    HW218695   1.528   0.913   7.170  0.2003 -0.3948 -2.0158
 6052SOL     OW18696   2.475   7.035   6.273  0.1113  0.0818 -0.8064
 6052SOL    HW118697   2.402   7.052   6.214 -0.3257  1.1862  0.0037
 6052SOL    HW218698   2.548   7.086   6.237  0.1578 -0.1051 -0.9796
 6053SOL     OW18699   5.431   2.732   1.622  0.0621  0.4575 -0.2404
 6053SOL    HW118700   5.443   2.697   1.710  0.9037  0.9555 -0.1466
 6053SOL    HW218701   5.416   2.825   1.635 -0.1442  0.4811 -0.6166
 6054SOL     OW18702   5.721   1.841   3.135  0.1181  0.5002 -0.1888
 6054SOL    HW118703   5.693   1.915   3.082 -0.8405 -0.1587 -0.6284
 6054SOL    HW218704   5.711   1.871   3.226  0.5525  1.1930 -0.3678
 6055SOL     OW18705   5.257   0.929   4.477 -0.6974 -0.4457  0.1684
 6055SOL    HW118706   5.297   0.894   4.398  0.7177  2.5212 -0.5725
 6055SOL    HW218707   5.202   1.002   4.447  0.4901  1.2679  1.8773
 6056SOL     OW18708   4.644   1.279   1.179  0.4676 -0.6033  0.5185
 6056SOL    HW118709   4.631   1.373   1.193  0.3281 -0.6171  0.4885
 6056SOL    HW218710   4.720   1.257   1.233  0.3499 -0.5218  0.7208
 6057SOL     OW18711   3.193   6.706   0.666  0.8413 -1.2088 -0.0486
 6057SOL    HW118712   3.182   6.616   0.697 -0.5733 -0.7949  0.7398
 6057SOL    HW218713   3.123   6.755   0.710  0.9631  0.0784 -1.2284
 6058SOL     OW18714   4.938   5.771   4.598 -0.5828 -0.3613  0.5071
 6058SOL    HW118715   4.868   5.814   4.550  0.7257  1.0571 -0.2404
 6058SOL    HW218716   4.936   5.680   4.569 -0.8822  0.1042 -0.9971
 6059SOL     OW18717   6.625   7.391   3.313 -0.0116  0.5366  0.7599
 6059SOL    HW118718   6.638   7.320   3.250  0.8498 -0.3256  1.8551
 6059SOL    HW218719   6.712   7.427   3.327  0.0964 -0.3414  2.6076
 6060SOL     OW18720   4.649   7.031   1.294 -0.3319 -0.6468 -0.6734
 6060SOL    HW118721   4.738   7.061   1.313 -1.0468  0.8309  0.5186
 6060SOL    HW218722   4.595   7.074   1.359 -1.9147 -1.6947 -1.2464
 6061SOL     OW18723   5.076   1.542   2.222  1.0667  0.1232  0.1491
 6061SOL    HW118724   5.015   1.500   2.283  1.1914 -0.6346 -0.2405
 6061SOL    HW218725   5.113   1.615   2.271  1.9374 -1.0752  1.3421
 6062SOL     OW18726   6.019   7.341   7.534 -0.4503  0.2403  0.5261
 6062SOL    HW118727   6.028   7.425   7.489  0.8684  0.1045  0.4979
 6062SOL    HW218728   6.041   7.360   7.625  0.8861 -0.2543  0.3251
 6063SOL     OW18729   7.284   5.079   0.271  0.2314  0.4098  0.4409
 6063SOL    HW118730   7.378   5.084   0.258  0.3380 -1.4338  0.2140
 6063SOL    HW218731   7.251   5.043   0.188 -0.7112  1.2429  0.4362
 6064SOL     OW18732   6.603   7.266   7.442  0.3999  0.0173  0.2010
 6064SOL    HW118733   6.639   7.254   7.354  0.5509 -0.2240  0.2955
 6064SOL    HW218734   6.558   7.351   7.438  1.3848  0.5579  0.2102
 6065SOL     OW18735   7.239   4.115   0.726  0.2091 -0.2204  0.4237
 6065SOL    HW118736   7.198   4.199   0.742 -0.2618 -0.3884  0.1117
 6065SOL    HW218737   7.303   4.132   0.656  0.2152 -0.0952  0.4611
 6066SOL     OW18738   5.263   7.174   4.854  0.1557  0.2452 -0.2535
 6066SOL    HW118739   5.234   7.248   4.907 -0.6562  1.1784 -1.9147
 6066SOL    HW218740   5.353   7.196   4.830  0.6366 -0.3308  0.9374
 6067SOL     OW18741   0.125   1.076   0.029 -0.1615  0.3229 -0.1251
 6067SOL    HW118742   0.159   1.094  -0.059 -1.4605  3.9203 -0.0389
 6067SOL    HW218743   0.033   1.102   0.025 -0.3426  0.2187  2.2333
 6068SOL     OW18744   5.026   2.089   0.403 -0.2453  0.2230  0.5650
 6068SOL    HW118745   4.940   2.060   0.374  0.5891 -0.2540 -1.6158
 6068SOL    HW218746   5.029   2.182   0.383  0.1561 -0.0082 -0.5133
 6069SOL     OW18747   4.359   3.373   2.529  0.6776 -0.1650 -0.2701
 6069SOL    HW118748   4.296   3.302   2.537 -0.4879  0.9031  0.5089
 6069SOL    HW218749   4.437   3.332   2.493 -0.6721 -1.4098 -1.9589
 6070SOL     OW18750   4.861   5.864   6.118 -0.2355  0.2586 -0.5644
 6070SOL    HW118751   4.808   5.786   6.133  0.2336  0.4362  2.5727
 6070SOL    HW218752   4.803   5.926   6.074 -1.1434 -1.1822 -1.4592
 6071SOL     OW18753   7.316   0.293   2.603 -0.0876  0.1482 -0.4742
 6071SOL    HW118754   7.280   0.223   2.658  2.0047 -1.4420 -0.9440
 6071SOL    HW218755   7.274   0.281   2.518 -1.5567  1.0897  0.0805
 6072SOL     OW18756   4.696   0.587   3.724  0.1564 -0.1661 -0.3565
 6072SOL    HW118757   4.752   0.657   3.759 -0.3958 -0.3750  1.0116
 6072SOL    HW218758   4.634   0.568   3.795 -0.7756 -0.8920 -1.3257
 6073SOL     OW18759   3.699   1.948   6.556  0.0435  0.1085 -0.4752
 6073SOL    HW118760   3.791   1.976   6.553 -0.3930  1.9506  1.3384
 6073SOL    HW218761   3.687   1.917   6.646 -1.0355 -0.4946 -0.8118
 6074SOL     OW18762   4.404   0.159   3.864 -0.6629 -0.8063 -0.6279
 6074SOL    HW118763   4.418   0.225   3.797 -2.1252 -0.4312 -0.5859
 6074SOL    HW218764   4.476   0.097   3.852  1.6235  1.4976  0.2502
 6075SOL     OW18765   5.360   0.950   1.098 -0.7380 -0.2116 -0.0846
 6075SOL    HW118766   5.321   0.863   1.089 -1.9998  0.3412 -0.2382
 6075SOL    HW218767   5.301   1.008   1.050  2.1820  0.2627 -3.5083
 6076SOL     OW18768   4.960   1.491   4.831 -0.4116  0.3429  0.1463
 6076SOL    HW118769   4.878   1.537   4.811 -0.3764 -0.3068 -1.6619
 6076SOL    HW218770   4.948   1.403   4.795  0.5404 -0.2417  1.1717
 6077SOL     OW18771   1.420   7.018   2.474  0.4316  0.1033  0.2368
 6077SOL    HW118772   1.409   6.946   2.412 -0.5203  0.2042  0.2782
 6077SOL    HW218773   1.345   7.011   2.533  1.0719  0.3055  1.0800
 6078SOL     OW18774   7.164   1.212   0.509  0.1158  0.1766 -0.0549
 6078SOL    HW118775   7.244   1.233   0.557  0.0518 -0.6866  0.4406
 6078SOL    HW218776   7.191   1.210   0.417  0.7620 -0.5315  0.1424
 6079SOL     OW18777   4.146   2.657   6.511  0.0309 -0.0121 -0.6768
 6079SOL    HW118778   4.187   2.667   6.425 -0.5116  1.6976 -0.7750
 6079SOL    HW218779   4.190   2.581   6.550 -0.0194 -1.0840 -2.6099
 6080SOL     OW18780   1.820   1.025   2.837  0.1423 -0.2563  0.3036
 6080SOL    HW118781   1.896   1.029   2.895  0.2762  1.1540  0.0664
 6080SOL    HW218782   1.778   0.942   2.857 -0.1558  0.4344  2.8498
 6081SOL     OW18783   1.451   6.460   0.287  0.3003 -0.1015  0.7717
 6081SOL    HW118784   1.492   6.393   0.232 -0.4378  2.5061 -3.3198
 6081SOL    HW218785   1.516   6.530   0.292 -1.1884  1.4357 -0.4209
 6082SOL     OW18786   5.613   3.648   4.714 -0.1491  0.5775  0.1069
 6082SOL    HW118787   5.649   3.639   4.802 -1.0961 -0.2030  0.4322
 6082SOL    HW218788   5.683   3.688   4.663  0.5158  0.7590  1.1429
 6083SOL     OW18789   5.664   4.244   4.584  0.1533  0.3000  0.5645
 6083SOL    HW118790   5.656   4.148   4.585  1.0165  0.2161  0.1826
 6083SOL    HW218791   5.718   4.264   4.661  0.5954  0.4160  0.2248
 6084SOL     OW18792   5.163   0.052   1.206  0.0609 -0.3936  0.0256
 6084SOL    HW118793   5.226  -0.015   1.177  0.5153 -0.4416  1.0721
 6084SOL    HW218794   5.078   0.020   1.175  0.4995 -0.4879 -1.1392
 6085SOL     OW18795   3.093   0.979   3.977 -0.3756 -0.0974  0.2921
 6085SOL    HW118796   3.185   0.967   4.000  0.7088  2.2335 -2.3979
 6085SOL    HW218797   3.052   1.009   4.059  1.9213  1.7896  0.8604
 6086SOL     OW18798   2.683   0.359   3.890  0.1914  0.3100  0.0700
 6086SOL    HW118799   2.620   0.342   3.960  0.6786 -0.4678  0.3250
 6086SOL    HW218800   2.767   0.330   3.925  1.0860  3.1464  0.5028
 6087SOL     OW18801   7.405   2.251   6.379 -0.1551  0.3302  0.2712
 6087SOL    HW118802   7.422   2.184   6.445 -0.0853 -1.0727 -1.1280
 6087SOL    HW218803   7.310   2.262   6.381 -0.0935  0.7926  1.0601
 6088SOL     OW18804   2.210   4.234   0.135  0.9423  0.1512 -0.9080
 6088SOL    HW118805   2.267   4.200   0.066  0.4132  0.3245 -1.4407
 6088SOL    HW218806   2.125   4.193   0.119  0.7486  0.3896 -0.5119
 6089SOL     OW18807   1.937   5.274   5.985  0.3876  0.1288  0.3741
 6089SOL    HW118808   1.901   5.256   6.072 -2.0647  0.1527 -0.5584
 6089SOL    HW218809   1.953   5.368   5.985 -2.6524  0.7507 -0.1464
 6090SOL     OW18810   0.982   2.873   4.157  0.4072  0.3679 -0.3199
 6090SOL    HW118811   1.026   2.852   4.239 -1.1557 -1.7251  0.0592
 6090SOL    HW218812   0.925   2.947   4.178  1.9063  1.5517 -0.2322
 6091SOL     OW18813   1.581   4.929   2.072  0.1874  0.3194 -0.0707
 6091SOL    HW118814   1.656   4.887   2.113 -0.0187  0.2124  0.2025
 6091SOL    HW218815   1.618   5.001   2.021  0.2803  1.6928  1.8696
 6092SOL     OW18816   1.630   0.809   4.928 -0.0940 -0.1341  0.3578
 6092SOL    HW118817   1.644   0.748   4.855 -3.0063 -0.1330 -0.3113
 6092SOL    HW218818   1.716   0.848   4.943  0.8709 -1.0298 -2.2640
 6093SOL     OW18819   4.283   3.295   6.302  0.4702  0.4250 -0.0689
 6093SOL    HW118820   4.296   3.230   6.371 -0.0248 -0.5273 -0.8455
 6093SOL    HW218821   4.217   3.355   6.337  1.6366  1.1163  1.0446
 6094SOL     OW18822   5.592   3.135   7.080  0.2693 -0.4069 -0.2163
 6094SOL    HW118823   5.598   3.190   7.158  0.1647 -0.7623  0.0415
 6094SOL    HW218824   5.652   3.063   7.096 -0.4160 -0.9558 -0.0774
 6095SOL     OW18825   2.811   6.316   5.905 -0.1931  0.1585 -0.2111
 6095SOL    HW118826   2.739   6.301   5.966 -0.6754 -0.6375 -0.9339
 6095SOL    HW218827   2.882   6.262   5.939 -0.2792  0.1462 -0.0483
 6096SOL     OW18828   1.191   4.455   6.816  0.4376  0.0057  0.6223
 6096SOL    HW118829   1.267   4.422   6.768 -0.9953  0.0630 -1.8411
 6096SOL    HW218830   1.136   4.379   6.831  0.3374  0.1846  1.2173
 6097SOL     OW18831   6.919   7.249   3.901 -0.5016  0.3932 -0.4022
 6097SOL    HW118832   6.842   7.272   3.849 -0.9385 -0.5410 -0.2024
 6097SOL    HW218833   6.929   7.154   3.889  2.2615  0.8540 -2.5911
 6098SOL     OW18834   2.775   0.699   2.619  0.3264 -0.1047 -0.2367
 6098SOL    HW118835   2.701   0.641   2.632  0.1712 -0.7657 -3.2320
 6098SOL    HW218836   2.743   0.766   2.558  1.5925  0.8825  0.1304
 6099SOL     OW18837   7.247   4.195   6.965 -0.0996 -0.2815  0.5409
 6099SOL    HW118838   7.206   4.116   6.931 -0.8609 -0.6176  2.1145
 6099SOL    HW218839   7.224   4.263   6.901  1.9175 -1.5520 -1.6927
 6100SOL     OW18840   7.063   2.330   1.486 -0.4078 -0.2231  0.2941
 6100SOL    HW118841   7.108   2.403   1.444 -0.7503  0.4165  1.0206
 6100SOL    HW218842   6.993   2.307   1.425  0.8844 -1.2589 -0.8727
 6101SOL     OW18843   5.037   2.658   2.585  0.1976  0.0251  0.2429
 6101SOL    HW118844   5.051   2.749   2.557  0.7924  0.0080  0.4642
 6101SOL    HW218845   4.985   2.619   2.515  2.7496 -0.3978 -1.5816
 6102SOL     OW18846   5.795   1.920   4.964  0.2047  0.7447 -0.1193
 6102SOL    HW118847   5.840   1.864   5.027  1.9805  1.7527 -0.4336
 6102SOL    HW218848   5.748   1.984   5.017 -0.7613 -0.2023  0.2059
 6103SOL     OW18849   7.462   5.013   2.984 -0.4731  0.0792 -0.2167
 6103SOL    HW118850   7.405   4.936   2.980 -0.6896  0.2779 -1.0394
 6103SOL    HW218851   7.417   5.079   2.932 -1.5366  1.6117  2.4529
 6104SOL     OW18852   4.125   1.023   6.236 -0.2869 -0.4187  0.2112
 6104SOL    HW118853   4.164   1.102   6.275 -0.6261  0.1264 -0.5268
 6104SOL    HW218854   4.143   1.032   6.142 -2.5417  0.0761 -0.2363
 6105SOL     OW18855   6.929   0.160   0.940  0.2797 -0.3697  0.0709
 6105SOL    HW118856   6.998   0.226   0.951 -1.3210  1.4779 -0.6023
 6105SOL    HW218857   6.935   0.135   0.848  2.3022 -2.9033  0.7733
 6106SOL     OW18858   1.832   3.762   2.983  0.5225 -0.0321  0.0947
 6106SOL    HW118859   1.926   3.756   2.971  0.4275  0.8207 -1.3662
 6106SOL    HW218860   1.796   3.694   2.926  0.2539 -0.8281  1.1801
 6107SOL     OW18861   2.814   6.510   3.704 -0.0191  0.2942  0.1717
 6107SOL    HW118862   2.766   6.588   3.677  1.1853  0.8862 -0.3400
 6107SOL    HW218863   2.809   6.452   3.628  1.1212  0.8764 -0.3694
 6108SOL     OW18864   0.327   2.747   1.371 -0.3100 -0.2935 -0.4760
 6108SOL    HW118865   0.242   2.768   1.410 -1.4528 -0.9367 -2.4522
 6108SOL    HW218866   0.343   2.817   1.308 -0.2658 -1.1091 -1.3928
 6109SOL     OW18867   6.026   5.706   7.323 -0.0869  0.4038 -0.3262
 6109SOL    HW118868   5.959   5.750   7.375 -2.0470 -1.3216 -1.2564
 6109SOL    HW218869   6.008   5.733   7.233  0.2498 -0.3791 -0.6373
 6110SOL     OW18870   3.745   5.372   2.236  0.2745  0.0672  0.2924
 6110SOL    HW118871   3.713   5.331   2.317  0.6196 -0.3268  0.2340
 6110SOL    HW218872   3.797   5.303   2.194 -3.1833 -1.2660 -2.3062
 6111SOL     OW18873   1.733   2.775   2.704  0.2124 -0.9906  0.7172
 6111SOL    HW118874   1.660   2.804   2.759 -0.5349 -2.2356  0.4203
 6111SOL    HW218875   1.751   2.850   2.647 -1.1446 -0.8102  0.4902
 6112SOL     OW18876   2.905   6.513   5.102  0.2318  0.6517  0.4937
 6112SOL    HW118877   2.931   6.485   5.190 -0.0904 -1.2998  0.0020
 6112SOL    HW218878   2.811   6.533   5.111  0.3466  1.1091  0.7279
 6113SOL     OW18879   7.148   2.727   5.288 -0.3259  0.0757  0.1709
 6113SOL    HW118880   7.106   2.797   5.338 -2.1634 -1.3086  0.6654
 6113SOL    HW218881   7.239   2.729   5.317 -0.3342  2.1514  0.2547
 6114SOL     OW18882   6.281   2.627   0.266 -0.1343 -0.2015  0.4853
 6114SOL    HW118883   6.290   2.579   0.348  1.5630  1.4080  1.3103
 6114SOL    HW218884   6.225   2.702   0.289 -0.2371 -0.1198 -0.0203
 6115SOL     OW18885   3.101   7.172   3.568 -0.2437  0.0285  0.5382
 6115SOL    HW118886   3.160   7.244   3.544  0.7237 -0.7801  0.4433
 6115SOL    HW218887   3.158   7.106   3.606 -0.9102 -1.3155 -0.7177
 6116SOL     OW18888   5.265   2.584   0.331  0.2922  0.4478 -0.0039
 6116SOL    HW118889   5.324   2.654   0.303  0.2774  0.0614 -1.0529
 6116SOL    HW218890   5.179   2.610   0.297 -0.1542  0.9589  1.4302
 6117SOL     OW18891   7.185   2.110   3.407  0.5594  0.1646  0.0937
 6117SOL    HW118892   7.158   2.173   3.340  0.4310 -0.9439 -0.9319
 6117SOL    HW218893   7.193   2.027   3.360 -1.5098 -1.1060  1.8163
 6118SOL     OW18894   7.362   4.915   6.700  0.0689  0.1788 -0.1377
 6118SOL    HW118895   7.433   4.902   6.763 -0.0887 -0.8317 -0.1515
 6118SOL    HW218896   7.287   4.943   6.753 -0.0412 -0.5953  0.1286
 6119SOL     OW18897   4.170   1.472   1.363  0.0054 -0.0048 -0.2610
 6119SOL    HW118898   4.158   1.384   1.399 -2.3279 -0.0546 -1.0389
 6119SOL    HW218899   4.140   1.466   1.273 -0.1462  1.5777 -0.3519
 6120SOL     OW18900   7.233   2.839   4.875  0.7339 -0.0625 -0.0691
 6120SOL    HW118901   7.211   2.751   4.904 -0.0669  0.2312  0.2505
 6120SOL    HW218902   7.286   2.876   4.946  3.4142 -1.1790 -1.3446
 6121SOL     OW18903   6.199   7.510   5.781  0.3859 -0.9326 -0.3880
 6121SOL    HW118904   6.116   7.529   5.738  0.5712 -2.2365 -1.3853
 6121SOL    HW218905   6.264   7.510   5.711  0.9451 -1.5819  0.1139
 6122SOL     OW18906   7.393   2.568   0.493  0.0435  0.3181  0.8199
 6122SOL    HW118907   7.451   2.635   0.459 -0.8906  0.4601 -0.6270
 6122SOL    HW218908   7.449   2.510   0.544  1.3515  0.7534 -0.0726
 6123SOL     OW18909   4.434   2.225   4.429  0.3422  0.7877  0.0528
 6123SOL    HW118910   4.520   2.208   4.468  0.4704 -0.5140 -0.7013
 6123SOL    HW218911   4.455   2.266   4.344  0.0748  3.4886  1.2033
 6124SOL     OW18912   2.229   1.519   0.335  0.3615  0.3095  0.2681
 6124SOL    HW118913   2.159   1.555   0.281  0.3225  0.3853  0.3681
 6124SOL    HW218914   2.201   1.430   0.356  0.7618 -0.0156 -0.5277
 6125SOL     OW18915   7.222   4.318   2.239 -0.4098 -0.3249  0.0681
 6125SOL    HW118916   7.199   4.284   2.326  1.5615 -0.4589  0.6006
 6125SOL    HW218917   7.202   4.247   2.179  0.7960 -1.3349  0.8026
 6126SOL     OW18918   2.814   6.398   1.795  0.4685 -0.5939  0.5689
 6126SOL    HW118919   2.806   6.336   1.868  0.1277  0.9876  1.9492
 6126SOL    HW218920   2.729   6.394   1.751 -0.7352  1.0160  2.5221
 6127SOL     OW18921   6.871   2.975   3.763  0.1288 -0.7819  0.0881
 6127SOL    HW118922   6.816   3.038   3.715  0.5755 -0.3217  0.1634
 6127SOL    HW218923   6.901   3.024   3.840  0.9731 -0.8870 -0.1616
 6128SOL     OW18924   7.352   3.379   6.255  0.5785  0.3059 -0.1109
 6128SOL    HW118925   7.361   3.316   6.325  0.9579 -1.2306 -1.4841
 6128SOL    HW218926   7.427   3.438   6.266  0.1310  0.6448  1.2694
 6129SOL     OW18927   7.454   3.629   6.049 -0.1264 -0.5256 -0.3880
 6129SOL    HW118928   7.548   3.629   6.065 -0.0787 -0.5840 -0.6518
 6129SOL    HW218929   7.420   3.702   6.100  0.3246  0.6481 -1.7010
 6130SOL     OW18930   5.098   1.147   0.035  0.5252 -0.0302 -0.8253
 6130SOL    HW118931   5.090   1.218  -0.029  0.5230 -0.5813 -1.4378
 6130SOL    HW218932   5.135   1.190   0.112 -2.9851  1.4910  0.2368
 6131SOL     OW18933   4.748   1.725   0.349 -0.0567  0.5408  0.0962
 6131SOL    HW118934   4.799   1.653   0.312 -2.5947 -0.9164 -0.7913
 6131SOL    HW218935   4.662   1.719   0.306 -1.0790  2.7484  1.6298
 6132SOL     OW18936   7.365   4.074   3.448 -0.2685 -0.1598  0.4449
 6132SOL    HW118937   7.429   4.013   3.483  0.9368  0.0789 -1.2440
 6132SOL    HW218938   7.387   4.081   3.355 -1.1376  1.9119  0.3545
 6133SOL     OW18939   4.316   7.212   1.692  0.5127  0.7525  0.5595
 6133SOL    HW118940   4.404   7.205   1.653  1.2436  2.0120  1.8787
 6133SOL    HW218941   4.323   7.166   1.775 -0.7919 -1.1765 -0.3414
 6134SOL     OW18942   1.389   1.287   7.111 -0.2769 -0.1937 -0.3314
 6134SOL    HW118943   1.449   1.217   7.087 -1.4468 -0.7941 -1.6616
 6134SOL    HW218944   1.347   1.311   7.028 -0.2068  1.8010  0.1628
 6135SOL     OW18945   3.046   5.359   4.862  0.0989 -0.7919  0.3496
 6135SOL    HW118946   3.012   5.275   4.830 -1.1867 -0.4155  0.6480
 6135SOL    HW218947   2.990   5.424   4.820  1.6318 -0.0052 -0.5613
 6136SOL     OW18948   1.329   2.101   7.246  0.3929  0.1776 -0.7267
 6136SOL    HW118949   1.422   2.102   7.268  0.4844 -0.0073 -1.1007
 6136SOL    HW218950   1.303   2.009   7.254 -0.0370  0.3770  0.5004
 6137SOL     OW18951   6.394   3.700   3.977  1.0466  0.4762 -0.6040
 6137SOL    HW118952   6.413   3.780   3.928  0.7569 -0.7141 -2.7864
 6137SOL    HW218953   6.301   3.707   3.999  0.7221  0.2503 -1.8198
 6138SOL     OW18954   0.503   5.707   2.007 -0.8068  0.0809 -0.1912
 6138SOL    HW118955   0.519   5.644   2.078 -0.9485  0.4880  0.2131
 6138SOL    HW218956   0.529   5.792   2.045 -1.2868  0.3602 -0.4792
 6139SOL     OW18957   5.403   4.167   1.037  0.2726 -0.6903 -0.0987
 6139SOL    HW118958   5.424   4.129   1.122  0.2623 -1.7765 -0.5718
 6139SOL    HW218959   5.324   4.218   1.052  0.8442 -0.0255  0.7643
 6140SOL     OW18960   2.608   4.636   5.263 -0.4063 -0.0138 -0.6016
 6140SOL    HW118961   2.644   4.696   5.198  3.6870 -0.7728  0.6838
 6140SOL    HW218962   2.568   4.693   5.329 -1.6240  0.9047 -2.0633
 6141SOL     OW18963   1.931   1.497   2.144 -0.6259  0.0160  0.2950
 6141SOL    HW118964   1.987   1.560   2.098 -1.6869 -0.0706 -1.1983
 6141SOL    HW218965   1.949   1.513   2.236  0.1707  1.5495 -0.0775
 6142SOL     OW18966   4.146   4.881   4.384 -0.0822  0.0727  0.4595
 6142SOL    HW118967   4.130   4.873   4.290 -0.4414  1.1379  0.4171
 6142SOL    HW218968   4.075   4.831   4.425  0.3933 -0.8630  0.1716
 6143SOL     OW18969   6.124   0.343   7.095  0.4457  0.3740 -0.0426
 6143SOL    HW118970   6.147   0.436   7.085 -0.1498  0.5256 -0.0426
 6143SOL    HW218971   6.124   0.310   7.005 -1.7502  0.9746 -0.3220
 6144SOL     OW18972   2.103   5.020   2.166 -0.3265 -0.1280 -0.4082
 6144SOL    HW118973   2.144   4.976   2.091  1.0376  0.9259 -0.3187
 6144SOL    HW218974   2.109   4.956   2.237  0.5728 -0.2485 -0.5786
 6145SOL     OW18975   2.201   3.213   0.081 -0.3424  0.6981 -0.0029
 6145SOL    HW118976   2.262   3.254   0.020  0.1312  1.2561  0.8299
 6145SOL    HW218977   2.155   3.286   0.121 -1.5904  0.2834 -0.6242
 6146SOL     OW18978   3.217   3.121   0.413  0.2202 -0.2126 -0.3653
 6146SOL    HW118979   3.278   3.115   0.340  0.0088 -0.9870 -0.4818
 6146SOL    HW218980   3.169   3.203   0.398  0.9671  0.2090 -0.4685
 6147SOL     OW18981   6.479   4.311   5.727  0.0691 -0.0492 -0.3558
 6147SOL    HW118982   6.500   4.270   5.811  0.0900 -0.7241 -0.6803
 6147SOL    HW218983   6.528   4.393   5.727  0.1886 -0.1146  0.2247
 6148SOL     OW18984   6.063   5.216   4.507  0.5180 -0.1156  0.1402
 6148SOL    HW118985   6.111   5.293   4.476 -0.8269  0.5513 -0.3596
 6148SOL    HW218986   6.129   5.147   4.511  1.7949  1.0819  0.7361
 6149SOL     OW18987   6.140   2.249   2.158  0.9067 -0.4645  0.1605
 6149SOL    HW118988   6.178   2.245   2.246 -0.0057  3.0698  0.8734
 6149SOL    HW218989   6.065   2.190   2.163  1.5314 -1.2039  1.3758
 6150SOL     OW18990   0.639   3.641   4.593 -0.2515 -0.5533  0.0552
 6150SOL    HW118991   0.637   3.721   4.645  0.7170 -0.7257  0.3909
 6150SOL    HW218992   0.690   3.580   4.646 -0.6106 -1.2490 -0.3905
 6151SOL     OW18993   4.685   2.402   0.398 -0.2808  0.1717 -0.4282
 6151SOL    HW118994   4.600   2.389   0.442  0.6642  1.0547  1.8276
 6151SOL    HW218995   4.708   2.493   0.419  1.3259 -0.1377 -0.7922
 6152SOL     OW18996   2.289   6.283   1.947 -0.1609  0.1220 -0.0613
 6152SOL    HW118997   2.360   6.331   1.904 -0.3909  0.9077  0.4078
 6152SOL    HW218998   2.226   6.264   1.877  0.0366  0.3259 -0.2941
 6153SOL     OW18999   6.297   7.222   0.876 -0.2878 -0.4527 -0.1632
 6153SOL    HW119000   6.228   7.166   0.912  0.6014 -2.2127 -1.0662
 6153SOL    HW219001   6.376   7.197   0.923  0.0488  0.3769 -0.2653
 6154SOL     OW19002   0.420   3.839   5.418  0.4529  0.2206 -0.5412
 6154SOL    HW119003   0.418   3.788   5.337  0.1094  0.6913 -0.8347
 6154SOL    HW219004   0.487   3.906   5.402  0.4736  0.2370 -0.3885
 6155SOL     OW19005   6.339   6.911   5.471  0.5985 -0.5859 -0.5519
 6155SOL    HW119006   6.344   6.897   5.565  0.0231  0.3553 -0.3627
 6155SOL    HW219007   6.417   6.869   5.435  0.4494 -1.5762  0.2617
 6156SOL     OW19008   2.540   2.581   1.176  0.4330  0.5430  0.2233
 6156SOL    HW119009   2.555   2.665   1.220  3.4220  0.5360 -0.5113
 6156SOL    HW219010   2.520   2.606   1.085 -3.0233  0.4779  0.8432
 6157SOL     OW19011   3.117   5.450   6.244 -0.1022  0.2062 -1.2904
 6157SOL    HW119012   3.150   5.540   6.254  1.0350 -0.2999 -0.3111
 6157SOL    HW219013   3.165   5.416   6.169  1.2342 -0.3356 -0.2245
 6158SOL     OW19014   4.642   3.004   0.226  0.2983  0.0056 -0.5091
 6158SOL    HW119015   4.610   3.081   0.180  1.5735  1.2792  0.6352
 6158SOL    HW219016   4.667   3.036   0.313 -0.5068 -1.9873  0.5295
 6159SOL     OW19017   4.933   6.542   6.884 -0.0903 -0.1589 -0.2877
 6159SOL    HW119018   4.870   6.506   6.822 -0.2491 -1.4359  0.6007
 6159SOL    HW219019   5.018   6.514   6.850 -0.1929 -1.0981  0.2095
 6160SOL     OW19020   6.600   6.950   7.094  0.3230  0.0899 -0.5645
 6160SOL    HW119021   6.585   6.855   7.088  1.9451 -0.2460  0.2415
 6160SOL    HW219022   6.691   6.958   7.119 -0.5451  1.7987  2.4929
 6161SOL     OW19023   2.375   6.666   4.963 -0.1880  0.8474 -0.1678
 6161SOL    HW119024   2.282   6.655   4.984  0.0414  1.0216  0.9858
 6161SOL    HW219025   2.400   6.584   4.921 -0.8396  0.7648 -0.4100
 6162SOL     OW19026   6.467   4.935   3.999  0.1662 -0.1169 -0.1446
 6162SOL    HW119027   6.509   4.999   3.943  0.0479  1.0506  1.0519
 6162SOL    HW219028   6.385   4.913   3.954 -0.0874  1.0513 -0.2777
 6163SOL     OW19029   7.521   0.997   0.680 -0.1826  0.0903  0.7378
 6163SOL    HW119030   7.568   1.026   0.602  1.0692  0.2782  1.5213
 6163SOL    HW219031   7.450   1.060   0.691  0.7543  1.1771  0.7894
 6164SOL     OW19032   0.857   4.657   4.475 -0.1573  0.3832  0.0326
 6164SOL    HW119033   0.918   4.701   4.535  2.2416 -1.1645 -1.0931
 6164SOL    HW219034   0.784   4.718   4.465  0.9508  2.1223  1.8986
 6165SOL     OW19035   7.135   7.270   0.620  0.1393 -0.1025 -0.3124
 6165SOL    HW119036   7.201   7.202   0.623 -1.3455 -1.7977 -2.3748
 6165SOL    HW219037   7.152   7.316   0.537 -0.3049  0.4676 -0.0973
 6166SOL     OW19038   5.787   3.131   3.281  0.4659  0.0847 -0.0799
 6166SOL    HW119039   5.746   3.045   3.271  1.1618 -0.3381  0.5903
 6166SOL    HW219040   5.777   3.151   3.374 -0.2571  1.0298 -0.3471
 6167SOL     OW19041   5.850   4.579   1.956 -0.2643 -0.1613 -0.7008
 6167SOL    HW119042   5.782   4.644   1.974 -0.0505 -0.1630  0.1046
 6167SOL    HW219043   5.844   4.517   2.028  1.5552  0.6247  0.1603
 6168SOL     OW19044   1.959   2.153   5.918 -0.0245 -0.3792  0.1738
 6168SOL    HW119045   1.970   2.133   5.825  0.0682  0.7897 -0.0789
 6168SOL    HW219046   1.887   2.096   5.947 -1.8349  1.0747 -1.2423
 6169SOL     OW19047   6.600   3.158   5.213 -0.0690  0.6481 -0.7035
 6169SOL    HW119048   6.510   3.134   5.231  0.2386  1.0652  1.6734
 6169SOL    HW219049   6.603   3.253   5.229  0.6511  0.7637 -1.4337
 6170SOL     OW19050   6.248   0.488   1.534 -0.4970 -0.1743  0.4358
 6170SOL    HW119051   6.197   0.417   1.496  0.7988 -0.7525 -0.2763
 6170SOL    HW219052   6.326   0.445   1.570  1.3311  1.0599 -1.8019
 6171SOL     OW19053   1.087   3.645   1.778 -0.2101 -0.6646  0.2072
 6171SOL    HW119054   1.170   3.615   1.740  1.0680  0.8041  1.6787
 6171SOL    HW219055   1.050   3.704   1.712 -0.0155 -1.1999 -0.3889
 6172SOL     OW19056   3.389   0.065   2.651  0.3213 -0.4197  0.4869
 6172SOL    HW119057   3.456   0.071   2.582  0.8157 -0.6388  0.9373
 6172SOL    HW219058   3.336   0.143   2.640 -0.1759 -0.9072 -0.7283
 6173SOL     OW19059   7.117   6.370   0.707  0.7521  0.2144 -0.1896
 6173SOL    HW119060   7.065   6.450   0.722  0.7293  0.0176  0.8387
 6173SOL    HW219061   7.178   6.367   0.781  0.5033 -0.9157 -0.0151
 6174SOL     OW19062   0.383   3.676   1.383  0.0699  0.0169 -0.2287
 6174SOL    HW119063   0.427   3.759   1.398 -2.5958  1.3640  0.7650
 6174SOL    HW219064   0.300   3.700   1.341 -0.4048 -2.2189 -0.7082
 6175SOL     OW19065   4.896   4.459   2.343 -0.4948 -0.0300  0.1883
 6175SOL    HW119066   4.850   4.398   2.285 -1.5949  0.5602  0.4266
 6175SOL    HW219067   4.989   4.442   2.326 -0.7728 -1.7098  0.1771
 6176SOL     OW19068   6.780   6.508   4.689  0.1430  0.1923  0.2412
 6176SOL    HW119069   6.734   6.437   4.644  0.2835  0.4967 -0.3905
 6176SOL    HW219070   6.787   6.578   4.624  1.7463  0.0544  0.2247
 6177SOL     OW19071   0.677   1.893   1.159 -0.2216 -0.6498 -0.0894
 6177SOL    HW119072   0.725   1.856   1.085 -0.1690  0.1175 -0.4492
 6177SOL    HW219073   0.646   1.817   1.208  0.6056 -1.1595 -0.3426
 6178SOL     OW19074   1.362   1.668   2.257  0.4056 -0.7721  0.4366
 6178SOL    HW119075   1.395   1.643   2.343  2.1109 -0.2704 -0.0165
 6178SOL    HW219076   1.430   1.727   2.222 -0.4104 -0.6907 -1.0991
 6179SOL     OW19077   3.194   2.942   0.994  0.3715 -0.0927 -0.2972
 6179SOL    HW119078   3.172   2.867   0.939  0.6268  0.6913 -1.5026
 6179SOL    HW219079   3.142   2.929   1.074 -0.0888 -1.1983 -0.7531
 6180SOL     OW19080   0.261   0.713   4.223 -0.3594  0.1179 -0.1695
 6180SOL    HW119081   0.248   0.794   4.273 -0.6073  0.1265 -0.2438
 6180SOL    HW219082   0.306   0.654   4.283  0.1600  0.4384 -0.2374
 6181SOL     OW19083   2.226   3.230   6.923 -0.1545  0.2752  0.4373
 6181SOL    HW119084   2.308   3.235   6.873 -0.7545  0.7595 -0.5285
 6181SOL    HW219085   2.251   3.257   7.011  0.9050 -0.4731  0.3837
 6182SOL     OW19086   0.109   5.022   1.178 -0.0742  0.0291 -0.0786
 6182SOL    HW119087   0.018   5.051   1.172 -0.2117 -0.3991 -0.1095
 6182SOL    HW219088   0.119   4.993   1.269 -0.8008 -2.5684 -0.7403
 6183SOL     OW19089   4.832   3.478   3.707 -0.4679  0.5110 -0.0762
 6183SOL    HW119090   4.895   3.412   3.734 -0.1510  0.4447 -0.9434
 6183SOL    HW219091   4.752   3.456   3.754 -0.5578 -0.8745 -0.8481
 6184SOL     OW19092   0.212   2.351   2.880  0.3001  0.0209 -0.3915
 6184SOL    HW119093   0.251   2.394   2.804 -1.0103  0.6210 -0.7599
 6184SOL    HW219094   0.128   2.396   2.892 -0.6496 -1.7422 -0.1339
 6185SOL     OW19095   4.993   3.896   5.965 -0.2925  0.1144  0.1543
 6185SOL    HW119096   4.911   3.907   5.917  0.7219 -0.7861 -1.9138
 6185SOL    HW219097   5.048   3.970   5.939  0.3684 -0.5211 -0.3110
 6186SOL     OW19098   5.136   7.005   0.711  0.6543  0.3032 -0.5445
 6186SOL    HW119099   5.041   7.018   0.705  0.6387  0.3769 -0.2038
 6186SOL    HW219100   5.146   6.912   0.727  0.6749  0.1817 -1.2465
 6187SOL     OW19101   1.882   2.192   0.537 -0.0203 -0.6060 -0.4665
 6187SOL    HW119102   1.895   2.129   0.467 -1.7614 -1.2115 -0.2963
 6187SOL    HW219103   1.806   2.243   0.510 -0.7159 -0.8326  0.9459
 6188SOL     OW19104   6.758   6.450   3.458  0.4366 -0.4145  0.1312
 6188SOL    HW119105   6.794   6.364   3.436  0.5989 -0.3338  0.0798
 6188SOL    HW219106   6.779   6.462   3.551  2.1543  0.4110 -0.3287
 6189SOL     OW19107   1.055   2.096   2.258  0.0501 -0.0889 -0.3688
 6189SOL    HW119108   1.129   2.101   2.319  0.5506 -2.2327 -0.7083
 6189SOL    HW219109   1.097   2.088   2.172 -0.6154  0.6151 -0.7621
 6190SOL     OW19110   3.625   2.949   0.137  0.1096 -0.1631  0.1297
 6190SOL    HW119111   3.707   2.995   0.153 -0.2702  0.3504  0.6263
 6190SOL    HW219112   3.573   3.009   0.084 -0.8930  0.5619  1.8507
 6191SOL     OW19113   6.737   0.405   1.657  0.0702  0.5067  0.0040
 6191SOL    HW119114   6.806   0.386   1.594  0.1476  0.4322  0.1138
 6191SOL    HW219115   6.777   0.464   1.721 -0.2349  1.2648 -0.4775
 6192SOL     OW19116   3.633   7.003   4.187  0.2896 -0.2327 -0.0081
 6192SOL    HW119117   3.646   7.016   4.093  0.3234 -1.2499 -0.1581
 6192SOL    HW219118   3.562   6.939   4.193 -0.9765  1.1752  0.7054
 6193SOL     OW19119   6.738   1.689   3.773 -0.5310  0.0374 -0.1479
 6193SOL    HW119120   6.681   1.734   3.711  1.9269  1.6340 -1.4287
 6193SOL    HW219121   6.736   1.743   3.852  0.0239  0.7265 -0.5905
 6194SOL     OW19122   3.464   3.982   1.095  0.2809  0.1206  0.0091
 6194SOL    HW119123   3.492   3.981   1.186 -0.3417  3.5529  0.3615
 6194SOL    HW219124   3.399   3.912   1.089  1.6725 -1.3825  1.6704
 6195SOL     OW19125   1.291   2.807   7.019 -0.1872  0.0530 -0.1803
 6195SOL    HW119126   1.246   2.723   7.025 -0.8154  0.3818 -0.2115
 6195SOL    HW219127   1.382   2.784   6.999 -0.3066 -0.6230  0.0282
 6196SOL     OW19128   4.730   3.264   6.270 -0.4558  0.2884  0.0058
 6196SOL    HW119129   4.774   3.319   6.205  2.0052 -1.2193  0.2747
 6196SOL    HW219130   4.653   3.315   6.296  0.2308  2.3629 -1.7146
 6197SOL     OW19131   5.206   3.117   2.429 -0.1374  0.1308  0.7738
 6197SOL    HW119132   5.292   3.116   2.470 -0.3402 -0.1589  1.2037
 6197SOL    HW219133   5.223   3.097   2.337  0.3485  1.0754  0.6514
 6198SOL     OW19134   6.442   7.363   2.946 -0.3608  0.1959  0.5047
 6198SOL    HW119135   6.399   7.291   2.899  1.7880 -0.1347 -1.0682
 6198SOL    HW219136   6.483   7.321   3.021 -0.9707  0.1833  0.8441
 6199SOL     OW19137   3.927   5.487   1.979  0.7605  0.1417 -0.0582
 6199SOL    HW119138   4.016   5.515   2.001  1.5991 -1.9118 -0.5917
 6199SOL    HW219139   3.899   5.436   2.054 -0.0976  0.9649  0.2054
 6200SOL     OW19140   0.390   3.514   2.836  0.0719  0.5111  0.1424
 6200SOL    HW119141   0.386   3.512   2.931 -1.1457 -2.0310  0.1057
 6200SOL    HW219142   0.377   3.424   2.809  1.6974  0.9359 -2.4287
 6201SOL     OW19143   7.052   1.927   4.574 -0.3905 -0.1230  0.2763
 6201SOL    HW119144   7.083   1.906   4.486  0.8911 -0.9920  0.9116
 6201SOL    HW219145   7.017   2.016   4.566 -0.8003 -0.3807 -1.2161
 6202SOL     OW19146   2.790   1.836   2.852  0.0891 -0.1686 -0.2372
 6202SOL    HW119147   2.853   1.878   2.794 -0.4826 -1.7114 -2.0781
 6202SOL    HW219148   2.739   1.909   2.888  0.9239  0.8955 -1.1269
 6203SOL     OW19149   5.202   1.606   0.617  0.3648  0.4050 -0.4230
 6203SOL    HW119150   5.189   1.701   0.608  1.6799  0.4230 -3.9629
 6203SOL    HW219151   5.297   1.595   0.606  0.2022 -1.3316 -0.2412
 6204SOL     OW19152   6.103   0.185   0.350  0.0239  0.2168  0.5948
 6204SOL    HW119153   6.101   0.090   0.359  1.2207  0.1128  0.0023
 6204SOL    HW219154   6.196   0.205   0.336 -0.4254  1.2913 -1.0588
 6205SOL     OW19155   1.237   7.293   0.924  0.1636  0.3962  0.3282
 6205SOL    HW119156   1.303   7.227   0.904 -0.2421  0.2630 -0.6205
 6205SOL    HW219157   1.285   7.362   0.970  1.0272  0.4365 -0.5973
 6206SOL     OW19158   4.621   2.921   5.628  0.0280  0.4049  0.0839
 6206SOL    HW119159   4.655   3.011   5.625  1.7155 -0.1966 -0.1238
 6206SOL    HW219160   4.601   2.900   5.537 -0.5585  0.6257  0.1576
 6207SOL     OW19161   4.145   4.319   0.666  0.1088 -0.5427  0.3205
 6207SOL    HW119162   4.100   4.311   0.582 -0.4784  1.1712  0.4484
 6207SOL    HW219163   4.158   4.228   0.695 -1.1011 -1.1147 -0.8612
 6208SOL     OW19164   0.166   5.837   0.125 -0.2278 -0.4285  0.0064
 6208SOL    HW119165   0.252   5.880   0.129 -0.5897  0.5855 -1.8792
 6208SOL    HW219166   0.129   5.848   0.212  1.1551 -0.0006  0.5627
 6209SOL     OW19167   1.380   3.473   1.381 -0.1743  0.3310 -0.3667
 6209SOL    HW119168   1.429   3.523   1.446 -0.3204  1.6163 -1.2128
 6209SOL    HW219169   1.312   3.428   1.431 -0.7112  1.8254  0.2950
 6210SOL     OW19170   2.985   4.379   5.182 -0.3508  0.3524  0.0696
 6210SOL    HW119171   3.012   4.348   5.269  0.9675 -2.7757 -1.2832
 6210SOL    HW219172   2.892   4.359   5.178  0.0824 -1.9791 -0.0532
 6211SOL     OW19173   5.950   5.655   6.059 -0.0723  0.8863 -0.1295
 6211SOL    HW119174   5.958   5.679   5.966  0.2743 -2.0826 -0.9695
 6211SOL    HW219175   6.040   5.656   6.091 -0.2289  2.3033  0.3381
 6212SOL     OW19176   4.170   5.969   3.393  0.2788  0.2469 -0.1431
 6212SOL    HW119177   4.221   6.001   3.319 -1.4896  1.3044 -0.9503
 6212SOL    HW219178   4.136   6.048   3.435 -0.5485 -0.4221  0.4712
 6213SOL     OW19179   5.201   4.902   1.581  0.0498  0.4075 -0.2413
 6213SOL    HW119180   5.239   4.977   1.628 -0.1023  1.0661 -1.1412
 6213SOL    HW219181   5.109   4.902   1.607  0.2068  0.0773  0.3307
 6214SOL     OW19182   3.298   2.177   0.224 -0.3205 -0.2189 -0.1989
 6214SOL    HW119183   3.320   2.179   0.317 -1.3442  0.4319  0.0473
 6214SOL    HW219184   3.215   2.223   0.218 -1.1314 -1.6994 -1.1930
 6215SOL     OW19185   5.435   3.029   4.894  0.2440  0.3730  0.6460
 6215SOL    HW119186   5.397   3.051   4.809  0.9267 -0.4835  0.1044
 6215SOL    HW219187   5.416   2.936   4.907  0.2105  0.4763  1.3964
 6216SOL     OW19188   3.791   3.032   3.023  0.4693 -0.5392 -0.2410
 6216SOL    HW119189   3.809   3.014   2.930  0.2303 -1.2059 -0.1666
 6216SOL    HW219190   3.730   2.963   3.049 -0.3255  0.2856  0.1302
 6217SOL     OW19191   1.273   2.999   3.527 -0.1141 -0.6053 -0.0297
 6217SOL    HW119192   1.362   3.006   3.561 -0.1090 -1.3564  0.1181
 6217SOL    HW219193   1.227   2.944   3.591 -0.4007 -1.1050 -0.6532
 6218SOL     OW19194   4.869   3.194   4.293  0.4042  0.3707 -0.8000
 6218SOL    HW119195   4.837   3.105   4.280  1.2760 -0.1973  0.7098
 6218SOL    HW219196   4.809   3.233   4.356  1.4865 -0.0541  0.5461
 6219SOL     OW19197   0.711   2.412   4.325 -0.5917 -0.3855  0.0293
 6219SOL    HW119198   0.630   2.399   4.374 -1.6757 -0.4238 -1.7120
 6219SOL    HW219199   0.736   2.324   4.297  1.2304 -0.6848  2.2235
 6220SOL     OW19200   3.335   2.231   7.298 -0.1376 -0.1964  0.4948
 6220SOL    HW119201   3.301   2.142   7.298 -0.2862 -0.1432  0.0902
 6220SOL    HW219202   3.344   2.253   7.205 -0.3926  0.3204  0.5881
 6221SOL     OW19203   6.577   6.158   0.516 -0.6620 -0.5995 -0.2134
 6221SOL    HW119204   6.653   6.147   0.572 -1.1860  1.3928  0.9605
 6221SOL    HW219205   6.594   6.238   0.467 -1.0034 -1.3728 -1.6769
 6222SOL     OW19206   2.233   0.353   0.409 -0.6600 -0.4460 -0.3085
 6222SOL    HW119207   2.206   0.423   0.349  1.3602 -1.4633 -2.6002
 6222SOL    HW219208   2.201   0.272   0.368 -1.0143 -1.0554  1.1012
 6223SOL     OW19209   6.443   6.422   1.947  0.9578  0.1316 -0.0632
 6223SOL    HW119210   6.400   6.347   1.906  1.0244 -0.2479  0.5498
 6223SOL    HW219211   6.444   6.401   2.040  2.4324  0.1420 -0.0571
 6224SOL     OW19212   2.133   5.643   0.495 -0.1126 -0.1987  0.0625
 6224SOL    HW119213   2.089   5.634   0.579  0.4564  3.6331  0.9496
 6224SOL    HW219214   2.216   5.596   0.506  0.0534  0.4327  1.7684
 6225SOL     OW19215   3.740   2.526   2.923 -0.6451 -0.0730 -0.6172
 6225SOL    HW119216   3.834   2.507   2.921 -0.6945 -0.3106 -0.7452
 6225SOL    HW219217   3.733   2.610   2.969 -0.3017  0.3404 -1.3101
 6226SOL     OW19218   6.822   4.523   7.461  0.5437 -0.2125  0.1191
 6226SOL    HW119219   6.764   4.579   7.409  0.1313 -2.0988 -1.5852
 6226SOL    HW219220   6.765   4.483   7.527  1.0621  2.1641  2.1306
 6227SOL     OW19221   6.627   7.546   1.162  0.6663 -0.0442 -0.5381
 6227SOL    HW119222   6.693   7.519   1.098  2.2033 -0.4250  1.1346
 6227SOL    HW219223   6.668   7.618   1.210 -0.2794 -0.0258  0.2787
 6228SOL     OW19224   4.174   3.987   4.661  0.5015 -0.2719  0.0364
 6228SOL    HW119225   4.206   4.057   4.605  1.1506  1.2280  2.1569
 6228SOL    HW219226   4.178   3.908   4.606  0.5077  1.1835 -2.1652
 6229SOL     OW19227   0.157   0.401   7.351 -0.2684 -0.1113  0.2079
 6229SOL    HW119228   0.144   0.492   7.376 -0.8768 -0.0552 -0.3051
 6229SOL    HW219229   0.102   0.388   7.274  0.3805 -0.7079 -0.1758
 6230SOL     OW19230   3.000   2.479   7.405 -0.3775 -0.1274  0.2168
 6230SOL    HW119231   3.046   2.486   7.489  2.1099 -0.6205 -1.0154
 6230SOL    HW219232   2.938   2.552   7.405  2.3863  2.4047  0.8600
 6231SOL     OW19233   0.686   6.795   4.413  0.1517  0.0091  0.5337
 6231SOL    HW119234   0.652   6.873   4.369 -0.2876 -0.2500  0.4085
 6231SOL    HW219235   0.618   6.771   4.476  0.4457 -0.0622  0.8267
 6232SOL     OW19236   5.219   0.666   5.543  0.0885 -0.0877  0.4020
 6232SOL    HW119237   5.288   0.685   5.606 -0.3319  0.1545  0.8019
 6232SOL    HW219238   5.200   0.751   5.503  0.1332 -0.1821  0.1832
 6233SOL     OW19239   1.243   0.916   2.059  0.8122  0.2349 -0.1914
 6233SOL    HW119240   1.262   1.007   2.039  0.7640  0.1922 -0.4369
 6233SOL    HW219241   1.151   0.915   2.084  1.1747  0.4835  1.2543
 6234SOL     OW19242   4.691   6.521   3.564  0.4363  0.4067 -0.3160
 6234SOL    HW119243   4.716   6.429   3.576 -0.8226 -0.0632 -1.0983
 6234SOL    HW219244   4.725   6.565   3.642 -0.0397 -0.9615  0.7112
 6235SOL     OW19245   6.644   3.031   4.335 -0.0057  0.0107 -0.1314
 6235SOL    HW119246   6.657   3.092   4.408 -0.8648 -0.2103  0.2215
 6235SOL    HW219247   6.586   3.077   4.275 -0.3620 -0.3044 -0.0368
 6236SOL     OW19248   1.856   7.551   0.873  0.6245 -0.0679  0.6086
 6236SOL    HW119249   1.826   7.590   0.955  1.3192  0.2532  0.7123
 6236SOL    HW219250   1.914   7.479   0.899  0.2169 -0.4787  0.4042
 6237SOL     OW19251   3.807   1.152   6.529  0.2483  0.2232  0.2936
 6237SOL    HW119252   3.752   1.229   6.512  1.3243  0.9007 -0.2081
 6237SOL    HW219253   3.745   1.082   6.547 -0.7622  1.2195  0.8253
 6238SOL     OW19254   0.044   0.294   1.756  0.5561 -0.0961  0.5288
 6238SOL    HW119255   0.051   0.206   1.717 -2.0693 -0.1861  0.0971
 6238SOL    HW219256   0.067   0.353   1.684  0.1262 -0.3787  0.1531
 6239SOL     OW19257   2.742   2.016   2.091  0.0033 -0.1673 -0.1917
 6239SOL    HW119258   2.836   2.001   2.078 -0.1105  0.0631 -1.3111
 6239SOL    HW219259   2.699   1.943   2.048 -0.3891  0.7609 -1.4196
 6240SOL     OW19260   2.065   6.150   0.344 -0.3721 -0.5465  0.5906
 6240SOL    HW119261   2.082   6.141   0.250  1.2995 -0.9224  0.8910
 6240SOL    HW219262   2.127   6.089   0.385 -0.6482  0.0669  1.9579
 6241SOL     OW19263   4.424   2.911   5.428  0.0222  0.1160 -0.0815
 6241SOL    HW119264   4.388   2.966   5.357 -1.4724 -0.0985  0.4667
 6241SOL    HW219265   4.347   2.872   5.469  0.9721 -1.1635  0.5511
 6242SOL     OW19266   5.064   2.037   6.734 -0.0392  0.3743  0.0060
 6242SOL    HW119267   5.060   1.943   6.716 -0.6964  0.5031 -0.5537
 6242SOL    HW219268   5.145   2.048   6.785  0.3556 -0.4067 -0.4334
 6243SOL     OW19269   3.612   6.751   4.921 -0.3292  0.0692  0.1873
 6243SOL    HW119270   3.604   6.827   4.863 -2.7917 -0.7981 -0.7085
 6243SOL    HW219271   3.545   6.764   4.988 -0.2326 -0.9542  0.4930
 6244SOL     OW19272   6.668   1.916   5.419 -0.3310  0.1665 -0.1734
 6244SOL    HW119273   6.584   1.942   5.380 -0.7439  1.4713  1.4557
 6244SOL    HW219274   6.717   1.877   5.347 -2.0159  0.1420 -1.3591
 6245SOL     OW19275   7.096   7.211   0.172 -0.1455 -0.9451  0.1547
 6245SOL    HW119276   7.032   7.240   0.237  0.7134 -0.3465  0.7628
 6245SOL    HW219277   7.057   7.235   0.088 -0.7366 -0.6265  0.5098
 6246SOL     OW19278   4.780   1.996   0.329 -0.0128  0.5627  0.0477
 6246SOL    HW119279   4.692   2.020   0.301 -0.2809 -0.1042  0.2798
 6246SOL    HW219280   4.777   1.900   0.336  1.0157  0.4399 -0.8834
 6247SOL     OW19281   5.073   4.009   4.339  0.0656 -0.0316 -0.6282
 6247SOL    HW119282   5.162   4.045   4.346 -0.0988  0.2519  0.1132
 6247SOL    HW219283   5.021   4.065   4.397  0.0752 -2.3121  1.7630
 6248SOL     OW19284   3.588   0.899   3.019  0.6461  0.1962 -0.4397
 6248SOL    HW119285   3.515   0.880   3.078  0.4074  1.2863 -0.3606
 6248SOL    HW219286   3.551   0.891   2.931 -0.5418  3.9028 -0.4468
 6249SOL     OW19287   2.593   6.098   6.340  0.0367 -0.2948  0.0095
 6249SOL    HW119288   2.513   6.145   6.363 -0.1820 -0.4691 -0.3835
 6249SOL    HW219289   2.654   6.117   6.412 -0.7064 -1.0509  0.8548
 6250SOL     OW19290   6.896   2.827   7.275  0.0297  0.3071  0.2129
 6250SOL    HW119291   6.838   2.900   7.250 -0.6021  0.4250  1.9075
 6250SOL    HW219292   6.836   2.757   7.300  0.6341 -0.0045  0.7972
 6251SOL     OW19293   5.366   7.099   0.587 -0.2937  0.5554  0.3057
 6251SOL    HW119294   5.353   7.057   0.502  0.4585  0.5832  0.1647
 6251SOL    HW219295   5.292   7.070   0.641  0.2341 -1.0280  0.2340
 6252SOL     OW19296   1.182   2.628   2.294 -0.3631  0.2304 -0.1883
 6252SOL    HW119297   1.201   2.547   2.246  1.0571  1.2024 -1.3921
 6252SOL    HW219298   1.266   2.652   2.335 -0.6317  1.3072 -0.2235
 6253SOL     OW19299   1.264   2.028   5.823 -0.1965 -0.8392  0.0698
 6253SOL    HW119300   1.317   2.108   5.818 -0.6680 -0.5268 -0.0803
 6253SOL    HW219301   1.198   2.048   5.890 -0.3362 -1.0897  0.0068
 6254SOL     OW19302   2.445   6.120   3.937 -0.4038 -0.4866 -0.5059
 6254SOL    HW119303   2.511   6.113   3.868 -0.1025 -0.5267 -0.2158
 6254SOL    HW219304   2.399   6.037   3.934 -0.6666 -0.3322 -0.9318
 6255SOL     OW19305   7.141   6.160   5.049  0.2589 -0.0570  0.1090
 6255SOL    HW119306   7.058   6.143   5.005  1.0063  0.2463 -1.4858
 6255SOL    HW219307   7.116   6.207   5.129 -1.0386  1.1771 -0.9580
 6256SOL     OW19308   4.700   2.003   0.759  0.0594  0.0652 -0.2757
 6256SOL    HW119309   4.752   1.947   0.701 -0.0852 -1.0852  0.6729
 6256SOL    HW219310   4.718   2.092   0.729  1.4780 -0.3943 -0.8592
 6257SOL     OW19311   3.353   0.771   5.338 -0.1525 -0.7255  0.1095
 6257SOL    HW119312   3.320   0.683   5.324 -1.7170 -0.6747  2.7842
 6257SOL    HW219313   3.448   0.764   5.330 -0.1687 -2.8945  1.2533
 6258SOL     OW19314   5.578   3.642   4.272 -1.0651 -0.2837  0.1787
 6258SOL    HW119315   5.502   3.656   4.328 -1.9716  0.9805 -1.3213
 6258SOL    HW219316   5.549   3.663   4.184  0.8779 -0.2601 -0.5189
 6259SOL     OW19317   4.304   0.976   4.705 -0.1405 -0.1835 -0.3421
 6259SOL    HW119318   4.273   0.966   4.795  0.3564 -1.6988 -0.3030
 6259SOL    HW219319   4.356   1.055   4.706 -0.5415  0.0862  0.5867
 6260SOL     OW19320   3.173   1.876   4.665 -0.9031  0.4686 -0.1104
 6260SOL    HW119321   3.235   1.948   4.671 -0.1452 -0.1946  0.1275
 6260SOL    HW219322   3.089   1.916   4.688 -0.8118  1.6552 -1.6744
 6261SOL     OW19323   4.134   4.689   2.275  0.4028 -0.6491 -0.1320
 6261SOL    HW119324   4.077   4.765   2.270 -0.4557 -1.1730  1.1412
 6261SOL    HW219325   4.184   4.701   2.356  1.3594 -0.6981 -0.7085
 6262SOL     OW19326   3.744   3.437   6.125  0.3208  0.0421 -0.0907
 6262SOL    HW119327   3.763   3.479   6.208  0.0883 -0.1263  0.0481
 6262SOL    HW219328   3.671   3.378   6.143  0.5094 -0.2742 -0.3247
 6263SOL     OW19329   6.225   3.170   0.967 -0.0241  0.1682 -0.9504
 6263SOL    HW119330   6.274   3.249   0.942  0.1724  0.1026 -0.7689
 6263SOL    HW219331   6.265   3.100   0.916 -0.5545  0.2756 -1.5250
 6264SOL     OW19332   3.644   6.791   3.077 -0.0420 -0.2219 -0.4007
 6264SOL    HW119333   3.698   6.818   3.151  1.5462 -2.0355 -0.8191
 6264SOL    HW219334   3.638   6.696   3.085 -1.8224 -0.2273 -1.3230
 6265SOL     OW19335   7.264   5.352   1.706 -0.2082 -0.6093  0.5113
 6265SOL    HW119336   7.353   5.321   1.722  0.7795  0.5768 -2.1305
 6265SOL    HW219337   7.210   5.273   1.705  0.3186 -1.2011  4.2279
 6266SOL     OW19338   1.176   2.272   4.044  0.0388  0.5178  0.2259
 6266SOL    HW119339   1.256   2.239   4.084 -0.0675 -0.3680 -0.2734
 6266SOL    HW219340   1.139   2.331   4.110  1.7214  1.9499 -0.0185
 6267SOL     OW19341   0.072   1.244   6.476 -0.4736 -0.1595  0.1511
 6267SOL    HW119342   0.069   1.231   6.571  0.7699  1.8536  0.5200
 6267SOL    HW219343   0.132   1.175   6.445  1.8783  1.2220  1.3401
 6268SOL     OW19344   5.052   5.447   1.878 -0.1174  0.6132  0.7238
 6268SOL    HW119345   5.016   5.447   1.789  1.7276  0.6701 -0.0526
 6268SOL    HW219346   5.052   5.354   1.904 -0.7741  0.6100  0.7283
 6269SOL     OW19347   4.570   0.259   1.351 -0.1819 -0.3687 -0.3460
 6269SOL    HW119348   4.622   0.298   1.281  0.8316 -0.2850  0.4159
 6269SOL    HW219349   4.511   0.328   1.380  0.1481 -0.0592 -0.4058
 6270SOL     OW19350   3.009   1.445   3.994 -0.2608  0.3082 -0.4606
 6270SOL    HW119351   2.946   1.387   4.036  0.6253 -0.2301  0.1605
 6270SOL    HW219352   3.088   1.392   3.985 -0.2258  0.5912 -2.2688
 6271SOL     OW19353   0.709   3.903   6.098 -0.6763 -0.2329  0.3275
 6271SOL    HW119354   0.804   3.911   6.106 -0.6805  1.0659 -0.6709
 6271SOL    HW219355   0.694   3.882   6.006 -1.4267  1.3571  0.0532
 6272SOL     OW19356   0.923   7.429   0.942  0.0180  0.5287 -0.5000
 6272SOL    HW119357   0.865   7.355   0.961  0.3120  0.1094 -1.1869
 6272SOL    HW219358   0.899   7.496   1.006 -0.1946 -0.1956  0.1928
 6273SOL     OW19359   7.073   6.603   3.693  0.5753  0.4602 -0.1914
 6273SOL    HW119360   7.118   6.573   3.772 -0.4057  2.0674  1.0411
 6273SOL    HW219361   7.028   6.526   3.660  0.8635 -0.2028  0.9288
 6274SOL     OW19362   6.341   5.438   4.143 -0.0327 -0.3833  0.0339
 6274SOL    HW119363   6.271   5.480   4.093  0.8272 -0.7556 -1.5661
 6274SOL    HW219364   6.421   5.480   4.113  0.4218  0.7930  2.6080
 6275SOL     OW19365   0.800   2.318   5.126 -0.1221 -0.0103  0.0393
 6275SOL    HW119366   0.821   2.331   5.034  0.1288  0.9403  0.2162
 6275SOL    HW219367   0.867   2.369   5.173  0.2010 -1.0753  0.7718
 6276SOL     OW19368   7.497   1.756   4.932  0.8107 -0.0327 -0.5596
 6276SOL    HW119369   7.420   1.714   4.894 -0.9069  1.1422  1.3360
 6276SOL    HW219370   7.474   1.768   5.025  4.6730 -2.6720  0.9751
 6277SOL     OW19371   2.188   5.829   5.848 -0.0168  0.1843  0.0002
 6277SOL    HW119372   2.117   5.802   5.907  2.5153 -2.1186  2.2679
 6277SOL    HW219373   2.162   5.794   5.763 -1.9051 -0.0222  0.6047
 6278SOL     OW19374   0.366   5.014   0.419  0.2216  0.3469 -0.1342
 6278SOL    HW119375   0.352   5.097   0.463  1.1610  0.6588 -0.4155
 6278SOL    HW219376   0.406   4.957   0.486  2.2282  1.0100 -0.7094
 6279SOL     OW19377   6.526   2.062   1.772  0.6527 -0.0863 -0.1459
 6279SOL    HW119378   6.457   2.040   1.709  0.6603  2.4293 -1.1367
 6279SOL    HW219379   6.532   2.157   1.768  1.8562  0.0141  2.4516
 6280SOL     OW19380   4.081   2.707   4.021  0.2278  0.2500  0.3793
 6280SOL    HW119381   4.085   2.772   4.091 -1.7707 -0.1288  0.9222
 6280SOL    HW219382   4.070   2.758   3.941 -1.6652  0.6531  0.8360
 6281SOL     OW19383   6.017   2.142   1.323  0.1413 -0.3982 -0.0664
 6281SOL    HW119384   5.971   2.183   1.397  0.8031 -1.0212  0.7041
 6281SOL    HW219385   5.947   2.116   1.263 -0.5476 -1.5467  1.1932
 6282SOL     OW19386   7.264   0.627   2.180 -0.5053 -0.1796 -0.4318
 6282SOL    HW119387   7.265   0.585   2.094  0.0787 -0.4346 -0.3069
 6282SOL    HW219388   7.193   0.691   2.175 -0.5793 -0.3058 -1.0483
 6283SOL     OW19389   4.328   3.282   3.282 -0.5017 -0.3047 -0.0239
 6283SOL    HW119390   4.414   3.259   3.318  0.2533  1.3204 -0.6507
 6283SOL    HW219391   4.325   3.237   3.198  0.7175  1.3352 -0.9975
 6284SOL     OW19392   4.133   0.061   5.013  0.4201  0.4692  0.6039
 6284SOL    HW119393   4.151  -0.015   5.068 -1.1597 -0.9636 -0.7601
 6284SOL    HW219394   4.117   0.132   5.075  1.1778 -0.4731  1.9273
 6285SOL     OW19395   1.886   1.248   5.126 -0.3134  0.6207  0.3491
 6285SOL    HW119396   1.833   1.263   5.205 -1.8665  1.1829 -0.7542
 6285SOL    HW219397   1.878   1.330   5.077  2.1078  0.9444  0.4007
 6286SOL     OW19398   0.526   7.575   0.853  0.3150  0.0461 -0.2853
 6286SOL    HW119399   0.514   7.611   0.765 -1.8915  1.4261  0.4960
 6286SOL    HW219400   0.601   7.622   0.888  0.1736  0.7194 -0.8620
 6287SOL     OW19401   4.550   3.767   1.146  0.0540 -0.5006  0.3967
 6287SOL    HW119402   4.507   3.692   1.189 -1.1204 -1.2782 -1.9765
 6287SOL    HW219403   4.639   3.735   1.127 -0.3463 -1.2034 -0.3357
 6288SOL     OW19404   5.094   1.288   5.386 -0.3086  0.5020 -0.4428
 6288SOL    HW119405   5.085   1.249   5.299  1.7312  1.0760 -0.9543
 6288SOL    HW219406   5.013   1.338   5.398 -0.9376 -0.1650 -1.7029
 6289SOL     OW19407   2.961   7.455   0.671 -0.2186 -0.4003  0.5249
 6289SOL    HW119408   2.949   7.389   0.739  0.7111 -2.1159 -0.8634
 6289SOL    HW219409   2.916   7.533   0.703 -0.0158 -1.2142  2.9502
 6290SOL     OW19410   1.295   4.219   3.244 -0.2622  0.1103 -0.1862
 6290SOL    HW119411   1.233   4.291   3.254 -0.8393 -0.3317 -0.6034
 6290SOL    HW219412   1.293   4.197   3.151  1.0906  0.5927 -0.3552
 6291SOL     OW19413   6.879   4.773   4.760 -0.8591 -0.0907  0.0250
 6291SOL    HW119414   6.972   4.750   4.759 -1.2618 -1.8067 -0.7677
 6291SOL    HW219415   6.853   4.774   4.668 -1.4983  1.0236  0.2006
 6292SOL     OW19416   2.297   4.368   6.821 -0.5116  0.2312  0.1500
 6292SOL    HW119417   2.300   4.356   6.726  0.0557 -1.4630  0.3528
 6292SOL    HW219418   2.207   4.394   6.839  0.0860  3.7995 -1.1313
 6293SOL     OW19419   5.640   5.330   2.579 -0.0590 -0.3152  0.1692
 6293SOL    HW119420   5.624   5.389   2.506 -0.7349 -3.5530 -2.5898
 6293SOL    HW219421   5.570   5.265   2.572  1.0578 -1.8917  2.4524
 6294SOL     OW19422   7.041   5.610   6.608 -0.5051  0.5343 -0.2773
 6294SOL    HW119423   6.951   5.578   6.592  0.7355 -1.9260 -3.6216
 6294SOL    HW219424   7.075   5.630   6.521  2.6395  0.0244  0.7027
 6295SOL     OW19425   2.016   5.042   2.861 -0.1393 -0.2718  0.1882
 6295SOL    HW119426   2.027   4.988   2.939  2.6843  0.6182  0.5138
 6295SOL    HW219427   1.997   5.129   2.894  3.7955  0.7642  0.1953
 6296SOL     OW19428   5.210   2.450   0.949 -0.5463  0.0183  0.2167
 6296SOL    HW119429   5.246   2.413   1.030  2.1839 -1.3472 -1.4910
 6296SOL    HW219430   5.262   2.528   0.933 -1.9471  1.0303  0.3887
 6297SOL     OW19431   6.071   4.178   3.408  0.7537 -0.0373  0.0222
 6297SOL    HW119432   5.981   4.152   3.390  0.2555  2.8910 -2.6433
 6297SOL    HW219433   6.063   4.260   3.458  2.0792 -1.1923  2.2818
 6298SOL     OW19434   2.259   7.414   2.519 -0.0970 -0.1892  0.0560
 6298SOL    HW119435   2.353   7.432   2.510 -0.1238  0.2265  0.5548
 6298SOL    HW219436   2.255   7.335   2.573 -0.0253 -0.4848 -0.3676
 6299SOL     OW19437   0.876   6.898   0.562 -0.0928 -0.0282  0.0804
 6299SOL    HW119438   0.793   6.887   0.515 -1.7258  0.5304  2.5744
 6299SOL    HW219439   0.908   6.809   0.577  0.8398 -0.2053 -2.5320
 6300SOL     OW19440   7.007   1.599   4.914 -0.3492  0.1835  0.5840
 6300SOL    HW119441   6.933   1.542   4.894 -1.1646  0.7984  1.7497
 6300SOL    HW219442   7.011   1.660   4.840  0.0323 -0.8574 -0.2770
 6301SOL     OW19443   3.123   3.683   3.300 -0.1203 -0.2391  0.1093
 6301SOL    HW119444   3.134   3.739   3.377 -1.1427  1.6121 -1.0010
 6301SOL    HW219445   3.092   3.600   3.334  2.0582 -0.4196  1.8896
 6302SOL     OW19446   5.117   1.507   0.035  0.5968 -0.4025 -0.0602
 6302SOL    HW119447   5.080   1.464  -0.042  1.1087  1.4960 -1.4635
 6302SOL    HW219448   5.212   1.505   0.019  0.6205  1.5996 -0.4600
 6303SOL     OW19449   5.530   4.682   3.550 -0.0393 -0.3651  0.1314
 6303SOL    HW119450   5.446   4.658   3.510  0.5097 -0.7286 -0.8395
 6303SOL    HW219451   5.553   4.764   3.506  0.7656 -0.9766 -0.6126
 6304SOL     OW19452   2.986   1.350   5.003 -0.3041 -0.0416  0.2468
 6304SOL    HW119453   3.061   1.343   4.943 -0.6763  0.3886 -0.2713
 6304SOL    HW219454   3.015   1.303   5.082  0.4762  0.0336  0.0177
 6305SOL     OW19455   0.551   1.124   3.733  0.5783 -0.3283 -0.1967
 6305SOL    HW119456   0.458   1.137   3.713  0.8894  0.9567 -0.8841
 6305SOL    HW219457   0.555   1.035   3.767 -0.8674 -0.5059 -0.4054
 6306SOL     OW19458   7.592   7.375   1.775 -0.2448  0.4388 -0.3941
 6306SOL    HW119459   7.666   7.315   1.781 -2.0792 -1.8219  1.7034
 6306SOL    HW219460   7.517   7.319   1.755 -1.4667  2.6645 -2.6559
 6307SOL     OW19461   4.919   1.786   1.422  0.3659 -0.1314  0.1609
 6307SOL    HW119462   4.988   1.827   1.474  0.4562  0.3335 -0.3201
 6307SOL    HW219463   4.866   1.859   1.390 -1.0262 -0.5245  1.4320
 6308SOL     OW19464   3.069   1.711   5.698 -0.1440  0.0647  0.4118
 6308SOL    HW119465   3.023   1.688   5.618 -0.3853 -0.6000  0.7334
 6308SOL    HW219466   3.143   1.765   5.670 -0.5014  0.2320 -0.2079
 6309SOL     OW19467   0.939   2.023   3.454 -0.5928 -0.1340  0.4029
 6309SOL    HW119468   0.846   2.022   3.477 -1.1851  0.6689 -1.6959
 6309SOL    HW219469   0.979   2.084   3.516 -1.6325  0.2012  0.7629
 6310SOL     OW19470   2.244   4.111   5.225  0.0537 -0.0488 -0.2092
 6310SOL    HW119471   2.308   4.040   5.228 -1.4765 -1.4883  0.8368
 6310SOL    HW219472   2.162   4.067   5.201 -1.2943  1.0618  2.1052
 6311SOL     OW19473   5.999   1.265   3.247  0.2204  0.1234  0.0675
 6311SOL    HW119474   5.969   1.175   3.238  2.0075 -0.4965 -0.0985
 6311SOL    HW219475   5.920   1.318   3.237 -0.4408 -1.2560 -3.1276
 6312SOL     OW19476   2.015   2.927   7.478 -0.3086 -0.0365 -0.9454
 6312SOL    HW119477   2.083   2.933   7.545 -0.4222  1.1018 -0.9041
 6312SOL    HW219478   1.978   2.840   7.488 -0.0507 -0.0235  0.2218
 6313SOL     OW19479   6.534   3.631   7.284  1.1723 -0.6195  0.6747
 6313SOL    HW119480   6.543   3.583   7.366  2.1132 -0.5056  0.6511
 6313SOL    HW219481   6.569   3.718   7.303  0.5206 -0.2892  0.4058
 6314SOL     OW19482   2.753   6.198   2.748 -0.0769 -0.2696  0.4104
 6314SOL    HW119483   2.816   6.210   2.819  1.8500  0.9405 -1.3865
 6314SOL    HW219484   2.756   6.280   2.699 -0.4436 -1.4661 -1.7215
 6315SOL     OW19485   4.319   1.868   0.928 -0.5249 -0.5183  0.3454
 6315SOL    HW119486   4.303   1.788   0.978  0.1532 -0.6746  0.3212
 6315SOL    HW219487   4.393   1.847   0.871 -1.0285 -0.2098 -0.4389
 6316SOL     OW19488   1.375   5.125   5.002  0.5379 -0.0728  0.1808
 6316SOL    HW119489   1.409   5.099   4.917  1.2257  1.3218 -0.0035
 6316SOL    HW219490   1.401   5.055   5.061  0.3649 -0.8771 -0.6832
 6317SOL     OW19491   2.546   7.567   0.848 -0.4626  0.3381 -0.0762
 6317SOL    HW119492   2.511   7.542   0.934  0.6812 -0.4837  0.1657
 6317SOL    HW219493   2.560   7.484   0.803  0.5828  0.6801 -0.4017
 6318SOL     OW19494   3.626   6.332   5.786  0.3890  0.6668 -0.1540
 6318SOL    HW119495   3.708   6.342   5.738  0.6367 -0.9982 -0.1480
 6318SOL    HW219496   3.597   6.243   5.765 -1.4668  1.2387 -0.2271
 6319SOL     OW19497   1.142   6.302   6.676 -0.2377 -0.1941 -0.1584
 6319SOL    HW119498   1.061   6.353   6.673 -0.4541 -0.5518 -1.4023
 6319SOL    HW219499   1.114   6.214   6.701  0.4707  0.7614  4.8798
 6320SOL     OW19500   1.452   0.410   2.647 -0.0075 -0.1466  0.0226
 6320SOL    HW119501   1.486   0.324   2.672  0.8194  0.0653 -0.3542
 6320SOL    HW219502   1.394   0.434   2.719  1.4231 -0.0710  1.1921
 6321SOL     OW19503   6.450   0.823   0.756 -0.1703 -0.6634 -0.4343
 6321SOL    HW119504   6.526   0.816   0.698  1.0890 -2.3834  1.3146
 6321SOL    HW219505   6.478   0.882   0.826 -2.2257  2.7397 -2.1609
 6322SOL     OW19506   6.127   7.508   7.317 -0.4263 -0.1573 -0.0252
 6322SOL    HW119507   6.101   7.555   7.238 -0.7977 -0.1443  0.1027
 6322SOL    HW219508   6.209   7.550   7.344  0.5997 -1.2158 -1.3115
 6323SOL     OW19509   3.879   4.386   7.175 -0.6371 -0.0771 -0.1039
 6323SOL    HW119510   3.880   4.294   7.203  0.0209 -0.2989 -0.8075
 6323SOL    HW219511   3.972   4.411   7.173 -0.7386  0.2425 -1.0681
 6324SOL     OW19512   6.111   2.405   5.813 -0.1452  0.2771 -0.1558
 6324SOL    HW119513   6.158   2.414   5.896 -1.2866  0.1685  0.5257
 6324SOL    HW219514   6.021   2.432   5.833 -0.3478  0.6539 -1.4620
 6325SOL     OW19515   6.045   3.389   6.305  0.5157  0.2805  0.1011
 6325SOL    HW119516   6.138   3.393   6.326  0.4196  1.8024  0.2917
 6325SOL    HW219517   6.015   3.479   6.309 -0.7831 -0.0816 -0.8525
 6326SOL     OW19518   2.985   4.680   4.962 -0.3825  0.2902 -0.1921
 6326SOL    HW119519   2.907   4.670   5.016  0.0571  1.4247  0.7003
 6326SOL    HW219520   3.053   4.631   5.009 -0.2111  0.5396 -0.1751
 6327SOL     OW19521   5.783   5.592   6.848  0.3156 -0.0772  0.4644
 6327SOL    HW119522   5.815   5.668   6.799  0.8903 -0.8015 -0.3092
 6327SOL    HW219523   5.854   5.528   6.843 -0.1850 -0.6925  1.0476
 6328SOL     OW19524   1.645   1.083   6.882 -0.6915 -0.1502  0.2309
 6328SOL    HW119525   1.611   1.067   6.794 -0.7256  0.4981  0.1214
 6328SOL    HW219526   1.723   1.136   6.868  0.2654 -1.4334  0.4966
 6329SOL     OW19527   4.143   5.721   4.842 -0.0288 -0.2382  0.1961
 6329SOL    HW119528   4.060   5.726   4.890 -1.0395  0.2562 -1.5324
 6329SOL    HW219529   4.175   5.811   4.838 -0.5125 -0.1012 -0.9648
 6330SOL     OW19530   5.447   7.599   1.541 -0.3721  0.1074 -0.0256
 6330SOL    HW119531   5.485   7.665   1.599 -0.5301  0.0204  0.1773
 6330SOL    HW219532   5.491   7.612   1.457 -0.2831  0.3601  0.0616
 6331SOL     OW19533   7.081   1.899   2.744  0.0902 -0.0404  0.4710
 6331SOL    HW119534   7.141   1.862   2.809 -2.5242 -0.1027  3.0392
 6331SOL    HW219535   7.069   1.828   2.680  0.9885 -0.8404  1.1474
 6332SOL     OW19536   3.076   6.252   1.921 -0.1938  0.2313  0.1376
 6332SOL    HW119537   3.122   6.318   1.868  0.0211 -0.2958 -0.3406
 6332SOL    HW219538   3.087   6.282   2.011  3.9460 -1.4920  0.4304
 6333SOL     OW19539   7.265   0.177   0.582  0.6258  0.3404 -0.1310
 6333SOL    HW119540   7.294   0.265   0.606 -3.1812  1.5968  0.5762
 6333SOL    HW219541   7.244   0.183   0.489  2.1142 -0.4112 -0.5340
 6334SOL     OW19542   0.215   4.045   5.446  0.0130  0.4721 -0.0749
 6334SOL    HW119543   0.269   3.967   5.432 -0.0512  0.5668 -0.9586
 6334SOL    HW219544   0.266   4.100   5.506  0.2555 -0.0565  0.2046
 6335SOL     OW19545   0.524   1.756   6.454  0.2363  0.1577  0.5322
 6335SOL    HW119546   0.433   1.779   6.472 -1.4792 -3.2035 -2.5495
 6335SOL    HW219547   0.539   1.675   6.504  1.4934  0.5485  0.8299
 6336SOL     OW19548   5.978   1.354   6.770  0.0535 -0.2073  0.7209
 6336SOL    HW119549   5.971   1.444   6.740 -0.4242 -0.1854  0.8938
 6336SOL    HW219550   6.066   1.326   6.742 -0.2835 -0.1153 -0.4742
 6337SOL     OW19551   2.483   3.530   0.213 -0.1287  0.0056 -0.5906
 6337SOL    HW119552   2.404   3.493   0.251  0.8696 -0.3843  1.2227
 6337SOL    HW219553   2.487   3.619   0.249  0.1624  0.0888 -0.8268
 6338SOL     OW19554   7.375   3.379   4.499  0.3598 -0.5290 -0.4730
 6338SOL    HW119555   7.446   3.375   4.434 -0.2392 -1.4678 -1.0926
 6338SOL    HW219556   7.391   3.461   4.546  3.5614 -1.9828  1.3542
 6339SOL     OW19557   6.249   1.674   3.269 -0.3207  0.1030  0.1973
 6339SOL    HW119558   6.192   1.617   3.320 -0.0146 -0.1061  0.3084
 6339SOL    HW219559   6.196   1.700   3.193 -0.6841  0.1958  0.4815
 6340SOL     OW19560   2.588   4.191   4.148 -0.1367  0.2146  0.1372
 6340SOL    HW119561   2.622   4.280   4.151 -1.7215  0.8292  0.3769
 6340SOL    HW219562   2.560   4.172   4.237 -1.1492  0.0159 -0.2125
 6341SOL     OW19563   4.552   3.849   6.024  1.2633 -0.5728 -0.1273
 6341SOL    HW119564   4.562   3.899   5.943  1.8163 -0.9438 -0.2980
 6341SOL    HW219565   4.477   3.889   6.068  0.8787 -0.4385 -0.8756
 6342SOL     OW19566   4.562   3.242   3.416  0.5100 -0.3890 -0.2560
 6342SOL    HW119567   4.640   3.191   3.435  1.4656  0.5721 -1.3761
 6342SOL    HW219568   4.588   3.333   3.434  0.4935  0.2198 -2.8823
 6343SOL     OW19569   6.441   2.669   7.550  0.6246 -0.0239  0.1859
 6343SOL    HW119570   6.469   2.748   7.506  2.2522  0.2744  1.6584
 6343SOL    HW219571   6.477   2.597   7.497 -1.7158  0.0760 -1.7373
 6344SOL     OW19572   5.393   6.638   1.024  0.0784 -0.0400  0.1967
 6344SOL    HW119573   5.473   6.642   1.077 -0.8214  0.8510  1.5750
 6344SOL    HW219574   5.396   6.717   0.970  0.5380 -0.4549 -0.3899
 6345SOL     OW19575   4.072   3.174   3.409  0.4289  0.1323  0.7740
 6345SOL    HW119576   4.138   3.225   3.362  2.6154 -2.4361  0.7912
 6345SOL    HW219577   4.109   3.164   3.497 -0.0413 -1.2152  0.8384
 6346SOL     OW19578   7.580   0.231   0.094 -0.4280 -0.2533 -0.2674
 6346SOL    HW119579   7.582   0.163   0.027  1.0578 -1.4835  0.9602
 6346SOL    HW219580   7.571   0.184   0.176  2.4131  0.8507  0.7892
 6347SOL     OW19581   6.812   5.739   6.058 -0.4565  0.1667 -0.4392
 6347SOL    HW119582   6.907   5.748   6.052 -0.4310  0.3568  0.1981
 6347SOL    HW219583   6.799   5.670   6.124 -0.7059 -2.0541 -2.6804
 6348SOL     OW19584   5.818   2.849   2.537  0.0639  0.6169  0.2441
 6348SOL    HW119585   5.828   2.932   2.490 -0.3001  1.0230  0.8552
 6348SOL    HW219586   5.810   2.875   2.629 -1.2619  0.0017  0.3385
 6349SOL     OW19587   7.005   0.095   2.822  0.1933  0.2226  0.1538
 6349SOL    HW119588   7.014   0.184   2.857 -0.1640  0.5021 -0.4470
 6349SOL    HW219589   6.926   0.099   2.769  0.9134 -0.0889 -0.9749
 6350SOL     OW19590   3.142   0.459   0.011  0.1002 -0.1837  0.7913
 6350SOL    HW119591   3.082   0.482   0.082 -0.7932 -1.6096  0.5345
 6350SOL    HW219592   3.201   0.534   0.005 -1.1893  0.9480  1.5387
 6351SOL     OW19593   3.179   6.388   7.122  0.1490 -0.1234 -0.5172
 6351SOL    HW119594   3.092   6.418   7.147  0.3741  1.1585 -1.2081
 6351SOL    HW219595   3.197   6.432   7.040 -0.2258 -3.5343 -2.6262
 6352SOL     OW19596   1.699   7.472   0.223 -0.1524 -0.3169 -0.8994
 6352SOL    HW119597   1.685   7.431   0.309 -1.8970 -0.0489 -1.0173
 6352SOL    HW219598   1.723   7.399   0.166  0.3636 -0.6015 -0.3315
 6353SOL     OW19599   6.575   7.240   3.999 -1.1062 -0.4668  0.0958
 6353SOL    HW119600   6.661   7.227   3.957 -2.0649 -0.7910 -1.9018
 6353SOL    HW219601   6.577   7.182   4.075  0.6006 -0.1316  0.3470
 6354SOL     OW19602   6.065   4.028   1.658  0.4139 -0.0413  0.2457
 6354SOL    HW119603   6.020   4.053   1.739  0.2565  0.7701 -0.0858
 6354SOL    HW219604   6.002   3.971   1.613 -0.8209  2.0171 -0.7652
 6355SOL     OW19605   3.616   3.257   1.000  0.3894 -0.0317 -1.8722
 6355SOL    HW119606   3.655   3.243   0.913 -0.6025 -0.3424 -2.2835
 6355SOL    HW219607   3.524   3.233   0.989 -0.2041  1.7637 -1.2157
 6356SOL     OW19608   0.086   4.353   4.338 -0.2399 -0.2311  0.0416
 6356SOL    HW119609   0.073   4.368   4.244  0.6015 -0.4354 -0.1138
 6356SOL    HW219610   0.092   4.258   4.346 -1.8915 -0.3259  0.5326
 6357SOL     OW19611   5.375   3.470   3.783  0.0178  0.2991  0.3335
 6357SOL    HW119612   5.331   3.545   3.743  0.9269 -0.0687 -1.4499
 6357SOL    HW219613   5.350   3.474   3.876 -1.8203  1.4445 -0.1652
 6358SOL     OW19614   4.961   6.124   2.544 -0.2099  0.5009 -0.2926
 6358SOL    HW119615   4.925   6.110   2.457 -2.3075 -0.8687  0.7280
 6358SOL    HW219616   4.936   6.214   2.565  1.7617  1.4456 -1.6855
 6359SOL     OW19617   7.072   2.317   3.271 -0.2048  0.5017  0.5307
 6359SOL    HW119618   6.990   2.333   3.318 -0.9789  0.7204 -0.8320
 6359SOL    HW219619   7.075   2.385   3.204  0.4073 -0.3329 -0.3206
 6360SOL     OW19620   5.292   0.904   6.067 -0.3561 -0.1658 -0.1431
 6360SOL    HW119621   5.341   0.841   6.015  0.2260 -0.9555  1.2977
 6360SOL    HW219622   5.205   0.864   6.078  0.5699 -1.7520  2.3658
 6361SOL     OW19623   0.354   7.094   3.764 -0.1289  0.1801 -0.3437
 6361SOL    HW119624   0.292   7.167   3.769  1.6399  1.8872 -1.6103
 6361SOL    HW219625   0.411   7.107   3.840  1.1565  1.1321 -1.4224
 6362SOL     OW19626   5.280   1.611   0.305  0.1480 -0.7937 -0.3126
 6362SOL    HW119627   5.281   1.529   0.353  0.0863 -0.8526 -0.4115
 6362SOL    HW219628   5.329   1.593   0.225  1.2141 -0.3849  0.2315
 6363SOL     OW19629   0.228   1.731   1.958 -0.3613 -0.0690 -0.2209
 6363SOL    HW119630   0.231   1.648   1.909  1.1401  0.8058 -1.7309
 6363SOL    HW219631   0.135   1.745   1.975 -0.7610 -1.4291 -1.0857
 6364SOL     OW19632   5.291   4.905   6.238  0.2371  0.1704 -0.0012
 6364SOL    HW119633   5.197   4.906   6.217  0.2059 -0.0432  0.1158
 6364SOL    HW219634   5.334   4.916   6.154  0.1126  3.1647  0.2195
 6365SOL     OW19635   2.052   3.976   2.742 -0.8567 -0.0806  0.0247
 6365SOL    HW119636   1.958   3.990   2.753 -0.9059  0.1314 -0.6222
 6365SOL    HW219637   2.073   3.906   2.804 -0.9536  1.5337  1.9886
 6366SOL     OW19638   3.571   6.053   1.912  0.1017  0.1487  0.5196
 6366SOL    HW119639   3.535   6.065   1.999  0.1399  1.3239  0.3842
 6366SOL    HW219640   3.592   6.141   1.881 -0.8787 -0.1322 -1.0936
 6367SOL     OW19641   6.359   1.782   6.057  0.7165 -0.6554  0.2856
 6367SOL    HW119642   6.328   1.734   5.981  1.1691 -1.9934  0.9202
 6367SOL    HW219643   6.279   1.811   6.101  0.4513 -0.0010 -0.5844
 6368SOL     OW19644   4.474   2.063   3.172  0.5292  0.4665  0.3733
 6368SOL    HW119645   4.402   2.102   3.122  1.0220  0.5842 -0.2612
 6368SOL    HW219646   4.451   1.971   3.180  0.7390  0.3174 -0.6208
 6369SOL     OW19647   4.553   3.120   0.697 -0.1458 -0.1759 -0.2369
 6369SOL    HW119648   4.508   3.177   0.759  1.0842 -0.1085  0.6350
 6369SOL    HW219649   4.501   3.039   0.696 -0.0249 -0.2954  1.1455
 6370SOL     OW19650   4.573   0.421   6.043  0.0124  0.4982 -0.1401
 6370SOL    HW119651   4.597   0.496   5.990  4.4353 -0.9654 -0.6291
 6370SOL    HW219652   4.612   0.440   6.129 -2.3525  0.4520  1.0072
 6371SOL     OW19653   4.673   6.359   7.118  0.4738  0.0379  0.9202
 6371SOL    HW119654   4.589   6.403   7.109 -0.0947 -1.2295 -0.2922
 6371SOL    HW219655   4.735   6.429   7.141 -0.4935  1.3777 -0.3857
 6372SOL     OW19656   1.482   0.281   6.552 -0.1102 -0.1985  0.0761
 6372SOL    HW119657   1.482   0.350   6.618 -0.4174  1.4199 -1.5595
 6372SOL    HW219658   1.479   0.200   6.603  1.1387  0.9226  2.0883
 6373SOL     OW19659   0.507   3.325   7.435  0.0083 -0.2379 -0.0009
 6373SOL    HW119660   0.421   3.310   7.475 -0.8700  2.6529 -0.5739
 6373SOL    HW219661   0.536   3.409   7.469  1.1534  0.3407 -2.1784
 6374SOL     OW19662   0.657   2.196   3.861  0.4539  0.2154 -0.0526
 6374SOL    HW119663   0.596   2.211   3.933  0.1997 -1.4591  0.1349
 6374SOL    HW219664   0.743   2.205   3.902  0.3120 -0.5805  0.4590
 6375SOL     OW19665   6.953   4.839   2.351  0.3046 -0.1454 -0.0685
 6375SOL    HW119666   6.985   4.930   2.348 -2.0818  1.1791  4.4729
 6375SOL    HW219667   7.024   4.790   2.392 -0.2166  0.9613  2.3308
 6376SOL     OW19668   4.112   2.564   1.115  0.0506  0.2029  0.1421
 6376SOL    HW119669   4.131   2.587   1.024  0.1089 -1.6547 -0.3514
 6376SOL    HW219670   4.195   2.578   1.161  0.6661 -0.9269 -0.5624
 6377SOL     OW19671   3.132   4.277   0.783 -0.3745  0.1048 -1.3076
 6377SOL    HW119672   3.107   4.325   0.862  1.2480  1.4091 -1.5326
 6377SOL    HW219673   3.100   4.332   0.711 -0.0285 -0.0185 -1.5577
 6378SOL     OW19674   6.986   2.971   0.744  0.3777  0.3558 -0.2240
 6378SOL    HW119675   7.065   2.918   0.731  0.8825  1.2953 -1.0882
 6378SOL    HW219676   6.985   2.990   0.838 -0.2744 -1.8459  0.2897
 6379SOL     OW19677   2.342   0.970   4.450  0.3100  0.5110  0.1944
 6379SOL    HW119678   2.253   0.992   4.422 -0.6642 -1.1948  1.6703
 6379SOL    HW219679   2.363   1.036   4.516  0.0207  0.7702  0.0299
 6380SOL     OW19680   3.679   2.518   3.772 -0.3867 -0.4118 -0.3401
 6380SOL    HW119681   3.659   2.565   3.691 -0.6420  0.3349  0.1493
 6380SOL    HW219682   3.769   2.541   3.792 -0.3650 -0.4957 -0.3391
 6381SOL     OW19683   4.406   3.136   5.640  0.4034 -0.2001  0.2068
 6381SOL    HW119684   4.493   3.175   5.628  2.1315 -3.5317  0.8003
 6381SOL    HW219685   4.400   3.070   5.571 -2.0929  0.4999 -0.3516
 6382SOL     OW19686   5.224   6.454   4.922 -0.5516  0.0641 -0.9929
 6382SOL    HW119687   5.265   6.515   4.861  1.4890 -0.7956 -0.5535
 6382SOL    HW219688   5.215   6.372   4.873  1.7559 -0.8499 -0.0420
 6383SOL     OW19689   4.054   3.241   5.388 -0.1033 -0.5299  0.2314
 6383SOL    HW119690   4.107   3.248   5.308 -0.2653 -2.1629 -0.0535
 6383SOL    HW219691   4.117   3.227   5.458  0.0030  0.3646  0.3275
 6384SOL     OW19692   1.494   2.456   1.757  0.3990 -0.5979  0.0321
 6384SOL    HW119693   1.522   2.431   1.669  0.7972 -1.9934  0.5448
 6384SOL    HW219694   1.529   2.545   1.769 -0.2178 -0.1260 -1.4411
 6385SOL     OW19695   7.430   5.454   4.764  0.0945  0.2604 -0.2070
 6385SOL    HW119696   7.445   5.536   4.716  3.3478 -0.1042 -0.0808
 6385SOL    HW219697   7.481   5.389   4.715 -0.2786 -1.1091  1.1680
 6386SOL     OW19698   7.080   0.220   5.342  0.1887  0.4600  0.0528
 6386SOL    HW119699   7.170   0.251   5.354  0.3296  0.6035 -1.1869
 6386SOL    HW219700   7.026   0.289   5.380  0.5815  1.0089 -0.3522
 6387SOL     OW19701   3.764   5.430   5.911 -0.6688  0.3687 -0.6001
 6387SOL    HW119702   3.680   5.427   5.864 -1.2888  1.3030  0.3941
 6387SOL    HW219703   3.801   5.343   5.899 -2.8159 -0.8330  0.7317
 6388SOL     OW19704   1.319   4.252   0.280 -0.8089 -0.2624  0.4710
 6388SOL    HW119705   1.272   4.249   0.364 -1.4956  1.1058  0.1730
 6388SOL    HW219706   1.408   4.225   0.301 -0.9858  0.0155  1.6385
 6389SOL     OW19707   1.558   3.229   4.846  0.2071 -0.1067 -0.5283
 6389SOL    HW119708   1.506   3.230   4.926 -0.0404 -2.1906 -0.6110
 6389SOL    HW219709   1.648   3.246   4.876  0.3881 -2.4236  0.4916
 6390SOL     OW19710   7.418   1.081   6.531 -0.0587 -0.1729  0.1026
 6390SOL    HW119711   7.418   1.161   6.583  0.7696 -0.1799  0.1191
 6390SOL    HW219712   7.401   1.111   6.442 -1.5406 -0.1659  0.3641
 6391SOL     OW19713   1.449   0.445   7.072  0.1330 -0.1745 -0.2281
 6391SOL    HW119714   1.523   0.415   7.125  0.2970  2.5205  1.2275
 6391SOL    HW219715   1.372   0.405   7.114  0.5305 -0.8399 -0.1120
 6392SOL     OW19716   4.569   4.338   0.068  0.1242  0.7041 -0.1134
 6392SOL    HW119717   4.622   4.304  -0.004  1.3169  1.0009  0.5895
 6392SOL    HW219718   4.604   4.296   0.146  0.2650  1.9633  0.5335
 6393SOL     OW19719   1.265   0.209   3.859  0.2905 -0.2607  0.5072
 6393SOL    HW119720   1.240   0.205   3.766 -0.0066 -1.3568  0.6207
 6393SOL    HW219721   1.355   0.177   3.861  0.1752 -0.5800  0.6374
 6394SOL     OW19722   2.453   0.508   5.309 -0.0995  0.1246 -0.0151
 6394SOL    HW119723   2.431   0.415   5.313  0.1960  0.0508 -0.0566
 6394SOL    HW219724   2.388   0.546   5.251  0.1172 -0.1605 -0.4527
 6395SOL     OW19725   5.329   6.854   6.832 -0.1762  0.3500  0.7746
 6395SOL    HW119726   5.362   6.884   6.747  1.2620  0.9841  1.5157
 6395SOL    HW219727   5.279   6.928   6.866 -0.7023  0.1179  0.5192
 6396SOL     OW19728   5.807   0.888   5.988 -0.1272 -0.0327  0.1256
 6396SOL    HW119729   5.794   0.939   5.908  0.2877 -1.1147 -0.6521
 6396SOL    HW219730   5.889   0.922   6.025  0.6865 -0.8068 -0.9285
 6397SOL     OW19731   4.707   5.381   1.525 -0.0824 -0.2180 -0.7234
 6397SOL    HW119732   4.748   5.295   1.515 -0.1567 -0.3241 -0.1297
 6397SOL    HW219733   4.621   5.362   1.564  0.1705  0.1795  0.0361
 6398SOL     OW19734   1.548   4.242   3.353  0.4613 -0.6168  0.3075
 6398SOL    HW119735   1.543   4.338   3.359 -2.8650 -0.5641 -1.0506
 6398SOL    HW219736   1.467   4.217   3.309  1.7386 -4.0231 -0.3824
 6399SOL     OW19737   3.230   6.733   6.098  0.7663 -0.0837 -0.2698
 6399SOL    HW119738   3.154   6.692   6.056 -0.7726  0.6845  1.6509
 6399SOL    HW219739   3.276   6.660   6.140  1.7536 -0.7073 -2.2807
 6400SOL     OW19740   2.546   3.654   4.323  0.8390  0.1504 -0.4579
 6400SOL    HW119741   2.565   3.578   4.378 -1.5288 -0.5540 -0.5024
 6400SOL    HW219742   2.535   3.618   4.235 -1.8075  0.2049 -0.2395
 6401SOL     OW19743   4.828   5.073   3.784  0.6447  0.0508  0.1574
 6401SOL    HW119744   4.844   5.153   3.835  1.4842 -0.0578  0.0841
 6401SOL    HW219745   4.913   5.029   3.782  0.0764 -1.1123  0.6329
 6402SOL     OW19746   5.220   5.410   4.364 -0.2557 -0.1752 -0.1646
 6402SOL    HW119747   5.313   5.430   4.358  0.0124 -0.8501  1.2824
 6402SOL    HW219748   5.176   5.492   4.339  0.7503  0.8607  1.2710
 6403SOL     OW19749   0.636   6.725   2.580 -0.4500 -0.4547 -0.2102
 6403SOL    HW119750   0.657   6.754   2.668 -1.3810  1.7078 -0.6377
 6403SOL    HW219751   0.660   6.632   2.579  1.1762 -0.1289  1.7699
 6404SOL     OW19752   5.588   4.071   5.617  0.4059 -0.1089  0.1051
 6404SOL    HW119753   5.515   4.009   5.614  0.6318 -0.4183  0.9053
 6404SOL    HW219754   5.552   4.152   5.581 -0.1609 -0.4224 -0.0542
 6405SOL     OW19755   3.895   5.277   4.098  0.0216 -0.0092  0.1194
 6405SOL    HW119756   3.964   5.300   4.036 -0.0367  0.6944  0.3100
 6405SOL    HW219757   3.842   5.356   4.106  0.7470  0.3427  2.0222
 6406SOL     OW19758   2.752   5.705   4.107  0.2147 -0.6207  0.0571
 6406SOL    HW119759   2.677   5.762   4.124 -0.3989 -1.0348 -1.1516
 6406SOL    HW219760   2.827   5.764   4.106 -0.5800  0.5181 -2.8146
 6407SOL     OW19761   0.486   3.304   4.184  0.1994 -0.1428 -0.5931
 6407SOL    HW119762   0.419   3.352   4.135  0.7540 -0.1363 -1.3623
 6407SOL    HW219763   0.493   3.220   4.139  0.0809 -0.4940  0.0306
 6408SOL     OW19764   1.752   3.229   6.061 -0.4123 -0.0927 -0.0412
 6408SOL    HW119765   1.831   3.233   6.114  0.6631 -0.8992 -1.5016
 6408SOL    HW219766   1.744   3.317   6.023  0.9979 -0.5321 -1.4903
 6409SOL     OW19767   6.049   6.711   5.408 -1.0021  0.0767 -1.2585
 6409SOL    HW119768   6.119   6.697   5.471 -2.4908  1.2066  0.7921
 6409SOL    HW219769   6.001   6.628   5.406 -1.2056  0.1660 -0.5097
 6410SOL     OW19770   3.379   4.713   5.587  0.1372 -0.1070 -0.5070
 6410SOL    HW119771   3.312   4.766   5.544 -0.6159  0.3796  1.1738
 6410SOL    HW219772   3.359   4.720   5.680  2.2444 -0.3675  0.0176
 6411SOL     OW19773   7.250   1.443   6.018 -0.0405 -0.2686 -0.2565
 6411SOL    HW119774   7.332   1.449   5.970  0.0498  1.1386  0.0117
 6411SOL    HW219775   7.256   1.361   6.067  1.9661  0.5817  1.0712
 6412SOL     OW19776   4.702   0.438   0.019  0.1045 -0.1643 -0.2639
 6412SOL    HW119777   4.780   0.427  -0.035  0.7833 -1.8346  0.9785
 6412SOL    HW219778   4.728   0.499   0.088 -0.3099  0.7863 -0.9195
 6413SOL     OW19779   5.461   1.905   2.099 -0.0741  0.1653 -0.5484
 6413SOL    HW119780   5.368   1.916   2.118 -0.0302 -1.9769  1.4663
 6413SOL    HW219781   5.465   1.894   2.004 -1.6764  1.6081 -0.8288
 6414SOL     OW19782   3.246   3.309   5.643  0.3449 -0.2866  0.2847
 6414SOL    HW119783   3.328   3.259   5.633  0.5463 -0.1483  1.1472
 6414SOL    HW219784   3.233   3.314   5.737 -1.7742 -2.0936  0.1894
 6415SOL     OW19785   3.902   5.982   1.536  0.1615  0.1055  0.6272
 6415SOL    HW119786   3.868   6.010   1.620  0.2461  2.1097  0.0509
 6415SOL    HW219787   3.832   5.930   1.497 -0.1785 -0.1644  1.5801
 6416SOL     OW19788   0.318   4.254   0.646  1.4880 -0.0491 -0.0287
 6416SOL    HW119789   0.374   4.210   0.583  0.2324 -0.5394 -0.8507
 6416SOL    HW219790   0.278   4.326   0.597  0.4569 -0.4693  0.1687
 6417SOL     OW19791   7.190   6.129   5.777  0.6042 -0.0291  0.5067
 6417SOL    HW119792   7.254   6.200   5.774  0.4872  0.1415  1.7338
 6417SOL    HW219793   7.169   6.113   5.685 -0.0475  2.1474  0.2057
 6418SOL     OW19794   4.896   1.527   3.934 -0.4714 -0.2234  0.0918
 6418SOL    HW119795   4.904   1.597   3.870 -0.5639 -0.6881 -0.4422
 6418SOL    HW219796   4.983   1.487   3.937  0.0030  0.8275  1.4944
 6419SOL     OW19797   3.382   0.836   3.867 -0.2142 -0.4166  0.2641
 6419SOL    HW119798   3.441   0.770   3.830 -0.0028 -0.2345  0.2805
 6419SOL    HW219799   3.434   0.916   3.871 -0.1075 -0.5186  1.3098
 6420SOL     OW19800   7.429   7.522   7.431 -0.4240 -0.3498 -0.1168
 6420SOL    HW119801   7.465   7.436   7.411  0.3108  0.1209 -0.8377
 6420SOL    HW219802   7.464   7.543   7.518  1.4429  0.2860 -0.9804
 6421SOL     OW19803   0.358   4.367   5.471 -0.2625 -0.8333 -0.0643
 6421SOL    HW119804   0.410   4.447   5.459 -0.9803 -0.2503  0.5867
 6421SOL    HW219805   0.383   4.311   5.397  0.0416  0.1080 -0.6987
 6422SOL     OW19806   2.568   0.894   4.282 -0.1023 -0.3522  0.2022
 6422SOL    HW119807   2.613   0.889   4.367  1.5338 -0.9216 -0.6389
 6422SOL    HW219808   2.480   0.923   4.303  0.1757 -0.7483  2.1298
 6423SOL     OW19809   1.781   1.476   6.924 -0.2211 -0.2347  0.1539
 6423SOL    HW119810   1.744   1.462   6.837 -2.0560 -2.5041  1.2019
 6423SOL    HW219811   1.708   1.463   6.984  1.2782 -0.0761  2.1452
 6424SOL     OW19812   1.038   2.556   2.765 -0.0129 -0.6840 -0.3012
 6424SOL    HW119813   1.089   2.594   2.694 -1.9305  2.9730  0.0382
 6424SOL    HW219814   0.956   2.529   2.724 -0.7858  0.6477  0.3155
 6425SOL     OW19815   1.263   1.658   1.056 -0.0968  0.4980 -0.0353
 6425SOL    HW119816   1.179   1.655   1.009  2.0194 -0.1737 -4.2258
 6425SOL    HW219817   1.289   1.566   1.064  0.1216  0.6773  1.6125
 6426SOL     OW19818   1.378   0.630   6.327 -0.2204  0.1782 -0.0623
 6426SOL    HW119819   1.363   0.714   6.284  0.7165 -0.6615 -2.1442
 6426SOL    HW219820   1.440   0.650   6.397 -0.4353  1.3075 -0.1741
 6427SOL     OW19821   1.424   3.437   6.422 -0.6358 -0.0358 -0.2592
 6427SOL    HW119822   1.494   3.375   6.401 -0.8390  0.0593 -1.2549
 6427SOL    HW219823   1.466   3.503   6.477 -0.2531 -0.6827  0.2284
 6428SOL     OW19824   6.941   0.462   3.451 -0.3811 -0.0286  0.2866
 6428SOL    HW119825   6.863   0.513   3.473 -1.0888  0.9507 -3.7374
 6428SOL    HW219826   6.907   0.386   3.405  0.9520 -1.8340  2.1021
 6429SOL     OW19827   3.868   0.268   3.946  0.3278  0.3113 -0.0179
 6429SOL    HW119828   3.952   0.229   3.971 -1.7065 -2.9061  2.6374
 6429SOL    HW219829   3.842   0.219   3.868  1.6407  2.7495 -2.1761
 6430SOL     OW19830   0.568   4.546   1.995 -0.2170 -0.2617  0.0156
 6430SOL    HW119831   0.601   4.552   1.905  0.8639 -2.6481  0.1733
 6430SOL    HW219832   0.633   4.592   2.048 -0.4689  0.5061 -0.3408
 6431SOL     OW19833   6.788   4.737   3.615  0.3845  0.3259  0.0046
 6431SOL    HW119834   6.779   4.757   3.522  1.8853 -0.2328 -0.2819
 6431SOL    HW219835   6.841   4.808   3.650 -0.6986  0.8746  0.5963
 6432SOL     OW19836   0.260   1.439   2.637 -0.2450 -0.2460  0.1389
 6432SOL    HW119837   0.291   1.491   2.712  0.6736 -1.5009  0.6676
 6432SOL    HW219838   0.165   1.452   2.637 -0.1272  0.7424  0.7675
 6433SOL     OW19839   5.612   5.040   5.264 -0.6363  0.3389  0.7228
 6433SOL    HW119840   5.593   5.041   5.170 -0.7348  1.3344  0.7483
 6433SOL    HW219841   5.707   5.031   5.269 -0.4744  1.7803  0.4966
 6434SOL     OW19842   2.859   3.329   3.215 -0.6431 -0.5988  0.7018
 6434SOL    HW119843   2.905   3.306   3.134 -1.6488  0.4521 -0.2080
 6434SOL    HW219844   2.928   3.365   3.272 -0.2183  0.5200 -0.4621
 6435SOL     OW19845   7.141   2.956   6.517  0.4529  0.5401  0.1262
 6435SOL    HW119846   7.096   3.000   6.446  0.3683 -0.6011 -0.5502
 6435SOL    HW219847   7.157   3.025   6.582 -0.4279  1.3682 -0.5157
 6436SOL     OW19848   3.295   6.800   4.814 -0.1776 -0.0778  0.3240
 6436SOL    HW119849   3.274   6.713   4.847 -1.0128 -0.4054 -1.0186
 6436SOL    HW219850   3.241   6.810   4.736  2.8287  0.0401 -1.9133
 6437SOL     OW19851   2.046   6.477   6.449  1.1071  0.0093  0.6391
 6437SOL    HW119852   2.060   6.498   6.542 -1.1432 -0.0831  1.0455
 6437SOL    HW219853   2.060   6.560   6.403 -1.5208  1.0385  1.5310
 6438SOL     OW19854   5.283   5.961   5.889 -0.3627  0.2080 -0.7051
 6438SOL    HW119855   5.252   6.047   5.917 -0.6253 -0.0152 -0.3008
 6438SOL    HW219856   5.329   5.978   5.807  1.6436  1.0937  0.5378
 6439SOL     OW19857   4.977   2.420   7.540  0.5302 -1.1897 -0.8363
 6439SOL    HW119858   5.012   2.437   7.453 -0.8219 -0.2197 -1.2228
 6439SOL    HW219859   4.969   2.507   7.580 -0.7445 -1.4342 -0.5169
 6440SOL     OW19860   6.112   3.423   6.869  0.0145  0.4911 -0.1016
 6440SOL    HW119861   6.088   3.478   6.794 -0.3202 -0.2119 -0.5251
 6440SOL    HW219862   6.205   3.404   6.856  0.0580  0.7113 -0.1155
 6441SOL     OW19863   2.566   1.456   6.983  0.0067 -0.0159 -0.2873
 6441SOL    HW119864   2.514   1.377   6.996  0.5679 -0.0346  2.3332
 6441SOL    HW219865   2.506   1.517   6.940 -1.4979 -0.7744  0.6473
 6442SOL     OW19866   1.030   7.006   3.968  0.1997 -0.6080  0.1091
 6442SOL    HW119867   1.111   7.040   4.005  0.9456 -1.1143 -1.0048
 6442SOL    HW219868   0.990   6.956   4.040  0.1666  0.7685  1.0875
 6443SOL     OW19869   0.199   3.949   6.783 -0.6156  0.1682 -0.1203
 6443SOL    HW119870   0.151   3.880   6.736  1.6816 -1.6170 -0.0263
 6443SOL    HW219871   0.135   4.019   6.793 -3.0065 -1.7824 -0.5635
 6444SOL     OW19872   0.210   5.923   4.672  0.1736  0.7154 -0.7054
 6444SOL    HW119873   0.168   5.949   4.754  0.8029  0.4852 -0.2933
 6444SOL    HW219874   0.160   5.967   4.603 -1.9483 -1.0912 -0.4019
 6445SOL     OW19875   2.228   5.015   7.264 -0.0691 -0.0280  0.4084
 6445SOL    HW119876   2.324   5.013   7.265 -0.0750 -0.6202  1.5404
 6445SOL    HW219877   2.202   4.928   7.236 -0.2902  0.2126 -0.1568
 6446SOL     OW19878   1.159   0.440   7.526 -0.3257  0.0206  0.2156
 6446SOL    HW119879   1.075   0.406   7.495 -0.5303  0.0525  0.7170
 6446SOL    HW219880   1.148   0.535   7.527 -0.0686  0.0573 -0.3103
 6447SOL     OW19881   1.829   4.882   6.608  0.4285 -0.3829 -0.1125
 6447SOL    HW119882   1.753   4.853   6.660  0.9477  0.0295  0.9043
 6447SOL    HW219883   1.898   4.896   6.673  0.7738  1.2538 -0.7936
 6448SOL     OW19884   7.003   0.811   5.054 -0.1837 -0.9778  0.3401
 6448SOL    HW119885   6.920   0.855   5.072  0.3573 -0.3554  1.4280
 6448SOL    HW219886   7.059   0.878   5.017  0.4999 -0.8242  1.5899
 6449SOL     OW19887   2.724   7.416   2.695  0.1653 -0.5119  0.2918
 6449SOL    HW119888   2.644   7.396   2.646 -0.6152  0.5512  1.0922
 6449SOL    HW219889   2.782   7.458   2.631 -1.2850  1.9210  0.4489
 6450SOL     OW19890   3.424   6.030   6.724 -0.7401 -0.0420  0.0478
 6450SOL    HW119891   3.470   6.101   6.680  0.9397 -0.8750  0.4014
 6450SOL    HW219892   3.340   6.023   6.677 -0.1075  0.8616 -1.2555
 6451SOL     OW19893   0.017   0.993   5.584 -0.1932 -0.4749  0.5377
 6451SOL    HW119894  -0.059   1.046   5.607 -0.2804 -0.4549  0.1965
 6451SOL    HW219895   0.082   1.015   5.651 -1.1040 -1.8498  1.9570
 6452SOL     OW19896   4.067   5.632   2.180 -0.1199 -0.5191  0.0671
 6452SOL    HW119897   4.140   5.685   2.213  1.4608 -1.7226 -1.3174
 6452SOL    HW219898   4.000   5.639   2.247  1.0297  1.1458  1.1066
 6453SOL     OW19899   1.040   1.657   0.892 -0.4122 -0.0135  0.0281
 6453SOL    HW119900   0.974   1.640   0.825 -0.6443  0.6808  0.0815
 6453SOL    HW219901   1.090   1.732   0.859 -0.8955  0.7082  0.8928
 6454SOL     OW19902   1.247   5.052   4.319  0.5532 -0.1629  0.3229
 6454SOL    HW119903   1.237   5.122   4.255 -0.9356  0.4439  1.1858
 6454SOL    HW219904   1.176   4.992   4.301  0.0728  0.0464  1.4194
 6455SOL     OW19905   5.932   5.925   6.216 -0.8168  0.3633  0.8190
 6455SOL    HW119906   5.993   5.857   6.189 -1.2167 -0.2277  1.3670
 6455SOL    HW219907   5.983   6.006   6.214 -0.7977  0.3879 -1.6452
 6456SOL     OW19908   0.930   0.814   6.630  0.2515  0.0991  0.1504
 6456SOL    HW119909   0.895   0.761   6.701  0.0472  0.3632  0.2517
 6456SOL    HW219910   1.018   0.779   6.614  0.3829  0.1815  0.6853
 6457SOL     OW19911   1.781   4.291   3.091 -0.5981  0.2042  0.3221
 6457SOL    HW119912   1.709   4.244   3.048 -0.1216 -0.0804 -0.1880
 6457SOL    HW219913   1.746   4.378   3.109 -0.9438  0.2018 -0.3040
 6458SOL     OW19914   1.409   1.913   6.898  0.1607 -0.3465 -0.3357
 6458SOL    HW119915   1.329   1.945   6.855  0.6033  0.9144 -0.2652
 6458SOL    HW219916   1.430   1.981   6.962  1.0543 -0.8754 -0.0565
 6459SOL     OW19917   3.383   4.678   2.218  0.2994 -0.0563  0.2001
 6459SOL    HW119918   3.317   4.621   2.178 -0.5536  0.7289  0.4660
 6459SOL    HW219919   3.342   4.710   2.298  1.2538 -0.0559  0.7031
 6460SOL     OW19920   0.012   7.332   1.100 -0.5573 -0.2586 -0.0665
 6460SOL    HW119921   0.067   7.373   1.033 -0.7576  1.4403  0.7474
 6460SOL    HW219922   0.073   7.309   1.170 -0.4620 -1.2966 -0.4748
 6461SOL     OW19923   6.365   4.496   1.252  0.1898 -0.2267  0.7115
 6461SOL    HW119924   6.350   4.441   1.329 -1.8379 -1.6783 -0.6023
 6461SOL    HW219925   6.299   4.566   1.260 -0.5048 -0.7827 -0.0193
 6462SOL     OW19926   4.465   6.457   6.022  0.1661 -0.3145  0.1689
 6462SOL    HW119927   4.545   6.408   6.039 -0.5098 -1.2756  0.6371
 6462SOL    HW219928   4.489   6.548   6.039  1.1446 -0.5933  0.3341
 6463SOL     OW19929   4.986   4.727   0.115  0.2373 -0.0585 -0.3032
 6463SOL    HW119930   4.999   4.701   0.206 -1.8010 -1.0891 -0.2461
 6463SOL    HW219931   4.949   4.650   0.073  1.3428  0.3373 -2.0927
 6464SOL     OW19932   3.815   4.666   1.784 -0.1381 -0.6615  0.0020
 6464SOL    HW119933   3.893   4.644   1.835 -0.1270  1.0985  0.7987
 6464SOL    HW219934   3.843   4.736   1.726 -1.6395  1.8151  2.0560
 6465SOL     OW19935   4.002   6.680   4.933 -0.2171  0.4654  0.6258
 6465SOL    HW119936   4.074   6.726   4.977 -0.3376 -0.0465  1.3723
 6465SOL    HW219937   4.036   6.593   4.915 -0.3324  0.5213  0.1076
 6466SOL     OW19938   3.518   6.057   2.503  0.0490 -0.1832 -0.0693
 6466SOL    HW119939   3.495   6.108   2.425  0.3717  0.4192  0.2179
 6466SOL    HW219940   3.612   6.070   2.513 -0.3341  1.8541  1.8447
 6467SOL     OW19941   7.548   3.553   6.379  0.5642  0.2446 -0.1610
 6467SOL    HW119942   7.573   3.646   6.380  0.4280  0.2775  0.7857
 6467SOL    HW219943   7.519   3.535   6.468  1.6785 -1.0251 -0.0283
 6468SOL     OW19944   1.057   1.138   4.025  0.3123  0.7740 -0.2588
 6468SOL    HW119945   1.077   1.052   3.989 -0.0158  1.1131 -1.2868
 6468SOL    HW219946   1.074   1.129   4.119 -0.0962 -0.5091 -0.2889
 6469SOL     OW19947   7.254   2.915   1.143 -0.1128  0.1173 -0.1338
 6469SOL    HW119948   7.223   2.894   1.231  0.8382  0.2037  0.2276
 6469SOL    HW219949   7.278   2.831   1.105 -1.6241 -0.0618 -0.7563
 6470SOL     OW19950   1.651   5.043   6.920  0.5067 -0.3724  0.2769
 6470SOL    HW119951   1.731   5.013   6.963 -0.7230 -0.6429  2.5331
 6470SOL    HW219952   1.666   5.135   6.903  0.8615 -0.0965  1.8952
 6471SOL     OW19953   6.057   3.021   3.508 -0.2916 -0.3836 -0.0326
 6471SOL    HW119954   6.063   2.984   3.597 -1.0097  0.1378  0.2366
 6471SOL    HW219955   5.983   3.080   3.512 -1.1002 -1.2724 -1.3208
 6472SOL     OW19956   0.558   4.438   5.800  0.2665 -0.3587  0.4211
 6472SOL    HW119957   0.519   4.359   5.837 -0.1295 -0.5425 -0.3585
 6472SOL    HW219958   0.483   4.496   5.784  0.4231 -0.2894 -0.0819
 6473SOL     OW19959   0.742   7.174   2.458 -0.6567  0.2135 -0.7343
 6473SOL    HW119960   0.730   7.081   2.440 -1.5639  0.6471 -2.6244
 6473SOL    HW219961   0.695   7.219   2.387  0.3552  2.1088 -0.2833
 6474SOL     OW19962   7.216   3.692   2.197  0.4447  0.0743  0.8590
 6474SOL    HW119963   7.182   3.725   2.113  0.6342 -0.3140  0.6298
 6474SOL    HW219964   7.304   3.727   2.203  0.2762  0.4700  1.1098
 6475SOL     OW19965   0.980   3.345   6.386 -0.3658  0.4814  0.2979
 6475SOL    HW119966   0.988   3.324   6.292 -1.8164  2.3472 -0.3021
 6475SOL    HW219967   1.053   3.404   6.403  1.0345 -1.3015  0.8870
 6476SOL     OW19968   6.682   6.192   1.243  0.1443  0.0950 -0.2091
 6476SOL    HW119969   6.696   6.235   1.158  1.1407  1.2171  0.5070
 6476SOL    HW219970   6.593   6.215   1.267 -0.6782 -1.4112 -1.5861
 6477SOL     OW19971   2.259   0.369   3.365 -0.6316 -0.3765 -0.0672
 6477SOL    HW119972   2.279   0.440   3.426  1.2464 -1.5176  0.7091
 6477SOL    HW219973   2.245   0.293   3.421  0.8351 -1.3776 -0.9975
 6478SOL     OW19974   1.198   6.586   5.060 -0.4443  0.7240 -0.3168
 6478SOL    HW119975   1.167   6.591   5.151  0.7057 -0.0814  0.1487
 6478SOL    HW219976   1.127   6.624   5.009 -0.8491  1.7932  0.9695
 6479SOL     OW19977   3.577   5.154   5.458 -0.3593 -0.4292  0.3465
 6479SOL    HW119978   3.667   5.178   5.437  0.0175 -1.2651  0.9613
 6479SOL    HW219979   3.525   5.198   5.391  0.6287 -1.1644 -0.9494
 6480SOL     OW19980   7.207   6.227   0.468  0.2977 -0.3166 -0.6139
 6480SOL    HW119981   7.209   6.285   0.544  2.1776  1.3743 -1.8460
 6480SOL    HW219982   7.176   6.143   0.502 -1.5472  1.1071  1.4426
 6481SOL     OW19983   1.864   5.330   5.723  0.2994  0.4590 -0.2984
 6481SOL    HW119984   1.769   5.339   5.732  0.2499  1.0821 -1.2165
 6481SOL    HW219985   1.897   5.329   5.813 -0.5842  0.1090  0.0308
 6482SOL     OW19986   6.157   0.206   6.833  0.4114  0.9599 -0.5544
 6482SOL    HW119987   6.245   0.226   6.802  0.6384 -1.4453 -1.6916
 6482SOL    HW219988   6.099   0.234   6.763  0.6919 -1.5807 -1.9197
 6483SOL     OW19989   7.018   6.472   2.115  0.0951 -0.1085 -0.7363
 6483SOL    HW119990   7.031   6.558   2.074 -0.6033  0.5021  0.2859
 6483SOL    HW219991   7.026   6.410   2.043  1.5417  0.7296 -1.3526
 6484SOL     OW19992   1.252   7.009   1.387 -0.0870  0.3080  0.7336
 6484SOL    HW119993   1.182   6.944   1.395 -1.7905  1.6400 -1.7366
 6484SOL    HW219994   1.257   7.050   1.474 -1.7481 -0.4765  1.2409
 6485SOL     OW19995   6.308   3.661   0.782  0.5661  0.3693  0.0121
 6485SOL    HW119996   6.351   3.684   0.864 -0.3203  1.5029  0.1887
 6485SOL    HW219997   6.283   3.745   0.744 -0.5247 -0.2109 -0.6049
 6486SOL     OW19998   1.109   0.739   0.137  0.5756  0.3445  0.1509
 6486SOL    HW119999   1.119   0.674   0.207 -0.9851 -1.1029 -0.8861
 6486SOL    HW220000   1.184   0.797   0.147  1.3213 -0.8443  1.9365
 6487SOL     OW20001   0.704   5.041   2.837 -0.2372 -0.1237  0.3641
 6487SOL    HW120002   0.705   4.994   2.754 -0.6606 -2.6892  1.7040
 6487SOL    HW220003   0.614   5.032   2.869  0.0196  0.4627  1.2852
 6488SOL     OW20004   0.727   4.291   2.152  0.5034 -0.3962  0.4304
 6488SOL    HW120005   0.748   4.234   2.225  0.3497 -0.3400  0.5173
 6488SOL    HW220006   0.811   4.331   2.128  0.6006 -0.6198  0.4013
 6489SOL     OW20007   4.877   5.626   0.151  0.0333  0.0981 -0.1609
 6489SOL    HW120008   4.908   5.704   0.104  1.9897  0.2775  1.3077
 6489SOL    HW220009   4.817   5.660   0.217 -2.5179 -0.1315 -2.1944
 6490SOL     OW20010   1.305   6.083   5.505 -0.1942 -0.3227  0.6277
 6490SOL    HW120011   1.297   6.171   5.542 -1.2074  0.1118 -0.5736
 6490SOL    HW220012   1.216   6.048   5.507 -0.0051 -0.8573 -0.0095
 6491SOL     OW20013   5.052   3.140   2.100 -0.3862  0.5716  0.5373
 6491SOL    HW120014   5.003   3.069   2.141  0.2452 -0.3981 -0.3627
 6491SOL    HW220015   5.142   3.107   2.094 -0.1732  1.2692 -0.2882
 6492SOL     OW20016   1.923   2.648   5.894  0.4280 -0.3704  0.0224
 6492SOL    HW120017   1.925   2.705   5.971 -0.0220 -0.3438  0.0134
 6492SOL    HW220018   1.951   2.563   5.927 -1.6014 -0.8560  0.6394
 6493SOL     OW20019   1.801   4.780   6.142  0.7929 -0.7207 -0.3562
 6493SOL    HW120020   1.711   4.751   6.156  0.4352  0.7714  0.7288
 6493SOL    HW220021   1.841   4.775   6.229  1.0117  0.9134 -0.3362
 6494SOL     OW20022   6.722   0.944   5.106  0.0103  0.1592  0.4400
 6494SOL    HW120023   6.696   1.035   5.102  0.8559  0.5025  1.8723
 6494SOL    HW220024   6.779   0.938   5.184  1.9453 -1.0608 -0.9605
 6495SOL     OW20025   6.205   4.077   3.842  0.0099 -0.4269  0.1472
 6495SOL    HW120026   6.215   4.125   3.924 -0.5469 -1.5810  0.9134
 6495SOL    HW220027   6.282   4.102   3.790  1.7072 -1.5174  1.9794
 6496SOL     OW20028   0.026   5.325   0.650  0.1548 -0.5047  0.1030
 6496SOL    HW120029  -0.047   5.378   0.684 -0.3013 -0.6471 -0.6420
 6496SOL    HW220030   0.090   5.325   0.722 -0.8149 -0.8522  0.9990
 6497SOL     OW20031   6.382   4.496   7.424 -0.1803 -0.2726  0.2453
 6497SOL    HW120032   6.432   4.576   7.437  1.8417 -1.3045 -0.6222
 6497SOL    HW220033   6.291   4.524   7.424  0.3778  1.7702  1.5258
 6498SOL     OW20034   2.195   4.478   2.772  0.2853  0.1363 -0.2773
 6498SOL    HW120035   2.132   4.545   2.746  1.3298  0.6765 -1.5450
 6498SOL    HW220036   2.220   4.435   2.690  1.5967 -0.0312  0.1871
 6499SOL     OW20037   0.447   2.000   1.335  0.3770  0.2256  0.1284
 6499SOL    HW120038   0.537   2.013   1.305  0.9126 -2.1706  0.4972
 6499SOL    HW220039   0.404   1.952   1.263 -0.4496  0.7986  0.2172
 6500SOL     OW20040   3.612   6.288   3.143  0.5277 -0.1171  0.2703
 6500SOL    HW120041   3.558   6.250   3.212  1.1982 -0.6103  0.5310
 6500SOL    HW220042   3.665   6.214   3.111  0.9148  0.3188 -0.1057
 6501SOL     OW20043   6.828   1.570   0.545  0.1714  0.5546  0.5761
 6501SOL    HW120044   6.877   1.500   0.588 -0.6211 -1.8927 -2.1542
 6501SOL    HW220045   6.759   1.593   0.607  1.1434 -0.2775  2.0187
 6502SOL     OW20046   6.050   0.339   1.407 -0.5542  0.7435 -0.3895
 6502SOL    HW120047   6.088   0.413   1.360  3.2574 -0.8253 -0.1323
 6502SOL    HW220048   6.068   0.263   1.352 -0.5306 -0.5130  1.2793
 6503SOL     OW20049   0.779   6.070   3.975  0.2460  0.3035  0.3473
 6503SOL    HW120050   0.695   6.106   3.946 -1.2857 -2.5893  0.8161
 6503SOL    HW220051   0.831   6.060   3.895 -0.9445 -0.4035 -0.3655
 6504SOL     OW20052   1.896   2.973   4.842  0.0456 -0.2831  0.0305
 6504SOL    HW120053   1.854   2.988   4.927 -0.0460 -0.0850 -0.0501
 6504SOL    HW220054   1.984   2.942   4.865  0.0353 -0.1917  0.1990
 6505SOL     OW20055   2.382   1.913   7.155 -0.3144  0.4199 -0.1473
 6505SOL    HW120056   2.371   2.006   7.172 -1.1418  0.4093 -0.5952
 6505SOL    HW220057   2.295   1.882   7.132 -0.2542 -0.6870  1.0029
 6506SOL     OW20058   3.775   2.677   7.216 -0.3963 -0.3182 -0.1672
 6506SOL    HW120059   3.721   2.692   7.293 -0.8318 -3.4163  0.2474
 6506SOL    HW220060   3.721   2.706   7.143 -0.1156  2.3119  0.5636
 6507SOL     OW20061   6.678   1.806   3.993 -0.2626 -0.0061  0.1310
 6507SOL    HW120062   6.584   1.823   4.006 -0.1328  0.2876  0.7028
 6507SOL    HW220063   6.714   1.800   4.082 -0.0938 -2.1964 -0.0495
 6508SOL     OW20064   6.296   1.059   4.548  0.5051  0.0965 -0.1890
 6508SOL    HW120065   6.226   1.004   4.513  0.5176  1.2804 -2.1984
 6508SOL    HW220066   6.329   1.010   4.623 -1.5207 -1.1587 -0.0255
 6509SOL     OW20067   6.055   7.204   5.576  0.1226  0.1688  0.2160
 6509SOL    HW120068   6.083   7.133   5.634 -0.1957  0.7469  1.0897
 6509SOL    HW220069   5.963   7.218   5.598 -0.9511 -1.6322 -2.5346
 6510SOL     OW20070   3.821   6.015   7.128  0.8858  0.4100  0.0656
 6510SOL    HW120071   3.914   5.997   7.141  0.5964 -0.1221  1.6136
 6510SOL    HW220072   3.786   5.935   7.090  0.5484 -0.5358  2.2291
 6511SOL     OW20073   2.267   1.085   6.473  0.6662  0.0349  0.0306
 6511SOL    HW120074   2.197   1.078   6.408  1.3200 -1.3157 -0.5541
 6511SOL    HW220075   2.327   1.150   6.436  0.2014  0.5166  0.1023
 6512SOL     OW20076   0.480   7.566   5.272 -0.7538 -0.0880  0.3514
 6512SOL    HW120077   0.474   7.499   5.204 -1.8231 -2.4888  2.6244
 6512SOL    HW220078   0.402   7.621   5.259 -0.2248  0.3552 -1.1291
 6513SOL     OW20079   6.101   1.135   7.031 -0.1326 -0.3575 -0.6511
 6513SOL    HW120080   6.153   1.193   6.975 -0.4654  0.4400 -0.1605
 6513SOL    HW220081   6.160   1.063   7.053  1.4343  1.4113  1.3618
 6514SOL     OW20082   3.923   5.286   3.021  0.4155 -0.4590 -0.0389
 6514SOL    HW120083   3.834   5.308   3.048 -0.1098 -0.0102 -1.9913
 6514SOL    HW220084   3.912   5.213   2.960  1.4758 -0.9274  0.3022
 6515SOL     OW20085   3.390   5.243   2.142 -0.7536 -0.3548  0.3353
 6515SOL    HW120086   3.449   5.266   2.070 -0.4746  0.4188  0.7939
 6515SOL    HW220087   3.335   5.320   2.153 -0.1567 -0.0721  1.5678
 6516SOL     OW20088   0.018   6.844   3.661  0.1201 -0.3662 -0.2080
 6516SOL    HW120089   0.104   6.849   3.619  0.8842 -0.1476  1.3146
 6516SOL    HW220090   0.027   6.776   3.727  0.0243  1.4548  1.8230
 6517SOL     OW20091   5.628   0.411   3.929  0.1848 -0.2938  0.2717
 6517SOL    HW120092   5.554   0.351   3.925 -0.5350  0.5949 -0.0182
 6517SOL    HW220093   5.618   0.468   3.853  1.5400 -0.5672 -0.1459
 6518SOL     OW20094   2.692   1.160   0.864  0.2301  0.4640 -0.0580
 6518SOL    HW120095   2.690   1.254   0.881 -0.1706  0.2054  1.5434
 6518SOL    HW220096   2.600   1.134   0.864  0.3851 -0.1703  1.2497
 6519SOL     OW20097   7.587   7.308   2.074  0.1413  0.2706 -0.0249
 6519SOL    HW120098   7.647   7.365   2.025 -0.3788  0.8324 -0.0323
 6519SOL    HW220099   7.621   7.306   2.163 -0.9173  2.2644  0.4955
 6520SOL     OW20100   4.565   3.949   2.489 -0.3294 -0.0704  0.0466
 6520SOL    HW120101   4.621   3.884   2.531 -0.0035  1.3447  1.9188
 6520SOL    HW220102   4.606   3.965   2.404  1.5092  0.1608  0.9371
 6521SOL     OW20103   1.918   2.057   6.421 -0.5262 -0.4869  0.5801
 6521SOL    HW120104   1.979   2.130   6.408 -1.8882  0.5977  0.0953
 6521SOL    HW220105   1.955   1.986   6.369  1.1165 -0.3608  1.4896
 6522SOL     OW20106   6.718   4.693   7.287 -0.2914  0.1760  0.2880
 6522SOL    HW120107   6.701   4.784   7.262 -1.2834 -0.1862 -0.4415
 6522SOL    HW220108   6.733   4.649   7.203  2.9989  0.1544  0.7525
 6523SOL     OW20109   1.140   6.884   6.824  0.1234  0.0114  0.7305
 6523SOL    HW120110   1.072   6.882   6.892 -0.0227  0.7674  0.6218
 6523SOL    HW220111   1.179   6.797   6.826 -0.7826 -0.4040  0.8696
 6524SOL     OW20112   4.454   1.116   3.808 -0.6582 -0.0256  0.2719
 6524SOL    HW120113   4.516   1.058   3.851 -1.6412 -1.3395 -0.0199
 6524SOL    HW220114   4.427   1.178   3.876  0.8688  0.5263  0.4200
 6525SOL     OW20115   1.676   0.642   4.726  0.3532  0.0264 -0.0394
 6525SOL    HW120116   1.709   0.563   4.769  3.0546  0.6462 -0.8458
 6525SOL    HW220117   1.657   0.615   4.636 -0.5004 -0.0926  0.1626
 6526SOL     OW20118   2.976   1.234   7.357  0.4269  0.1527  0.1192
 6526SOL    HW120119   2.946   1.157   7.404 -0.4446  0.8541  0.7456
 6526SOL    HW220120   2.896   1.278   7.330  0.9163  0.3328 -1.0888
 6527SOL     OW20121   0.780   6.950   1.270 -0.3704 -0.0425 -0.1986
 6527SOL    HW120122   0.773   6.881   1.335 -0.1667 -0.0214 -0.1547
 6527SOL    HW220123   0.770   7.031   1.319  1.2735  0.0468  0.0480
 6528SOL     OW20124   1.073   4.813   2.417  0.2859 -0.6175 -0.4693
 6528SOL    HW120125   0.985   4.797   2.452 -0.9453 -0.2637 -3.1795
 6528SOL    HW220126   1.109   4.881   2.474 -1.2107 -0.7261  0.6689
 6529SOL     OW20127   3.404   1.122   2.928 -0.1381 -0.2008  0.0810
 6529SOL    HW120128   3.440   1.174   2.856 -1.0598  1.3400  0.6758
 6529SOL    HW220129   3.469   1.130   2.998  0.4662 -1.1870 -0.3511
 6530SOL     OW20130   4.904   3.106   5.096 -1.0496 -0.2155 -0.0474
 6530SOL    HW120131   4.821   3.151   5.080 -0.2832  1.0502 -0.5971
 6530SOL    HW220132   4.963   3.140   5.030 -0.1043 -1.1887  0.2660
 6531SOL     OW20133   1.009   0.942   5.225 -0.1051  0.1315  0.1859
 6531SOL    HW120134   0.969   0.992   5.297  0.0334 -0.4646  0.6793
 6531SOL    HW220135   1.089   0.906   5.262 -1.6962 -3.0812  0.8641
 6532SOL     OW20136   1.314   5.150   4.580 -0.3823 -0.4814  0.2824
 6532SOL    HW120137   1.272   5.121   4.499  0.3157 -1.6076  0.2996
 6532SOL    HW220138   1.249   5.205   4.624 -1.6101 -1.7101  0.0365
 6533SOL     OW20139   7.232   0.804   4.418 -0.1483  0.0347  0.9095
 6533SOL    HW120140   7.324   0.795   4.394 -0.4550  2.4005 -1.7023
 6533SOL    HW220141   7.189   0.728   4.379  0.1784  1.1467 -1.8617
 6534SOL     OW20142   1.960   3.115   7.065  0.0146  0.1298  0.5344
 6534SOL    HW120143   2.033   3.123   7.003 -0.3361 -0.3237  0.0562
 6534SOL    HW220144   1.940   3.021   7.066 -0.6416  0.2698  0.5762
 6535SOL     OW20145   3.823   2.197   4.342  0.4163 -0.5616  0.2148
 6535SOL    HW120146   3.763   2.146   4.288 -2.5846  2.9932 -0.2208
 6535SOL    HW220147   3.903   2.205   4.289 -1.2461  0.1039 -2.3338
 6536SOL     OW20148   3.775   6.923   7.070 -0.4503 -0.5964 -1.3782
 6536SOL    HW120149   3.780   6.979   6.993  2.6337 -0.2039 -1.0119
 6536SOL    HW220150   3.785   6.982   7.145  1.6686 -1.4226 -0.9373
 6537SOL     OW20151   3.324   2.619   1.220 -0.4444 -0.2929  0.5422
 6537SOL    HW120152   3.351   2.709   1.237 -0.3872 -0.3359  0.6786
 6537SOL    HW220153   3.355   2.601   1.131  0.6800 -0.6105  0.9822
 6538SOL     OW20154   7.168   0.584   1.926  0.1875  0.1710 -0.6565
 6538SOL    HW120155   7.198   0.494   1.934 -0.1971  0.1582  0.8840
 6538SOL    HW220156   7.098   0.580   1.861  1.0517 -0.3972 -1.5821
 6539SOL     OW20157   0.423   6.753   0.796 -0.3391 -0.4670 -0.2904
 6539SOL    HW120158   0.486   6.685   0.774 -0.7382 -0.2354 -2.3620
 6539SOL    HW220159   0.338   6.710   0.790 -0.5814  0.1159 -1.3842
 6540SOL     OW20160   7.480   1.518   4.756  0.0084 -0.0847  0.3004
 6540SOL    HW120161   7.392   1.491   4.782 -0.0581 -1.1879 -0.9696
 6540SOL    HW220162   7.466   1.582   4.686  0.2205  0.0529  0.3820
 6541SOL     OW20163   6.367   5.375   3.772 -0.0766  0.4198  0.6263
 6541SOL    HW120164   6.351   5.352   3.680 -0.4371  1.9133  0.2788
 6541SOL    HW220165   6.446   5.326   3.795  0.2860  0.3558 -0.6357
 6542SOL     OW20166   3.858   6.622   3.358 -0.2714  0.4654  0.0283
 6542SOL    HW120167   3.850   6.715   3.339  0.0538  0.6185  0.6168
 6542SOL    HW220168   3.790   6.604   3.422  1.0413  0.7858  1.5772
 6543SOL     OW20169   3.468   1.904   0.751  0.5796 -0.0335 -0.4789
 6543SOL    HW120170   3.395   1.961   0.725  0.3417  0.0198  0.2788
 6543SOL    HW220171   3.451   1.821   0.705 -2.1799 -1.4193  2.6008
 6544SOL     OW20172   6.939   3.267   2.631 -0.4997 -0.3247  0.3201
 6544SOL    HW120173   7.033   3.251   2.645 -0.4901  1.3550  2.7883
 6544SOL    HW220174   6.936   3.350   2.584 -0.7372  0.5025  1.7557
 6545SOL     OW20175   4.049   0.966   6.597  0.2907  0.0250  0.3279
 6545SOL    HW120176   3.992   1.039   6.575  2.3478  1.5761 -0.1743
 6545SOL    HW220177   4.053   0.967   6.693 -1.7962 -1.2121  0.4933
 6546SOL     OW20178   4.243   2.045   1.105  0.3752  0.2776 -0.2063
 6546SOL    HW120179   4.270   2.006   1.022 -1.1764  0.8831 -1.0368
 6546SOL    HW220180   4.211   1.972   1.157  1.4202 -0.1160 -0.0831
 6547SOL     OW20181   1.346   4.436   1.585 -0.3408 -0.0904 -0.5844
 6547SOL    HW120182   1.422   4.428   1.642 -0.0880 -0.9414 -1.0223
 6547SOL    HW220183   1.272   4.440   1.645  0.0903  1.5885 -0.1260
 6548SOL     OW20184   0.476   7.446   6.175  0.3865 -0.6469  0.0449
 6548SOL    HW120185   0.489   7.458   6.081 -1.5140 -0.2224 -0.2094
 6548SOL    HW220186   0.476   7.351   6.188  0.7837 -0.7029 -0.3513
 6549SOL     OW20187   3.184   3.283   4.720  0.4888  0.1220 -0.2017
 6549SOL    HW120188   3.216   3.371   4.738  1.1250  0.1027 -1.1881
 6549SOL    HW220189   3.145   3.288   4.633  0.3861 -0.5317 -0.2031
 6550SOL     OW20190   6.790   6.451   6.881 -0.2204 -0.1043  0.5536
 6550SOL    HW120191   6.713   6.501   6.855 -1.3820 -2.1521 -0.2010
 6550SOL    HW220192   6.854   6.466   6.811 -1.3499 -1.2971 -0.8058
 6551SOL     OW20193   5.108   6.602   5.402  0.4469  0.1382 -0.4950
 6551SOL    HW120194   5.144   6.549   5.330 -1.0558  0.5604 -1.6067
 6551SOL    HW220195   5.152   6.568   5.480  1.9579 -0.5065 -1.5601
 6552SOL     OW20196   2.380   6.929   7.241 -0.0049  0.0704  0.1116
 6552SOL    HW120197   2.309   6.866   7.230 -0.3393  0.6037 -0.9196
 6552SOL    HW220198   2.459   6.881   7.215  0.4341 -1.2511  3.3793
 6553SOL     OW20199   3.827   2.476   1.067  0.3095 -0.4865  0.3790
 6553SOL    HW120200   3.919   2.502   1.061  0.5430 -1.4402 -0.5953
 6553SOL    HW220201   3.809   2.434   0.982 -0.7389 -1.1986  0.9383
 6554SOL     OW20202   2.744   1.462   5.407  0.3993 -0.3710  0.0186
 6554SOL    HW120203   2.744   1.520   5.331  0.0806 -1.0507 -0.5143
 6554SOL    HW220204   2.733   1.374   5.370  1.4909 -0.8467  0.7548
 6555SOL     OW20205   6.493   1.764   1.616  0.6418 -0.5242  0.5019
 6555SOL    HW120206   6.465   1.855   1.624  1.7185 -0.0967 -0.3887
 6555SOL    HW220207   6.584   1.769   1.585 -0.8549 -1.8021 -5.3398
 6556SOL     OW20208   5.847   1.785   4.373 -0.6753  0.4462 -0.4985
 6556SOL    HW120209   5.896   1.867   4.364 -0.2496  0.2568  0.0437
 6556SOL    HW220210   5.757   1.813   4.391 -1.0512  0.8089 -2.7055
 6557SOL     OW20211   4.195   7.145   3.237 -0.0951  0.7610  0.0806
 6557SOL    HW120212   4.262   7.200   3.277  2.1349 -0.4842 -1.6635
 6557SOL    HW220213   4.209   7.154   3.143 -0.4628 -1.7428 -0.2829
 6558SOL     OW20214   2.847   3.716   0.217 -0.3307  0.5572  0.5333
 6558SOL    HW120215   2.869   3.633   0.259 -0.5541  0.1671 -0.1057
 6558SOL    HW220216   2.827   3.692   0.127  1.9505  1.5977 -0.3334
 6559SOL     OW20217   5.193   4.889   1.176 -0.5619  0.2846  0.2643
 6559SOL    HW120218   5.140   4.959   1.215  1.3375  3.0881 -1.7718
 6559SOL    HW220219   5.192   4.907   1.082  1.0692 -1.6799 -0.2080
 6560SOL     OW20220   1.801   3.219   2.397 -0.0397  0.2666 -0.9866
 6560SOL    HW120221   1.820   3.199   2.306  0.4605  3.0663 -1.6031
 6560SOL    HW220222   1.751   3.301   2.394 -1.1954 -0.2625  1.2153
 6561SOL     OW20223   1.653   1.257   0.055 -0.1344 -0.0040 -0.5033
 6561SOL    HW120224   1.597   1.180   0.063  0.7996 -0.5395  1.9520
 6561SOL    HW220225   1.597   1.330   0.082 -0.9223  0.1730 -2.5093
 6562SOL     OW20226   5.478   6.213   4.064 -0.4427 -0.6679 -0.1770
 6562SOL    HW120227   5.563   6.207   4.022 -0.4886 -1.1018 -0.2149
 6562SOL    HW220228   5.455   6.122   4.085 -1.2662 -0.6516 -0.9148
 6563SOL     OW20229   3.517   4.229   4.698  0.1392  0.1394  0.2863
 6563SOL    HW120230   3.457   4.277   4.641 -0.3189  0.6873  1.2095
 6563SOL    HW220231   3.513   4.139   4.666  1.2666  0.7110 -1.7046
 6564SOL     OW20232   0.844   5.956   0.179 -0.4228  0.1880 -0.0492
 6564SOL    HW120233   0.910   6.018   0.209  1.4261 -1.8814  0.3993
 6564SOL    HW220234   0.762   5.988   0.218  0.6379  1.6790  1.0789
 6565SOL     OW20235   3.337   7.095   6.554  0.2745  0.3646  0.5213
 6565SOL    HW120236   3.277   7.155   6.509 -1.6401  0.2102  2.6924
 6565SOL    HW220237   3.335   7.015   6.501  2.9901  2.0404 -2.5186
 6566SOL     OW20238   4.750   3.656   1.579 -0.1940  0.2961 -0.0494
 6566SOL    HW120239   4.792   3.737   1.608  0.3659  0.0957 -0.2869
 6566SOL    HW220240   4.747   3.600   1.656 -1.9710  1.0940  0.5159
 6567SOL     OW20241   0.713   4.623   3.012  0.1925  0.6319 -0.0544
 6567SOL    HW120242   0.655   4.649   2.940  0.0021 -1.1583 -0.5870
 6567SOL    HW220243   0.716   4.700   3.069  1.0874  2.4973 -2.4123
 6568SOL     OW20244   5.717   2.944   3.084 -0.1094  0.4917  0.1636
 6568SOL    HW120245   5.795   2.966   3.033  0.7385  0.2443  1.2899
 6568SOL    HW220246   5.731   2.854   3.112 -1.8510 -0.3289 -1.4022
 6569SOL     OW20247   3.793   7.400   5.235 -0.2407 -0.0332 -0.3051
 6569SOL    HW120248   3.871   7.429   5.189 -0.5302  0.0704 -0.7368
 6569SOL    HW220249   3.777   7.311   5.203 -0.2835 -0.0661 -0.1953
 6570SOL     OW20250   2.773   2.942   5.934  0.4045  0.2381 -0.3078
 6570SOL    HW120251   2.810   2.854   5.921  0.1126  0.1179 -0.3299
 6570SOL    HW220252   2.847   3.001   5.923  0.7817 -0.0556  0.5233
 6571SOL     OW20253   2.547   2.271   5.611 -0.3978  0.0129 -0.1863
 6571SOL    HW120254   2.494   2.223   5.675  0.1253  1.2048  1.1979
 6571SOL    HW220255   2.517   2.362   5.619 -0.3232  0.1897 -1.6671
 6572SOL     OW20256   1.278   7.250   1.926  0.0362 -0.9939  0.0722
 6572SOL    HW120257   1.289   7.344   1.914 -0.1155 -0.2187  4.3878
 6572SOL    HW220258   1.367   7.215   1.923  0.3475 -0.2943  0.7225
 6573SOL     OW20259   3.173   4.443   1.240 -0.0168  0.4306 -0.0479
 6573SOL    HW120260   3.245   4.396   1.196 -0.2792  0.3776 -0.4253
 6573SOL    HW220261   3.206   4.532   1.251 -0.0804  0.5398 -0.6817
 6574SOL     OW20262   4.495   4.250   0.540  0.5159 -0.6213  0.1485
 6574SOL    HW120263   4.463   4.338   0.520 -0.3287 -0.8402  0.4595
 6574SOL    HW220264   4.552   4.262   0.616  1.1569 -0.2231 -0.3878
 6575SOL     OW20265   5.217   1.505   1.840  0.0865  0.3331 -0.5261
 6575SOL    HW120266   5.229   1.423   1.889  0.6889  0.0179 -1.1830
 6575SOL    HW220267   5.154   1.554   1.891  1.7422  0.6295  1.3567
 6576SOL     OW20268   5.126   3.194   1.517  0.2770  0.0370  0.3523
 6576SOL    HW120269   5.072   3.270   1.542  0.9922  0.4964  0.5200
 6576SOL    HW220270   5.183   3.180   1.592  0.0060 -0.8151  0.4122
 6577SOL     OW20271   2.050   0.412   0.088  0.6118 -0.3942  0.0498
 6577SOL    HW120272   2.079   0.338   0.036 -1.1346 -1.1030  0.0148
 6577SOL    HW220273   1.974   0.446   0.042  0.1433  0.1267  1.1532
 6578SOL     OW20274   5.936   1.731   2.111 -0.2191 -0.2633 -0.1677
 6578SOL    HW120275   6.015   1.727   2.056 -1.0488 -0.2770 -1.4188
 6578SOL    HW220276   5.864   1.726   2.048 -1.2211  0.0206  0.9307
 6579SOL     OW20277   6.840   2.681   4.860 -0.0314 -0.1416 -0.0137
 6579SOL    HW120278   6.793   2.600   4.879 -1.4416  0.7636  0.4605
 6579SOL    HW220279   6.829   2.734   4.938  0.4406  0.7153 -0.5201
 6580SOL     OW20280   4.846   4.669   1.883  0.7868  0.3563 -0.0120
 6580SOL    HW120281   4.818   4.689   1.972  1.9382 -0.9575  0.6860
 6580SOL    HW220282   4.806   4.737   1.829 -2.3297 -0.4273  1.1000
 6581SOL     OW20283   1.689   3.468   5.389  0.6805  0.4992  0.2361
 6581SOL    HW120284   1.634   3.398   5.354  2.3031 -0.4640 -0.5371
 6581SOL    HW220285   1.629   3.540   5.406 -1.0032 -0.9304  0.6974
 6582SOL     OW20286   2.513   2.987   3.243 -0.0574 -0.0565  0.1252
 6582SOL    HW120287   2.530   2.895   3.224 -1.2619 -0.2152 -0.2552
 6582SOL    HW220288   2.432   2.987   3.295  0.6315  0.7026  1.2532
 6583SOL     OW20289   4.444   5.941   7.148 -0.0138  0.1229  0.1080
 6583SOL    HW120290   4.414   5.866   7.199 -4.1328  0.7133 -1.0715
 6583SOL    HW220291   4.449   5.908   7.058 -0.8917  0.9803 -0.2746
 6584SOL     OW20292   5.718   5.841   6.055  0.1596  0.2473  0.3907
 6584SOL    HW120293   5.781   5.899   6.098  1.9025  0.3437 -2.0391
 6584SOL    HW220294   5.757   5.754   6.062 -0.3499  0.0260  0.4461
 6585SOL     OW20295   4.116   6.580   3.975  0.2121  0.1800 -0.8354
 6585SOL    HW120296   4.097   6.486   3.971  1.1440 -0.1243  0.8558
 6585SOL    HW220297   4.198   6.590   3.926  1.0094 -0.1996  0.3728
 6586SOL     OW20298   5.065   0.834   6.418 -0.4442  0.3538  0.3818
 6586SOL    HW120299   5.031   0.838   6.329 -0.3093 -0.3267  0.2898
 6586SOL    HW220300   4.988   0.837   6.474 -0.6092 -0.2874  0.2029
 6587SOL     OW20301   0.407   1.206   3.402 -0.3893  0.0731  0.2729
 6587SOL    HW120302   0.456   1.124   3.405 -1.5195 -0.6452 -0.1845
 6587SOL    HW220303   0.380   1.222   3.493  1.3768  0.9355  0.6832
 6588SOL     OW20304   2.482   6.835   2.557 -0.4173 -0.2595 -0.1241
 6588SOL    HW120305   2.510   6.919   2.595 -0.0817  0.1860 -1.3230
 6588SOL    HW220306   2.488   6.773   2.630  1.9526  0.1918  0.1458
 6589SOL     OW20307   3.010   5.010   1.235  0.2479  0.1088  0.1703
 6589SOL    HW120308   2.946   4.947   1.268  0.1248  0.1320 -0.0233
 6589SOL    HW220309   2.958   5.087   1.210  0.3328  0.0678 -0.1373
 6590SOL     OW20310   1.204   0.073   1.416  0.1729  0.4973 -0.3628
 6590SOL    HW120311   1.193   0.019   1.494 -0.0122 -0.7542 -1.2232
 6590SOL    HW220312   1.294   0.058   1.389  0.8194  2.3546  0.6036
 6591SOL     OW20313   1.611   3.975   3.301 -0.3911  0.0821 -0.1391
 6591SOL    HW120314   1.564   4.057   3.306 -1.6948 -0.6246 -0.4380
 6591SOL    HW220315   1.698   3.999   3.269 -0.3235  1.4808  1.0030
 6592SOL     OW20316   2.323   2.622   7.477  0.3411  0.7867 -0.1665
 6592SOL    HW120317   2.394   2.682   7.499  0.2861  0.6184  0.5124
 6592SOL    HW220318   2.309   2.634   7.383  2.1194 -0.1232 -0.5719
 6593SOL     OW20319   6.488   1.215   2.533 -0.5255  0.0547 -0.8123
 6593SOL    HW120320   6.413   1.206   2.474 -0.7797  1.7033 -0.7848
 6593SOL    HW220321   6.555   1.258   2.481 -0.2212  0.1873 -0.3180
 6594SOL     OW20322   0.391   2.572   0.045 -0.6673 -0.0926  0.3285
 6594SOL    HW120323   0.358   2.551  -0.043 -2.0039 -0.1139  0.8058
 6594SOL    HW220324   0.389   2.488   0.091  1.9132 -0.4945 -0.1479
 6595SOL     OW20325   7.531   3.043   2.086  0.2436 -0.3983 -0.7451
 6595SOL    HW120326   7.510   3.117   2.028  0.3752  0.0943 -0.1735
 6595SOL    HW220327   7.473   3.054   2.161  1.8885  0.5179  0.4810
 6596SOL     OW20328   5.136   7.619   2.268  0.6746  0.2511  0.1589
 6596SOL    HW120329   5.229   7.593   2.272  0.4128 -0.5946  1.1047
 6596SOL    HW220330   5.118   7.626   2.175  1.6366  0.2052 -0.0489
 6597SOL     OW20331   6.671   5.158   5.684 -0.4656 -0.1618 -0.4619
 6597SOL    HW120332   6.642   5.113   5.605  0.8238  0.1421 -1.1342
 6597SOL    HW220333   6.647   5.098   5.756 -2.1281 -0.2002 -1.0031
 6598SOL     OW20334   3.226   0.810   5.684  0.7279  0.2124 -0.1846
 6598SOL    HW120335   3.183   0.840   5.605  3.1061  2.7020 -0.7011
 6598SOL    HW220336   3.294   0.751   5.653 -0.1033 -1.0193  0.2967
 6599SOL     OW20337   5.315   3.899   1.636  0.3620 -0.6692  0.4829
 6599SOL    HW120338   5.376   3.954   1.586 -1.4150  0.5575 -0.4875
 6599SOL    HW220339   5.294   3.951   1.714  1.3891 -1.5847  1.3925
 6600SOL     OW20340   4.947   2.692   7.594  0.3403  0.0311  0.5010
 6600SOL    HW120341   4.863   2.730   7.622 -1.1969 -1.2734 -1.9387
 6600SOL    HW220342   4.998   2.766   7.562 -0.5903  0.6513  0.4182
 6601SOL     OW20343   2.205   3.489   4.745  0.0850  0.2092 -0.0349
 6601SOL    HW120344   2.167   3.472   4.658 -1.4456 -0.2891  0.7029
 6601SOL    HW220345   2.166   3.423   4.801  2.2849 -0.5214  0.7596
 6602SOL     OW20346   5.629   5.290   0.220 -0.5128  0.2345 -0.5242
 6602SOL    HW120347   5.688   5.344   0.272  0.6037 -1.0320 -0.4301
 6602SOL    HW220348   5.554   5.274   0.277  0.4420 -0.6678  0.5148
 6603SOL     OW20349   7.342   1.264   0.723  0.2390  0.6234  0.6913
 6603SOL    HW120350   7.399   1.330   0.764 -0.4544  0.1482  2.5297
 6603SOL    HW220351   7.289   1.230   0.795 -1.6507  0.2988 -0.7876
 6604SOL     OW20352   2.700   0.288   6.704 -0.0463  0.1370 -0.0105
 6604SOL    HW120353   2.753   0.311   6.780  0.3761 -0.3505 -0.1544
 6604SOL    HW220354   2.731   0.202   6.678 -1.8870 -0.8065  0.7527
 6605SOL     OW20355   3.900   0.880   5.361  0.4503 -0.5268 -0.1496
 6605SOL    HW120356   3.966   0.815   5.385 -0.9127 -1.6941  0.5956
 6605SOL    HW220357   3.887   0.867   5.267  0.9833 -0.5602 -0.2225
 6606SOL     OW20358   1.737   1.564   2.993  0.0895 -0.1412 -0.3787
 6606SOL    HW120359   1.707   1.557   3.084 -0.3365  1.8034 -0.3172
 6606SOL    HW220360   1.812   1.504   2.988  1.1919  0.9206  1.7583
 6607SOL     OW20361   5.808   2.392   5.809 -0.2892  0.1421 -0.6021
 6607SOL    HW120362   5.768   2.470   5.770  2.5452  1.1373 -1.7805
 6607SOL    HW220363   5.825   2.335   5.734 -0.2968 -0.6568 -0.0080
 6608SOL     OW20364   1.650   3.653   7.022 -0.6514 -0.0773 -0.3739
 6608SOL    HW120365   1.710   3.655   6.948  0.8922  0.0949  0.8383
 6608SOL    HW220366   1.698   3.696   7.093 -1.2607 -2.0347  1.3100
 6609SOL     OW20367   1.890   0.827   3.146  0.3853  0.0927  0.0567
 6609SOL    HW120368   1.906   0.807   3.239  2.2540 -0.4324 -0.3399
 6609SOL    HW220369   1.949   0.901   3.127  1.3208 -0.9116 -1.1115
 6610SOL     OW20370   4.107   1.899   6.459  0.4419  0.1519  0.1198
 6610SOL    HW120371   4.169   1.850   6.512 -1.1071  0.6298  2.5243
 6610SOL    HW220372   4.138   1.990   6.464 -0.5646  0.4482  1.6234
 6611SOL     OW20373   6.705   2.639   0.862  0.3853  0.1709 -0.3141
 6611SOL    HW120374   6.637   2.583   0.826  0.0707  0.6026 -0.3998
 6611SOL    HW220375   6.724   2.702   0.793  0.9494 -0.0100 -0.3302
 6612SOL     OW20376   1.366   6.298   6.511 -0.6686  0.0385 -0.1863
 6612SOL    HW120377   1.415   6.378   6.530 -1.0700  0.5456 -1.1615
 6612SOL    HW220378   1.308   6.286   6.586 -0.2395  0.3699  0.2015
 6613SOL     OW20379   0.109   4.376   6.965 -0.9230 -0.6490  0.2026
 6613SOL    HW120380   0.104   4.348   7.056 -0.7575 -1.2686  0.0255
 6613SOL    HW220381   0.160   4.457   6.967 -1.1679 -0.5063  0.6930
 6614SOL     OW20382   6.639   7.204   3.104  0.0142 -0.3785 -0.0076
 6614SOL    HW120383   6.696   7.173   3.033  0.0468 -1.8658  0.6205
 6614SOL    HW220384   6.563   7.145   3.101 -0.4810  0.2146  0.5308
 6615SOL     OW20385   6.059   0.564   7.450  0.3730 -0.0196  0.0507
 6615SOL    HW120386   6.048   0.626   7.522  0.4718 -0.1054  0.1408
 6615SOL    HW220387   6.135   0.597   7.401  2.1708 -1.5421  1.6560
 6616SOL     OW20388   0.078   5.836   6.207  0.4981  0.4036  0.1668
 6616SOL    HW120389   0.009   5.842   6.272 -0.0999 -1.2134 -0.2875
 6616SOL    HW220390   0.158   5.857   6.255  0.0339 -0.4318  1.3498
 6617SOL     OW20391   0.152   6.519   0.000 -0.2449  0.1334 -0.1292
 6617SOL    HW120392   0.198   6.495   0.081 -0.3104  1.0439  0.1892
 6617SOL    HW220393   0.115   6.605   0.018 -1.3235 -0.1933 -0.6985
 6618SOL     OW20394   1.587   2.594   5.450 -0.2326  0.4067 -0.7232
 6618SOL    HW120395   1.561   2.682   5.478  2.2855  1.3518 -1.0326
 6618SOL    HW220396   1.582   2.541   5.530 -0.4451  1.1902 -0.2077
 6619SOL     OW20397   4.879   2.911   2.111  0.0788  0.3410  0.1169
 6619SOL    HW120398   4.835   2.946   2.188 -0.0495  0.4460 -0.0022
 6619SOL    HW220399   4.807   2.879   2.055  0.2694 -2.4584  1.3245
 6620SOL     OW20400   1.542   4.305   6.149  0.0533 -0.4446  0.2628
 6620SOL    HW120401   1.511   4.250   6.221 -2.3314 -0.4383 -0.6435
 6620SOL    HW220402   1.533   4.395   6.181 -1.8741 -0.3973 -0.2566
 6621SOL     OW20403   6.214   0.143   2.307  0.1127  0.2709  0.2375
 6621SOL    HW120404   6.128   0.182   2.321 -1.0652 -1.3380 -1.8624
 6621SOL    HW220405   6.258   0.202   2.246 -0.4154 -0.0453 -0.4592
 6622SOL     OW20406   3.905   7.296   4.619 -0.1434 -0.0091  0.1566
 6622SOL    HW120407   3.945   7.326   4.701  1.2777  0.9930 -0.8607
 6622SOL    HW220408   3.929   7.203   4.614  0.2652  0.0649  0.5990
 6623SOL     OW20409   3.655   5.483   5.064 -0.1419  0.5743  0.5539
 6623SOL    HW120410   3.725   5.502   5.126 -0.7428  0.0121  1.4123
 6623SOL    HW220411   3.685   5.523   4.982  1.0100  0.6595  0.9968
 6624SOL     OW20412   3.281   2.021   6.572  0.1235  0.4712  0.4460
 6624SOL    HW120413   3.211   2.070   6.531 -2.2003 -0.8781  2.5083
 6624SOL    HW220414   3.277   2.045   6.665  0.6224 -1.5765  1.0628
 6625SOL     OW20415   5.932   0.281   1.876 -0.3534 -0.1310  0.5912
 6625SOL    HW120416   5.952   0.337   1.801  1.3020  0.7047  1.6084
 6625SOL    HW220417   5.855   0.320   1.916  0.9481  1.6636  1.4620
 6626SOL     OW20418   0.931   6.462   6.682 -0.3119 -0.1920  0.0927
 6626SOL    HW120419   0.923   6.466   6.777  0.6009 -0.4518  0.1859
 6626SOL    HW220420   0.946   6.552   6.655  0.2137 -0.2184  0.2787
 6627SOL     OW20421   7.451   6.706   4.195  0.3647  0.2621 -0.4025
 6627SOL    HW120422   7.406   6.789   4.210  2.6767  1.1948  2.4655
 6627SOL    HW220423   7.500   6.719   4.114 -0.8531  0.8880 -1.0691
 6628SOL     OW20424   4.054   0.213   5.220 -0.1380  0.0718  0.2307
 6628SOL    HW120425   3.989   0.284   5.217  0.8815  1.0348  0.3610
 6628SOL    HW220426   4.025   0.156   5.291 -0.5907  0.7376  0.5816
 6629SOL     OW20427   2.096   6.035   6.156  0.1803 -0.6528 -0.1429
 6629SOL    HW120428   2.026   6.100   6.162  1.5153  0.9167 -0.7030
 6629SOL    HW220429   2.067   5.976   6.087 -2.0182 -1.9714  1.7649
 6630SOL     OW20430   3.538   2.131   1.393  0.3633 -0.0118 -0.9337
 6630SOL    HW120431   3.464   2.191   1.382 -0.3148 -0.6477  0.0141
 6630SOL    HW220432   3.596   2.175   1.455  1.6838  1.2724 -2.9576
 6631SOL     OW20433   5.711   0.889   0.315 -0.1365 -0.2093  0.0506
 6631SOL    HW120434   5.776   0.958   0.323 -2.3211  1.9226  0.8129
 6631SOL    HW220435   5.758   0.808   0.336  2.8231  0.7955 -2.0829
 6632SOL     OW20436   6.801   6.361   3.029  0.2089  0.1057  0.4882
 6632SOL    HW120437   6.865   6.371   2.959  0.6030  1.4813  1.0142
 6632SOL    HW220438   6.728   6.314   2.988  1.2105 -0.7878 -0.3236
 6633SOL     OW20439   4.490   2.386   0.581 -0.3462 -0.3381  0.0719
 6633SOL    HW120440   4.501   2.329   0.657  0.0583 -0.6969 -0.2488
 6633SOL    HW220441   4.396   2.398   0.574 -0.5330 -1.9183 -0.5287
 6634SOL     OW20442   4.012   1.817   3.368 -0.1515  0.2423 -0.0921
 6634SOL    HW120443   3.975   1.883   3.310  0.1369 -0.0689 -0.6301
 6634SOL    HW220444   3.939   1.757   3.386  0.1671 -0.6086 -1.4869
 6635SOL     OW20445   1.764   4.695   1.624 -0.2926  0.7262 -0.0266
 6635SOL    HW120446   1.832   4.724   1.685  0.9562 -1.0959 -0.4389
 6635SOL    HW220447   1.709   4.635   1.675 -1.0043  1.4234  0.0416
 6636SOL     OW20448   3.976   5.405   7.092 -0.1195  0.2025  0.3665
 6636SOL    HW120449   4.000   5.482   7.144 -0.4109  1.7929 -1.6853
 6636SOL    HW220450   3.949   5.442   7.007 -2.2098 -2.0207 -0.0524
 6637SOL     OW20451   6.555   2.603   4.143 -0.4396  0.0632 -0.1753
 6637SOL    HW120452   6.571   2.627   4.234  0.9701 -2.7405  0.4294
 6637SOL    HW220453   6.515   2.516   4.148 -0.0466 -0.2927 -2.2230
 6638SOL     OW20454   6.531   0.139   2.298  0.6673  0.5044  0.3033
 6638SOL    HW120455   6.513   0.101   2.212  0.8802 -0.5696  0.7176
 6638SOL    HW220456   6.564   0.066   2.350  0.7688  1.1938  1.2309
 6639SOL     OW20457   1.244   5.054   7.612 -0.1186  0.1496 -0.1637
 6639SOL    HW120458   1.317   4.994   7.590  0.6554  1.1126 -0.2780
 6639SOL    HW220459   1.169   5.017   7.566  0.2971 -0.8586 -0.0620
 6640SOL     OW20460   2.034   3.856   2.316  0.1351  0.2789  0.3485
 6640SOL    HW120461   2.024   3.911   2.238  0.8831 -0.9775 -0.6895
 6640SOL    HW220462   1.961   3.794   2.311  0.2234  0.1508  0.6205
 6641SOL     OW20463   2.505   1.006   0.523 -0.2058  0.0739  0.3714
 6641SOL    HW120464   2.521   1.100   0.512 -1.3345  0.3004  0.5255
 6641SOL    HW220465   2.591   0.969   0.540  0.4054  0.9142 -0.7897
 6642SOL     OW20466   3.903   1.474   4.454 -0.1234  0.3136 -0.1542
 6642SOL    HW120467   3.915   1.517   4.538  0.1865 -1.0425  0.5195
 6642SOL    HW220468   3.991   1.463   4.419 -0.1579 -0.2169 -0.0826
 6643SOL     OW20469   5.526   1.081   3.590 -0.4150  0.0656  0.6278
 6643SOL    HW120470   5.505   1.135   3.666 -0.4321  0.3011  0.4577
 6643SOL    HW220471   5.591   1.131   3.542 -1.2277  0.4515 -0.1088
 6644SOL     OW20472   5.675   0.112   3.870  0.5045 -0.2846 -0.3718
 6644SOL    HW120473   5.641   0.048   3.807  0.8420 -1.6542  0.7815
 6644SOL    HW220474   5.598   0.143   3.917  0.5052 -1.0415  0.1339
 6645SOL     OW20475   5.111   5.457   2.823 -0.4610  0.0128  0.4213
 6645SOL    HW120476   5.101   5.436   2.730 -3.3127 -0.6451  0.7856
 6645SOL    HW220477   5.083   5.548   2.831  0.6294  0.3484  0.5310
 6646SOL     OW20478   0.665   5.834   7.046 -0.0438  0.2227  0.1241
 6646SOL    HW120479   0.738   5.802   7.099  0.0937  0.2369 -0.0528
 6646SOL    HW220480   0.618   5.754   7.021 -0.7033  0.2915  1.1091
 6647SOL     OW20481   4.893   4.371   6.070 -0.1427 -0.0586 -0.0073
 6647SOL    HW120482   4.942   4.294   6.099 -0.2654 -0.4931 -0.9017
 6647SOL    HW220483   4.928   4.443   6.122  4.0420  0.3663 -2.9702
 6648SOL     OW20484   2.371   1.691   2.715  0.4318  0.0274 -0.8355
 6648SOL    HW120485   2.374   1.603   2.677  1.1957  0.1262 -1.0141
 6648SOL    HW220486   2.446   1.737   2.677 -0.1619  0.8720 -1.0181
 6649SOL     OW20487   0.149   4.103   2.868 -0.2819 -0.0703 -0.0495
 6649SOL    HW120488   0.153   4.194   2.838 -0.8464  0.0586  0.2610
 6649SOL    HW220489   0.229   4.064   2.833  0.2244  0.6769  0.2401
 6650SOL     OW20490   3.870   2.870   0.602 -0.4727 -0.0588  0.6643
 6650SOL    HW120491   3.846   2.816   0.526 -0.8088  2.5436 -1.2032
 6650SOL    HW220492   3.819   2.950   0.592  0.6834  1.0388  2.8139
 6651SOL     OW20493   3.440   1.940   7.478  0.0511  0.4680 -0.1098
 6651SOL    HW120494   3.387   1.973   7.551  1.1337 -0.4279  1.1390
 6651SOL    HW220495   3.521   1.992   7.482 -0.6695  1.8423 -2.0084
 6652SOL     OW20496   4.168   6.249   4.662 -0.3431 -0.1993  0.4889
 6652SOL    HW120497   4.238   6.194   4.628  0.6191  0.7008  0.9512
 6652SOL    HW220498   4.087   6.204   4.636  0.3634 -0.4526 -1.4488
 6653SOL     OW20499   5.779   5.439   5.147  0.2173 -0.1786  0.5770
 6653SOL    HW120500   5.720   5.463   5.076 -1.2268  0.6748  2.0105
 6653SOL    HW220501   5.849   5.504   5.145  1.0299 -1.0370 -0.9557
 6654SOL     OW20502   1.918   1.055   7.235  0.2516 -0.4874  0.3248
 6654SOL    HW120503   1.910   1.090   7.323  0.8967  0.0460  0.1776
 6654SOL    HW220504   1.832   1.018   7.216 -0.6403  1.4676  0.2897
 6655SOL     OW20505   6.898   6.963   0.137 -0.5276  0.5756 -0.8421
 6655SOL    HW120506   6.973   7.015   0.167  0.1991 -1.1637  0.5089
 6655SOL    HW220507   6.846   7.025   0.085  2.0626  1.7208 -2.2720
 6656SOL     OW20508   3.002   6.560   3.051  0.3121  0.3267  0.2722
 6656SOL    HW120509   3.066   6.498   3.016  0.3668 -0.2418  1.3418
 6656SOL    HW220510   2.925   6.507   3.071 -0.0225  0.7867  0.2314
 6657SOL     OW20511   6.926   3.076   1.628  0.8679 -0.0230  0.0033
 6657SOL    HW120512   6.931   3.092   1.534 -0.1413  1.0360  0.1021
 6657SOL    HW220513   6.835   3.098   1.651  1.4968  1.2349  1.4767
 6658SOL     OW20514   7.232   3.097   7.443 -0.2576  0.1642  0.3531
 6658SOL    HW120515   7.311   3.146   7.465 -0.1652 -0.0683  0.5353
 6658SOL    HW220516   7.243   3.013   7.486 -1.2799  0.6609  1.6558
 6659SOL     OW20517   1.260   6.851   4.548 -0.3824 -0.2012 -0.0450
 6659SOL    HW120518   1.172   6.824   4.576 -0.8833 -0.5844 -1.8120
 6659SOL    HW220519   1.251   6.944   4.528 -0.4188 -0.2667 -0.3360
 6660SOL     OW20520   6.390   5.333   7.285 -0.0420  0.0863 -0.0649
 6660SOL    HW120521   6.467   5.375   7.321 -0.2729  0.0305  0.5150
 6660SOL    HW220522   6.413   5.240   7.281  0.0267  0.1079 -0.1775
 6661SOL     OW20523   3.757   1.856   4.670 -0.2266 -0.2433  0.3304
 6661SOL    HW120524   3.834   1.829   4.620  0.8189  1.0248  1.1889
 6661SOL    HW220525   3.695   1.885   4.604  0.1869 -0.8847 -0.3550
 6662SOL     OW20526   7.032   2.118   3.634 -0.5269  1.2843 -0.1675
 6662SOL    HW120527   7.096   2.099   3.566 -0.3173 -1.1486  0.6342
 6662SOL    HW220528   6.954   2.068   3.609 -0.4726  0.4113  1.3005
 6663SOL     OW20529   7.069   5.087   2.336 -0.7697  0.4704 -0.2505
 6663SOL    HW120530   7.063   5.178   2.366  0.3935  0.9149 -1.2583
 6663SOL    HW220531   7.163   5.066   2.343 -1.0690 -0.7852  0.2912
 6664SOL     OW20532   1.478   1.569   6.778 -0.0857  0.2644  0.5327
 6664SOL    HW120533   1.511   1.497   6.724 -0.2337 -0.5018  1.4322
 6664SOL    HW220534   1.481   1.645   6.721  0.5600 -0.3548 -0.2877
 6665SOL     OW20535   1.373   1.622   7.243 -0.0008  0.8812 -0.4443
 6665SOL    HW120536   1.357   1.538   7.286  1.4580  1.0389  0.4859
 6665SOL    HW220537   1.331   1.614   7.158 -0.7320 -0.4242  0.0163
 6666SOL     OW20538   2.220   2.990   1.502  0.0655 -0.0376  0.0710
 6666SOL    HW120539   2.280   2.915   1.514  0.9989  0.5175 -0.9148
 6666SOL    HW220540   2.171   2.995   1.584  0.9656 -0.8825  0.6863
 6667SOL     OW20541   4.207   4.111   6.140 -0.0074  0.0817  0.4361
 6667SOL    HW120542   4.136   4.112   6.204  0.1979  0.6960  0.6582
 6667SOL    HW220543   4.200   4.195   6.095  1.3653  0.7072  1.3292
 6668SOL     OW20544   5.273   2.077   0.290  0.0894 -0.0122 -0.5983
 6668SOL    HW120545   5.280   2.172   0.277 -0.2585  0.1514  0.3354
 6668SOL    HW220546   5.186   2.065   0.329  0.1783 -0.7087 -0.6141
 6669SOL     OW20547   1.438   5.757   2.288 -0.5298  0.5018 -0.3645
 6669SOL    HW120548   1.453   5.761   2.193 -1.1285  0.4278 -0.4691
 6669SOL    HW220549   1.504   5.697   2.321  1.3407  2.4394 -0.3739
 6670SOL     OW20550   1.829   1.284   3.340  0.2568  0.2321  0.1128
 6670SOL    HW120551   1.770   1.219   3.303 -0.2286  1.5315 -1.4890
 6670SOL    HW220552   1.917   1.247   3.327  0.1702  0.8469 -2.9686
 6671SOL     OW20553   7.330   3.696   7.153 -0.0746  0.6259 -0.9016
 6671SOL    HW120554   7.279   3.774   7.174 -1.3838 -0.3642 -0.3116
 6671SOL    HW220555   7.292   3.626   7.206  2.4844 -0.0065  0.3005
 6672SOL     OW20556   0.822   1.847   2.923 -0.0302 -0.3344 -0.3156
 6672SOL    HW120557   0.838   1.863   3.016 -0.1581  1.8136 -0.6048
 6672SOL    HW220558   0.904   1.871   2.881  0.0893 -1.4734 -0.7788
 6673SOL     OW20559   4.178   0.325   2.525  0.0880 -0.0120 -0.2117
 6673SOL    HW120560   4.129   0.321   2.443  0.7691 -1.4279 -0.5667
 6673SOL    HW220561   4.232   0.404   2.516 -1.1509  0.8657 -0.3324
 6674SOL     OW20562   0.411   2.838   2.026 -0.2108  0.1567 -0.2631
 6674SOL    HW120563   0.353   2.771   2.061 -1.3497  0.4583 -1.4762
 6674SOL    HW220564   0.424   2.813   1.934 -0.1058  1.2032 -0.5490
 6675SOL     OW20565   2.854   3.680   1.759  0.1002  0.2444 -0.4552
 6675SOL    HW120566   2.793   3.707   1.828  0.2919  2.2010 -0.9910
 6675SOL    HW220567   2.814   3.711   1.678  1.1576  0.3599 -0.9506
 6676SOL     OW20568   5.461   4.788   1.051 -0.2450  0.1692  0.0069
 6676SOL    HW120569   5.439   4.747   1.134 -1.2482 -1.2469 -0.9163
 6676SOL    HW220570   5.556   4.777   1.044 -0.4637 -2.0482 -0.1925
 6677SOL     OW20571   1.351   7.007   7.335  0.2871  0.1699 -0.5412
 6677SOL    HW120572   1.273   7.017   7.281 -0.7939  0.3192  0.9649
 6677SOL    HW220573   1.372   6.914   7.331  0.0357  0.1334 -0.9791
 6678SOL     OW20574   1.079   6.919   7.220 -0.1923 -0.1285  0.7177
 6678SOL    HW120575   0.999   6.944   7.174 -0.6836  2.3558  2.6593
 6678SOL    HW220576   1.062   6.943   7.311  2.4945 -0.2347  1.3181
 6679SOL     OW20577   6.928   7.372   5.950  0.2881 -0.1581  0.0173
 6679SOL    HW120578   7.009   7.322   5.964 -0.7241 -1.3315  2.0661
 6679SOL    HW220579   6.928   7.439   6.018  1.0002  1.9609 -1.9214
 6680SOL     OW20580   6.040   6.386   1.341  0.2316  0.3501  0.0204
 6680SOL    HW120581   6.101   6.370   1.269  2.0835  2.2613  1.0358
 6680SOL    HW220582   5.958   6.345   1.313  0.3444  2.2995 -3.8777
 6681SOL     OW20583   6.869   7.236   0.658  0.0589 -0.3013  0.1642
 6681SOL    HW120584   6.964   7.240   0.655  0.1369 -0.3124 -4.4332
 6681SOL    HW220585   6.847   7.148   0.627 -1.4003  0.1387 -0.1407
 6682SOL     OW20586   7.347   2.241   7.204  0.0087 -0.0835 -0.1598
 6682SOL    HW120587   7.425   2.212   7.252 -0.3864 -0.6275  0.1622
 6682SOL    HW220588   7.374   2.323   7.162 -0.2443  1.6371  2.7518
 6683SOL     OW20589   4.835   3.405   0.382  0.6512  0.6032 -0.3725
 6683SOL    HW120590   4.772   3.396   0.310 -0.3374 -1.2742  0.6394
 6683SOL    HW220591   4.807   3.484   0.428 -2.4316 -1.2121  1.2507
 6684SOL     OW20592   4.775   4.843   1.407  0.1522 -0.2612 -0.5610
 6684SOL    HW120593   4.723   4.808   1.479  0.9273 -0.0811  0.0975
 6684SOL    HW220594   4.789   4.768   1.349  0.7228 -0.7424  0.1950
 6685SOL     OW20595   0.578   4.157   6.537  0.2243  0.0288  0.3695
 6685SOL    HW120596   0.543   4.241   6.567  0.4946  0.7855 -1.3281
 6685SOL    HW220597   0.665   4.152   6.577  0.8745  1.3501 -0.8182
 6686SOL     OW20598   6.572   2.250   5.553 -0.0790 -0.1704  0.5057
 6686SOL    HW120599   6.551   2.237   5.646 -2.7734 -1.0155 -0.1325
 6686SOL    HW220600   6.612   2.167   5.526  0.1785 -0.1328  0.7620
 6687SOL     OW20601   4.354   0.219   0.841 -0.0721  0.4429 -0.5264
 6687SOL    HW120602   4.441   0.242   0.808 -0.6049  1.0080 -1.6010
 6687SOL    HW220603   4.334   0.136   0.798  0.3753 -0.2699  0.5895
 6688SOL     OW20604   5.268   2.355   2.881  0.4888  0.7023  0.7473
 6688SOL    HW120605   5.254   2.261   2.875  0.9756  0.7303 -1.3096
 6688SOL    HW220606   5.227   2.380   2.964 -2.0705 -0.9018  0.0692
 6689SOL     OW20607   0.601   3.765   3.452  0.2602 -0.4111 -0.6068
 6689SOL    HW120608   0.535   3.716   3.401  1.2320  0.1469 -2.4973
 6689SOL    HW220609   0.568   3.855   3.452  0.4027 -0.3606 -0.4769
 6690SOL     OW20610   0.350   1.187   1.382  0.3479 -0.2954  0.3467
 6690SOL    HW120611   0.438   1.200   1.417  0.8706  1.1810 -1.3271
 6690SOL    HW220612   0.305   1.269   1.400  0.3716  0.1808 -1.5350
 6691SOL     OW20613   5.492   3.484   2.851  0.5277 -0.4944  0.4649
 6691SOL    HW120614   5.497   3.436   2.934  1.9357 -0.1134  0.6356
 6691SOL    HW220615   5.519   3.573   2.873  1.5394 -0.5384 -0.4978
 6692SOL     OW20616   4.013   0.714   2.260  0.0677  0.1296 -0.3200
 6692SOL    HW120617   4.106   0.714   2.281  0.0486  1.4039 -0.1785
 6692SOL    HW220618   3.990   0.806   2.248 -1.3201 -0.1051  0.2833
 6693SOL     OW20619   3.459   4.972   3.313  0.0610 -0.2066 -0.2048
 6693SOL    HW120620   3.486   4.919   3.239 -0.9385 -0.6003 -0.3023
 6693SOL    HW220621   3.513   4.941   3.386  1.3756  0.4929 -0.8310
 6694SOL     OW20622   3.287   3.612   5.114 -0.4219 -0.3161 -0.5242
 6694SOL    HW120623   3.365   3.582   5.160 -1.1215 -1.1472  0.1479
 6694SOL    HW220624   3.244   3.672   5.174  0.8797  2.0390 -1.7963
 6695SOL     OW20625   2.286   4.314   3.551  0.3884 -0.3664  0.2766
 6695SOL    HW120626   2.332   4.285   3.472  0.2019  0.6265 -0.2111
 6695SOL    HW220627   2.220   4.375   3.519  0.5977  0.3906  1.2297
 6696SOL     OW20628   4.132   2.664   2.479 -0.0358  0.0755 -0.3271
 6696SOL    HW120629   4.128   2.576   2.444  0.9144 -0.4761  0.8772
 6696SOL    HW220630   4.100   2.720   2.408 -3.2849 -1.4175 -0.2046
 6697SOL     OW20631   6.478   6.030   3.196  0.3536  0.3935 -0.2298
 6697SOL    HW120632   6.562   6.055   3.159  1.2725 -2.2966 -0.2007
 6697SOL    HW220633   6.415   6.042   3.125  0.7963  2.0179 -0.3842
 6698SOL     OW20634   7.573   6.604   7.154  0.5499 -0.2277 -0.6642
 6698SOL    HW120635   7.494   6.631   7.107  0.3510 -1.2003 -0.9194
 6698SOL    HW220636   7.562   6.638   7.242  0.4217  0.6958 -1.0263
 6699SOL     OW20637   0.814   0.983   5.764  0.1348 -0.1290  0.2792
 6699SOL    HW120638   0.773   1.065   5.737  1.6579 -0.1204 -2.3901
 6699SOL    HW220639   0.814   0.929   5.685  2.4588 -1.2738  0.9755
 6700SOL     OW20640   3.006   3.473   5.039 -0.1080 -0.2681 -0.1931
 6700SOL    HW120641   2.934   3.427   5.082  0.7257 -1.9254 -0.5027
 6700SOL    HW220642   3.055   3.514   5.110 -0.9737  0.3685  0.0657
 6701SOL     OW20643   6.184   1.810   4.604  0.0587  0.4252  0.1608
 6701SOL    HW120644   6.253   1.862   4.564 -0.0843  0.0457 -0.5879
 6701SOL    HW220645   6.229   1.733   4.640  0.1780  0.7406  0.7117
 6702SOL     OW20646   6.597   5.897   7.006  0.6877 -0.3974  0.2050
 6702SOL    HW120647   6.554   5.920   7.089  0.8245  1.2442 -0.1578
 6702SOL    HW220648   6.683   5.865   7.032  0.8912  0.5146  0.6775
 6703SOL     OW20649   1.645   3.436   2.366  0.5081  0.0818  0.1450
 6703SOL    HW120650   1.563   3.457   2.412  0.4127  0.1978 -0.0748
 6703SOL    HW220651   1.617   3.403   2.281  0.6542 -1.2599  0.6054
 6704SOL     OW20652   3.839   6.979   4.908 -0.2700 -0.1307 -0.1064
 6704SOL    HW120653   3.774   6.985   4.838  0.1224  0.2677 -0.4416
 6704SOL    HW220654   3.858   6.886   4.914 -2.0252 -0.4737  1.0777
 6705SOL     OW20655   5.174   0.706   4.723 -0.5755 -0.3095  0.0354
 6705SOL    HW120656   5.112   0.737   4.789 -0.2554  0.6657 -0.1080
 6705SOL    HW220657   5.206   0.786   4.680 -0.2825 -0.8831 -0.8532
 6706SOL     OW20658   5.331   0.939   6.545 -0.3363  0.8877 -0.0267
 6706SOL    HW120659   5.387   0.921   6.471 -0.2326 -2.5890  0.7452
 6706SOL    HW220660   5.244   0.909   6.518 -0.2727 -0.5336  1.2248
 6707SOL     OW20661   6.667   6.799   2.082  0.2480  0.2531 -0.3109
 6707SOL    HW120662   6.643   6.884   2.046  0.1738  1.2955  1.9779
 6707SOL    HW220663   6.754   6.813   2.119  0.9169 -1.1449 -1.3185
 6708SOL     OW20664   2.242   6.460   5.843 -0.1519 -0.0300  0.1410
 6708SOL    HW120665   2.279   6.406   5.773  0.0324  0.1982  0.0621
 6708SOL    HW220666   2.264   6.550   5.819 -1.2422  0.1612 -0.2031
 6709SOL     OW20667   3.854   6.505   6.384 -0.4135  0.3535 -0.0301
 6709SOL    HW120668   3.900   6.566   6.442  1.1306  0.3860 -1.2302
 6709SOL    HW220669   3.923   6.469   6.328 -1.5605 -1.2083 -0.4982
 6710SOL     OW20670   3.765   5.847   0.541 -0.2780  0.5863  0.0985
 6710SOL    HW120671   3.751   5.861   0.447 -0.9085 -0.6386  0.0020
 6710SOL    HW220672   3.813   5.925   0.569 -2.3757  2.2645 -0.6935
 6711SOL     OW20673   0.635   2.960   3.687 -0.3767 -0.9071  0.0301
 6711SOL    HW120674   0.636   2.890   3.622 -0.5854 -1.1056  0.2389
 6711SOL    HW220675   0.728   2.981   3.701 -0.3587  0.9514 -2.2569
 6712SOL     OW20676   1.611   7.139   1.492  0.2499  0.5294  0.0534
 6712SOL    HW120677   1.682   7.176   1.544 -0.5466  0.3095  1.3620
 6712SOL    HW220678   1.532   7.179   1.528 -0.6023 -1.9599  1.1730
 6713SOL     OW20679   4.084   3.142   7.130 -0.2382 -1.2753  0.2832
 6713SOL    HW120680   4.049   3.230   7.112  1.1237 -0.4918  1.2269
 6713SOL    HW220681   4.059   3.125   7.221  0.8692 -1.1355  0.6382
 6714SOL     OW20682   0.075   1.386   7.512  0.2541 -0.6852  0.4141
 6714SOL    HW120683   0.122   1.441   7.450 -0.4474  1.7533  1.8942
 6714SOL    HW220684   0.008   1.342   7.459  0.4153  0.4269 -0.7622
 6715SOL     OW20685   0.805   5.039   0.575  0.5429  0.3312  0.4058
 6715SOL    HW120686   0.755   4.967   0.614  1.9841 -1.2168 -0.4885
 6715SOL    HW220687   0.749   5.115   0.587 -3.2115 -1.6152 -2.6183
 6716SOL     OW20688   4.023   2.311   6.336  0.2331 -0.1273 -0.2904
 6716SOL    HW120689   4.001   2.393   6.293  0.3344  0.2111  0.3043
 6716SOL    HW220690   3.943   2.259   6.330  0.0222  0.1914 -0.2503
 6717SOL     OW20691   1.703   6.026   2.641 -0.2954  0.7967 -0.5584
 6717SOL    HW120692   1.664   6.061   2.561 -0.9016  0.7779 -0.2706
 6717SOL    HW220693   1.755   6.098   2.676 -1.3760  1.3493 -0.0754
 6718SOL     OW20694   3.455   3.357   4.974 -0.5536  0.4116 -0.4065
 6718SOL    HW120695   3.401   3.430   4.945  0.9525  1.7423  0.0086
 6718SOL    HW220696   3.538   3.397   5.000 -0.0998 -1.3042  0.9869
 6719SOL     OW20697   6.244   0.059   6.553  1.0180 -0.5453  0.4722
 6719SOL    HW120698   6.318  -0.001   6.564  1.7701  0.0066 -1.3001
 6719SOL    HW220699   6.279   0.130   6.499 -1.1200 -0.8614 -1.4577
 6720SOL     OW20700   6.215   3.748   4.822 -0.1363 -0.6904 -0.2553
 6720SOL    HW120701   6.236   3.663   4.782 -0.1143 -0.2863 -1.1458
 6720SOL    HW220702   6.190   3.803   4.748 -0.6752 -0.0707  0.3750
 6721SOL     OW20703   7.094   2.478   5.144 -0.0718 -0.3396  0.0370
 6721SOL    HW120704   7.184   2.502   5.163 -0.0165 -1.1148  0.8137
 6721SOL    HW220705   7.048   2.561   5.134  0.5228  0.0627  0.6298
 6722SOL     OW20706   5.329   4.210   4.486  0.4206  0.6309  0.1669
 6722SOL    HW120707   5.366   4.271   4.423 -0.0501  0.0438 -0.7013
 6722SOL    HW220708   5.385   4.132   4.480  0.1845  0.4534  0.2350
 6723SOL     OW20709   2.155   4.994   5.079 -0.1007 -0.1803  0.2201
 6723SOL    HW120710   2.241   4.987   5.121 -0.1211 -1.0040  0.1465
 6723SOL    HW220711   2.109   4.915   5.106 -0.5883 -0.0810 -0.3030
 6724SOL     OW20712   1.539   2.026   0.076 -0.1294 -0.3496  0.9566
 6724SOL    HW120713   1.611   1.963   0.069 -0.4371 -0.7125  0.9980
 6724SOL    HW220714   1.580   2.111   0.063  0.1672 -0.6138  0.0493
 6725SOL     OW20715   1.344   4.134   5.914 -0.0709  0.0118 -0.3082
 6725SOL    HW120716   1.390   4.218   5.902  0.0899 -0.2753 -2.0263
 6725SOL    HW220717   1.265   4.143   5.861 -0.8910 -0.3465  0.8091
 6726SOL     OW20718   6.760   1.915   4.484  0.3082  0.2449  0.4311
 6726SOL    HW120719   6.754   1.912   4.580 -0.7391  3.1837  0.5601
 6726SOL    HW220720   6.815   1.992   4.466  1.6465 -1.0267 -1.3827
 6727SOL     OW20721   7.601   5.888   2.142 -0.1864  0.1115 -0.0679
 6727SOL    HW120722   7.641   5.830   2.077  2.0551  2.0548 -0.5710
 6727SOL    HW220723   7.592   5.833   2.220  1.0553 -1.1525 -0.7533
 6728SOL     OW20724   4.190   2.194   1.448 -0.2042 -0.7055 -0.9568
 6728SOL    HW120725   4.104   2.218   1.413 -0.0221 -1.6622 -2.1153
 6728SOL    HW220726   4.253   2.239   1.392  0.0920  1.4459  0.9655
 6729SOL     OW20727   2.959   3.199   1.286  0.0827 -0.6765 -0.4403
 6729SOL    HW120728   2.916   3.221   1.368  0.4229 -1.3264 -0.0771
 6729SOL    HW220729   2.965   3.281   1.238 -3.0643 -0.7866 -1.2451
 6730SOL     OW20730   1.815   2.010   4.700  0.1736  0.5835  0.0376
 6730SOL    HW120731   1.862   2.016   4.617  1.4581  0.2816  0.7133
 6730SOL    HW220732   1.807   2.101   4.728 -1.9850  0.8694 -1.2966
 6731SOL     OW20733   3.692   4.304   1.083  0.5744  0.2961  0.4551
 6731SOL    HW120734   3.708   4.399   1.090 -1.4696  0.6311  1.3129
 6731SOL    HW220735   3.736   4.266   1.159  1.2173  0.5775  0.2292
 6732SOL     OW20736   5.876   3.886   1.494 -0.1044  0.7100 -0.0414
 6732SOL    HW120737   5.947   3.831   1.461  0.9755  1.5529  0.7691
 6732SOL    HW220738   5.808   3.882   1.427  1.2883  1.0090 -1.5257
 6733SOL     OW20739   7.320   5.542   4.370 -0.1153  0.0606 -0.5438
 6733SOL    HW120740   7.245   5.602   4.375  1.0705  1.5172  0.7926
 6733SOL    HW220741   7.365   5.553   4.453  0.9041 -1.7381 -0.8088
 6734SOL     OW20742   4.327   6.847   2.066 -0.8080 -0.2743 -0.3801
 6734SOL    HW120743   4.315   6.758   2.032 -1.6702 -0.1578 -0.3783
 6734SOL    HW220744   4.366   6.895   1.993 -0.4218 -0.6205 -0.4105
 6735SOL     OW20745   4.008   3.140   5.716 -0.1126 -0.0911 -0.2674
 6735SOL    HW120746   4.059   3.222   5.715  1.1792 -0.8268 -2.3331
 6735SOL    HW220747   3.980   3.130   5.807  2.3704  1.0539  0.7263
 6736SOL     OW20748   1.231   5.796   6.408  0.2752 -0.3896 -0.6856
 6736SOL    HW120749   1.195   5.882   6.384 -0.4495 -0.2956  0.6304
 6736SOL    HW220750   1.153   5.741   6.421  0.5458 -0.3412  1.6606
 6737SOL     OW20751   1.334   0.566   7.341  0.1682 -0.2080 -0.0118
 6737SOL    HW120752   1.283   0.503   7.393 -0.1680 -0.2705 -0.4139
 6737SOL    HW220753   1.414   0.518   7.319  0.1064 -0.3435  0.0534
 6738SOL     OW20754   3.083   1.205   0.126  0.3678  0.2329  0.4723
 6738SOL    HW120755   2.990   1.207   0.101  0.0559 -1.5895  1.3244
 6738SOL    HW220756   3.126   1.262   0.062 -1.0308 -0.6870 -1.4055
 6739SOL     OW20757   6.619   2.818   7.062 -0.6705  0.9986 -0.4641
 6739SOL    HW120758   6.660   2.890   7.110 -1.3412  0.1705  1.4777
 6739SOL    HW220759   6.531   2.811   7.099 -0.9139 -0.2660 -1.2025
 6740SOL     OW20760   4.849   5.368   5.900 -0.0321  0.3790  0.0316
 6740SOL    HW120761   4.873   5.460   5.890  0.4584  0.7698  3.6713
 6740SOL    HW220762   4.756   5.369   5.922  0.0968  0.0722  0.6134
 6741SOL     OW20763   1.764   2.980   5.918  0.3298  0.2533 -0.4710
 6741SOL    HW120764   1.791   2.917   5.985  0.1592 -0.3803 -0.9818
 6741SOL    HW220765   1.748   3.061   5.966 -0.7671 -0.4545  0.4160
 6742SOL     OW20766   0.441   3.662   5.166 -0.3643 -0.2197 -0.6994
 6742SOL    HW120767   0.528   3.664   5.126 -0.7348  0.0580 -1.5287
 6742SOL    HW220768   0.387   3.613   5.103 -1.2813  1.4102 -1.2417
 6743SOL     OW20769   2.154   6.600   0.074 -0.3077  0.2387 -0.1436
 6743SOL    HW120770   2.190   6.670   0.128 -0.9253  0.6287 -0.2259
 6743SOL    HW220771   2.061   6.622   0.065 -0.4278 -0.3796 -0.4989
 6744SOL     OW20772   2.467   1.280   2.437 -0.2108 -0.0760  0.3959
 6744SOL    HW120773   2.559   1.307   2.433 -0.6616  1.5592  0.1249
 6744SOL    HW220774   2.454   1.227   2.358  0.5364 -0.4759  0.5340
 6745SOL     OW20775   4.215   3.269   1.711  0.5645 -0.0548 -0.5169
 6745SOL    HW120776   4.143   3.205   1.713  1.7317 -1.4140  1.1154
 6745SOL    HW220777   4.177   3.348   1.750 -0.6920  0.0401 -1.8496
 6746SOL     OW20778   2.876   1.793   4.493 -0.1228  0.8746  0.2228
 6746SOL    HW120779   2.862   1.782   4.587  1.1346  0.2953  0.3675
 6746SOL    HW220780   2.789   1.784   4.455 -0.9278  2.7087  1.4363
 6747SOL     OW20781   5.704   3.799   1.296 -0.1729  0.0050  0.0394
 6747SOL    HW120782   5.765   3.795   1.222 -0.7832 -2.0266 -0.4060
 6747SOL    HW220783   5.618   3.814   1.254 -0.0786  2.8997  0.6567
 6748SOL     OW20784   4.151   1.495   4.260 -0.7239 -0.2034 -0.1810
 6748SOL    HW120785   4.241   1.463   4.261 -0.2633  1.0233 -0.5639
 6748SOL    HW220786   4.111   1.450   4.186 -0.3384 -0.5050 -0.2120
 6749SOL     OW20787   0.194   1.462   5.671  0.2687  0.1961 -0.2780
 6749SOL    HW120788   0.274   1.509   5.697  0.4931 -0.1900 -0.2571
 6749SOL    HW220789   0.176   1.492   5.582 -0.6354  1.7044  0.3850
 6750SOL     OW20790   7.444   5.784   3.659  0.3827 -0.4553  0.0639
 6750SOL    HW120791   7.489   5.753   3.580 -0.1582 -1.3661  0.0928
 6750SOL    HW220792   7.381   5.849   3.627 -0.9996 -1.9919 -0.5258
 6751SOL     OW20793   1.253   3.499   0.499 -0.2621 -0.2075 -0.0776
 6751SOL    HW120794   1.225   3.495   0.408 -0.4128  0.6359 -0.0797
 6751SOL    HW220795   1.286   3.588   0.510 -2.4610  0.5340  1.2918
 6752SOL     OW20796   4.408   0.696   6.347  0.1534 -0.2765  0.0830
 6752SOL    HW120797   4.341   0.658   6.290 -0.0589  0.8008 -0.4237
 6752SOL    HW220798   4.423   0.630   6.414 -1.7117 -0.4000  0.4409
 6753SOL     OW20799   1.772   6.080   6.369  0.2291  0.1934 -0.1745
 6753SOL    HW120800   1.815   6.121   6.444 -1.4812 -0.7867  1.4289
 6753SOL    HW220801   1.705   6.142   6.341  0.2338  0.1511 -0.2836
 6754SOL     OW20802   3.460   7.464   6.034 -0.4070 -0.5403 -0.5662
 6754SOL    HW120803   3.414   7.381   6.023 -1.7596  0.1109 -0.0521
 6754SOL    HW220804   3.441   7.512   5.954  1.3523 -1.1408 -1.3923
 6755SOL     OW20805   4.626   3.280   1.072 -0.3727 -0.3238 -0.1704
 6755SOL    HW120806   4.583   3.326   1.001 -0.6830 -0.7650 -0.2667
 6755SOL    HW220807   4.716   3.314   1.072 -1.3120  2.4869  1.6223
 6756SOL     OW20808   3.378   3.072   5.993 -0.3820 -0.2906 -0.1761
 6756SOL    HW120809   3.415   3.150   5.952  0.4138  0.3003  1.5733
 6756SOL    HW220810   3.292   3.100   6.024 -0.3316 -0.2853 -0.0431
 6757SOL     OW20811   4.072   6.029   2.184  0.5964 -0.2550  0.4720
 6757SOL    HW120812   4.002   6.085   2.218  1.0717  0.9101 -0.4096
 6757SOL    HW220813   4.042   6.001   2.098 -0.2452 -2.5461  1.4123
 6758SOL     OW20814   6.650   2.543   2.552  0.0247 -0.7024 -0.4417
 6758SOL    HW120815   6.702   2.463   2.545 -0.3133 -0.8286 -1.6275
 6758SOL    HW220816   6.669   2.592   2.472  0.0446  0.3038  0.1574
 6759SOL     OW20817   0.127   2.264   3.644  0.1416  0.0358  0.5231
 6759SOL    HW120818   0.164   2.199   3.704  0.8973  0.1846  0.2274
 6759SOL    HW220819   0.048   2.294   3.688 -1.3309 -2.4670 -0.1795
 6760SOL     OW20820   5.758   0.614   0.311 -0.1788 -0.4118  0.1346
 6760SOL    HW120821   5.790   0.558   0.381 -0.1893 -0.8157 -0.1825
 6760SOL    HW220822   5.837   0.648   0.269 -0.1699 -0.6050 -0.0053
 6761SOL     OW20823   5.392   2.485   2.301 -0.1112 -0.1340 -0.0060
 6761SOL    HW120824   5.302   2.472   2.273  0.0884  2.1837 -1.9746
 6761SOL    HW220825   5.388   2.557   2.363  0.4632  0.5370 -0.7338
 6762SOL     OW20826   4.248   4.956   6.935  0.0712 -0.1517 -0.0581
 6762SOL    HW120827   4.185   4.958   7.008  0.2597 -0.4123  0.1158
 6762SOL    HW220828   4.253   5.046   6.905  2.2414  0.6145  2.2231
 6763SOL     OW20829   2.983   5.003   3.009  0.3968 -0.2423  0.1846
 6763SOL    HW120830   2.951   4.968   2.926  0.7153 -0.8753  0.3194
 6763SOL    HW220831   3.066   4.957   3.024  0.0790 -0.5421  1.1148
 6764SOL     OW20832   2.886   7.147   5.560 -0.1293  0.0908 -0.1298
 6764SOL    HW120833   2.839   7.181   5.484 -1.1415 -0.0216  0.4233
 6764SOL    HW220834   2.826   7.162   5.634  0.8982  0.3461  0.6727
 6765SOL     OW20835   1.259   0.549   6.070  0.5325  1.1727  0.5890
 6765SOL    HW120836   1.177   0.599   6.071  0.5451  1.1915  0.6933
 6765SOL    HW220837   1.289   0.550   6.161  0.6637  1.1913  0.5459
 6766SOL     OW20838   6.508   6.541   2.834  1.0681  0.3631 -0.6953
 6766SOL    HW120839   6.437   6.495   2.788  1.5000  1.2779 -2.3593
 6766SOL    HW220840   6.466   6.575   2.913  0.4169 -1.6828 -0.0800
 6767SOL     OW20841   2.084   1.055   0.062  0.2492 -0.4272 -0.3338
 6767SOL    HW120842   2.142   0.985   0.092 -0.5562 -0.8678  0.2220
 6767SOL    HW220843   2.074   1.112   0.138  1.1480  0.4679 -0.8765
 6768SOL     OW20844   2.941   0.882   3.784 -0.5624  0.2434  0.5511
 6768SOL    HW120845   2.964   0.790   3.798 -1.6345  0.3513  3.8259
 6768SOL    HW220846   2.969   0.927   3.863 -1.5876  2.4432 -0.2446
 6769SOL     OW20847   3.318   6.472   7.464  0.3434  0.1777  0.0577
 6769SOL    HW120848   3.329   6.423   7.383  1.0562  0.4895 -0.0415
 6769SOL    HW220849   3.263   6.547   7.440  0.6429  0.3270 -0.1665
 6770SOL     OW20850   6.699   2.836   1.687 -0.1445 -0.3666 -0.0898
 6770SOL    HW120851   6.669   2.894   1.617 -0.1117 -1.5739 -1.1499
 6770SOL    HW220852   6.619   2.794   1.719 -0.3038  0.9856  1.3985
 6771SOL     OW20853   3.115   0.053   2.319  0.6252  0.2771  0.1463
 6771SOL    HW120854   3.158  -0.018   2.366  2.3777 -0.0566 -1.8260
 6771SOL    HW220855   3.124   0.129   2.377  1.7516 -0.3414  0.8214
 6772SOL     OW20856   0.364   3.982   7.349  0.3043  0.7499  0.7645
 6772SOL    HW120857   0.448   4.021   7.324  0.9244 -0.2463  1.2428
 6772SOL    HW220858   0.308   4.057   7.369  0.7632  1.4594 -0.5210
 6773SOL     OW20859   3.281   1.585   4.021 -0.2179  0.6523  0.9453
 6773SOL    HW120860   3.263   1.492   4.010 -0.6096  0.7361  0.8650
 6773SOL    HW220861   3.287   1.597   4.116  3.0915 -0.0528  0.9488
 6774SOL     OW20862   4.510   6.236   3.575 -0.5518  0.2228 -0.0967
 6774SOL    HW120863   4.465   6.318   3.594 -0.3697  0.2562  0.1962
 6774SOL    HW220864   4.498   6.184   3.655 -2.2676 -0.7682 -0.9271
 6775SOL     OW20865   6.593   4.012   4.317  0.8660  0.1829  0.3615
 6775SOL    HW120866   6.666   4.074   4.323 -0.4274  1.8075  0.1003
 6775SOL    HW220867   6.540   4.045   4.245 -0.2246 -0.8746  0.6549
 6776SOL     OW20868   1.510   0.912   3.373 -0.0264 -0.1485  0.0016
 6776SOL    HW120869   1.510   0.997   3.329 -0.3182  0.1979  0.6662
 6776SOL    HW220870   1.603   0.892   3.388 -0.0002  1.3767  2.3515
 6777SOL     OW20871   2.753   2.943   6.568 -0.1950  0.1726  0.6436
 6777SOL    HW120872   2.663   2.931   6.536 -0.8516 -0.0979  2.4507
 6777SOL    HW220873   2.749   3.023   6.620 -0.0737 -1.1334  2.8086
 6778SOL     OW20874   3.037   3.278   0.643  0.2229  0.1082 -0.7569
 6778SOL    HW120875   3.019   3.369   0.622  0.4416  0.0821 -1.0603
 6778SOL    HW220876   3.119   3.258   0.597 -0.4932 -0.6191 -1.7778
 6779SOL     OW20877   4.289   3.985   3.276 -0.1577 -0.0069  1.2883
 6779SOL    HW120878   4.241   4.030   3.346 -0.7067  1.1595  0.1862
 6779SOL    HW220879   4.291   4.047   3.204  0.8261 -1.0104  0.4173
 6780SOL     OW20880   0.514   3.668   6.840  0.1513 -0.1484  0.1063
 6780SOL    HW120881   0.432   3.645   6.883 -0.0741  1.1097  0.3848
 6780SOL    HW220882   0.502   3.758   6.811  1.5156  0.1379  0.3398
 6781SOL     OW20883   4.591   3.822   3.134 -0.0132 -0.0984  0.0977
 6781SOL    HW120884   4.642   3.742   3.145 -0.3302 -0.3324 -0.1089
 6781SOL    HW220885   4.509   3.793   3.092  0.3140  0.4761 -0.9914
 6782SOL     OW20886   2.213   7.374   0.452  0.5084 -0.2065  0.1640
 6782SOL    HW120887   2.123   7.407   0.444  0.3617 -0.9140 -1.7030
 6782SOL    HW220888   2.267   7.441   0.410  1.2440  1.4256  3.4310
 6783SOL     OW20889   1.790   1.561   0.652  0.1113 -0.4885  0.4409
 6783SOL    HW120890   1.739   1.628   0.606  2.0040  1.1286  0.5525
 6783SOL    HW220891   1.755   1.478   0.621  0.2571  0.5325 -2.7925
 6784SOL     OW20892   0.609   1.638   7.277  0.1126  0.1083  0.9533
 6784SOL    HW120893   0.590   1.590   7.358 -1.0079  1.7414  1.6886
 6784SOL    HW220894   0.687   1.690   7.297  0.6136 -0.4536  0.5323
 6785SOL     OW20895   5.689   0.859   3.522 -0.2271  0.2819 -0.0372
 6785SOL    HW120896   5.636   0.881   3.599 -0.2208  1.5229 -0.3776
 6785SOL    HW220897   5.648   0.907   3.450  1.1009  0.9460 -0.3849
 6786SOL     OW20898   1.895   6.234   0.713 -0.0002  0.1783 -0.0053
 6786SOL    HW120899   1.907   6.140   0.698  1.1187  0.3785 -0.4762
 6786SOL    HW220900   1.983   6.270   0.709 -0.5909  1.5377 -1.7700
 6787SOL     OW20901   4.405   0.438   4.580  0.0302 -0.4885  0.1574
 6787SOL    HW120902   4.328   0.463   4.529 -1.6097 -2.9654  1.2221
 6787SOL    HW220903   4.379   0.357   4.625  3.5118 -1.8745 -0.0084
 6788SOL     OW20904   5.449   7.601   3.293 -0.4197 -0.3484 -0.2832
 6788SOL    HW120905   5.507   7.676   3.312 -0.1404 -0.7761  0.6291
 6788SOL    HW220906   5.464   7.541   3.366 -0.1820 -1.5816 -1.3189
 6789SOL     OW20907   0.331   3.274   1.719  0.3732 -0.4179  0.2036
 6789SOL    HW120908   0.357   3.320   1.799 -1.3270  0.4472  0.2900
 6789SOL    HW220909   0.256   3.221   1.745 -0.1342 -0.2102 -0.7797
 6790SOL     OW20910   5.871   2.394   7.234 -0.0089 -0.5122  0.4310
 6790SOL    HW120911   5.848   2.374   7.143 -1.8260 -1.2742  1.0087
 6790SOL    HW220912   5.841   2.318   7.284 -2.6322  1.4452  2.1186
 6791SOL     OW20913   6.629   0.717   1.971  0.2997  0.1642 -0.4897
 6791SOL    HW120914   6.559   0.677   1.919  1.9407 -2.1479 -1.1039
 6791SOL    HW220915   6.588   0.735   2.055 -1.1799 -0.6525 -0.9866
 6792SOL     OW20916   3.114   0.084   3.008  0.3142  0.4916  0.6434
 6792SOL    HW120917   3.182   0.088   3.075 -2.3691 -0.1329  3.6917
 6792SOL    HW220918   3.111  -0.008   2.981  1.7097  0.8256 -0.8368
 6793SOL     OW20919   0.396   0.324   2.171  0.2494  0.4569  0.1185
 6793SOL    HW120920   0.458   0.348   2.240  2.6801 -1.1171 -1.3440
 6793SOL    HW220921   0.384   0.404   2.121  1.2515  0.7698  0.3573
 6794SOL     OW20922   2.744   6.410   3.070 -0.3337 -0.2799  0.4141
 6794SOL    HW120923   2.723   6.488   3.020  0.4770 -1.3668 -1.7203
 6794SOL    HW220924   2.674   6.348   3.049 -0.5812 -0.3955  1.5172
 6795SOL     OW20925   4.568   1.834   5.832 -0.0262  0.5392 -0.2178
 6795SOL    HW120926   4.548   1.851   5.740 -0.2689  0.7415 -0.1284
 6795SOL    HW220927   4.639   1.894   5.852  1.8472 -1.2944 -0.9855
 6796SOL     OW20928   4.826   5.874   3.936  0.3808  0.0140 -0.4638
 6796SOL    HW120929   4.845   5.871   4.030  0.4755 -0.8531 -0.5015
 6796SOL    HW220930   4.792   5.962   3.921  1.3360  0.5121  0.1918
 6797SOL     OW20931   6.915   3.544   2.548  0.0419  0.5700 -0.5854
 6797SOL    HW120932   6.987   3.602   2.524 -2.0622  3.6564 -0.0079
 6797SOL    HW220933   6.903   3.558   2.642 -0.4559 -0.9555 -0.3949
 6798SOL     OW20934   2.568   6.914   3.851 -0.2923 -0.2183  0.6902
 6798SOL    HW120935   2.489   6.905   3.905 -0.9140 -0.2277 -0.2107
 6798SOL    HW220936   2.551   6.990   3.796  0.1000 -0.5581  0.0977
 6799SOL     OW20937   6.554   5.224   0.193  0.3180 -0.6359 -0.2907
 6799SOL    HW120938   6.486   5.174   0.239  1.3416 -0.5652  1.3809
 6799SOL    HW220939   6.558   5.307   0.240 -0.6598  0.7021 -2.4220
 6800SOL     OW20940   0.466   2.684   7.259 -0.3805  0.2800  0.1687
 6800SOL    HW120941   0.389   2.738   7.240 -0.4967  0.4096  0.9673
 6800SOL    HW220942   0.459   2.665   7.352  1.2702  1.4594  0.5893
 6801SOL     OW20943   2.980   3.240   6.952 -0.2042  0.1334  0.1551
 6801SOL    HW120944   2.980   3.286   7.036  1.7967  0.5708 -0.0363
 6801SOL    HW220945   3.000   3.307   6.888 -0.6805 -0.3918 -0.5519
 6802SOL     OW20946   4.113   4.004   1.963 -0.2004 -0.0711 -0.3446
 6802SOL    HW120947   4.034   3.959   1.930  0.5278 -1.9110  0.2573
 6802SOL    HW220948   4.165   4.021   1.885 -0.0856 -1.1584 -0.5229
 6803SOL     OW20949   3.990   2.000   6.212 -0.1910 -0.3308 -0.1410
 6803SOL    HW120950   3.994   1.931   6.146 -0.2151 -0.8639  0.4072
 6803SOL    HW220951   4.025   1.959   6.291 -1.0083  0.0269  0.4128
 6804SOL     OW20952   4.134   4.179   2.179 -0.6421 -0.3738  0.5180
 6804SOL    HW120953   4.056   4.228   2.153  0.3778  0.4066 -1.2562
 6804SOL    HW220954   4.152   4.122   2.105  0.5652 -0.4254  0.8265
 6805SOL     OW20955   5.885   4.622   3.433 -0.6059 -0.5173  0.3365
 6805SOL    HW120956   5.814   4.559   3.444 -0.6885 -0.3953  0.5027
 6805SOL    HW220957   5.858   4.678   3.360  1.4109 -3.3962 -2.9412
 6806SOL     OW20958   0.463   4.848   5.103  0.0144  0.8144  0.0715
 6806SOL    HW120959   0.525   4.817   5.038 -0.0901 -0.3959  0.5157
 6806SOL    HW220960   0.404   4.773   5.117  0.1758  0.9567  1.7029
 6807SOL     OW20961   2.653   5.936   7.413 -0.0080 -0.6037  0.6407
 6807SOL    HW120962   2.669   5.885   7.334 -1.5468  0.7993 -0.6592
 6807SOL    HW220963   2.690   6.022   7.394 -0.9703 -0.0545  1.1671
 6808SOL     OW20964   1.023   4.676   6.777 -0.2457 -0.3453 -0.1403
 6808SOL    HW120965   1.082   4.609   6.812 -1.6352 -1.7660 -0.4364
 6808SOL    HW220966   0.937   4.652   6.810 -1.0709  0.2306 -1.7947
 6809SOL     OW20967   6.922   1.379   3.926 -0.0087 -0.5970  0.3532
 6809SOL    HW120968   6.974   1.338   3.858 -0.7871  0.7592 -1.1464
 6809SOL    HW220969   6.983   1.437   3.971  0.3267 -0.8363  0.2072
 6810SOL     OW20970   1.642   5.774   2.623 -0.4459  0.0861 -0.4165
 6810SOL    HW120971   1.713   5.733   2.574  0.0705  0.6803 -0.1900
 6810SOL    HW220972   1.671   5.864   2.635 -0.3483 -0.1405  1.3379
 6811SOL     OW20973   7.149   5.179   6.298  0.1122 -0.2645  0.1502
 6811SOL    HW120974   7.116   5.091   6.317  0.4620 -0.1398  1.3841
 6811SOL    HW220975   7.075   5.223   6.256  0.0531 -1.2524 -0.8244
 6812SOL     OW20976   3.950   6.897   2.460  0.1414 -0.2686  0.2353
 6812SOL    HW120977   3.997   6.826   2.504 -0.1451 -1.0122 -0.6206
 6812SOL    HW220978   3.993   6.905   2.374  1.0717  1.5517  0.8232
 6813SOL     OW20979   5.556   4.586   5.244  0.3911  0.1973  0.5146
 6813SOL    HW120980   5.509   4.652   5.295  0.0226  0.2180  0.1567
 6813SOL    HW220981   5.490   4.551   5.183  0.9499  0.5554 -0.3158
 6814SOL     OW20982   1.649   2.321   0.488  0.0520 -0.3147 -0.2513
 6814SOL    HW120983   1.602   2.239   0.501  1.6444 -1.0165  1.8086
 6814SOL    HW220984   1.641   2.366   0.572  2.1093 -0.0367 -0.1329
 6815SOL     OW20985   1.827   3.716   3.819 -0.6380 -0.3567  0.1519
 6815SOL    HW120986   1.854   3.807   3.812 -0.2963 -0.2168  2.4971
 6815SOL    HW220987   1.732   3.720   3.834 -0.8250 -0.4644 -0.9668
 6816SOL     OW20988   6.514   2.231   6.960 -0.1211  0.2730 -0.3972
 6816SOL    HW120989   6.593   2.180   6.942  1.8862  2.6782  0.8743
 6816SOL    HW220990   6.531   2.317   6.922 -2.0563  0.9403  0.1042
 6817SOL     OW20991   1.651   1.635   3.992 -0.1191  0.2849  0.6873
 6817SOL    HW120992   1.627   1.711   3.939 -0.2622 -0.8966 -1.0135
 6817SOL    HW220993   1.670   1.672   4.079  0.9870  2.4140 -0.3781
 6818SOL     OW20994   6.522   2.378   2.183  0.4074 -0.6507 -0.1974
 6818SOL    HW120995   6.486   2.378   2.272 -3.1546 -1.2493 -1.4605
 6818SOL    HW220996   6.538   2.285   2.164 -1.0199 -0.7735 -0.9042
 6819SOL     OW20997   7.411   7.213   1.232  0.4848 -0.1611 -0.3746
 6819SOL    HW120998   7.448   7.257   1.156 -0.2988  0.7887 -0.2375
 6819SOL    HW220999   7.467   7.239   1.305  0.5100 -0.0538 -0.4322
 6820SOL     OW21000   1.109   7.483   6.028 -0.1197  0.1482 -0.8006
 6820SOL    HW121001   1.027   7.438   6.007 -0.7848  1.7082 -1.7186
 6820SOL    HW221002   1.103   7.503   6.121 -0.8138  0.3125 -0.8798
 6821SOL     OW21003   6.377   4.716   0.001 -0.4905  0.5502  0.1526
 6821SOL    HW121004   6.405   4.631   0.035 -2.5424  0.2822  1.3221
 6821SOL    HW221005   6.298   4.737   0.050  0.9053  4.0212  1.2885
 6822SOL     OW21006   7.302   3.764   6.387 -0.3598  0.2921  0.6729
 6822SOL    HW121007   7.378   3.744   6.332  0.2047  3.3553  0.1479
 6822SOL    HW221008   7.331   3.745   6.476  1.1265  1.4633  0.4829
 6823SOL     OW21009   4.864   1.809   4.886 -0.3840  0.0481  0.5903
 6823SOL    HW121010   4.793   1.835   4.945 -0.0466  1.6145  0.3626
 6823SOL    HW221011   4.833   1.730   4.843 -1.5956  0.1860  1.1905
 6824SOL     OW21012   2.342   1.108   1.344 -0.5601 -0.3157  0.1251
 6824SOL    HW121013   2.257   1.071   1.318 -0.7110 -0.8521  1.2993
 6824SOL    HW221014   2.333   1.125   1.438  1.0967 -1.6972  0.5812
 6825SOL     OW21015   3.402   1.700   3.207 -0.7151  0.0226  0.0057
 6825SOL    HW121016   3.308   1.717   3.195 -1.0693 -1.4734  0.4537
 6825SOL    HW221017   3.427   1.755   3.281 -1.2643  0.3342 -0.0339
 6826SOL     OW21018   2.451   0.064   1.697 -0.4979 -0.1630 -0.0032
 6826SOL    HW121019   2.505   0.084   1.620 -2.5601  2.0480 -0.9796
 6826SOL    HW221020   2.494   0.109   1.769 -0.0170  0.0228 -0.4002
 6827SOL     OW21021   7.116   1.803   1.247  0.5012 -0.2012 -0.0378
 6827SOL    HW121022   7.193   1.757   1.214 -0.3663  0.1432 -2.8008
 6827SOL    HW221023   7.042   1.757   1.208 -0.4845  2.0516 -0.9702
 6828SOL     OW21024   1.009   5.084   3.927  0.0347  0.3835  0.5194
 6828SOL    HW121025   0.990   5.089   3.833 -0.1280 -1.3977  0.4192
 6828SOL    HW221026   1.102   5.104   3.934 -0.6499  4.2533  0.4484
 6829SOL     OW21027   6.947   5.710   2.632 -0.1453 -0.0724 -0.6398
 6829SOL    HW121028   6.852   5.706   2.626 -0.4092  3.5915 -1.1573
 6829SOL    HW221029   6.977   5.629   2.591 -2.9736 -2.0133  0.7807
 6830SOL     OW21030   4.462   3.187   6.599  0.1362 -0.3661  0.1682
 6830SOL    HW121031   4.463   3.266   6.653 -1.7550  1.2068 -1.9445
 6830SOL    HW221032   4.549   3.182   6.560  0.2106  0.8024  0.1653
 6831SOL     OW21033   0.562   3.563   4.265 -0.1523 -0.4476  0.5341
 6831SOL    HW121034   0.556   3.480   4.218  1.4433 -0.3490  0.1149
 6831SOL    HW221035   0.616   3.543   4.341 -1.5914 -0.2802  1.6560
 6832SOL     OW21036   1.851   4.157   4.302 -0.2110 -0.2432  0.2276
 6832SOL    HW121037   1.906   4.232   4.277 -1.3575  0.8064  0.7690
 6832SOL    HW221038   1.869   4.091   4.235 -0.2371  1.0419 -1.0870
 6833SOL     OW21039   5.997   7.292   4.606  0.0373 -0.0836  0.3740
 6833SOL    HW121040   6.030   7.377   4.637 -0.2269  0.4019 -0.6509
 6833SOL    HW221041   5.935   7.314   4.537 -0.4151 -1.1012  0.4472
 6834SOL     OW21042   1.087   5.356   6.515 -0.4591 -0.2229  0.2082
 6834SOL    HW121043   1.082   5.451   6.526  0.8354 -0.1927  0.7765
 6834SOL    HW221044   1.131   5.325   6.594  2.0706 -0.9180 -1.3524
 6835SOL     OW21045   5.079   3.592   5.788  0.4021 -0.0164  0.1058
 6835SOL    HW121046   5.000   3.547   5.756  0.2873 -0.4208  0.9258
 6835SOL    HW221047   5.063   3.685   5.769 -0.4811 -0.0401  0.6526
 6836SOL     OW21048   5.515   6.538   2.447 -0.4555  0.9200 -0.8134
 6836SOL    HW121049   5.582   6.471   2.459 -0.9069  0.5482 -0.3137
 6836SOL    HW221050   5.472   6.514   2.365  1.4732  2.4543 -2.3706
 6837SOL     OW21051   0.328   3.348   0.444  0.3849 -0.3246  0.0656
 6837SOL    HW121052   0.394   3.392   0.391 -0.8843  0.8624 -0.5565
 6837SOL    HW221053   0.252   3.405   0.442 -0.2618 -1.0384  1.8369
 6838SOL     OW21054   7.149   0.199   0.329  0.7288 -0.1055 -0.2313
 6838SOL    HW121055   7.064   0.162   0.306  0.3680 -0.5056  1.5830
 6838SOL    HW221056   7.199   0.199   0.247 -1.3241  1.0670 -1.5626
 6839SOL     OW21057   3.627   7.214   0.039  0.7863  0.2635  0.3153
 6839SOL    HW121058   3.567   7.219   0.113  0.3500 -0.1156 -0.0058
 6839SOL    HW221059   3.675   7.132   0.053  0.7087  0.1951  0.1877
 6840SOL     OW21060   5.235   1.292   4.692  0.1227 -0.2944 -0.9023
 6840SOL    HW121061   5.321   1.248   4.689 -0.1052 -0.9232  0.6905
 6840SOL    HW221062   5.252   1.375   4.735 -0.0455 -0.3910 -0.6451
 6841SOL     OW21063   2.398   4.744   0.371  0.4255 -0.0177  0.6064
 6841SOL    HW121064   2.462   4.679   0.401 -1.1897 -2.6871 -1.3312
 6841SOL    HW221065   2.322   4.730   0.427  1.1097  2.6503  2.4062
 6842SOL     OW21066   5.812   1.584   0.653  0.3541 -0.0689  0.1035
 6842SOL    HW121067   5.779   1.653   0.711 -0.4818  0.0370 -0.4796
 6842SOL    HW221068   5.883   1.627   0.605  0.5221  0.0804  0.4822
 6843SOL     OW21069   5.163   4.369   1.111 -0.5560  0.3193  0.1916
 6843SOL    HW121070   5.158   4.436   1.179  3.2458  0.8275  0.1955
 6843SOL    HW221071   5.145   4.287   1.157 -1.4001  0.9508  1.0245
 6844SOL     OW21072   4.539   5.670   7.020  0.5253  0.3459 -0.0022
 6844SOL    HW121073   4.464   5.611   7.024  0.8418 -0.0823 -0.3453
 6844SOL    HW221074   4.601   5.634   7.084  0.1159  1.1696  0.8917
 6845SOL     OW21075   1.297   4.116   2.286  0.9027  0.0251  0.4052
 6845SOL    HW121076   1.320   4.161   2.205  0.6573  1.0147  0.8761
 6845SOL    HW221077   1.218   4.066   2.265  1.0068  0.0451 -0.0346
 6846SOL     OW21078   1.491   4.546   6.281 -0.3430  0.3711 -0.5083
 6846SOL    HW121079   1.486   4.591   6.197 -0.7341 -2.4859 -2.1433
 6846SOL    HW221080   1.400   4.529   6.305 -0.2381 -2.7202 -1.8805
 6847SOL     OW21081   1.025   6.585   0.249 -0.0098 -0.1171  0.2567
 6847SOL    HW121082   0.964   6.543   0.188 -0.5564 -1.3497  1.6042
 6847SOL    HW221083   1.024   6.528   0.326  1.7646  0.6252  0.8590
 6848SOL     OW21084   6.361   4.313   1.046 -0.0449  0.5492  0.4680
 6848SOL    HW121085   6.434   4.259   1.078 -0.7089 -0.4801  0.2954
 6848SOL    HW221086   6.360   4.388   1.105  1.5642  0.9295  0.0751
 6849SOL     OW21087   0.660   2.751   2.168  0.3397 -0.1683 -0.3105
 6849SOL    HW121088   0.586   2.795   2.127 -0.4062  0.1318  1.3093
 6849SOL    HW221089   0.731   2.815   2.164 -0.5320  0.9781  1.3768
 6850SOL     OW21090   6.269   2.672   4.338  0.1159  0.8942 -0.0043
 6850SOL    HW121091   6.337   2.723   4.296 -0.3226 -0.1775 -2.1522
 6850SOL    HW221092   6.306   2.584   4.346 -1.0014  0.2711 -1.2978
 6851SOL     OW21093   4.537   1.311   5.316 -0.6029  0.4772  0.2927
 6851SOL    HW121094   4.515   1.336   5.226 -0.0914 -0.6044 -0.1451
 6851SOL    HW221095   4.459   1.333   5.367 -1.3758 -0.0610 -0.6259
 6852SOL     OW21096   0.870   4.894   6.427 -0.2626  0.3102 -0.3137
 6852SOL    HW121097   0.849   4.848   6.345 -1.0696 -2.8856  1.5224
 6852SOL    HW221098   0.874   4.986   6.402  0.0955 -0.5573 -4.0386
 6853SOL     OW21099   0.337   0.034   3.600  0.0682 -0.2700  0.3053
 6853SOL    HW121100   0.333   0.117   3.647 -0.9012 -0.6271  0.8893
 6853SOL    HW221101   0.245   0.012   3.582  0.2584 -1.5787  0.8048
 6854SOL     OW21102   0.908   5.688   2.639  0.0260 -0.2819 -0.4935
 6854SOL    HW121103   0.981   5.720   2.585  0.2828  1.1957  0.6707
 6854SOL    HW221104   0.949   5.626   2.700  0.4832  1.0023  0.5684
 6855SOL     OW21105   5.191   7.095   3.074 -0.1374  0.3416 -0.1912
 6855SOL    HW121106   5.229   7.166   3.127  0.2654 -0.6708  0.9195
 6855SOL    HW221107   5.223   7.112   2.985  0.8407  0.9540  0.2558
 6856SOL     OW21108   6.594   6.634   3.337 -0.1451  0.7794  0.0459
 6856SOL    HW121109   6.621   6.567   3.399  0.9751 -0.1136 -1.3485
 6856SOL    HW221110   6.502   6.651   3.358  0.2997  0.8061  2.1631
 6857SOL     OW21111   5.368   0.930   4.712 -0.1394  0.4883  0.3795
 6857SOL    HW121112   5.335   0.942   4.623  0.5343  1.0556  0.1948
 6857SOL    HW221113   5.379   1.019   4.746  1.2866  0.3282  0.3886
 6858SOL     OW21114   3.819   4.529   3.679 -0.4134 -0.2877  0.2260
 6858SOL    HW121115   3.801   4.583   3.602  0.6594 -0.7536 -0.3798
 6858SOL    HW221116   3.903   4.560   3.712 -0.1289 -1.0938  0.2953
 6859SOL     OW21117   3.637   3.205   7.215 -0.3750  0.6184  0.0283
 6859SOL    HW121118   3.674   3.131   7.264 -0.5985  0.8765  0.5986
 6859SOL    HW221119   3.709   3.235   7.160 -0.9192 -1.4872 -2.0079
 6860SOL     OW21120   0.067   0.749   0.399  0.1914 -0.0709  0.2332
 6860SOL    HW121121   0.064   0.763   0.304 -1.8154  1.1035  0.4064
 6860SOL    HW221122   0.142   0.800   0.428  1.3161 -1.0799 -0.7737
 6861SOL     OW21123   2.708   1.442   0.358  0.4997 -0.1182 -0.0931
 6861SOL    HW121124   2.644   1.514   0.358  0.4963 -0.1179 -0.3778
 6861SOL    HW221125   2.792   1.485   0.372  0.5044 -0.0488 -0.3203
 6862SOL     OW21126   3.515   1.264   2.728 -0.2680 -0.1270  0.1350
 6862SOL    HW121127   3.570   1.333   2.766  0.0179 -0.2253 -0.0960
 6862SOL    HW221128   3.435   1.309   2.703 -0.5136 -0.0845  0.9640
 6863SOL     OW21129   2.279   0.078   2.319 -0.6254  1.0587  0.3140
 6863SOL    HW121130   2.190   0.109   2.298 -1.3835  0.2729  2.1370
 6863SOL    HW221131   2.270   0.037   2.405  0.1006 -4.7254 -1.9122
 6864SOL     OW21132   2.434   2.981   2.295  0.5263 -0.0812  0.4279
 6864SOL    HW121133   2.346   2.991   2.259 -0.0517  0.1759  1.8340
 6864SOL    HW221134   2.435   2.893   2.333  1.6554 -0.9747 -1.5162
 6865SOL     OW21135   5.811   5.572   4.774 -0.3578 -0.2060 -0.0217
 6865SOL    HW121136   5.814   5.485   4.734 -0.9360  0.4087 -1.4829
 6865SOL    HW221137   5.729   5.573   4.825 -1.3138  0.0688 -1.5026
 6866SOL     OW21138   6.499   4.240   2.469 -0.1681 -0.1828  0.2616
 6866SOL    HW121139   6.522   4.188   2.392 -0.6768 -0.9172  0.5976
 6866SOL    HW221140   6.564   4.216   2.535  0.0932  0.2292  0.1583
 6867SOL     OW21141   6.494   1.709   6.597 -0.0610 -0.6129  0.0805
 6867SOL    HW121142   6.462   1.619   6.598 -1.0808 -0.2623 -0.1163
 6867SOL    HW221143   6.589   1.700   6.610  0.0721 -1.8024 -1.3912
 6868SOL     OW21144   3.618   0.240   0.428  0.4202 -0.1221 -0.0176
 6868SOL    HW121145   3.656   0.317   0.385  1.7319 -0.9373 -0.3859
 6868SOL    HW221146   3.599   0.179   0.357 -2.3524  0.5310  0.0850
 6869SOL     OW21147   1.544   6.819   3.252 -0.1151  0.0247 -0.0794
 6869SOL    HW121148   1.549   6.817   3.157 -1.1263  1.7058 -0.2022
 6869SOL    HW221149   1.633   6.843   3.280 -0.4465  2.3908 -0.7991
 6870SOL     OW21150   3.688   4.456   4.065 -0.0755 -0.5013  0.2429
 6870SOL    HW121151   3.705   4.536   4.015  1.5882 -1.6633 -1.1562
 6870SOL    HW221152   3.655   4.487   4.149 -0.8760  1.5955 -0.7749
 6871SOL     OW21153   3.316   0.396   0.374  0.3578  0.1924 -0.1169
 6871SOL    HW121154   3.224   0.371   0.381  0.2013  1.0765  1.6747
 6871SOL    HW221155   3.365   0.316   0.395 -0.0520  0.1122  0.5650
 6872SOL     OW21156   2.451   6.426   4.828 -0.3698 -0.1641 -0.1935
 6872SOL    HW121157   2.542   6.410   4.802 -0.1119 -0.5947  0.9282
 6872SOL    HW221158   2.403   6.426   4.745  0.4079 -1.5818 -0.6874
 6873SOL     OW21159   2.643   5.454   0.700  0.2950  0.4423 -0.0620
 6873SOL    HW121160   2.665   5.365   0.672 -0.5053  0.3773 -0.5416
 6873SOL    HW221161   2.727   5.497   0.712  0.6876 -0.2307 -0.3217
 6874SOL     OW21162   3.070   3.386   1.110  0.7021 -0.2582 -0.7953
 6874SOL    HW121163   3.020   3.370   1.030  0.3213 -0.2067 -0.5665
 6874SOL    HW221164   3.142   3.323   1.106 -0.4405 -1.6601 -0.2001
 6875SOL     OW21165   3.423   6.204   6.017 -0.0324 -0.0387 -0.5033
 6875SOL    HW121166   3.437   6.265   6.089 -1.0417 -0.7680  0.3241
 6875SOL    HW221167   3.337   6.165   6.033 -1.5749  1.6999 -3.5049
 6876SOL     OW21168   0.850   7.471   2.104  0.1679  0.3651  0.2178
 6876SOL    HW121169   0.883   7.478   2.194  0.9684 -1.0184  0.0527
 6876SOL    HW221170   0.758   7.448   2.114  0.0761  0.8947  0.6692
 6877SOL     OW21171   2.090   6.352   5.325 -0.0058  0.2836 -0.3022
 6877SOL    HW121172   2.112   6.275   5.377  0.5868 -0.4675 -1.6187
 6877SOL    HW221173   1.997   6.340   5.303  0.0033  0.0921 -0.2412
 6878SOL     OW21174   2.951   7.494   2.550 -0.2591 -0.2170  0.3943
 6878SOL    HW121175   2.973   7.504   2.457  1.3907  0.2605  0.8047
 6878SOL    HW221176   3.015   7.431   2.583 -1.1383 -0.7461  1.1068
 6879SOL     OW21177   0.739   4.491   1.404  0.4088  0.5647  0.0579
 6879SOL    HW121178   0.675   4.451   1.346  0.0435  1.0366  0.1215
 6879SOL    HW221179   0.717   4.457   1.491 -0.1192  1.1440  0.1648
 6880SOL     OW21180   1.380   3.750   4.344  0.4202  0.3896 -0.4224
 6880SOL    HW121181   1.288   3.723   4.338  0.4225  0.1542  0.4729
 6880SOL    HW221182   1.382   3.806   4.422  1.0533  0.3350 -0.4007
 6881SOL     OW21183   5.702   1.815   2.423 -0.4615 -0.0761 -0.4784
 6881SOL    HW121184   5.638   1.836   2.491 -1.5567 -1.5022 -1.0071
 6881SOL    HW221185   5.740   1.732   2.452 -0.9178 -0.6869 -1.5502
 6882SOL     OW21186   0.990   1.856   1.616 -0.2813  0.7931  0.1093
 6882SOL    HW121187   0.982   1.762   1.628  0.3487  0.4532 -1.6805
 6882SOL    HW221188   0.998   1.892   1.704  1.1825 -1.0153  0.7815
 6883SOL     OW21189   2.642   4.908   2.584  0.2035  0.4086  0.6623
 6883SOL    HW121190   2.691   4.987   2.606  1.0380  1.0071 -2.7122
 6883SOL    HW221191   2.702   4.857   2.530 -1.4819 -0.8448 -0.1197
 6884SOL     OW21192   3.655   6.407   4.447 -0.1028  0.0711  0.0036
 6884SOL    HW121193   3.601   6.338   4.485  0.2527 -1.1625 -1.6472
 6884SOL    HW221194   3.593   6.471   4.412 -0.4620 -0.2795  0.0083
 6885SOL     OW21195   5.395   5.166   1.317  0.0611  0.3178 -0.4981
 6885SOL    HW121196   5.322   5.204   1.269 -1.3515 -1.3986  0.1451
 6885SOL    HW221197   5.371   5.074   1.329  2.1816 -0.2375  0.0550
 6886SOL     OW21198   5.661   4.755   2.755 -0.3197 -0.3402  0.1045
 6886SOL    HW121199   5.610   4.686   2.711  1.7444 -1.5526 -0.5362
 6886SOL    HW221200   5.636   4.835   2.709 -3.2089 -0.4675  1.2301
 6887SOL     OW21201   6.690   3.289   2.722 -0.4194 -0.3313 -0.0562
 6887SOL    HW121202   6.780   3.288   2.691 -0.2772  1.4771  0.2235
 6887SOL    HW221203   6.638   3.270   2.644  0.1844 -1.9922 -0.1035
 6888SOL     OW21204   7.351   0.716   3.949  0.4973  0.2218  0.1956
 6888SOL    HW121205   7.411   0.778   3.990  0.7841  0.7982 -1.0692
 6888SOL    HW221206   7.273   0.768   3.929  0.3075 -0.0858  0.1225
 6889SOL     OW21207   1.141   0.904   6.097 -0.2568 -0.4556 -0.3744
 6889SOL    HW121208   1.060   0.855   6.109 -1.2613  0.7781 -1.6925
 6889SOL    HW221209   1.136   0.936   6.007  0.5737  1.6010  0.2562
 6890SOL     OW21210   1.550   0.869   4.411  0.0366 -0.3989  0.4174
 6890SOL    HW121211   1.638   0.905   4.407 -1.3923  3.4556 -0.3414
 6890SOL    HW221212   1.527   0.850   4.320 -0.0710 -1.0337  0.5714
 6891SOL     OW21213   0.614   0.027   2.694 -0.3080  0.3527 -0.3477
 6891SOL    HW121214   0.564  -0.055   2.696 -0.3645  0.3173 -1.7638
 6891SOL    HW221215   0.597   0.068   2.778 -1.3471 -0.4794 -0.1304
 6892SOL     OW21216   7.013   2.127   0.225 -0.0286  0.0450  0.0931
 6892SOL    HW121217   6.926   2.159   0.203 -0.3607 -1.6737 -1.3595
 6892SOL    HW221218   7.071   2.173   0.163  0.1015  1.0637  0.9486
 6893SOL     OW21219   6.670   5.357   0.781 -0.7182 -0.2532 -0.3659
 6893SOL    HW121220   6.595   5.416   0.788 -0.3374  0.3596 -1.3144
 6893SOL    HW221221   6.634   5.270   0.800 -1.2700  0.2684  1.0853
 6894SOL     OW21222   7.195   7.009   6.629 -0.4582  0.5296  0.0808
 6894SOL    HW121223   7.186   7.093   6.675  2.1826  0.6936  0.4432
 6894SOL    HW221224   7.229   6.949   6.696 -0.1543 -0.2272 -0.7424
 6895SOL     OW21225   1.780   5.306   1.998 -0.7162  0.3613 -0.0704
 6895SOL    HW121226   1.787   5.401   2.012 -1.2628  0.2018  1.5536
 6895SOL    HW221227   1.866   5.272   2.023 -1.0519  0.2868  1.0665
 6896SOL     OW21228   5.047   3.605   2.261  0.2301  0.4055  0.3250
 6896SOL    HW121229   5.117   3.667   2.241 -1.0168  2.1699  1.1596
 6896SOL    HW221230   5.013   3.578   2.176  1.0026  0.5915 -0.0526
 6897SOL     OW21231   6.216   5.634   2.705  0.0368 -0.2367 -0.2845
 6897SOL    HW121232   6.181   5.653   2.618 -0.0104 -1.1647 -0.4871
 6897SOL    HW221233   6.188   5.544   2.722 -1.3861  0.4604  1.3980
 6898SOL     OW21234   2.383   7.004   2.273  0.3022 -0.2746 -0.0510
 6898SOL    HW121235   2.425   7.037   2.353 -0.7763 -1.2837  0.9739
 6898SOL    HW221236   2.426   7.052   2.202  1.0795  0.8751  1.1431
 6899SOL     OW21237   5.497   5.829   3.593  0.0889 -0.1908  0.2361
 6899SOL    HW121238   5.438   5.873   3.532 -0.8750 -0.3820  0.9969
 6899SOL    HW221239   5.563   5.787   3.538 -0.3224  0.2699 -0.6195
 6900SOL     OW21240   1.285   4.525   3.501  0.4462  0.6810  0.5085
 6900SOL    HW121241   1.197   4.556   3.481  1.0776  2.0103 -0.3021
 6900SOL    HW221242   1.315   4.582   3.572  1.4983  1.7893 -0.7837
 6901SOL     OW21243   1.563   3.042   3.584  0.1226 -0.1243  0.5784
 6901SOL    HW121244   1.570   3.098   3.507  0.2691 -1.2077 -0.2268
 6901SOL    HW221245   1.637   3.067   3.640 -0.2179  0.9445  0.5584
 6902SOL     OW21246   4.530   2.539   5.622  0.0622 -0.1268 -0.0992
 6902SOL    HW121247   4.519   2.508   5.712 -1.4157 -1.6461 -0.7382
 6902SOL    HW221248   4.451   2.589   5.604 -0.0345 -0.5154 -0.7938
 6903SOL     OW21249   2.354   3.324   4.355  0.1504  0.2155  0.4112
 6903SOL    HW121250   2.383   3.391   4.293 -0.1113  0.6758  0.7753
 6903SOL    HW221251   2.401   3.245   4.330 -0.0573  0.3645 -0.4524
 6904SOL     OW21252   4.864   6.085   2.277  0.1003  0.2959 -0.5588
 6904SOL    HW121253   4.824   6.159   2.232 -0.6195  0.2396 -0.0441
 6904SOL    HW221254   4.792   6.023   2.289  0.5193 -0.1480 -0.2974
 6905SOL     OW21255   0.823   3.470   0.469 -0.4390 -0.5397 -0.2388
 6905SOL    HW121256   0.790   3.505   0.387 -1.0982 -2.1892 -0.7059
 6905SOL    HW221257   0.875   3.393   0.444 -2.4529 -2.4228  0.9453
 6906SOL     OW21258   3.981   7.298   2.845  0.0477  0.2553 -0.2377
 6906SOL    HW121259   3.933   7.373   2.879 -1.8850 -0.9808 -0.0501
 6906SOL    HW221260   3.920   7.224   2.855  2.5734 -1.7954  1.6053
 6907SOL     OW21261   4.513   5.193   0.538  0.1062  0.0371  0.1920
 6907SOL    HW121262   4.478   5.149   0.615 -0.8982  1.1034  0.3727
 6907SOL    HW221263   4.511   5.127   0.469  0.0860 -0.6381  0.8327
 6908SOL     OW21264   5.792   5.009   2.382  0.3992 -0.4331 -0.9120
 6908SOL    HW121265   5.789   4.922   2.342 -0.1697 -1.1449  0.6090
 6908SOL    HW221266   5.727   5.060   2.332  0.1704 -1.1082 -1.3160
 6909SOL     OW21267   6.514   2.990   6.837 -0.3102 -0.0623 -0.0633
 6909SOL    HW121268   6.422   2.996   6.864  0.0021 -0.0813  1.0765
 6909SOL    HW221269   6.557   2.946   6.910  1.0516  2.2313  0.6130
 6910SOL     OW21270   7.283   2.381   6.014  0.0423 -0.0610  0.4913
 6910SOL    HW121271   7.370   2.385   6.054 -0.8456 -1.3459  2.7290
 6910SOL    HW221272   7.274   2.290   5.985 -0.7948 -0.1124  0.8889
 6911SOL     OW21273   4.977   2.150   1.012  0.3667  0.2692 -0.2315
 6911SOL    HW121274   5.034   2.199   0.952  1.2457  0.0395  0.3915
 6911SOL    HW221275   4.932   2.217   1.063  1.0923  0.4428  0.1860
 6912SOL     OW21276   7.293   4.775   3.276  0.1331 -0.0691  0.1389
 6912SOL    HW121277   7.233   4.718   3.324  0.4821  0.6430  1.4689
 6912SOL    HW221278   7.376   4.767   3.323  0.6369  0.2437 -0.6774
 6913SOL     OW21279   0.703   1.315   0.467  0.0256 -0.4658 -0.6838
 6913SOL    HW121280   0.610   1.319   0.442  0.1422  2.4590 -0.9712
 6913SOL    HW221281   0.748   1.290   0.386 -0.3881 -0.4416 -0.9290
 6914SOL     OW21282   7.491   7.106   4.026 -0.6926  0.1546  0.5987
 6914SOL    HW121283   7.580   7.137   4.046 -0.4575  0.0190 -0.2179
 6914SOL    HW221284   7.450   7.179   3.979 -0.9525  0.1383  0.7963
 6915SOL     OW21285   1.646   0.214   6.324  0.0598 -0.0579 -0.9747
 6915SOL    HW121286   1.611   0.219   6.412 -0.5687 -0.6571 -1.1787
 6915SOL    HW221287   1.740   0.231   6.334 -0.0098 -0.1151 -0.1974
 6916SOL     OW21288   7.007   2.275   2.563 -0.2638 -0.8701  1.0041
 6916SOL    HW121289   7.080   2.218   2.538  0.7792  0.3565  1.1072
 6916SOL    HW221290   6.959   2.290   2.481 -0.3144 -1.5509  0.9006
 6917SOL     OW21291   3.385   3.112   0.927 -1.1909 -0.3274  0.0028
 6917SOL    HW121292   3.452   3.045   0.916 -0.1726  0.4590  1.3241
 6917SOL    HW221293   3.308   3.063   0.956  0.2573 -0.7260  3.5953
 6918SOL     OW21294   1.791   4.692   1.091  0.3954  0.0140  0.1232
 6918SOL    HW121295   1.880   4.724   1.078  0.4089 -0.5244 -1.2496
 6918SOL    HW221296   1.783   4.682   1.186  1.6694  0.4031  0.2932
 6919SOL     OW21297   0.573   6.798   7.420 -1.0090  0.2301  0.2190
 6919SOL    HW121298   0.478   6.805   7.413 -1.0084 -0.5306 -0.8713
 6919SOL    HW221299   0.595   6.719   7.370  0.1780  0.3045  0.5894
 6920SOL     OW21300   3.364   2.565   5.938 -0.1668 -0.3283 -0.0386
 6920SOL    HW121301   3.446   2.518   5.924  0.7149  0.9308  0.7079
 6920SOL    HW221302   3.385   2.656   5.919 -1.7457 -0.1387 -1.1270
 6921SOL     OW21303   3.921   6.742   3.942 -0.4218 -0.3522  0.2339
 6921SOL    HW121304   3.993   6.680   3.954  0.2954  0.5445  0.6628
 6921SOL    HW221305   3.913   6.786   4.026  0.0130  1.0987 -0.4409
 6922SOL     OW21306   6.173   2.322   1.891  0.0990  0.4989 -0.1285
 6922SOL    HW121307   6.119   2.252   1.856 -0.7964  1.4989 -0.8331
 6922SOL    HW221308   6.200   2.292   1.977 -3.5348  0.8589  1.3023
 6923SOL     OW21309   2.327   3.591   3.775 -0.6256 -0.5284 -0.3562
 6923SOL    HW121310   2.253   3.601   3.716 -1.8195 -0.3668  1.1206
 6923SOL    HW221311   2.374   3.674   3.769 -1.0526 -0.3058 -0.6543
 6924SOL     OW21312   6.232   5.639   4.995 -0.1392 -0.3261  0.3514
 6924SOL    HW121313   6.179   5.617   5.071 -0.9646  0.4968  0.0267
 6924SOL    HW221314   6.183   5.603   4.921  0.1134 -0.1801  0.1100
 6925SOL     OW21315   4.836   6.488   3.133 -0.1371  0.1468 -0.7025
 6925SOL    HW121316   4.819   6.394   3.134  1.1309 -0.1100 -0.6198
 6925SOL    HW221317   4.872   6.507   3.220 -3.0971  1.3136  0.3980
 6926SOL     OW21318   5.197   0.780   0.198 -0.0160  0.3813  0.2891
 6926SOL    HW121319   5.247   0.700   0.181  0.5722  0.8084 -0.0442
 6926SOL    HW221320   5.224   0.808   0.285 -0.4498  0.0573  0.5311
 6927SOL     OW21321   2.401   7.344   5.538  0.3424 -0.2014 -0.2470
 6927SOL    HW121322   2.309   7.317   5.547  0.3070 -0.7107 -1.8204
 6927SOL    HW221323   2.420   7.332   5.445  2.4225 -1.4552  0.2803
 6928SOL     OW21324   0.507   7.502   3.732 -0.3841 -0.4124  0.4197
 6928SOL    HW121325   0.428   7.491   3.785 -0.2320 -0.7820  0.5703
 6928SOL    HW221326   0.487   7.577   3.676 -1.8073 -1.9553 -1.2742
 6929SOL     OW21327   1.931   2.897   5.297  0.2222 -0.1421  0.3913
 6929SOL    HW121328   2.001   2.899   5.362 -0.2057 -1.3605  0.9307
 6929SOL    HW221329   1.851   2.887   5.348 -0.3021  0.6933 -0.2443
 6930SOL     OW21330   2.470   4.729   2.722  0.1536  0.3006 -0.1034
 6930SOL    HW121331   2.509   4.789   2.659 -0.8540  1.7687  0.6249
 6930SOL    HW221332   2.381   4.760   2.734  0.0401 -0.4917  1.3529
 6931SOL     OW21333   4.695   5.766   2.199  0.5238 -0.1632  0.0910
 6931SOL    HW121334   4.608   5.731   2.178  0.2782 -0.2713  1.2296
 6931SOL    HW221335   4.748   5.747   2.121  0.4185 -3.1233  0.5999
 6932SOL     OW21336   5.497   2.411   7.249 -0.3838  0.2714  0.5662
 6932SOL    HW121337   5.417   2.379   7.209  0.2288  0.0124 -0.4890
 6932SOL    HW221338   5.528   2.481   7.191  0.4287  0.0176  0.6755
 6933SOL     OW21339   2.227   7.591   5.430 -0.6622  0.2893 -0.4767
 6933SOL    HW121340   2.290   7.657   5.459 -0.5829  0.8304 -1.7861
 6933SOL    HW221341   2.154   7.642   5.396 -0.6051 -0.2785 -1.4966
 6934SOL     OW21342   4.705   3.079   6.548 -0.2924 -0.1380 -0.3487
 6934SOL    HW121343   4.788   3.118   6.518 -1.6754  2.1598 -1.4673
 6934SOL    HW221344   4.710   2.988   6.518  1.5445  0.1266 -0.9962
 6935SOL     OW21345   7.558   4.594   6.458 -0.4764 -0.0297  0.6550
 6935SOL    HW121346   7.624   4.553   6.514  1.2307  0.1529 -1.0867
 6935SOL    HW221347   7.608   4.658   6.406 -2.2627  1.0083  0.1151
 6936SOL     OW21348   2.971   1.363   6.123 -0.0900 -0.3926 -0.1271
 6936SOL    HW121349   2.994   1.298   6.057 -0.4903 -1.1173  0.4316
 6936SOL    HW221350   2.877   1.351   6.137 -0.6986  1.8535 -1.6531
 6937SOL     OW21351   7.442   3.756   1.938 -0.6297 -0.2148  0.0804
 6937SOL    HW121352   7.451   3.849   1.918  0.4043 -0.4435 -0.6198
 6937SOL    HW221353   7.471   3.748   2.029  1.5858 -0.1510 -0.5627
 6938SOL     OW21354   0.187   2.776   6.391  0.3997  0.0486  0.0955
 6938SOL    HW121355   0.144   2.771   6.476 -0.5368  2.6671 -0.1410
 6938SOL    HW221356   0.119   2.749   6.329 -0.3354  2.2348 -0.1134
 6939SOL     OW21357   0.003   5.312   2.583 -0.1837  0.0067 -0.5556
 6939SOL    HW121358  -0.018   5.377   2.516  0.0173  0.5774 -0.0843
 6939SOL    HW221359  -0.081   5.281   2.615 -0.2824 -0.7514 -1.5149
 6940SOL     OW21360   5.177   7.240   1.676 -0.2104  0.0389 -0.3317
 6940SOL    HW121361   5.192   7.160   1.626  1.2415 -1.3112  2.0782
 6940SOL    HW221362   5.183   7.310   1.611  0.3912 -1.6614 -2.2118
 6941SOL     OW21363   5.471   4.427   0.187 -0.0603 -0.0289 -0.0749
 6941SOL    HW121364   5.446   4.429   0.279  0.8954  1.9792  0.2021
 6941SOL    HW221365   5.439   4.510   0.152 -1.9399 -1.4640 -2.0553
 6942SOL     OW21366   5.482   0.068   4.172  0.5932 -0.2379 -0.0542
 6942SOL    HW121367   5.413   0.047   4.235  0.8442  0.0052  0.3055
 6942SOL    HW221368   5.458   0.019   4.093 -0.2147  0.1874 -0.0753
 6943SOL     OW21369   0.387   7.086   4.680 -0.4289 -0.5621  0.3257
 6943SOL    HW121370   0.348   7.170   4.706 -1.6109 -1.3510  1.1728
 6943SOL    HW221371   0.405   7.041   4.762  0.9618 -0.8288 -0.1017
 6944SOL     OW21372   2.719   0.600   1.158 -0.0658 -0.2897  0.0338
 6944SOL    HW121373   2.720   0.673   1.096  0.3097 -1.4446 -1.3708
 6944SOL    HW221374   2.638   0.553   1.138 -2.5201  1.8736  3.6330
 6945SOL     OW21375   6.270   2.487   3.232 -0.7066  0.1452  0.2548
 6945SOL    HW121376   6.352   2.511   3.276  0.5006 -2.1922 -0.5560
 6945SOL    HW221377   6.292   2.487   3.139 -0.9747 -2.4744  0.1140
 6946SOL     OW21378   2.508   0.146   3.316  0.5955 -0.1569  0.1016
 6946SOL    HW121379   2.424   0.167   3.357  0.0398 -0.5856 -0.7849
 6946SOL    HW221380   2.570   0.146   3.389  0.2535  2.3185  0.4910
 6947SOL     OW21381   5.901   1.487   7.295  0.1021 -0.7041  0.0615
 6947SOL    HW121382   5.980   1.432   7.292 -0.0874 -1.1243  1.7018
 6947SOL    HW221383   5.860   1.475   7.210  0.1748 -2.9644  0.2893
 6948SOL     OW21384   5.761   3.924   7.455 -0.1033  0.1023  0.0665
 6948SOL    HW121385   5.773   3.987   7.384  2.6170 -1.6902 -1.2232
 6948SOL    HW221386   5.818   3.956   7.525  1.1659 -0.7564 -0.5347
 6949SOL     OW21387   5.385   0.584   2.312  0.1519 -0.2959  0.6903
 6949SOL    HW121388   5.400   0.669   2.273  0.7731 -1.0398 -0.7712
 6949SOL    HW221389   5.326   0.601   2.386 -0.6135  1.2428 -0.2263
 6950SOL     OW21390   5.210   7.515   6.142 -0.2600 -0.0631  0.3477
 6950SOL    HW121391   5.119   7.499   6.118  0.2357  0.1444 -1.8794
 6950SOL    HW221392   5.255   7.434   6.121  0.2448  0.1868  0.4484
 6951SOL     OW21393   6.927   6.469   6.643 -0.4855  0.1907 -0.5412
 6951SOL    HW121394   7.008   6.514   6.619  1.9227 -1.8404  2.8268
 6951SOL    HW221395   6.922   6.395   6.582 -1.1330  1.5074 -2.1722
 6952SOL     OW21396   3.091   3.854   5.529  0.0942 -0.1888  0.3270
 6952SOL    HW121397   3.055   3.766   5.522 -0.9606  0.1909  0.8421
 6952SOL    HW221398   3.016   3.910   5.550  0.6463  0.9243 -0.5265
 6953SOL     OW21399   1.444   2.781   2.802 -0.0064  0.3168 -0.0445
 6953SOL    HW121400   1.433   2.817   2.889 -0.1932 -1.2898  0.6278
 6953SOL    HW221401   1.356   2.781   2.764 -0.0500  0.2825  0.0583
 6954SOL     OW21402   1.343   4.074   4.171  0.2907  0.5225 -0.2315
 6954SOL    HW121403   1.285   4.095   4.244 -1.3139  0.5841 -1.4649
 6954SOL    HW221404   1.430   4.094   4.203 -0.4280  1.1204  1.4586
 6955SOL     OW21405   0.983   1.702   7.147  0.1033 -0.1869 -0.5357
 6955SOL    HW121406   0.942   1.765   7.206 -0.5151  1.0580 -2.2093
 6955SOL    HW221407   0.984   1.620   7.196 -1.6836  0.4487  0.6627
 6956SOL     OW21408   1.430   4.980   3.458 -0.8905  0.3576  0.5579
 6956SOL    HW121409   1.421   5.002   3.550  1.0367 -0.9465  1.1145
 6956SOL    HW221410   1.472   5.057   3.419 -0.0703  0.2095  1.1438
 6957SOL     OW21411   6.505   3.951   2.638 -0.1528 -0.0617 -0.2301
 6957SOL    HW121412   6.581   4.009   2.629 -0.7240  0.6130 -0.9669
 6957SOL    HW221413   6.500   3.906   2.554 -0.6235 -0.0207 -0.2259
 6958SOL     OW21414   6.957   3.590   1.256 -0.1981 -0.3209 -0.6275
 6958SOL    HW121415   6.951   3.678   1.220  1.8914  0.3296  0.4750
 6958SOL    HW221416   6.960   3.533   1.179  1.6750  0.8418 -1.4959
 6959SOL     OW21417   3.151   2.127   3.626 -0.0480 -0.5348 -0.4318
 6959SOL    HW121418   3.103   2.049   3.600 -0.5254 -0.3559 -0.0918
 6959SOL    HW221419   3.087   2.197   3.624  0.3975 -0.1348 -0.8049
 6960SOL     OW21420   5.964   5.364   0.536 -0.2720 -0.3428  0.1139
 6960SOL    HW121421   6.054   5.388   0.559 -0.2455  0.1733 -0.5080
 6960SOL    HW221422   5.972   5.273   0.505  0.1528 -0.0727 -0.5970
 6961SOL     OW21423   2.139   5.051   3.946 -0.1242  0.1275 -0.0121
 6961SOL    HW121424   2.165   5.043   3.854  1.0449  1.1430  0.2073
 6961SOL    HW221425   2.159   5.142   3.969 -5.2397  1.6340 -0.2056
 6962SOL     OW21426   3.505   7.467   4.740  0.3695 -0.2570 -0.0975
 6962SOL    HW121427   3.526   7.445   4.831 -0.3594  0.6139  0.3012
 6962SOL    HW221428   3.423   7.516   4.746  0.8795  0.7651 -1.1182
 6963SOL     OW21429   0.494   0.477   3.761 -0.4399  0.1281 -0.7550
 6963SOL    HW121430   0.504   0.509   3.671  1.9869  2.9736  0.3832
 6963SOL    HW221431   0.583   0.458   3.790 -0.7580  2.4020  2.0509
 6964SOL     OW21432   6.625   3.489   5.641 -0.0104 -0.3289  0.2497
 6964SOL    HW121433   6.651   3.413   5.694 -2.8132 -0.4343  1.6701
 6964SOL    HW221434   6.699   3.504   5.583  1.1024 -3.4747  0.6593
 6965SOL     OW21435   7.507   1.178   0.023  0.1957 -0.4484  0.2461
 6965SOL    HW121436   7.534   1.268   0.043 -1.9806 -0.0147  1.6227
 6965SOL    HW221437   7.416   1.187  -0.006 -0.2875 -2.2715  1.0800
 6966SOL     OW21438   6.336   1.637   3.669  0.0335  0.4829  0.5043
 6966SOL    HW121439   6.410   1.672   3.620  0.7770 -1.7707 -0.0973
 6966SOL    HW221440   6.370   1.559   3.712 -1.7922 -0.1457  0.9075
 6967SOL     OW21441   1.449   4.272   4.917  0.1208  0.3432 -0.0046
 6967SOL    HW121442   1.421   4.232   5.000  0.5647  0.0177 -0.0133
 6967SOL    HW221443   1.413   4.361   4.921  1.0622  0.7086  1.0373
 6968SOL     OW21444   5.392   4.867   5.111 -0.4116 -0.2352  0.1394
 6968SOL    HW121445   5.471   4.919   5.100 -0.0327 -0.8426 -0.0462
 6968SOL    HW221446   5.333   4.898   5.043  0.1257 -0.6201 -0.5118
 6969SOL     OW21447   7.483   0.886   0.184 -0.4336 -0.4671  0.2419
 6969SOL    HW121448   7.503   0.793   0.189 -0.1810 -0.4536 -0.3926
 6969SOL    HW221449   7.390   0.890   0.165 -0.3448 -0.6070 -0.2402
 6970SOL     OW21450   3.591   0.954   6.497  0.1850 -0.0133 -0.4945
 6970SOL    HW121451   3.539   0.931   6.420 -1.2686 -0.9838  0.7227
 6970SOL    HW221452   3.564   1.044   6.517 -1.4751 -0.6671  0.4084
 6971SOL     OW21453   4.710   6.841   4.658  0.5304 -0.0522 -0.7474
 6971SOL    HW121454   4.623   6.821   4.694  1.1240 -0.0793  0.7590
 6971SOL    HW221455   4.718   6.786   4.581 -0.3931 -0.8261 -0.3092
 6972SOL     OW21456   6.757   1.867   0.982  0.5657 -0.0564 -0.3879
 6972SOL    HW121457   6.740   1.852   0.889  0.8329  0.6591 -0.5629
 6972SOL    HW221458   6.789   1.958   0.986 -1.6692  0.7502  0.6923
 6973SOL     OW21459   6.784   6.344   0.321  0.4881  0.2717  0.3514
 6973SOL    HW121460   6.771   6.437   0.337  1.1240  0.3541  0.4301
 6973SOL    HW221461   6.879   6.334   0.310  0.5788 -0.5601  1.6390
 6974SOL     OW21462   0.908   2.971   4.761  0.8080  0.0212  0.7563
 6974SOL    HW121463   0.879   3.020   4.684 -0.3342 -0.5117  0.8237
 6974SOL    HW221464   1.001   2.954   4.746  1.0183  1.4093  0.3129
 6975SOL     OW21465   2.607   1.822   5.688 -0.4366 -0.1777 -0.4057
 6975SOL    HW121466   2.555   1.744   5.672 -2.2886  0.7570  0.7223
 6975SOL    HW221467   2.589   1.878   5.612  3.2643 -1.8793 -2.8204
 6976SOL     OW21468   4.416   7.200   5.672  0.3959  0.6348 -0.0521
 6976SOL    HW121469   4.367   7.118   5.670  1.0566  0.2412 -1.9555
 6976SOL    HW221470   4.387   7.248   5.595  0.5406  1.8956  0.6505
 6977SOL     OW21471   0.438   5.121   5.122 -0.1389 -0.3743  0.2622
 6977SOL    HW121472   0.455   5.148   5.032 -0.7943 -1.1886 -0.1197
 6977SOL    HW221473   0.461   5.028   5.123  1.8744  0.0681  1.4807
 6978SOL     OW21474   5.882   5.718   0.079  0.7476 -0.0185  0.2903
 6978SOL    HW121475   5.878   5.734  -0.015 -0.6369 -2.8775 -0.2486
 6978SOL    HW221476   5.794   5.739   0.110  0.8787 -0.1551  0.7540
 6979SOL     OW21477   1.403   2.453   6.879  0.5070 -0.1769  0.3984
 6979SOL    HW121478   1.342   2.490   6.816  0.8298 -0.8313 -0.3250
 6979SOL    HW221479   1.468   2.522   6.893  1.5917 -0.7104 -1.6005
 6980SOL     OW21480   1.803   2.680   1.886  0.3210 -0.1157 -0.3270
 6980SOL    HW121481   1.810   2.594   1.845 -0.4710 -0.3027 -0.0838
 6980SOL    HW221482   1.719   2.715   1.854 -1.0951 -0.8994  2.2912
 6981SOL     OW21483   1.851   7.102   6.480  0.1291 -0.3398 -0.0281
 6981SOL    HW121484   1.838   7.090   6.574  1.4642  2.6368  0.6578
 6981SOL    HW221485   1.763   7.121   6.446 -0.3643 -1.4319  0.5762
 6982SOL     OW21486   2.118   0.175   1.070 -0.1489  0.3908  0.2652
 6982SOL    HW121487   2.175   0.247   1.042 -0.9591  0.6821 -0.7016
 6982SOL    HW221488   2.142   0.102   1.012 -1.4261  0.8199 -0.8743
 6983SOL     OW21489   7.228   1.683   6.599  0.4086 -0.1655  0.1402
 6983SOL    HW121490   7.305   1.651   6.646  2.0580  1.8095 -1.0576
 6983SOL    HW221491   7.171   1.716   6.667  1.9531  1.0086  0.9253
 6984SOL     OW21492   3.931   4.241   5.427  0.1827 -0.4219 -0.0930
 6984SOL    HW121493   3.863   4.175   5.439 -0.2333  0.2256  1.3508
 6984SOL    HW221494   3.886   4.315   5.387 -0.3311  0.5247  2.1065
 6985SOL     OW21495   5.321   1.457   2.351  0.0356 -0.2261 -0.2467
 6985SOL    HW121496   5.380   1.464   2.275  2.0526 -1.1463  1.1435
 6985SOL    HW221497   5.257   1.391   2.325  1.8893 -2.0285 -0.5014
 6986SOL     OW21498   6.849   4.330   1.440 -0.4025 -0.5295 -0.3613
 6986SOL    HW121499   6.769   4.335   1.389 -0.9833 -0.0778  0.5601
 6986SOL    HW221500   6.819   4.319   1.530  0.5769 -0.6300 -0.0317
 6987SOL     OW21501   4.593   4.792   7.280  0.1777 -0.3765  0.7736
 6987SOL    HW121502   4.667   4.829   7.232  0.9690 -1.7807  0.8560
 6987SOL    HW221503   4.516   4.838   7.246  0.9145 -0.0664 -0.5115
 6988SOL     OW21504   5.034   4.927   1.886 -0.0952 -0.0081  0.2522
 6988SOL    HW121505   5.104   4.864   1.869 -0.9462 -0.6119 -1.1765
 6988SOL    HW221506   4.964   4.903   1.825 -1.4755  0.7105  1.4797
 6989SOL     OW21507   1.810   5.779   4.733 -0.1180  0.4136 -0.2976
 6989SOL    HW121508   1.826   5.764   4.827 -1.7595 -1.4078 -0.2602
 6989SOL    HW221509   1.857   5.709   4.689 -0.5964  0.3642 -0.7372
 6990SOL     OW21510   3.045   6.270   6.185 -0.0561 -0.1588 -0.3512
 6990SOL    HW121511   3.056   6.234   6.097 -1.6000 -1.2796 -0.1206
 6990SOL    HW221512   3.121   6.238   6.233  0.6316  0.1988 -1.1723
 6991SOL     OW21513   2.969   3.647   3.046  0.2871 -0.2085 -0.1307
 6991SOL    HW121514   3.023   3.634   3.124  0.5418  1.5570  0.0352
 6991SOL    HW221515   2.987   3.571   2.991  1.1954 -0.7730  0.9103
 6992SOL     OW21516   1.816   6.452   0.536 -0.0113 -0.1484 -0.3532
 6992SOL    HW121517   1.835   6.391   0.608 -1.8342  0.5982  0.8435
 6992SOL    HW221518   1.756   6.516   0.575  0.3966  1.3519 -2.0759
 6993SOL     OW21519   6.286   1.576   5.512 -0.1404 -0.3378  0.4128
 6993SOL    HW121520   6.369   1.624   5.517  0.5694 -1.5324  0.2577
 6993SOL    HW221521   6.247   1.604   5.429  1.2874 -1.6357 -0.7278
 6994SOL     OW21522   6.461   6.017   0.248  0.1027  0.6507 -0.7771
 6994SOL    HW121523   6.541   5.965   0.253 -0.8228 -0.7019  1.1035
 6994SOL    HW221524   6.472   6.086   0.313 -0.8061 -0.4149  0.5509
 6995SOL     OW21525   3.371   6.174   0.400 -0.0234  1.0661  0.4112
 6995SOL    HW121526   3.399   6.183   0.309 -0.4269  1.8779  0.3608
 6995SOL    HW221527   3.293   6.117   0.395  0.3506  0.5503  0.3314
 6996SOL     OW21528   3.869   2.932   3.890  0.5314 -0.2710  0.1819
 6996SOL    HW121529   3.902   2.987   3.961  0.9058  0.0874 -0.2603
 6996SOL    HW221530   3.823   2.992   3.832 -0.4468 -0.6836  0.5062
 6997SOL     OW21531   1.610   4.221   0.298 -0.6612 -0.2099  0.1972
 6997SOL    HW121532   1.588   4.187   0.211 -0.0016  1.6296 -0.7547
 6997SOL    HW221533   1.692   4.178   0.321 -1.2019 -1.2467  0.2668
 6998SOL     OW21534   6.812   0.002   2.456  0.1373 -0.0758 -0.4544
 6998SOL    HW121535   6.744  -0.057   2.422  0.7042 -0.2652 -1.2939
 6998SOL    HW221536   6.857   0.034   2.378 -1.1283  2.7069 -0.1635
 6999SOL     OW21537   6.777   2.843   1.223 -0.2635  0.0296  0.2638
 6999SOL    HW121538   6.686   2.839   1.193  0.5611 -1.3386 -2.4024
 6999SOL    HW221539   6.828   2.820   1.145  2.2977 -0.6454  2.0392
 7000SOL     OW21540   6.470   2.929   5.529  0.4019  0.4641  0.1011
 7000SOL    HW121541   6.559   2.897   5.520  0.3215 -0.0305  0.8704
 7000SOL    HW221542   6.421   2.854   5.564 -0.5794  0.3549 -1.3952
 7001SOL     OW21543   4.727   4.806   5.660 -0.3003 -0.2897  0.4326
 7001SOL    HW121544   4.706   4.738   5.725 -0.3617  0.1992  0.9304
 7001SOL    HW221545   4.758   4.880   5.712  1.6808 -0.6180 -0.2288
 7002SOL     OW21546   5.498   6.150   2.208 -0.0643  0.2109  0.3074
 7002SOL    HW121547   5.497   6.111   2.296  0.2066 -0.5280 -0.0121
 7002SOL    HW221548   5.591   6.154   2.185 -0.1245  0.5402  0.1069
 7003SOL     OW21549   0.256   4.968   7.016 -0.0371  0.0774 -0.2904
 7003SOL    HW121550   0.203   4.891   7.035 -0.1294  0.1401 -0.2903
 7003SOL    HW221551   0.288   4.954   6.927  1.9866 -1.1349  0.5473
 7004SOL     OW21552   0.246   2.929   5.082 -0.2787  0.6913  0.5182
 7004SOL    HW121553   0.170   2.954   5.030 -0.0360  1.3143  0.4455
 7004SOL    HW221554   0.319   2.977   5.043  0.2988 -0.4935  0.1081
 7005SOL     OW21555   0.530   3.452   7.035 -0.0956 -0.6282 -0.2162
 7005SOL    HW121556   0.595   3.518   7.010  1.6287 -0.9620  2.8427
 7005SOL    HW221557   0.453   3.503   7.060 -0.0322 -0.0401 -1.1712
 7006SOL     OW21558   2.390   2.268   6.642 -0.7673  0.0626 -0.0518
 7006SOL    HW121559   2.446   2.346   6.644 -0.5190 -0.1201  0.4537
 7006SOL    HW221560   2.445   2.200   6.605 -0.6653 -0.1031  0.3929
 7007SOL     OW21561   4.916   3.814   5.191 -0.1555 -0.1736 -0.0304
 7007SOL    HW121562   4.843   3.788   5.248 -0.0062 -0.7840 -0.1099
 7007SOL    HW221563   4.906   3.908   5.181  0.0484  0.0146  1.3362
 7008SOL     OW21564   4.999   7.416   1.354  0.1947 -0.3943 -0.0383
 7008SOL    HW121565   5.062   7.420   1.426 -0.0798  0.7920  0.1478
 7008SOL    HW221566   4.978   7.507   1.335 -0.6172 -0.7379 -0.8509
 7009SOL     OW21567   6.477   1.930   0.674 -0.2973  0.1136  0.0393
 7009SOL    HW121568   6.506   2.021   0.669 -0.7146  0.2164 -0.8607
 7009SOL    HW221569   6.381   1.935   0.676 -0.3954 -0.3184 -1.6213
 7010SOL     OW21570   5.011   5.626   6.557 -0.1753  0.0192  0.2217
 7010SOL    HW121571   5.061   5.707   6.570 -1.0592  0.6856 -0.4045
 7010SOL    HW221572   4.953   5.622   6.633  0.2177 -0.3068  0.5114
 7011SOL     OW21573   7.519   2.414   3.792 -0.2772 -0.4217  0.0836
 7011SOL    HW121574   7.445   2.427   3.851  1.3721  1.6494  1.8453
 7011SOL    HW221575   7.502   2.474   3.719  0.7703  1.9670  1.6936
 7012SOL     OW21576   1.365   2.183   6.903 -0.6709 -0.1925 -0.9103
 7012SOL    HW121577   1.270   2.170   6.905 -0.7184 -0.4477  2.7682
 7012SOL    HW221578   1.376   2.278   6.907 -0.8793 -0.2027  0.6065
 7013SOL     OW21579   7.146   2.158   5.295  0.2499  0.0461  0.0310
 7013SOL    HW121580   7.189   2.148   5.380 -1.9695 -0.3832  1.1795
 7013SOL    HW221581   7.110   2.072   5.276  0.2186  0.2929 -1.0877
 7014SOL     OW21582   4.479   7.249   6.539 -0.0173 -0.4522  0.0542
 7014SOL    HW121583   4.495   7.175   6.596  1.3685  0.3299  0.7295
 7014SOL    HW221584   4.564   7.291   6.530 -0.9134  1.5428  0.3849
 7015SOL     OW21585   0.689   3.330   4.976  0.2934 -0.4615  0.1864
 7015SOL    HW121586   0.602   3.296   4.997 -0.7274  1.1212 -1.2122
 7015SOL    HW221587   0.689   3.340   4.881  1.6635  0.4703  0.2502
 7016SOL     OW21588   2.556   2.058   6.516  0.0799 -0.1437 -0.5481
 7016SOL    HW121589   2.614   2.005   6.462  1.9074 -2.1636  3.0531
 7016SOL    HW221590   2.470   2.017   6.506  0.8762 -2.0199 -0.1248
 7017SOL     OW21591   6.076   6.903   6.079 -0.0823 -0.0717  0.0833
 7017SOL    HW121592   6.030   6.980   6.112  0.0893  0.0768 -0.0164
 7017SOL    HW221593   6.118   6.934   5.998 -2.5239 -1.0629 -1.6601
 7018SOL     OW21594   0.808   0.048   0.222 -0.0396  0.0725 -0.2540
 7018SOL    HW121595   0.903   0.056   0.232  0.1190  2.6686 -2.5752
 7018SOL    HW221596   0.796   0.010   0.135 -1.1383 -0.0113 -0.0881
 7019SOL     OW21597   5.645   7.408   6.351 -0.0415 -0.1832 -0.2487
 7019SOL    HW121598   5.637   7.454   6.268 -0.2896  0.4678  0.1260
 7019SOL    HW221599   5.573   7.443   6.405  0.1459 -0.5570  0.2505
 7020SOL     OW21600   7.275   6.564   1.600  0.0008 -0.0942 -0.5116
 7020SOL    HW121601   7.229   6.490   1.560 -1.3972 -0.4555  1.6060
 7020SOL    HW221602   7.225   6.640   1.572 -1.6220 -0.4341  1.2676
 7021SOL     OW21603   7.563   5.596   4.084  0.2948 -0.1598 -0.0210
 7021SOL    HW121604   7.545   5.629   4.172 -0.9544 -0.1007 -0.2800
 7021SOL    HW221605   7.538   5.667   4.025  1.6320  0.0046 -0.4256
 7022SOL     OW21606   2.720   6.043   4.542 -0.4139 -0.2835 -0.3310
 7022SOL    HW121607   2.630   6.075   4.539 -0.5105 -0.6047 -1.3414
 7022SOL    HW221608   2.757   6.068   4.457  1.2594  2.0764  0.9960
 7023SOL     OW21609   1.386   4.669   0.516  0.3136 -0.2784 -0.5183
 7023SOL    HW121610   1.307   4.699   0.471 -0.3935 -1.1372  0.0990
 7023SOL    HW221611   1.440   4.748   0.526 -0.3275  0.2621 -1.2255
 7024SOL     OW21612   1.566   2.963   6.487  0.2687  0.1092  0.0299
 7024SOL    HW121613   1.577   2.881   6.440  0.0505  0.3018 -0.3674
 7024SOL    HW221614   1.477   2.991   6.465 -0.3743 -0.4996  1.6715
 7025SOL     OW21615   5.246   0.394   0.360  0.2685  0.1798  0.1000
 7025SOL    HW121616   5.322   0.344   0.328  2.3367  1.3104  2.8550
 7025SOL    HW221617   5.228   0.357   0.446 -0.5768  1.7008  0.6064
 7026SOL     OW21618   2.956   2.966   0.824 -0.0736 -0.0062  0.3176
 7026SOL    HW121619   3.021   2.956   0.754 -1.2358  0.6955 -0.8990
 7026SOL    HW221620   2.968   3.057   0.854 -0.9486  0.3630 -0.4095
 7027SOL     OW21621   2.065   3.439   5.046  0.0653 -0.0946  0.2465
 7027SOL    HW121622   2.098   3.500   5.112 -1.2349 -0.8467  1.6532
 7027SOL    HW221623   2.096   3.353   5.074  1.1429 -0.2219 -1.2364
 7028SOL     OW21624   3.853   1.209   0.534 -0.5677 -0.1985  0.5902
 7028SOL    HW121625   3.948   1.220   0.536 -0.5992  0.1316  0.4768
 7028SOL    HW221626   3.825   1.254   0.454 -1.0231  1.5211  1.6441
 7029SOL     OW21627   1.159   1.920   0.807  0.1505  0.1303 -0.3159
 7029SOL    HW121628   1.129   1.987   0.869 -1.9028  0.0065 -1.1167
 7029SOL    HW221629   1.126   1.949   0.722 -2.1833 -2.5821 -0.4959
 7030SOL     OW21630   1.827   6.934   5.799 -0.5122 -0.5970  0.2796
 7030SOL    HW121631   1.785   6.874   5.738 -0.6059 -3.3870  2.8152
 7030SOL    HW221632   1.915   6.945   5.766 -1.3868  0.4140 -1.8776
 7031SOL     OW21633   3.743   2.057   2.107 -0.4812  0.4389 -0.4255
 7031SOL    HW121634   3.820   2.108   2.132  0.6423 -0.9767 -0.8611
 7031SOL    HW221635   3.747   1.979   2.162 -2.2444  0.8286  0.3263
 7032SOL     OW21636   3.355   2.386   3.377  0.1938  0.8866 -0.3770
 7032SOL    HW121637   3.348   2.445   3.302 -0.9432  0.2180 -0.8227
 7032SOL    HW221638   3.289   2.318   3.361 -1.1782  1.5397  1.9433
 7033SOL     OW21639   5.100   5.110   7.535 -0.6726  0.1806 -0.0461
 7033SOL    HW121640   5.099   5.201   7.504 -0.6195 -0.6013 -2.5690
 7033SOL    HW221641   5.098   5.117   7.631  2.1179  2.9144 -0.0371
 7034SOL     OW21642   0.004   3.455   2.123 -0.8419  0.5072  0.2919
 7034SOL    HW121643   0.045   3.449   2.037 -1.6090  1.8407 -0.1928
 7034SOL    HW221644  -0.086   3.424   2.109 -0.8828  0.4455  0.6785
 7035SOL     OW21645   7.281   4.359   1.654  0.2951 -0.2292  0.0015
 7035SOL    HW121646   7.331   4.417   1.712  1.5315  1.0772 -2.2330
 7035SOL    HW221647   7.341   4.288   1.633  0.0711 -0.3753 -0.1510
 7036SOL     OW21648   0.948   5.396   1.926  0.2168 -0.1894  0.3480
 7036SOL    HW121649   0.919   5.388   2.017  0.0490 -1.1742  0.2128
 7036SOL    HW221650   1.035   5.437   1.933 -0.6142  1.5808  0.8186
 7037SOL     OW21651   1.522   6.822   6.013  0.0189  0.2899  0.3208
 7037SOL    HW121652   1.601   6.827   6.068  0.5740 -1.5082 -0.2401
 7037SOL    HW221653   1.536   6.745   5.959 -0.0088  2.5356 -3.1987
 7038SOL     OW21654   3.987   1.894   0.278  0.6834  0.3457  0.2495
 7038SOL    HW121655   3.970   1.861   0.366  0.1767  2.1386  0.8635
 7038SOL    HW221656   3.916   1.955   0.260  0.4851 -0.3725 -1.6369
 7039SOL     OW21657   1.069   5.638   5.862  0.1299  0.1572  0.0780
 7039SOL    HW121658   1.142   5.587   5.898  0.6916  1.9247  1.6172
 7039SOL    HW221659   1.069   5.719   5.914 -0.7890  1.6819 -2.1555
 7040SOL     OW21660   6.290   0.995   3.598 -0.1484  0.3585 -0.1314
 7040SOL    HW121661   6.238   1.032   3.670  1.7125  1.4263  0.7596
 7040SOL    HW221662   6.281   1.058   3.527 -0.5659  0.2275 -0.1928
 7041SOL     OW21663   4.411   6.122   3.847  0.1923  0.3653 -0.4786
 7041SOL    HW121664   4.339   6.156   3.900  0.2242  1.8783 -1.3318
 7041SOL    HW221665   4.472   6.085   3.910 -0.8433  0.0149  0.3414
 7042SOL     OW21666   5.843   4.440   2.197  0.1801 -0.6258  0.8023
 7042SOL    HW121667   5.776   4.407   2.257  0.6494  0.3831  1.9317
 7042SOL    HW221668   5.906   4.484   2.254  0.5551  0.5330 -0.4558
 7043SOL     OW21669   0.678   0.951   5.426 -0.4952  0.0993 -0.5066
 7043SOL    HW121670   0.744   1.019   5.412  0.6565 -0.4534  1.7341
 7043SOL    HW221671   0.728   0.874   5.451 -1.9247 -0.9011 -0.5978
 7044SOL     OW21672   4.541   5.188   4.763  0.2743  0.3463 -0.1665
 7044SOL    HW121673   4.518   5.180   4.855  2.3597  1.7068  0.5454
 7044SOL    HW221674   4.478   5.250   4.727  0.1270  0.6464  0.6126
 7045SOL     OW21675   4.171   3.840   6.923  0.5903 -0.2831 -0.0967
 7045SOL    HW121676   4.255   3.848   6.967 -0.0464  0.6370  0.9971
 7045SOL    HW221677   4.107   3.871   6.987 -0.5231 -0.4318 -1.1049
 7046SOL     OW21678   4.720   4.226   3.344 -0.0491  0.4371  0.8047
 7046SOL    HW121679   4.672   4.308   3.356 -2.5037 -0.9754  1.3576
 7046SOL    HW221680   4.745   4.226   3.251 -0.8800  1.3763  0.5636
 7047SOL     OW21681   1.298   6.566   2.283  0.0449 -0.8141 -0.0188
 7047SOL    HW121682   1.374   6.553   2.226 -1.1926 -3.1807 -1.2537
 7047SOL    HW221683   1.226   6.522   2.238 -1.7434  0.0210  1.8603
 7048SOL     OW21684   4.846   4.623   3.268  0.0358 -0.3449  0.2124
 7048SOL    HW121685   4.887   4.635   3.182  1.2223 -0.4961  0.7283
 7048SOL    HW221686   4.897   4.553   3.308  0.9171  1.1513  1.8604
 7049SOL     OW21687   3.487   6.262   6.560  0.3394  0.2609 -0.4395
 7049SOL    HW121688   3.529   6.348   6.563  0.8151  0.1769 -2.9813
 7049SOL    HW221689   3.548   6.206   6.513  0.0368 -1.5351  1.1651
 7050SOL     OW21690   6.560   3.031   2.324 -0.4085 -0.2780 -0.1598
 7050SOL    HW121691   6.478   3.077   2.307  0.5760  1.4419 -0.4288
 7050SOL    HW221692   6.577   2.981   2.245 -0.3436  0.7099 -0.7811
 7051SOL     OW21693   0.499   5.143   5.676 -0.3862  0.0846  0.0064
 7051SOL    HW121694   0.531   5.055   5.656 -1.9689 -1.0995  2.3129
 7051SOL    HW221695   0.566   5.201   5.639  0.1333 -1.9676 -2.6154
 7052SOL     OW21696   2.820   6.149   5.162  0.0774 -0.2195  0.7208
 7052SOL    HW121697   2.792   6.202   5.237 -0.0790 -1.5694  1.6527
 7052SOL    HW221698   2.747   6.153   5.101  0.5162  1.5350  0.2552
 7053SOL     OW21699   4.010   5.173   2.672 -0.1427  0.1314 -0.6200
 7053SOL    HW121700   4.010   5.079   2.652  1.8866  0.2775 -1.6237
 7053SOL    HW221701   4.079   5.183   2.738  0.7788  1.0941 -1.6856
 7054SOL     OW21702   4.131   2.694   1.528  0.1149  0.1217 -0.1005
 7054SOL    HW121703   4.072   2.628   1.563  0.6657 -0.2789  0.0842
 7054SOL    HW221704   4.218   2.655   1.534  0.6237  1.3622  1.2717
 7055SOL     OW21705   7.090   7.247   4.396 -0.0571  0.4398  0.7342
 7055SOL    HW121706   7.127   7.203   4.473 -0.2368  1.1593  1.2451
 7055SOL    HW221707   7.154   7.230   4.326  1.0989  1.3744  1.5130
 7056SOL     OW21708   7.054   1.584   6.438  0.0966 -0.1904  0.3701
 7056SOL    HW121709   7.129   1.625   6.479  0.4275 -1.3057  0.9156
 7056SOL    HW221710   6.978   1.618   6.486  0.3365  0.0493  0.5793
 7057SOL     OW21711   3.040   5.690   3.186  0.0191  0.0549  0.1323
 7057SOL    HW121712   2.964   5.748   3.177 -0.3441  0.0207  2.4306
 7057SOL    HW221713   3.114   5.744   3.160 -0.4242  1.2605  1.2818
 7058SOL     OW21714   4.465   4.469   1.022  0.3003 -0.1294  0.8685
 7058SOL    HW121715   4.376   4.452   0.990  1.1861 -2.0860 -0.7864
 7058SOL    HW221716   4.455   4.482   1.116 -1.5967 -1.6312  0.9248
 7059SOL     OW21717   1.118   6.098   4.641  0.4746 -0.3154 -0.4747
 7059SOL    HW121718   1.025   6.083   4.657  0.3979  0.7695  0.2252
 7059SOL    HW221719   1.145   6.025   4.585 -0.8177 -0.5813 -0.7855
 7060SOL     OW21720   1.755   4.571   4.583 -0.2732 -0.4824 -0.0135
 7060SOL    HW121721   1.846   4.550   4.607 -0.5847  1.0249  2.9262
 7060SOL    HW221722   1.763   4.639   4.517  0.6929 -1.3980 -0.8867
 7061SOL     OW21723   2.803   1.256   4.179 -0.4616 -0.2169  0.2263
 7061SOL    HW121724   2.869   1.201   4.220 -0.4096 -0.3309 -0.0073
 7061SOL    HW221725   2.770   1.204   4.105 -0.0554  0.2603 -0.3016
 7062SOL     OW21726   0.297   4.089   6.281 -0.3355 -0.7152  0.1308
 7062SOL    HW121727   0.283   4.149   6.354 -1.4065  0.9525 -1.3601
 7062SOL    HW221728   0.393   4.083   6.273 -0.1656  1.4530 -0.1231
 7063SOL     OW21729   6.262   4.140   7.104 -0.3085  0.0495 -0.0258
 7063SOL    HW121730   6.315   4.063   7.127  1.4746  1.2149 -0.0213
 7063SOL    HW221731   6.322   4.196   7.055 -2.2145  0.4646 -2.0062
 7064SOL     OW21732   0.335   1.861   4.385 -0.7634 -0.6933 -0.2051
 7064SOL    HW121733   0.421   1.903   4.381 -1.2425  0.4660  0.6475
 7064SOL    HW221734   0.327   1.833   4.477 -1.5263 -0.2357 -0.1233
 7065SOL     OW21735   6.493   7.512   7.540 -0.7853 -0.3766 -0.4475
 7065SOL    HW121736   6.462   7.464   7.617 -0.3597  1.4175  0.9111
 7065SOL    HW221737   6.416   7.561   7.510 -1.0585 -1.3766 -1.4577
 7066SOL     OW21738   7.361   0.757   6.266 -0.2094  0.0397 -0.6981
 7066SOL    HW121739   7.281   0.772   6.216 -0.3461  1.4583 -0.1018
 7066SOL    HW221740   7.422   0.720   6.203 -0.9107  0.2017 -1.4918
 7067SOL     OW21741   7.447   0.573   7.108  0.3352 -0.2655 -0.2353
 7067SOL    HW121742   7.451   0.606   7.018  2.2881 -1.7127 -0.7566
 7067SOL    HW221743   7.527   0.606   7.149  0.5160 -1.3559  0.3123
 7068SOL     OW21744   2.781   2.465   5.977  0.2682  0.3864  0.8678
 7068SOL    HW121745   2.856   2.520   5.955  0.1185 -0.0357 -0.9017
 7068SOL    HW221746   2.819   2.387   6.018  0.9816 -0.3740 -1.0960
 7069SOL     OW21747   3.916   1.981   0.982 -0.2435  0.4069  0.1979
 7069SOL    HW121748   3.973   1.951   0.911 -1.3676 -1.6274  0.0624
 7069SOL    HW221749   3.951   2.066   1.007  1.4383  0.2484 -1.3987
 7070SOL     OW21750   6.193   0.043   5.193  0.5715  0.7679  0.0964
 7070SOL    HW121751   6.162  -0.047   5.201  0.0798  1.0346  1.3008
 7070SOL    HW221752   6.287   0.034   5.175  0.6575  0.0131  0.8661
 7071SOL     OW21753   1.107   1.723   2.864 -0.6924  0.2403  0.3875
 7071SOL    HW121754   1.142   1.719   2.775 -0.6530  0.8651  0.3672
 7071SOL    HW221755   1.030   1.667   2.863  1.2128 -2.5978  0.8851
 7072SOL     OW21756   5.330   6.790   2.091  0.1920  0.1873 -0.0057
 7072SOL    HW121757   5.357   6.747   2.010 -1.6129  0.4592 -0.8086
 7072SOL    HW221758   5.274   6.726   2.135  0.3770  0.4053  0.5661
 7073SOL     OW21759   3.503   3.338   5.883 -0.1262 -0.6823 -0.4031
 7073SOL    HW121760   3.416   3.378   5.878 -0.6617 -1.5437  1.0993
 7073SOL    HW221761   3.564   3.411   5.877 -0.9314 -0.0919 -1.7796
 7074SOL     OW21762   5.352   2.601   4.751  0.2990 -0.2503 -0.1214
 7074SOL    HW121763   5.262   2.574   4.768  0.3422 -0.0898  0.3822
 7074SOL    HW221764   5.404   2.521   4.763  0.1148 -0.5980 -1.4800
 7075SOL     OW21765   0.331   1.965   6.919  0.1836  0.6571  0.0223
 7075SOL    HW121766   0.412   2.007   6.945 -0.6941  1.8627  0.9414
 7075SOL    HW221767   0.287   1.944   7.001 -0.8499  0.9101 -0.4464
 7076SOL     OW21768   6.472   7.205   5.333  0.3616 -0.8067  0.6054
 7076SOL    HW121769   6.497   7.202   5.240 -1.6188 -0.4998  0.0350
 7076SOL    HW221770   6.380   7.182   5.334 -0.6549  2.6973  2.0811
 7077SOL     OW21771   0.000   0.511   2.270  0.4971  0.4058 -0.7774
 7077SOL    HW121772   0.064   0.565   2.223  1.3280  0.0000 -0.1377
 7077SOL    HW221773  -0.024   0.443   2.207  1.0186  0.3145 -0.8818
 7078SOL     OW21774   1.289   2.325   5.681 -0.2525  0.3595 -0.4369
 7078SOL    HW121775   1.373   2.314   5.636  0.5560 -1.4445  1.3523
 7078SOL    HW221776   1.242   2.391   5.630  2.0523  1.0545 -1.7649
 7079SOL     OW21777   1.263   2.958   5.367 -0.4644  0.3017  0.1763
 7079SOL    HW121778   1.350   2.948   5.330 -0.4276  2.4652 -0.4582
 7079SOL    HW221779   1.278   2.996   5.453 -0.7673  1.8428 -0.4131
 7080SOL     OW21780   0.603   2.272   6.927  0.5149 -0.4233 -0.3775
 7080SOL    HW121781   0.576   2.342   6.986  3.4353 -0.1266  0.7508
 7080SOL    HW221782   0.577   2.191   6.972 -0.1124 -0.1319 -0.2133
 7081SOL     OW21783   0.045   5.570   6.144  0.0699  0.1695 -0.0481
 7081SOL    HW121784   0.059   5.662   6.165  0.9489  0.2629 -0.9925
 7081SOL    HW221785   0.056   5.524   6.227  0.3320  0.8444  0.2920
 7082SOL     OW21786   6.801   2.430   1.635  0.2059 -0.7175  0.1184
 7082SOL    HW121787   6.815   2.524   1.646 -0.2933 -0.7181  0.8371
 7082SOL    HW221788   6.828   2.412   1.545 -0.7987  0.3214 -0.4102
 7083SOL     OW21789   2.625   1.951   7.601  0.4397  0.1192  0.3490
 7083SOL    HW121790   2.685   1.996   7.660  0.0176 -0.7522  1.4845
 7083SOL    HW221791   2.681   1.915   7.531  0.9471  1.1279  0.2249
 7084SOL     OW21792   1.071   3.379   3.487  0.5037 -0.0502 -0.0996
 7084SOL    HW121793   1.158   3.359   3.523  0.7215  0.4137 -0.3731
 7084SOL    HW221794   1.088   3.431   3.409 -0.0698  1.6608  0.8599
 7085SOL     OW21795   6.176   1.220   4.816  0.5892 -0.2549  0.4497
 7085SOL    HW121796   6.162   1.271   4.736  1.8676 -1.0276 -0.2952
 7085SOL    HW221797   6.142   1.276   4.886 -2.8929 -0.5704 -0.7963
 7086SOL     OW21798   5.797   0.887   2.844 -0.0781 -0.3036  0.2513
 7086SOL    HW121799   5.705   0.864   2.848  0.0900 -0.8570  2.0900
 7086SOL    HW221800   5.841   0.821   2.898  1.0669  1.3228  1.4242
 7087SOL     OW21801   3.058   1.527   6.921  0.1238 -0.0160  0.2072
 7087SOL    HW121802   2.973   1.568   6.905 -0.5475 -1.3527  0.1561
 7087SOL    HW221803   3.068   1.528   7.016 -0.8288 -1.4486  0.3626
 7088SOL     OW21804   0.094   5.076   7.213 -0.0574  0.1181 -0.2225
 7088SOL    HW121805   0.015   5.027   7.235 -0.0957  0.7649  1.1847
 7088SOL    HW221806   0.158   5.009   7.191 -1.1081 -0.3986 -1.9344
 7089SOL     OW21807   0.262   2.307   5.209  0.4102 -0.4306 -0.3101
 7089SOL    HW121808   0.212   2.253   5.271  1.2658  0.1290  0.9134
 7089SOL    HW221809   0.237   2.274   5.123 -2.6904  0.3348  0.1482
 7090SOL     OW21810   0.076   6.969   6.982  0.0405 -0.1204  0.5027
 7090SOL    HW121811   0.014   6.965   7.055 -0.3016  0.2174  0.2295
 7090SOL    HW221812   0.044   7.040   6.926 -0.8950 -1.6939 -1.0663
 7091SOL     OW21813   7.127   1.484   0.866 -0.1459  0.2354  0.4430
 7091SOL    HW121814   7.162   1.415   0.923  1.9183  0.2913 -0.6811
 7091SOL    HW221815   7.195   1.551   0.864 -0.9314  1.0382 -0.6863
 7092SOL     OW21816   4.577   3.752   5.047  0.0400  0.3174  0.5241
 7092SOL    HW121817   4.600   3.845   5.053 -0.7715  0.6876 -1.3590
 7092SOL    HW221818   4.655   3.710   5.010 -1.2968  1.2461 -3.9540
 7093SOL     OW21819   1.486   6.083   0.437 -0.1818 -0.3420 -0.0719
 7093SOL    HW121820   1.497   6.021   0.508 -1.7641  1.0786  1.5186
 7093SOL    HW221821   1.575   6.114   0.418  0.5898 -2.7279 -0.6729
 7094SOL     OW21822   3.802   5.640   5.477 -0.6661 -0.9640  0.0680
 7094SOL    HW121823   3.815   5.560   5.527  1.3415 -0.5860  0.2392
 7094SOL    HW221824   3.846   5.625   5.393 -0.6354 -0.2042 -0.0669
 7095SOL     OW21825   4.189   3.056   4.357 -0.1749  0.3765 -0.3345
 7095SOL    HW121826   4.234   2.985   4.312 -1.4184 -0.3491 -0.4701
 7095SOL    HW221827   4.245   3.076   4.433 -0.5446 -1.8139  0.5867
 7096SOL     OW21828   6.717   5.669   0.181  0.1641  0.0068  0.0563
 7096SOL    HW121829   6.749   5.752   0.144 -0.1392  0.0876 -0.0291
 7096SOL    HW221830   6.645   5.644   0.123  0.1314 -0.2191  0.1959
 7097SOL     OW21831   4.349   3.186   4.531 -0.2737  0.6499 -0.2945
 7097SOL    HW121832   4.358   3.225   4.618  0.4081 -0.1376 -0.0038
 7097SOL    HW221833   4.426   3.217   4.483  0.5991 -0.7825  0.1250
 7098SOL     OW21834   4.663   1.081   2.923  0.4675  0.4919 -0.3103
 7098SOL    HW121835   4.632   0.999   2.961 -1.9669 -0.0650 -3.1342
 7098SOL    HW221836   4.752   1.063   2.895 -0.2923 -1.5471 -1.6200
 7099SOL     OW21837   0.947   6.996   1.667 -0.3847  0.1579  0.2193
 7099SOL    HW121838   0.997   6.942   1.728  0.5281  0.1911 -0.4878
 7099SOL    HW221839   0.860   7.003   1.708 -0.0994 -0.6623  1.0094
 7100SOL     OW21840   3.803   0.418   4.990 -0.0922  0.0353 -0.1378
 7100SOL    HW121841   3.852   0.473   5.051 -0.0822 -0.4553  0.3106
 7100SOL    HW221842   3.859   0.409   4.913 -0.4601  1.3528 -0.5754
 7101SOL     OW21843   1.835   7.192   7.414  0.3197 -0.0391  0.1156
 7101SOL    HW121844   1.881   7.167   7.334 -0.2198 -1.3728  0.1922
 7101SOL    HW221845   1.743   7.173   7.395  0.0227  0.8691  0.6000
 7102SOL     OW21846   2.803   0.551   5.786  0.0227 -0.4753 -0.3365
 7102SOL    HW121847   2.740   0.592   5.845  0.6035 -1.3579  0.9307
 7102SOL    HW221848   2.809   0.611   5.711 -0.8422  0.5836  0.4244
 7103SOL     OW21849   4.353   0.564   5.828 -0.2028 -0.2208 -0.2808
 7103SOL    HW121850   4.356   0.587   5.735  2.7465 -1.0637 -0.4901
 7103SOL    HW221851   4.440   0.585   5.860 -0.3381 -2.3717  1.6823
 7104SOL     OW21852   0.134   0.891   4.502  0.2553  0.6719  0.1437
 7104SOL    HW121853   0.194   0.905   4.575  0.9696 -0.2013 -0.2687
 7104SOL    HW221854   0.112   0.979   4.472  0.8487  1.0117  0.6895
 7105SOL     OW21855   1.328   7.419   6.808 -0.4219 -0.0562 -0.0407
 7105SOL    HW121856   1.280   7.445   6.729  2.3800 -0.4418 -2.0327
 7105SOL    HW221857   1.269   7.361   6.854 -2.1785  0.1531 -1.8948
 7106SOL     OW21858   1.497   5.649   0.551 -0.5029  0.6265 -0.1736
 7106SOL    HW121859   1.487   5.585   0.621 -2.7403  1.2409  0.1606
 7106SOL    HW221860   1.506   5.733   0.597  0.7165  0.7658 -0.6258
 7107SOL     OW21861   6.951   1.348   0.673 -0.0023 -0.1361 -0.6348
 7107SOL    HW121862   7.005   1.373   0.749 -0.3739  0.5205 -0.5826
 7107SOL    HW221863   7.008   1.291   0.621  0.8361  0.7450 -0.7112
 7108SOL     OW21864   1.044   3.449   3.780  0.1889 -0.1532  0.2629
 7108SOL    HW121865   1.062   3.431   3.688 -1.7702 -0.2004 -0.1555
 7108SOL    HW221866   1.037   3.363   3.820  2.3073 -0.1384  0.7799
 7109SOL     OW21867   4.576   7.576   5.322  0.1025  0.1551 -0.3860
 7109SOL    HW121868   4.668   7.555   5.307  0.2140  0.8424 -0.7367
 7109SOL    HW221869   4.575   7.671   5.334 -0.5709  0.1655 -0.4632
 7110SOL     OW21870   2.467   0.403   1.871 -0.2878  1.0853 -0.2477
 7110SOL    HW121871   2.394   0.418   1.930 -0.0583  0.7717  0.1235
 7110SOL    HW221872   2.520   0.337   1.915 -0.5386  0.2429 -1.1781
 7111SOL     OW21873   2.883   4.519   1.252  0.1378  0.3828  0.3102
 7111SOL    HW121874   2.865   4.474   1.335  2.0540  1.2295  1.2552
 7111SOL    HW221875   2.969   4.487   1.226 -0.5452 -0.0453 -1.5065
 7112SOL     OW21876   2.670   1.318   1.896 -0.5208  0.0822  0.0535
 7112SOL    HW121877   2.620   1.238   1.912 -1.6721  0.9088  0.7610
 7112SOL    HW221878   2.697   1.312   1.804 -0.0646 -1.3828  0.2695
 7113SOL     OW21879   5.225   3.106   1.764 -0.1268 -0.0786  0.3279
 7113SOL    HW121880   5.291   3.148   1.820  1.6013 -1.8338 -0.2880
 7113SOL    HW221881   5.251   3.014   1.761 -0.4038 -0.1689 -2.9579
 7114SOL     OW21882   0.122   6.172   3.822  0.7738 -0.4325 -0.2342
 7114SOL    HW121883   0.139   6.117   3.898 -1.9853  0.1078  0.9001
 7114SOL    HW221884   0.136   6.262   3.853 -1.3576 -0.1395  0.0331
 7115SOL     OW21885   2.684   6.211   1.946 -0.4103  0.6581 -0.0222
 7115SOL    HW121886   2.646   6.264   2.017  0.0937  0.1817  0.6179
 7115SOL    HW221887   2.656   6.121   1.967  0.6772  0.3577  0.2175
 7116SOL     OW21888   7.476   6.900   3.178  0.4382 -0.0738 -0.7207
 7116SOL    HW121889   7.439   6.983   3.148 -0.2365  0.5687  1.6924
 7116SOL    HW221890   7.504   6.917   3.268  1.1847 -2.2034 -0.4962
 7117SOL     OW21891   1.421   0.736   6.594  0.0840  0.1564  0.5198
 7117SOL    HW121892   1.515   0.728   6.578 -0.3847 -1.1314 -2.0100
 7117SOL    HW221893   1.405   0.830   6.593  1.5955  0.5524  3.1581
 7118SOL     OW21894   3.014   1.578   2.395 -0.0487 -0.3555 -0.1819
 7118SOL    HW121895   3.043   1.542   2.311 -0.0148  0.1890 -0.4061
 7118SOL    HW221896   3.094   1.590   2.445 -0.0715 -0.7068 -0.0614
 7119SOL     OW21897   5.200   4.893   2.464  0.0272 -0.2887 -0.1640
 7119SOL    HW121898   5.266   4.961   2.473  0.8041 -0.9978 -0.2888
 7119SOL    HW221899   5.134   4.930   2.405  0.1556  0.5432  0.2064
 7120SOL     OW21900   0.254   0.012   5.092 -0.3975  0.5386 -0.3725
 7120SOL    HW121901   0.291  -0.071   5.059  0.0106 -1.1946  3.8582
 7120SOL    HW221902   0.325   0.075   5.082 -0.0552 -0.0461 -1.9449
 7121SOL     OW21903   6.581   2.475   5.030 -0.3902 -0.3447  0.5231
 7121SOL    HW121904   6.514   2.511   4.972  0.1328 -0.9509 -0.4833
 7121SOL    HW221905   6.532   2.443   5.106 -0.8443  3.0061  1.8164
 7122SOL     OW21906   1.954   6.482   3.672 -0.0743 -0.2391  0.0015
 7122SOL    HW121907   1.945   6.414   3.604 -1.2643 -0.7409  0.6262
 7122SOL    HW221908   2.021   6.448   3.731 -1.6995 -1.6222  1.1274
 7123SOL     OW21909   4.275   7.345   7.591  0.1974  0.1964  0.2475
 7123SOL    HW121910   4.248   7.346   7.499  1.1557 -2.2358 -0.1318
 7123SOL    HW221911   4.345   7.409   7.597  1.2357 -0.7651 -1.1279
 7124SOL     OW21912   7.353   4.503   3.817 -0.5681 -0.6296  0.4449
 7124SOL    HW121913   7.358   4.421   3.769 -0.2535  0.9660 -2.4977
 7124SOL    HW221914   7.279   4.550   3.778  2.0054  2.3308 -1.3621
 7125SOL     OW21915   1.384   2.279   6.128 -0.2661  0.1509  0.2375
 7125SOL    HW121916   1.358   2.288   6.220  1.3150  1.5619  0.6173
 7125SOL    HW221917   1.450   2.348   6.116  0.1961 -0.5760 -1.7190
 7126SOL     OW21918   1.741   1.866   0.039 -0.2500  0.0445 -0.4326
 7126SOL    HW121919   1.823   1.887  -0.005  0.2714 -0.3862  0.3138
 7126SOL    HW221920   1.722   1.776   0.012  0.1299 -0.2597  0.3064
 7127SOL     OW21921   7.057   0.999   4.469  0.6873 -0.1330  0.0057
 7127SOL    HW121922   7.114   0.928   4.440  0.0957 -0.6630  0.1378
 7127SOL    HW221923   7.040   0.980   4.561  2.9903  1.8135  0.9668
 7128SOL     OW21924   5.196   6.602   2.236  0.6788  0.3919  0.0717
 7128SOL    HW121925   5.129   6.561   2.182 -0.3252 -0.4272  1.8480
 7128SOL    HW221926   5.255   6.530   2.260 -0.0416  0.3089  1.6886
 7129SOL     OW21927   5.710   2.275   7.033  0.0733  0.0544  0.0388
 7129SOL    HW121928   5.641   2.293   7.097  0.3055  0.6249  0.1409
 7129SOL    HW221929   5.692   2.336   6.961 -2.7989 -3.4288 -2.5605
 7130SOL     OW21930   3.340   3.687   3.129 -0.0099 -0.3560  0.5324
 7130SOL    HW121931   3.409   3.738   3.172 -0.4042  0.7245 -0.1107
 7130SOL    HW221932   3.264   3.697   3.186 -0.6336  1.3602 -0.5337
 7131SOL     OW21933   7.527   2.741   0.355  0.7191 -0.1440  0.0063
 7131SOL    HW121934   7.462   2.774   0.293  0.3296 -1.8792 -0.5773
 7131SOL    HW221935   7.607   2.789   0.334 -0.6115  3.1356  1.7133
 7132SOL     OW21936   3.703   1.905   5.238  0.0015 -0.0429  0.3592
 7132SOL    HW121937   3.742   1.989   5.212 -0.4044  1.1107  3.1337
 7132SOL    HW221938   3.777   1.853   5.269  0.0384  0.0088  0.3592
 7133SOL     OW21939   1.474   0.028   1.366  0.3880  0.0988  0.3175
 7133SOL    HW121940   1.470  -0.048   1.424  1.2269  1.0371  1.6683
 7133SOL    HW221941   1.567   0.041   1.350  0.4116  1.8845  1.6049
 7134SOL     OW21942   6.456   4.967   1.040  0.0128 -0.5078 -0.0750
 7134SOL    HW121943   6.418   4.945   1.125  0.0219  2.1726  0.7074
 7134SOL    HW221944   6.411   4.910   0.978 -1.7444 -0.8241  1.4140
 7135SOL     OW21945   1.680   0.359   7.243  0.1240  0.4017  0.1008
 7135SOL    HW121946   1.751   0.302   7.271 -0.7472 -0.5810  0.3352
 7135SOL    HW221947   1.623   0.368   7.320  0.5705  2.1258  0.2841
 7136SOL     OW21948   6.474   5.364   1.110  0.2217  0.2022  1.1627
 7136SOL    HW121949   6.389   5.405   1.094 -0.2457 -0.4401  1.9517
 7136SOL    HW221950   6.537   5.434   1.096 -0.1524 -0.0103 -2.5716
 7137SOL     OW21951   1.386   6.005   6.319 -0.1365  0.7054  0.4513
 7137SOL    HW121952   1.378   5.957   6.236  1.2970  3.4623 -1.4335
 7137SOL    HW221953   1.297   6.036   6.336 -0.0747  2.1786 -1.5032
 7138SOL     OW21954   2.729   1.180   5.456 -0.7154 -0.3971  0.6488
 7138SOL    HW121955   2.637   1.168   5.432 -0.6302  0.3894 -0.1252
 7138SOL    HW221956   2.730   1.179   5.551 -1.4414 -1.0070  0.6532
 7139SOL     OW21957   1.442   7.297   3.981 -0.1650 -0.2362 -0.1237
 7139SOL    HW121958   1.528   7.273   4.015 -0.2604  0.4494  0.6138
 7139SOL    HW221959   1.460   7.329   3.893 -0.0791 -3.4583 -1.4285
 7140SOL     OW21960   6.445   5.654   0.414 -0.2952 -0.0138  0.2496
 7140SOL    HW121961   6.364   5.697   0.386 -0.9579 -0.7791  0.9266
 7140SOL    HW221962   6.515   5.712   0.384 -0.9753 -0.3288 -2.1725
 7141SOL     OW21963   2.247   0.414   6.729  0.0340  0.1840  0.3865
 7141SOL    HW121964   2.203   0.456   6.803 -0.2508  0.3514  0.1212
 7141SOL    HW221965   2.305   0.349   6.770  0.5964  0.9424  0.8069
 7142SOL     OW21966   0.264   1.102   6.351  0.3604  0.6265  0.0735
 7142SOL    HW121967   0.349   1.081   6.389  0.4569  0.3566 -0.2832
 7142SOL    HW221968   0.246   1.029   6.292 -0.6073  0.1459  0.9287
 7143SOL     OW21969   1.928   4.825   4.620  0.2136  0.2118  0.0931
 7143SOL    HW121970   1.971   4.900   4.579  0.9410 -0.5979 -0.6749
 7143SOL    HW221971   1.838   4.854   4.635  0.3206  1.0408 -0.7594
 7144SOL     OW21972   4.351   2.848   2.583 -0.1587  0.5888 -0.1975
 7144SOL    HW121973   4.419   2.784   2.603  0.2054  1.0476  0.0545
 7144SOL    HW221974   4.282   2.798   2.539 -0.2635 -0.1357  0.7692
 7145SOL     OW21975   6.679   2.492   0.290  0.3102 -0.8467 -0.9523
 7145SOL    HW121976   6.720   2.408   0.269  0.6750 -0.4924 -1.6901
 7145SOL    HW221977   6.602   2.496   0.233 -0.9432 -1.6203  0.5963
 7146SOL     OW21978   1.823   6.529   7.138  0.1892  0.5034 -0.7826
 7146SOL    HW121979   1.732   6.549   7.161 -0.0821 -0.7321 -0.6760
 7146SOL    HW221980   1.863   6.501   7.221  0.9521  1.9584 -0.6359
 7147SOL     OW21981   2.419   0.621   1.029  0.6169  0.2481  0.8143
 7147SOL    HW121982   2.420   0.692   1.094  0.7310  1.0125  0.0005
 7147SOL    HW221983   2.472   0.654   0.956  0.3536 -0.5195  0.2596
 7148SOL     OW21984   0.543   5.401   4.942 -0.3678 -0.1479  0.1042
 7148SOL    HW121985   0.500   5.335   4.888  0.0080 -0.7826  0.5753
 7148SOL    HW221986   0.570   5.469   4.879  2.9633 -2.3272 -1.0613
 7149SOL     OW21987   4.152   0.091   3.343  0.3446  0.1346 -0.5671
 7149SOL    HW121988   4.114   0.047   3.267  3.2824  0.4229 -2.3653
 7149SOL    HW221989   4.126   0.183   3.333  1.4871  0.3515 -1.8384
 7150SOL     OW21990   5.600   0.719   2.060 -0.2488 -0.8575 -0.4422
 7150SOL    HW121991   5.564   0.798   2.102  0.4576 -0.7462 -0.0301
 7150SOL    HW221992   5.526   0.681   2.014 -1.1799 -1.2193  1.2640
 7151SOL     OW21993   4.663   4.070   6.658  0.0050 -0.5129 -0.1266
 7151SOL    HW121994   4.640   4.029   6.742  3.0439 -0.9608  0.6015
 7151SOL    HW221995   4.656   4.164   6.675  1.6350 -0.5647  1.0252
 7152SOL     OW21996   2.869   7.560   6.960 -0.1703 -0.3092  0.1034
 7152SOL    HW121997   2.849   7.498   6.890 -0.4384  1.1633 -1.1886
 7152SOL    HW221998   2.784   7.595   6.986  0.0764  0.4906 -0.1370
 7153SOL     OW21999   7.100   2.065   7.515  0.3562 -0.7846  1.0101
 7153SOL    HW122000   7.105   2.148   7.563  1.0863 -0.3533  0.2083
 7153SOL    HW222001   7.007   2.055   7.494  0.1209 -0.6662  1.9440
 7154SOL     OW22002   7.503   4.456   1.091 -0.0340 -0.4677  0.8754
 7154SOL    HW122003   7.476   4.376   1.047  1.3440 -0.6895  0.3711
 7154SOL    HW222004   7.487   4.439   1.184  0.1906 -1.3054  0.7666
 7155SOL     OW22005   0.074   2.760   5.882 -0.0771 -0.0562 -0.4848
 7155SOL    HW122006   0.099   2.688   5.823 -1.0500 -0.2273 -0.7148
 7155SOL    HW222007   0.064   2.835   5.824 -0.8256 -0.1735 -0.5148
 7156SOL     OW22008   6.306   0.556   2.779  0.0092  0.7343 -0.2718
 7156SOL    HW122009   6.266   0.483   2.827  1.5331  0.5005  0.7353
 7156SOL    HW222010   6.303   0.529   2.687 -0.5517 -0.0433 -0.0350
 7157SOL     OW22011   5.775   7.196   3.464  0.8346  0.0409 -0.4706
 7157SOL    HW122012   5.806   7.213   3.552 -0.9984  2.3129 -0.1815
 7157SOL    HW222013   5.685   7.164   3.475  1.0051 -0.8567 -1.4797
 7158SOL     OW22014   1.114   3.749   4.958 -0.1930 -0.1346 -0.1511
 7158SOL    HW122015   1.080   3.687   4.892  1.5239 -3.2354  1.6409
 7158SOL    HW222016   1.042   3.758   5.021 -0.4673 -0.2728 -0.4400
 7159SOL     OW22017   6.986   1.567   3.652  0.0614  0.4105  0.3326
 7159SOL    HW122018   6.893   1.589   3.651 -0.2458 -0.6208  1.9422
 7159SOL    HW222019   7.023   1.625   3.719  0.5352  0.6373 -0.1179
 7160SOL     OW22020   0.538   5.071   3.231  0.1165 -0.1919  0.1874
 7160SOL    HW122021   0.524   5.127   3.308  0.9762  1.7586 -0.9795
 7160SOL    HW222022   0.596   5.123   3.175  1.2719 -2.4520 -0.8332
 7161SOL     OW22023   1.682   1.074   3.178  0.2376 -0.2139  0.3763
 7161SOL    HW122024   1.657   0.985   3.152  0.7447 -0.5618  1.0365
 7161SOL    HW222025   1.731   1.108   3.104 -1.4650  0.1801 -0.6088
 7162SOL     OW22026   0.665   4.346   1.629 -0.3989  0.2349 -0.1959
 7162SOL    HW122027   0.698   4.305   1.708  0.5473 -3.0874 -2.1089
 7162SOL    HW222028   0.634   4.273   1.575  0.1637  2.1478 -3.3736
 7163SOL     OW22029   5.315   0.407   1.896  0.0003  0.2782  0.2540
 7163SOL    HW122030   5.314   0.351   1.819 -0.8020  2.2986 -1.2966
 7163SOL    HW222031   5.227   0.398   1.933 -0.3875  1.0702 -0.4491
 7164SOL     OW22032   5.155   4.642   3.413  0.4259 -0.1287  0.1526
 7164SOL    HW122033   5.206   4.599   3.345 -1.0095 -1.5668 -0.0825
 7164SOL    HW222034   5.128   4.725   3.374  2.9634  0.9437  0.4914
 7165SOL     OW22035   3.249   6.952   7.533  0.6967  0.4027 -0.0708
 7165SOL    HW122036   3.216   7.036   7.566  2.0371  0.4467  1.2884
 7165SOL    HW222037   3.245   6.893   7.609  0.4025 -0.5770 -0.8332
 7166SOL     OW22038   4.267   2.365   5.429  0.1913  0.4376  0.2293
 7166SOL    HW122039   4.208   2.353   5.354 -0.0510 -0.5949  0.5618
 7166SOL    HW222040   4.337   2.421   5.396  0.4616 -0.5674 -0.9876
 7167SOL     OW22041   1.884   6.394   4.827  0.0007 -0.3168  0.0144
 7167SOL    HW122042   1.868   6.387   4.922  0.1083  0.3687  0.0894
 7167SOL    HW222043   1.799   6.373   4.788  0.3270 -2.0928  0.1907
 7168SOL     OW22044   7.135   7.586   5.207 -0.2943 -0.1214 -0.5815
 7168SOL    HW122045   7.131   7.680   5.225 -0.4199 -0.1346 -0.5366
 7168SOL    HW222046   7.149   7.545   5.292  0.3822 -0.1074 -0.6816
 7169SOL     OW22047   5.231   7.431   1.477  0.3802  0.0052  0.0763
 7169SOL    HW122048   5.277   7.505   1.517 -0.3801  0.7730 -0.4614
 7169SOL    HW222049   5.247   7.441   1.383 -1.0142  0.3669 -0.1301
 7170SOL     OW22050   5.940   1.076   7.466  0.2242  0.3362 -0.3219
 7170SOL    HW122051   5.891   1.032   7.536  0.1995  0.9010  0.0217
 7170SOL    HW222052   5.972   1.005   7.410 -0.5749 -0.0682 -0.2760
 7171SOL     OW22053   3.390   3.224   0.681  0.7019  0.1342  0.1064
 7171SOL    HW122054   3.347   3.148   0.642  1.8810  0.1430 -1.2914
 7171SOL    HW222055   3.401   3.201   0.773 -0.1520 -0.8323 -0.0174
 7172SOL     OW22056   2.587   0.979   5.160  0.2887 -0.5210  0.3461
 7172SOL    HW122057   2.508   0.938   5.125 -0.0355 -0.0143  0.4783
 7172SOL    HW222058   2.651   0.908   5.164  0.8727 -0.2917 -2.7872
 7173SOL     OW22059   3.797   2.895   2.596 -0.7042 -0.2801  0.3012
 7173SOL    HW122060   3.748   2.855   2.668  0.4653 -0.7372  0.8616
 7173SOL    HW222061   3.735   2.895   2.523 -1.8195 -0.0566  1.2113
 7174SOL     OW22062   1.965   0.978   2.049 -0.0708  0.3122  0.1546
 7174SOL    HW122063   2.060   0.963   2.045  0.2887  1.4167  2.7914
 7174SOL    HW222064   1.954   1.072   2.036 -0.7009  0.3665  1.0245
 7175SOL     OW22065   5.581   7.081   5.606  0.4769  0.1315  0.4228
 7175SOL    HW122066   5.560   7.068   5.514  0.2144 -1.3568  0.6526
 7175SOL    HW222067   5.498   7.069   5.652  1.0374 -1.9979  1.0396
 7176SOL     OW22068   3.607   5.588   0.447  0.1156 -0.0393  0.1520
 7176SOL    HW122069   3.688   5.538   0.433 -0.1687 -0.0673 -1.6089
 7176SOL    HW222070   3.613   5.661   0.386 -0.7369  0.5190  0.7198
 7177SOL     OW22071   2.840   2.133   0.060 -0.7541 -0.0824 -0.1028
 7177SOL    HW122072   2.805   2.130   0.149  1.4836  1.9644  0.9749
 7177SOL    HW222073   2.795   2.206   0.019  0.4829  1.0730  0.5129
 7178SOL     OW22074   5.813   4.845   6.832  0.4624  0.1377  0.2884
 7178SOL    HW122075   5.803   4.940   6.832 -1.7897 -0.0123  1.6942
 7178SOL    HW222076   5.789   4.818   6.743 -0.0277  0.8171  0.2082
 7179SOL     OW22077   0.890   2.878   2.087 -0.1188  0.6733  0.4388
 7179SOL    HW122078   0.948   2.803   2.073 -0.5295  0.2989  0.7610
 7179SOL    HW222079   0.930   2.948   2.035  0.2011  0.2038  0.0428
 7180SOL     OW22080   2.020   6.152   5.744  0.2317 -0.0679 -0.1883
 7180SOL    HW122081   1.959   6.082   5.769  1.2515 -1.1109 -0.5101
 7180SOL    HW222082   1.980   6.191   5.666  0.8729 -2.0541 -1.5960
 7181SOL     OW22083   7.556   2.400   4.602  0.7487  0.0719  0.2581
 7181SOL    HW122084   7.480   2.456   4.617 -0.2562 -1.6959  2.3716
 7181SOL    HW222085   7.526   2.336   4.538  0.9021  0.1840  0.0749
 7182SOL     OW22086   5.653   3.228   2.902 -0.2075 -0.3760  0.3933
 7182SOL    HW122087   5.726   3.287   2.921  0.4748 -0.0603 -2.6144
 7182SOL    HW222088   5.574   3.279   2.920  0.3656  0.5821  0.2290
 7183SOL     OW22089   5.230   2.585   4.476 -0.0920  0.0574  0.0387
 7183SOL    HW122090   5.259   2.655   4.418  2.7340 -0.8026  0.2606
 7183SOL    HW222091   5.308   2.562   4.527 -1.2070 -2.5014  0.7427
 7184SOL     OW22092   2.601   5.941   3.700  0.0544 -0.5678  0.2211
 7184SOL    HW122093   2.667   5.909   3.638 -0.2288  0.2525 -0.5292
 7184SOL    HW222094   2.555   6.010   3.652 -0.3287 -0.0737  1.2739
 7185SOL     OW22095   2.391   2.400   1.706  0.3408 -0.6140 -0.4563
 7185SOL    HW122096   2.465   2.395   1.645 -1.0610 -0.0504 -2.3079
 7185SOL    HW222097   2.342   2.318   1.691 -0.1550 -0.3561 -0.2898
 7186SOL     OW22098   0.612   1.032   3.413 -0.0151  0.2583 -0.4594
 7186SOL    HW122099   0.642   1.001   3.328 -1.5437 -1.2947 -0.4845
 7186SOL    HW222100   0.676   0.996   3.476  1.9055  2.5243 -0.9587
 7187SOL     OW22101   0.311   1.807   4.645 -0.1851  0.0299  0.1045
 7187SOL    HW122102   0.376   1.820   4.714  0.2977  1.3122 -0.5525
 7187SOL    HW222103   0.284   1.716   4.654  2.9237 -1.0786 -0.6349
 7188SOL     OW22104   4.209   6.921   7.110  0.3633 -0.2938 -0.4044
 7188SOL    HW122105   4.191   7.010   7.141  0.7583 -0.6084  0.8028
 7188SOL    HW222106   4.203   6.927   7.015 -0.4565  0.8356 -0.3100
 7189SOL     OW22107   4.486   6.182   2.793 -0.1782 -0.3684  0.5559
 7189SOL    HW122108   4.422   6.215   2.730 -0.1740 -0.0130  0.7332
 7189SOL    HW222109   4.452   6.097   2.821 -0.2588 -0.4555  0.1930
 7190SOL     OW22110   2.013   4.448   3.895 -0.4458  0.0148 -0.0945
 7190SOL    HW122111   2.092   4.481   3.853  0.1195  0.0823  0.9907
 7190SOL    HW222112   1.942   4.499   3.857  0.1790  0.9018 -0.0865
 7191SOL     OW22113   7.568   4.405   4.769 -0.6500 -0.2292  0.4687
 7191SOL    HW122114   7.635   4.347   4.733 -0.7647 -0.2712  0.3253
 7191SOL    HW222115   7.485   4.370   4.737 -0.7074  0.1194  0.2355
 7192SOL     OW22116   0.309   0.689   4.993 -0.2611  0.1022  0.0192
 7192SOL    HW122117   0.403   0.672   4.997  0.1201  2.0532  0.2755
 7192SOL    HW222118   0.274   0.646   5.071  0.5764  0.2275  0.4776
 7193SOL     OW22119   1.152   0.306   2.443  0.4327  0.3163  0.3323
 7193SOL    HW122120   1.154   0.260   2.527 -1.2692 -1.6891 -0.6406
 7193SOL    HW222121   1.237   0.350   2.438  0.1235  1.5506  3.5992
 7194SOL     OW22122   0.367   0.038   2.171  0.7224 -0.9008 -0.2651
 7194SOL    HW122123   0.360   0.122   2.127 -1.5508 -1.5052 -1.1794
 7194SOL    HW222124   0.420   0.056   2.249 -0.6112  1.6308  0.1566
 7195SOL     OW22125   6.961   3.106   3.984  0.4621 -0.3985 -0.2164
 7195SOL    HW122126   7.022   3.088   4.055 -0.1062 -0.0675  0.3694
 7195SOL    HW222127   7.006   3.172   3.931 -0.0304  1.1256  1.1445
 7196SOL     OW22128   5.664   5.338   0.625 -0.2145 -0.4805  0.5910
 7196SOL    HW122129   5.755   5.344   0.598 -0.4933  1.0372 -0.0995
 7196SOL    HW222130   5.614   5.371   0.551 -1.1572  1.2867  1.9336
 7197SOL     OW22131   0.251   1.727   3.821 -0.7946  0.1330  0.1464
 7197SOL    HW122132   0.174   1.784   3.819  0.4892  1.9301 -1.0505
 7197SOL    HW222133   0.264   1.701   3.730 -1.7177 -2.7475  0.7218
 7198SOL     OW22134   6.288   6.101   3.642 -0.0065 -0.2165 -0.3834
 7198SOL    HW122135   6.283   6.043   3.718  2.0460 -1.2081 -0.9389
 7198SOL    HW222136   6.362   6.068   3.591  1.1322  2.7386 -0.8560
 7199SOL     OW22137   7.150   0.704   3.359 -0.0444  0.3638 -0.0271
 7199SOL    HW122138   7.243   0.714   3.381  0.3621  1.2572 -1.9636
 7199SOL    HW222139   7.136   0.610   3.354  0.4672  0.1924  1.3090
 7200SOL     OW22140   5.004   1.843   3.892 -0.0377 -0.3950  0.5469
 7200SOL    HW122141   4.947   1.866   3.965  1.3071 -1.4379  1.9904
 7200SOL    HW222142   5.041   1.926   3.862  0.5013 -0.0818  2.0178
 7201SOL     OW22143   4.449   3.588   6.835 -0.3506 -1.0670  0.0591
 7201SOL    HW122144   4.408   3.629   6.760  1.6391 -0.6331 -0.8581
 7201SOL    HW222145   4.536   3.629   6.841 -0.8632 -0.1008  3.3911
 7202SOL     OW22146   4.784   1.531   7.059 -0.1388  0.5923  0.5392
 7202SOL    HW122147   4.802   1.547   7.152 -0.4322  2.5202  0.3019
 7202SOL    HW222148   4.857   1.574   7.013  0.1200 -0.5257 -0.1408
 7203SOL     OW22149   4.374   5.954   2.874 -0.3900 -0.2442 -0.0102
 7203SOL    HW122150   4.287   5.919   2.854 -0.5296  0.1087 -0.0108
 7203SOL    HW222151   4.433   5.904   2.818 -0.6379 -0.1760 -0.3353
 7204SOL     OW22152   7.072   1.308   3.720 -0.1282  0.2444  0.2159
 7204SOL    HW122153   7.027   1.386   3.688 -0.0937  0.4474  0.6482
 7204SOL    HW222154   7.145   1.295   3.660 -1.1475 -0.4838 -0.8947
 7205SOL     OW22155   0.803   1.583   6.868 -0.0485 -0.1610 -0.2767
 7205SOL    HW122156   0.898   1.578   6.877  0.2110 -1.4046 -2.8108
 7205SOL    HW222157   0.782   1.674   6.885  1.6922  0.3073 -0.4247
 7206SOL     OW22158   4.663   4.880   6.545 -0.4218  0.5432 -0.0040
 7206SOL    HW122159   4.755   4.892   6.524  0.0103 -2.2294 -0.0939
 7206SOL    HW222160   4.663   4.854   6.637 -0.9103 -1.0440 -0.4240
 7207SOL     OW22161   4.613   0.368   4.368 -0.1251 -0.0610  0.3993
 7207SOL    HW122162   4.541   0.309   4.346 -0.6960  1.1737 -1.2076
 7207SOL    HW222163   4.602   0.386   4.461 -0.7267 -1.3970  0.6095
 7208SOL     OW22164   4.464   2.657   3.474 -0.2811 -0.3224  0.1303
 7208SOL    HW122165   4.508   2.684   3.394 -1.9391 -0.7953 -0.9801
 7208SOL    HW222166   4.431   2.739   3.512  1.1809 -0.0039  0.8002
 7209SOL     OW22167   0.594   6.884   3.887 -0.8795 -0.2209 -0.3111
 7209SOL    HW122168   0.562   6.800   3.855 -0.1188 -0.0215 -1.6536
 7209SOL    HW222169   0.690   6.877   3.884 -0.7781  0.0414  1.3511
 7210SOL     OW22170   0.079   0.896   7.002 -0.3816  0.3898  0.1209
 7210SOL    HW122171   0.014   0.833   6.971 -1.9665  1.6358  0.7620
 7210SOL    HW222172   0.139   0.907   6.928 -0.1183 -1.7284 -0.0504
 7211SOL     OW22173   1.205   2.330   7.103  0.0306 -0.2803  0.5911
 7211SOL    HW122174   1.277   2.272   7.129 -0.8175 -0.9579  1.5396
 7211SOL    HW222175   1.150   2.276   7.047 -0.0465  0.0444  0.3531
 7212SOL     OW22176   7.436   3.620   3.729  0.3374 -0.2480  0.0316
 7212SOL    HW122177   7.486   3.653   3.804 -0.6980 -0.0420  0.6450
 7212SOL    HW222178   7.367   3.685   3.716  1.0463  0.2068 -1.6971
 7213SOL     OW22179   5.194   4.152   0.068  0.1535 -0.3639  0.3076
 7213SOL    HW122180   5.155   4.239   0.079 -1.7535 -0.8952 -1.5915
 7213SOL    HW222181   5.185   4.133  -0.025  2.7308 -1.6573  0.2310
 7214SOL     OW22182   2.327   4.306   1.820  0.2531 -0.1774 -0.3428
 7214SOL    HW122183   2.240   4.266   1.815  0.6753 -1.1481 -0.2095
 7214SOL    HW222184   2.387   4.234   1.802  1.0678  0.3085  0.3596
 7215SOL     OW22185   2.038   5.830   1.544  0.1282  0.1929  0.4320
 7215SOL    HW122186   1.960   5.783   1.574 -1.6372  2.1980 -0.6405
 7215SOL    HW222187   2.110   5.793   1.593 -1.7228 -0.7865  2.5722
 7216SOL     OW22188   5.328   5.444   4.956 -0.2308  0.3864 -0.2968
 7216SOL    HW122189   5.263   5.479   5.018  0.4141  0.9445  0.0895
 7216SOL    HW222190   5.329   5.350   4.973  0.6092  0.6354  1.2349
 7217SOL     OW22191   1.546   3.000   3.083 -0.0976 -0.4131 -0.0805
 7217SOL    HW122192   1.549   3.024   3.175  0.4561 -2.7277  0.5669
 7217SOL    HW222193   1.463   3.034   3.051  0.8982  2.9052  0.4612
 7218SOL     OW22194   3.667   1.836   0.926  0.0070  0.2240 -0.0738
 7218SOL    HW122195   3.597   1.850   0.862  0.7828 -0.5692 -1.1266
 7218SOL    HW222196   3.720   1.915   0.921  0.4222 -0.0922 -0.8995
 7219SOL     OW22197   1.859   0.825   0.431  0.0970 -0.4675  0.1588
 7219SOL    HW122198   1.882   0.767   0.503 -0.4164  0.5367  1.1748
 7219SOL    HW222199   1.764   0.812   0.421  0.4705 -2.1483 -1.7792
 7220SOL     OW22200   1.626   0.579   4.470 -0.2765  0.0221 -0.7674
 7220SOL    HW122201   1.705   0.564   4.418  0.0708  1.1562 -0.5818
 7220SOL    HW222202   1.584   0.655   4.430 -0.4065  0.4412  0.1404
 7221SOL     OW22203   5.193   0.084   4.048  0.0332 -0.2931  0.3711
 7221SOL    HW122204   5.225   0.167   4.013 -1.5296  0.8441  1.4944
 7221SOL    HW222205   5.216   0.086   4.141 -1.8215 -0.1465  0.8615
 7222SOL     OW22206   1.512   1.992   1.868 -0.3170 -0.1228 -0.2694
 7222SOL    HW122207   1.509   2.047   1.790  0.1355  0.1750 -0.0818
 7222SOL    HW222208   1.545   2.050   1.937 -2.6937  0.2459  0.6777
 7223SOL     OW22209   2.877   1.796   7.137 -0.1265 -0.0785 -0.5972
 7223SOL    HW122210   2.799   1.782   7.189  0.7210 -1.4493  0.3595
 7223SOL    HW222211   2.926   1.714   7.143  2.6205  1.5259  0.9887
 7224SOL     OW22212   2.978   0.411   3.331  0.3491  0.6868  0.8801
 7224SOL    HW122213   3.011   0.322   3.342 -0.2034  0.2668 -0.5909
 7224SOL    HW222214   3.047   0.467   3.365 -0.0581 -0.3190  3.5547
 7225SOL     OW22215   0.598   5.776   1.694  0.1030  0.4455  0.2993
 7225SOL    HW122216   0.676   5.757   1.747  0.7487 -2.3422 -1.4196
 7225SOL    HW222217   0.525   5.769   1.755  0.9121 -1.2886  1.1458
 7226SOL     OW22218   2.247   2.759   1.843 -0.1077 -0.3999  0.1659
 7226SOL    HW122219   2.317   2.751   1.777  0.3607 -1.2512  0.7516
 7226SOL    HW222220   2.210   2.671   1.849 -0.3964 -0.2369  0.7746
 7227SOL     OW22221   5.864   1.176   0.373  0.6800 -0.1325  0.0104
 7227SOL    HW122222   5.834   1.140   0.456 -0.6825  0.1614 -0.3417
 7227SOL    HW222223   5.904   1.260   0.396  0.3501 -0.0729  0.3703
 7228SOL     OW22224   3.745   6.610   1.526  0.2809 -0.0034 -0.4837
 7228SOL    HW122225   3.668   6.667   1.520 -1.2410 -1.6971  1.2708
 7228SOL    HW222226   3.788   6.636   1.607 -0.0164 -0.8325 -0.0479
 7229SOL     OW22227   3.391   1.037   3.355  0.6611  0.3203 -0.2260
 7229SOL    HW122228   3.466   0.978   3.356  0.0614 -0.4549  0.6553
 7229SOL    HW222229   3.340   1.013   3.432 -0.5049  0.8205 -0.8049
 7230SOL     OW22230   5.726   7.598   2.917  0.2895  0.0557 -0.0307
 7230SOL    HW122231   5.724   7.545   2.838 -0.4105 -2.0689  1.3262
 7230SOL    HW222232   5.634   7.614   2.938  0.4741  0.9765  0.1394
 7231SOL     OW22233   2.182   0.252   4.460  0.2720 -0.4219 -0.1803
 7231SOL    HW122234   2.218   0.177   4.507 -0.6117 -4.0299 -4.5041
 7231SOL    HW222235   2.087   0.241   4.465  0.1468 -0.6821 -2.2038
 7232SOL     OW22236   4.587   7.591   3.815  0.3588  0.0093 -0.0106
 7232SOL    HW122237   4.551   7.529   3.752 -1.2686  0.5887  0.2989
 7232SOL    HW222238   4.560   7.557   3.901 -0.5255  1.1003  0.1624
 7233SOL     OW22239   6.100   4.556   1.416 -0.3889  0.0049  0.2638
 7233SOL    HW122240   6.097   4.632   1.474 -0.8543 -0.6554  1.1104
 7233SOL    HW222241   6.143   4.488   1.467  0.5177 -0.1644 -0.6785
 7234SOL     OW22242   5.000   4.702   5.430  0.1075 -0.5592 -0.1251
 7234SOL    HW122243   4.910   4.687   5.460  0.9896 -2.5758  1.7421
 7234SOL    HW222244   5.047   4.732   5.508  1.4299 -1.1692 -0.6511
 7235SOL     OW22245   5.971   6.344   2.707  0.3764  0.6319 -0.0269
 7235SOL    HW122246   5.979   6.249   2.711  0.3740  0.3734 -3.2390
 7235SOL    HW222247   5.881   6.362   2.732 -0.5890 -0.5949 -2.3524
 7236SOL     OW22248   4.071   4.295   6.809  0.1185  0.8267 -0.3106
 7236SOL    HW122249   4.156   4.338   6.818  0.0372  1.1651 -1.0444
 7236SOL    HW222250   4.014   4.363   6.772 -0.4073  0.5256 -0.0681
 7237SOL     OW22251   5.275   3.808   4.878 -0.4284 -0.2187  0.2750
 7237SOL    HW122252   5.227   3.855   4.810 -0.5814 -0.5228  0.1712
 7237SOL    HW222253   5.352   3.773   4.834 -0.0040  0.4344  0.4857
 7238SOL     OW22254   4.570   0.116   3.237 -0.3062 -0.1043 -0.5334
 7238SOL    HW122255   4.654   0.154   3.261  0.2876 -2.1715  0.8435
 7238SOL    HW222256   4.505   0.172   3.280  0.5977 -1.4578  2.8172
 7239SOL     OW22257   7.346   5.512   2.579  0.6691  0.0045  0.4962
 7239SOL    HW122258   7.384   5.476   2.499  1.4102  0.2700  0.7109
 7239SOL    HW222259   7.309   5.596   2.552  1.4324  0.3646  0.5294
 7240SOL     OW22260   7.292   4.603   0.912  0.6282  0.7656 -0.4242
 7240SOL    HW122261   7.278   4.552   0.992 -1.9315 -1.5228 -2.1664
 7240SOL    HW222262   7.242   4.684   0.926  2.5961  1.7944  1.3223
 7241SOL     OW22263   0.523   5.133   4.397  0.3800  0.5623  0.0648
 7241SOL    HW122264   0.534   5.223   4.364  1.0809  1.3798  2.3200
 7241SOL    HW222265   0.429   5.124   4.410  0.4904  2.0682  2.4643
 7242SOL     OW22266   2.866   2.830   6.249 -0.2249  0.0871 -0.3546
 7242SOL    HW122267   2.800   2.772   6.211 -0.2621  0.4307 -0.8206
 7242SOL    HW222268   2.948   2.804   6.208 -0.4521  1.2803 -1.6358
 7243SOL     OW22269   0.677   7.062   2.900 -0.0273 -0.2012 -0.2430
 7243SOL    HW122270   0.716   7.141   2.861 -0.3382 -0.5385 -1.2744
 7243SOL    HW222271   0.700   7.067   2.992 -0.6486  1.4749 -0.1517
 7244SOL     OW22272   5.759   5.742   6.397  0.3417 -0.1274  0.2786
 7244SOL    HW122273   5.833   5.700   6.441  1.0402 -0.7486 -1.3931
 7244SOL    HW222274   5.799   5.810   6.343 -0.4334  0.2645  0.1905
 7245SOL     OW22275   3.395   6.878   4.213  0.1706 -0.6164 -0.6636
 7245SOL    HW122276   3.330   6.873   4.143 -0.8235 -3.5880  0.3283
 7245SOL    HW222277   3.367   6.953   4.266 -1.2163 -0.5881 -1.3905
 7246SOL     OW22278   0.694   6.211   0.141 -0.5282  0.3868  0.1429
 7246SOL    HW122279   0.669   6.180   0.228 -1.7347  0.7915 -0.0496
 7246SOL    HW222280   0.662   6.143   0.081  0.7356 -0.1382  0.0268
 7247SOL     OW22281   5.499   7.442   7.502 -0.1539  0.7950  0.2479
 7247SOL    HW122282   5.574   7.502   7.503 -0.5436  1.3943 -1.7550
 7247SOL    HW222283   5.484   7.421   7.594  1.6452  1.6961  0.7940
 7248SOL     OW22284   0.102   3.681   6.097 -0.4626  0.7416  0.4853
 7248SOL    HW122285   0.146   3.742   6.155  0.8352  0.8706 -0.5840
 7248SOL    HW222286   0.108   3.721   6.011 -1.3764  0.0496  0.0854
 7249SOL     OW22287   3.886   6.515   4.526  0.1717  0.5892 -0.4349
 7249SOL    HW122288   3.891   6.453   4.599 -0.3800  0.2961 -0.6372
 7249SOL    HW222289   3.806   6.491   4.480 -0.2970  1.7434 -0.2568
 7250SOL     OW22290   4.131   5.065   3.899 -0.0612  0.1446 -0.4075
 7250SOL    HW122291   4.226   5.061   3.914  0.1401 -0.6992 -1.7126
 7250SOL    HW222292   4.110   5.158   3.902  0.5570  0.2604  1.2707
 7251SOL     OW22293   5.074   5.944   2.351  0.8550  1.1604  0.0565
 7251SOL    HW122294   4.994   5.985   2.319  0.2281 -0.7104 -0.9299
 7251SOL    HW222295   5.107   5.894   2.277  1.6439  0.0119  1.1264
 7252SOL     OW22296   7.059   5.805   7.386 -0.0442  0.5563  0.1618
 7252SOL    HW122297   7.150   5.828   7.403  0.5128 -1.2926 -0.0559
 7252SOL    HW222298   7.060   5.710   7.376 -1.8579  0.5883 -0.7540
 7253SOL     OW22299   4.107   5.326   2.209  0.0419 -0.7266 -0.2618
 7253SOL    HW122300   4.185   5.360   2.165  0.0197 -0.4789 -0.1058
 7253SOL    HW222301   4.082   5.394   2.272 -0.4789 -0.6704 -0.5222
 7254SOL     OW22302   5.483   2.177   3.516  0.1611 -0.0095 -0.5949
 7254SOL    HW122303   5.419   2.210   3.454 -0.2174 -0.5247 -0.4770
 7254SOL    HW222304   5.439   2.181   3.601  0.8193  1.0938 -0.2845
 7255SOL     OW22305   2.795   2.674   2.797 -0.1480 -0.6385  0.1169
 7255SOL    HW122306   2.722   2.647   2.851 -0.6631  0.5295  0.0417
 7255SOL    HW222307   2.784   2.769   2.787  0.0684 -0.7799 -1.8182
 7256SOL     OW22308   1.580   1.814   6.705  0.2921 -0.1544 -0.2759
 7256SOL    HW122309   1.669   1.796   6.734 -0.3866 -1.4106  1.1917
 7256SOL    HW222310   1.534   1.843   6.784 -0.7442 -0.0345 -0.8900
 7257SOL     OW22311   5.931   6.682   6.069  0.1886  1.1293 -0.1970
 7257SOL    HW122312   5.991   6.756   6.072 -1.7502  2.7750  1.9468
 7257SOL    HW222313   5.845   6.720   6.088 -1.1992 -1.4234 -0.9151
 7258SOL     OW22314   3.323   5.554   4.540  0.1601  0.1292  0.0651
 7258SOL    HW122315   3.342   5.561   4.633  0.3367 -0.6578  0.0911
 7258SOL    HW222316   3.404   5.522   4.501 -0.2237 -0.5288 -0.2129
 7259SOL     OW22317   4.038   6.705   2.634  0.0301 -0.1473 -0.2571
 7259SOL    HW122318   4.067   6.614   2.636  1.3780  0.2341 -1.1166
 7259SOL    HW222319   3.976   6.712   2.707  2.4936 -0.9293  2.0935
 7260SOL     OW22320   4.942   4.116   6.200  0.2915 -0.0721  0.0639
 7260SOL    HW122321   4.847   4.126   6.201  0.1730 -0.9069 -0.9562
 7260SOL    HW222322   4.959   4.055   6.128  1.6025  0.0793  0.2182
 7261SOL     OW22323   2.779   1.677   1.392  0.3940  0.0004 -0.2120
 7261SOL    HW122324   2.757   1.721   1.474 -1.7998  1.4856 -1.4848
 7261SOL    HW222325   2.842   1.736   1.350  0.5662 -0.1375 -0.1492
 7262SOL     OW22326   2.510   2.483   1.934 -0.2993 -0.0801 -0.6926
 7262SOL    HW122327   2.523   2.577   1.936 -1.9142  0.2071 -1.5453
 7262SOL    HW222328   2.487   2.464   1.842  1.0911 -1.4714 -0.7905
 7263SOL     OW22329   0.083   2.057   4.508  0.3732 -0.1938  0.0204
 7263SOL    HW122330   0.169   2.095   4.490  0.0288  0.8673  0.4925
 7263SOL    HW222331   0.102   1.972   4.548  1.2118  0.0410  0.1490
 7264SOL     OW22332   6.571   4.747   5.172 -0.0543 -0.1432 -0.3987
 7264SOL    HW122333   6.644   4.773   5.116 -0.7875  0.5603 -1.0629
 7264SOL    HW222334   6.498   4.735   5.111 -1.6921  3.5465  0.5557
 7265SOL     OW22335   1.848   7.604   7.601  0.5534  0.4903 -0.0715
 7265SOL    HW122336   1.840   7.509   7.609  0.8067  0.3684 -1.1487
 7265SOL    HW222337   1.765   7.637   7.636  0.1205 -0.1708 -0.4487
 7266SOL     OW22338   0.485   3.487   5.878  0.4533 -0.4765  0.7028
 7266SOL    HW122339   0.476   3.582   5.884  0.0592 -0.5029  0.5552
 7266SOL    HW222340   0.407   3.453   5.922 -0.2700 -0.7104 -0.7081
 7267SOL     OW22341   0.905   6.819   5.767 -0.3047  0.1985  0.0611
 7267SOL    HW122342   0.890   6.908   5.735  0.2899  0.3593  0.2057
 7267SOL    HW222343   0.989   6.824   5.812  2.1790 -1.3871 -3.8157
 7268SOL     OW22344   7.313   4.619   4.887 -0.1077  0.0785 -0.3886
 7268SOL    HW122345   7.230   4.603   4.932  1.2451 -0.8541  1.9880
 7268SOL    HW222346   7.372   4.552   4.921  1.4755  0.2572 -2.5401
 7269SOL     OW22347   1.146   5.696   6.848  0.2241  0.0842  0.1212
 7269SOL    HW122348   1.210   5.726   6.783 -0.2477  1.8648  0.4263
 7269SOL    HW222349   1.123   5.775   6.898  0.5584 -1.2019  2.4734
 7270SOL     OW22350   4.202   0.177   7.092  0.4384 -0.0714  0.3864
 7270SOL    HW122351   4.225   0.238   7.162  1.2102 -0.3247  0.3634
 7270SOL    HW222352   4.229   0.223   7.012 -1.4969  0.7148  0.1406
 7271SOL     OW22353   5.895   3.369   4.742 -0.0970  0.4178  0.3364
 7271SOL    HW122354   5.951   3.291   4.738 -0.1128  0.4153  0.1313
 7271SOL    HW222355   5.809   3.335   4.768 -0.7575 -0.0164 -2.1216
 7272SOL     OW22356   7.582   2.298   3.031 -0.3930  0.4186  0.8558
 7272SOL    HW122357   7.641   2.265   3.099  1.9357  2.1911 -0.1664
 7272SOL    HW222358   7.519   2.351   3.079  1.0257  1.4129  1.7113
 7273SOL     OW22359   6.669   1.525   1.971  0.1620  0.0228 -0.0704
 7273SOL    HW122360   6.662   1.590   1.901  0.0066 -0.0349 -0.1075
 7273SOL    HW222361   6.677   1.577   2.051  1.0984  0.1013 -0.1966
 7274SOL     OW22362   3.928   1.885   2.596  0.2371 -0.2139  0.5477
 7274SOL    HW122363   3.968   1.800   2.614  2.6064  0.5935 -0.5218
 7274SOL    HW222364   3.949   1.938   2.673  1.2760  0.2066 -0.0079
 7275SOL     OW22365   0.488   6.739   7.077 -0.2051 -0.7349  0.8587
 7275SOL    HW122366   0.472   6.653   7.115 -0.9035 -1.9386 -1.8832
 7275SOL    HW222367   0.422   6.796   7.116 -2.0485 -2.3073  0.2081
 7276SOL     OW22368   4.603   0.319   2.644 -0.0775  0.3399 -0.4203
 7276SOL    HW122369   4.597   0.393   2.705  1.0029 -0.0147  0.1403
 7276SOL    HW222370   4.516   0.314   2.603 -0.7089  0.8104  0.8201
 7277SOL     OW22371   7.526   3.854   4.712  0.1525 -0.5186  0.0764
 7277SOL    HW122372   7.493   3.939   4.741  0.2595  0.3255 -2.0914
 7277SOL    HW222373   7.594   3.832   4.776 -0.1007  0.8823  0.8642
 7278SOL     OW22374   2.550   3.256   0.411 -0.1933  0.8684 -0.6955
 7278SOL    HW122375   2.605   3.238   0.487 -0.4942  1.9057 -0.2024
 7278SOL    HW222376   2.603   3.231   0.336  0.4568  0.6603 -0.1762
 7279SOL     OW22377   4.973   6.956   2.315  0.0426  0.1369 -0.0029
 7279SOL    HW122378   4.969   7.045   2.351  0.3774 -0.3817  1.3737
 7279SOL    HW222379   5.065   6.930   2.324 -0.1656 -0.5671  0.1803
 7280SOL     OW22380   3.205   1.312   4.257 -0.3620 -0.5418 -0.3095
 7280SOL    HW122381   3.292   1.286   4.226 -0.2229 -0.0258 -0.3569
 7280SOL    HW222382   3.210   1.407   4.267 -1.1139 -0.4320 -0.9019
 7281SOL     OW22383   7.139   2.973   4.629 -0.2985 -0.7422  0.4023
 7281SOL    HW122384   7.161   2.902   4.690 -0.1281 -1.8801 -0.9240
 7281SOL    HW222385   7.080   2.932   4.566  0.5997  0.0198 -0.9697
 7282SOL     OW22386   0.864   0.572   3.501  0.2917  0.5456  0.2349
 7282SOL    HW122387   0.856   0.480   3.476 -0.5497  1.3388 -2.8549
 7282SOL    HW222388   0.958   0.584   3.517  0.3942 -0.8538  0.8964
 7283SOL     OW22389   4.924   5.255   0.883 -0.1404 -0.5985  0.5285
 7283SOL    HW122390   4.858   5.211   0.937  0.1392 -1.4697  0.1596
 7283SOL    HW222391   4.898   5.238   0.793  1.2906 -2.0756  0.3463
 7284SOL     OW22392   3.175   2.998   5.394  0.1693  0.5959  0.3906
 7284SOL    HW122393   3.205   3.023   5.481  1.0218  0.9941 -0.0161
 7284SOL    HW222394   3.215   3.062   5.335  1.4027 -0.9658 -0.5365
 7285SOL     OW22395   7.395   0.586   1.211  0.6076 -0.2093 -0.8001
 7285SOL    HW122396   7.348   0.549   1.286  1.5609  1.6212  0.8139
 7285SOL    HW222397   7.474   0.532   1.204  1.2921  0.5310  0.6089
 7286SOL     OW22398   0.481   6.489   4.823 -0.1391  0.6672 -0.2832
 7286SOL    HW122399   0.577   6.493   4.818  0.0217 -1.1799  0.6003
 7286SOL    HW222400   0.462   6.480   4.916 -0.9579 -1.8678 -0.6088
 7287SOL     OW22401   2.264   0.054   6.747  0.1210  0.2162  0.0552
 7287SOL    HW122402   2.190   0.113   6.730  0.3782  0.3071 -0.7870
 7287SOL    HW222403   2.326   0.073   6.677  0.7933 -0.1161  0.5526
 7288SOL     OW22404   6.285   2.320   1.164  0.3312  0.1703 -0.0341
 7288SOL    HW122405   6.342   2.396   1.176  1.4194 -0.5613 -0.4124
 7288SOL    HW222406   6.337   2.259   1.111 -0.3044 -1.0682  0.7234
 7289SOL     OW22407   5.711   2.890   5.906 -0.3262  0.5758 -0.2118
 7289SOL    HW122408   5.702   2.840   5.987  0.7920  0.6557 -0.0230
 7289SOL    HW222409   5.644   2.958   5.912 -2.1596 -1.0984 -0.6615
 7290SOL     OW22410   1.983   2.776   1.153 -0.5003  0.5986 -0.1354
 7290SOL    HW122411   2.038   2.732   1.218 -0.3222 -1.8014 -1.7900
 7290SOL    HW222412   2.038   2.781   1.075 -0.5869  3.7304 -0.1044
 7291SOL     OW22413   1.252   0.143   6.917 -0.3826  0.7287  0.2127
 7291SOL    HW122414   1.259   0.194   6.837  0.1070 -0.6845 -0.6983
 7291SOL    HW222415   1.188   0.075   6.897 -1.6126  1.4147  1.6547
 7292SOL     OW22416   5.612   3.585   7.394 -0.1615 -0.2576  0.0959
 7292SOL    HW122417   5.680   3.567   7.329  0.3762  0.9042  0.3091
 7292SOL    HW222418   5.534   3.603   7.342  0.5523  1.8956 -0.3448
 7293SOL     OW22419   6.477   4.381   1.473 -0.0117 -0.1929  0.1495
 7293SOL    HW122420   6.469   4.475   1.490  1.5044 -0.0694  0.3619
 7293SOL    HW222421   6.400   4.342   1.514 -1.0653  1.0245 -0.6109
 7294SOL     OW22422   0.439   3.042   4.898 -0.0912  0.0636  0.5969
 7294SOL    HW122423   0.525   3.001   4.912  1.0123  1.9852 -0.1466
 7294SOL    HW222424   0.449   3.091   4.816 -2.3760 -0.7979 -0.2510
 7295SOL     OW22425   5.678   3.564   5.340  0.2227 -0.1632 -0.0584
 7295SOL    HW122426   5.685   3.537   5.432  1.1377  1.9132  0.5564
 7295SOL    HW222427   5.617   3.502   5.301 -2.5957  0.5921  2.6723
 7296SOL     OW22428   0.075   0.727   5.639  0.2495  0.2130  0.2688
 7296SOL    HW122429   0.118   0.774   5.710  0.3290 -1.8790  1.6811
 7296SOL    HW222430   0.020   0.794   5.596 -0.6440  1.3406  2.9522
 7297SOL     OW22431   4.900   1.498   3.577  0.4739  0.7918  0.2365
 7297SOL    HW122432   4.938   1.575   3.619  2.5087  0.6447 -1.1462
 7297SOL    HW222433   4.903   1.519   3.483  0.3168 -0.6546 -0.1082
 7298SOL     OW22434   5.160   1.873   4.380 -0.0943 -0.5091 -0.0139
 7298SOL    HW122435   5.070   1.862   4.410 -0.2128 -0.6939 -0.4278
 7298SOL    HW222436   5.200   1.931   4.445 -0.0731 -1.6376  1.0394
 7299SOL     OW22437   2.241   0.916   6.190 -0.0301 -0.3051 -1.0050
 7299SOL    HW122438   2.167   0.969   6.220 -1.3307 -2.2410 -0.5548
 7299SOL    HW222439   2.200   0.836   6.156  1.8799 -1.9184  0.2626
 7300SOL     OW22440   3.650   5.004   3.536  0.3582  0.3823  0.2335
 7300SOL    HW122441   3.685   5.052   3.611  2.6065 -0.6411 -0.0713
 7300SOL    HW222442   3.684   5.051   3.460  0.4059 -0.1761 -0.0968
 7301SOL     OW22443   5.118   0.378   2.966  0.2309 -0.4038 -0.1128
 7301SOL    HW122444   5.037   0.333   2.990  1.2986 -2.0150  0.6178
 7301SOL    HW222445   5.164   0.392   3.048  1.1216 -0.3577 -0.6011
 7302SOL     OW22446   4.180   2.813   5.893  0.0408 -0.1839 -0.2853
 7302SOL    HW122447   4.084   2.817   5.893  0.0333 -0.2067  0.5248
 7302SOL    HW222448   4.208   2.902   5.916  0.1629 -0.5698  1.2116
 7303SOL     OW22449   7.002   1.204   4.670  0.1842  0.9259 -0.8993
 7303SOL    HW122450   7.030   1.148   4.598 -0.1557  1.8072 -1.7332
 7303SOL    HW222451   6.915   1.235   4.644 -0.5982  0.0743  0.5774
 7304SOL     OW22452   6.788   1.474   7.302  0.1344 -0.0707  0.0225
 7304SOL    HW122453   6.846   1.549   7.316  0.1761 -0.0208 -0.3942
 7304SOL    HW222454   6.845   1.397   7.316  0.2669 -0.0222 -0.2499
 7305SOL     OW22455   3.122   2.593   6.340  0.4538  0.2376  0.5760
 7305SOL    HW122456   3.139   2.582   6.433  1.6282  1.7247  0.5755
 7305SOL    HW222457   3.132   2.687   6.325  1.3210 -0.1059 -1.2295
 7306SOL     OW22458   1.417   6.088   6.920  0.1182 -0.0288  0.3118
 7306SOL    HW122459   1.416   6.078   7.015  4.2372 -2.0523  0.3343
 7306SOL    HW222460   1.374   6.008   6.887 -1.0297  0.5275  0.4128
 7307SOL     OW22461   5.692   6.588   6.713  0.0519  0.1315 -0.0634
 7307SOL    HW122462   5.751   6.663   6.722  0.6837 -0.4026  0.2900
 7307SOL    HW222463   5.747   6.512   6.732 -1.1740 -0.2699  2.1390
 7308SOL     OW22464   4.071   4.633   1.841  0.4689 -0.0170 -0.0694
 7308SOL    HW122465   4.127   4.705   1.811  0.8628 -0.0699  0.5215
 7308SOL    HW222466   4.089   4.562   1.780  0.5558  0.1790 -0.2764
 7309SOL     OW22467   4.878   5.633   5.531  0.7494  0.0961 -0.5602
 7309SOL    HW122468   4.788   5.664   5.520  1.8164  3.9173 -0.0548
 7309SOL    HW222469   4.887   5.617   5.625  0.5413 -0.4553 -0.6358
 7310SOL     OW22470   1.129   6.011   5.003 -0.0120  0.6034  0.2110
 7310SOL    HW122471   1.108   5.927   4.961  1.3081  0.9277 -1.1493
 7310SOL    HW222472   1.056   6.025   5.064  0.4824 -2.2803  1.6504
 7311SOL     OW22473   5.472   6.778   3.409  0.4308  0.7196 -0.0666
 7311SOL    HW122474   5.521   6.782   3.491 -3.0118 -1.6208  2.3731
 7311SOL    HW222475   5.408   6.849   3.416 -0.4624 -0.0485 -0.2566
 7312SOL     OW22476   6.905   5.805   1.641 -0.4239  0.1201  0.0881
 7312SOL    HW122477   6.963   5.782   1.714  0.7398  0.2595 -0.7498
 7312SOL    HW222478   6.964   5.843   1.575 -1.2442 -0.9745 -1.3469
 7313SOL     OW22479   6.171   1.926   3.596 -0.0603 -0.5197 -0.1065
 7313SOL    HW122480   6.231   1.852   3.591  0.8057  0.1547 -0.0079
 7313SOL    HW222481   6.128   1.927   3.511 -0.0019 -1.0757 -0.1462
 7314SOL     OW22482   1.986   5.308   5.155  0.4894 -0.1029 -0.3054
 7314SOL    HW122483   2.014   5.369   5.223  1.3392 -0.9500  0.1259
 7314SOL    HW222484   2.068   5.274   5.118  0.0787  1.3540 -2.7191
 7315SOL     OW22485   6.637   1.202   6.572  0.3707  0.0822 -0.3417
 7315SOL    HW122486   6.699   1.274   6.561  1.0115 -0.2191  1.0753
 7315SOL    HW222487   6.642   1.180   6.665 -0.5790 -1.1124 -0.5456
 7316SOL     OW22488   7.593   4.083   5.102  0.3050  0.3419 -0.3331
 7316SOL    HW122489   7.687   4.087   5.123  0.6405 -0.1654 -1.6163
 7316SOL    HW222490   7.553   4.044   5.180  0.7258  3.0165  1.3556
 7317SOL     OW22491   7.484   0.712   0.566 -0.4125  0.4157  0.5127
 7317SOL    HW122492   7.554   0.739   0.507 -0.7627 -0.0105 -0.1141
 7317SOL    HW222493   7.404   0.742   0.523 -0.8384 -1.7556 -0.3173
 7318SOL     OW22494   7.400   2.072   0.658  0.3269  0.0400 -0.0844
 7318SOL    HW122495   7.488   2.033   0.653  0.4689  0.2964  0.4124
 7318SOL    HW222496   7.398   2.116   0.742 -0.5578 -0.6111  0.2451
 7319SOL     OW22497   5.248   1.539   4.852 -0.2075  0.1926  0.4247
 7319SOL    HW122498   5.155   1.555   4.863 -0.3977 -1.2653  1.2122
 7319SOL    HW222499   5.284   1.624   4.827 -1.4908  1.1798  1.7286
 7320SOL     OW22500   1.825   6.952   0.039 -0.2983 -0.0580  0.2284
 7320SOL    HW122501   1.732   6.947   0.018 -0.1941 -0.4332 -0.1653
 7320SOL    HW222502   1.832   7.024   0.102 -1.1350 -1.2969  1.8103
 7321SOL     OW22503   6.754   5.227   5.285  0.8934 -0.0588 -0.8204
 7321SOL    HW122504   6.828   5.267   5.240  1.1192 -0.1972 -0.5784
 7321SOL    HW222505   6.683   5.227   5.221  0.9461  0.5645 -0.8794
 7322SOL     OW22506   1.350   4.839   0.902 -0.1535 -0.2232  0.2624
 7322SOL    HW122507   1.407   4.912   0.879  0.1221 -1.2999 -2.9726
 7322SOL    HW222508   1.362   4.829   0.997  0.3527  3.3539  0.7338
 7323SOL     OW22509   7.580   0.096   0.906 -0.2239  0.2323 -0.0516
 7323SOL    HW122510   7.495   0.078   0.865 -0.9625  0.2604  1.3909
 7323SOL    HW222511   7.642   0.042   0.857 -1.0657  0.1739 -1.1090
 7324SOL     OW22512   2.800   6.007   1.025 -0.6179 -0.6773  0.3910
 7324SOL    HW122513   2.736   5.957   1.076  0.8428 -0.3720  2.6443
 7324SOL    HW222514   2.794   5.970   0.937 -3.7831 -0.7151  0.4956
 7325SOL     OW22515   0.338   2.211   5.638  0.0051 -0.0231 -0.0148
 7325SOL    HW122516   0.283   2.195   5.562  0.3498  1.5717 -0.6392
 7325SOL    HW222517   0.308   2.148   5.703 -2.0481  0.2765 -0.5892
 7326SOL     OW22518   4.854   3.217   5.891 -0.2526 -0.3002 -0.0019
 7326SOL    HW122519   4.811   3.292   5.851 -1.4634 -1.6994 -1.4447
 7326SOL    HW222520   4.940   3.214   5.850 -0.5876 -0.3121 -0.7119
 7327SOL     OW22521   7.109   0.513   0.191  0.3236  0.0023 -0.0588
 7327SOL    HW122522   7.181   0.502   0.128  0.5519  0.5277  0.1015
 7327SOL    HW222523   7.122   0.443   0.254 -0.2675 -0.9101 -0.9276
 7328SOL     OW22524   5.892   2.455   6.797  0.0247  0.0381 -0.2994
 7328SOL    HW122525   5.947   2.376   6.792 -0.3011 -0.2903  1.0399
 7328SOL    HW222526   5.804   2.423   6.775 -0.3272 -0.2410  1.3777
 7329SOL     OW22527   2.712   6.653   6.214  0.0074  0.0202 -0.0417
 7329SOL    HW122528   2.760   6.712   6.272 -0.4790 -0.7967  1.2347
 7329SOL    HW222529   2.777   6.588   6.186  0.5989  1.2304 -1.6271
 7330SOL     OW22530   1.573   2.886   2.347 -0.2146  1.3035 -0.4323
 7330SOL    HW122531   1.669   2.880   2.354 -0.4252 -1.2230  1.3781
 7330SOL    HW222532   1.547   2.943   2.419 -0.0983  2.0976 -1.0038
 7331SOL     OW22533   7.243   6.221   1.228 -0.0655 -0.5203  0.3283
 7331SOL    HW122534   7.314   6.158   1.215 -0.5178 -0.9967  0.1162
 7331SOL    HW222535   7.181   6.175   1.285 -1.1609 -0.8909 -1.1096
 7332SOL     OW22536   1.732   0.039   1.308  0.4743  0.6649  0.2710
 7332SOL    HW122537   1.717  -0.056   1.307 -0.0069  0.7068  1.3171
 7332SOL    HW222538   1.817   0.049   1.352  1.2777  0.6628 -1.2268
 7333SOL     OW22539   4.302   5.267   6.668  0.2083 -0.3496 -0.8340
 7333SOL    HW122540   4.237   5.292   6.733  0.3957 -0.9409 -0.4103
 7333SOL    HW222541   4.386   5.279   6.712  0.2868 -3.2564 -0.0018
 7334SOL     OW22542   0.273   6.764   2.884  0.0551  0.1796 -0.2081
 7334SOL    HW122543   0.293   6.857   2.880  0.5964  0.0660 -0.2732
 7334SOL    HW222544   0.195   6.758   2.938  1.3600  0.4763  1.8335
 7335SOL     OW22545   5.427   2.728   6.875 -0.4115  0.0905  0.2414
 7335SOL    HW122546   5.378   2.765   6.801 -0.8605  2.3016  1.5626
 7335SOL    HW222547   5.501   2.787   6.888 -0.2951 -0.2938  1.5049
 7336SOL     OW22548   6.107   0.902   0.734 -0.6979  0.2042  0.0677
 7336SOL    HW122549   6.178   0.940   0.683 -0.5042 -1.3297 -0.8372
 7336SOL    HW222550   6.148   0.832   0.785 -0.5109  2.6820  3.7531
 7337SOL     OW22551   1.308   7.041   3.106 -0.6300  0.1636 -0.2113
 7337SOL    HW122552   1.269   7.081   3.184 -0.2817 -0.2054  0.1581
 7337SOL    HW222553   1.297   6.947   3.119 -0.0236  0.0754 -0.3185
 7338SOL     OW22554   3.772   2.405   0.829 -0.3414  0.7287 -0.4912
 7338SOL    HW122555   3.709   2.444   0.768 -0.7239  0.4271 -0.2869
 7338SOL    HW222556   3.744   2.314   0.839 -0.4325  0.8438  0.3427
 7339SOL     OW22557   3.919   3.552   7.610  0.1977  0.2393  0.2004
 7339SOL    HW122558   3.938   3.645   7.593  0.7869  0.1077  0.1215
 7339SOL    HW222559   3.823   3.547   7.610  0.0877  1.2856  2.5878
 7340SOL     OW22560   0.127   2.104   4.902  0.7285 -0.6110  0.2910
 7340SOL    HW122561   0.097   2.054   4.827 -3.5044  1.6974  0.1534
 7340SOL    HW222562   0.128   2.042   4.975  0.3928 -1.8964 -0.7732
 7341SOL     OW22563   5.640   3.123   0.754 -0.2644  0.0648  0.0414
 7341SOL    HW122564   5.560   3.123   0.808 -0.6907  1.2781 -0.5450
 7341SOL    HW222565   5.642   3.211   0.715  1.4400  0.1002  0.1460
 7342SOL     OW22566   7.139   6.998   2.975  0.2825 -0.3292  0.3976
 7342SOL    HW122567   7.113   7.030   2.889 -1.1870 -1.0293  0.5387
 7342SOL    HW222568   7.171   6.909   2.960  0.1191 -0.4163  0.5518
 7343SOL     OW22569   7.233   4.018   4.192  0.3297  0.1632 -0.1978
 7343SOL    HW122570   7.149   3.980   4.219  0.3940  0.2490  0.1368
 7343SOL    HW222571   7.237   4.101   4.240  0.9659 -0.2151  0.4075
 7344SOL     OW22572   0.981   6.161   4.149  0.4207 -0.4456 -0.0082
 7344SOL    HW122573   0.923   6.234   4.170  1.3296  0.2555  0.1143
 7344SOL    HW222574   0.931   6.108   4.086 -0.8945 -0.6208  1.1243
 7345SOL     OW22575   6.696   7.289   4.860  0.0892  0.1273  0.4634
 7345SOL    HW122576   6.763   7.225   4.884 -1.0659 -1.8114 -1.1387
 7345SOL    HW222577   6.678   7.337   4.940  2.5340 -0.0891  1.2144
 7346SOL     OW22578   4.694   1.194   6.648  0.5367  0.0578  0.3777
 7346SOL    HW122579   4.789   1.196   6.635  0.4617  0.5883 -0.1275
 7346SOL    HW222580   4.683   1.169   6.740  1.1131 -1.5339  0.0382
 7347SOL     OW22581   2.985   6.503   2.686 -0.1327 -0.0417 -0.3657
 7347SOL    HW122582   2.893   6.495   2.711  0.4081 -1.8858  1.3051
 7347SOL    HW222583   3.026   6.425   2.723  2.2945  1.2273 -0.2155
 7348SOL     OW22584   6.957   2.312   5.566 -0.0770  0.3326 -0.3201
 7348SOL    HW122585   6.905   2.350   5.636  1.1211 -0.9930  1.3635
 7348SOL    HW222586   6.911   2.232   5.541  0.3932 -0.1087  0.1967
 7349SOL     OW22587   2.158   0.405   1.274 -0.0143  0.3361 -0.3083
 7349SOL    HW122588   2.087   0.431   1.334  0.5684  1.5142 -0.1030
 7349SOL    HW222589   2.119   0.414   1.187 -0.7344 -0.9853 -0.1634
 7350SOL     OW22590   0.687   6.033   6.832 -0.2396 -0.2877  0.0879
 7350SOL    HW122591   0.638   5.976   6.891 -2.1747  2.6776  1.5620
 7350SOL    HW222592   0.765   6.058   6.881 -0.7879  0.4979  0.5751
 7351SOL     OW22593   6.887   0.420   0.613 -0.2530  0.3530 -0.4716
 7351SOL    HW122594   6.967   0.471   0.629 -0.0209 -0.1861  0.1447
 7351SOL    HW222595   6.820   0.464   0.666 -0.4779  1.0581 -1.3171
 7352SOL     OW22596   5.813   1.512   7.032  0.0437 -0.0743 -0.3751
 7352SOL    HW122597   5.731   1.531   6.986 -0.0239  0.1333 -0.1712
 7352SOL    HW222598   5.867   1.466   6.967  0.1584  0.6898 -0.8393
 7353SOL     OW22599   3.771   1.377   0.870  0.7383  0.2351 -0.1948
 7353SOL    HW122600   3.784   1.470   0.889  0.7590  0.1648  0.1396
 7353SOL    HW222601   3.860   1.341   0.863  0.7416  0.4780 -1.5174
 7354SOL     OW22602   3.688   1.138   6.007  0.3287  0.0057  0.1703
 7354SOL    HW122603   3.763   1.154   5.950 -0.2131  1.4232 -0.1844
 7354SOL    HW222604   3.724   1.094   6.084  1.2507 -0.8752 -0.7272
 7355SOL     OW22605   2.704   4.951   0.854 -0.0650 -0.1915 -0.0571
 7355SOL    HW122606   2.755   4.892   0.798 -0.7798 -0.0131 -0.9163
 7355SOL    HW222607   2.708   5.035   0.809  1.6460  0.6866  1.5689
 7356SOL     OW22608   7.387   7.278   0.462 -0.2235 -0.0054 -0.2760
 7356SOL    HW122609   7.448   7.213   0.428  0.2911  0.6841 -0.6833
 7356SOL    HW222610   7.431   7.316   0.538 -0.1963  0.3827 -0.4794
 7357SOL     OW22611   3.707   6.902   4.425  0.2672  0.1926  0.2281
 7357SOL    HW122612   3.690   6.976   4.367  2.2948  0.4382 -0.1387
 7357SOL    HW222613   3.782   6.858   4.386 -1.5195 -2.7504 -0.1669
 7358SOL     OW22614   5.542   2.953   2.854  0.8183 -0.1211  0.3349
 7358SOL    HW122615   5.517   3.042   2.878  3.2449  0.8092 -0.3225
 7358SOL    HW222616   5.582   2.917   2.933 -1.4681 -1.2575  1.0791
 7359SOL     OW22617   7.602   1.441   2.486  0.1081 -0.1626 -0.5526
 7359SOL    HW122618   7.615   1.348   2.469 -0.1592 -0.2960 -0.0318
 7359SOL    HW222619   7.588   1.447   2.581  1.8998  0.5908 -0.2766
 7360SOL     OW22620   6.995   2.521   3.128 -0.4385 -0.1422  0.2055
 7360SOL    HW122621   6.937   2.595   3.108 -1.3314 -1.2054 -1.4123
 7360SOL    HW222622   7.079   2.546   3.091  0.2484  1.4326  2.5946
 7361SOL     OW22623   5.440   1.525   0.103 -0.2989  0.1914  0.7506
 7361SOL    HW122624   5.528   1.510   0.138 -0.1000 -0.1389  0.1166
 7361SOL    HW222625   5.430   1.460   0.034 -1.2905 -0.2026  1.2416
 7362SOL     OW22626   1.525   0.255   5.228 -0.0318 -0.1378  0.8065
 7362SOL    HW122627   1.492   0.247   5.318 -0.7234 -1.7305  0.4300
 7362SOL    HW222628   1.447   0.260   5.174  0.2929 -2.3508  0.0441
 7363SOL     OW22629   0.688   5.321   5.592 -0.2705 -0.0765 -0.7046
 7363SOL    HW122630   0.767   5.285   5.632 -0.5088  0.2821  0.1032
 7363SOL    HW222631   0.684   5.280   5.505  0.2478 -0.8742 -0.3601
 7364SOL     OW22632   2.766   2.549   1.464  0.4269  0.3325 -0.5144
 7364SOL    HW122633   2.756   2.623   1.403 -0.8726 -0.2194 -1.0026
 7364SOL    HW222634   2.676   2.517   1.478  0.7395  0.2092  1.4105
 7365SOL     OW22635   4.026   5.599   0.316  0.2641  0.0198  0.2482
 7365SOL    HW122636   3.975   5.532   0.272  1.1799 -1.9031  1.9764
 7365SOL    HW222637   4.114   5.592   0.278  0.2966  0.4479  0.2353
 7366SOL     OW22638   2.912   2.053   5.101 -0.1930  0.6871  0.2867
 7366SOL    HW122639   2.861   1.985   5.145 -0.7080 -1.1801 -2.8847
 7366SOL    HW222640   2.997   2.013   5.085  0.5097  1.8880  0.8462
 7367SOL     OW22641   3.200   3.350   1.782  0.5211 -0.0143 -0.7696
 7367SOL    HW122642   3.286   3.389   1.798  0.7106  0.5600 -2.8940
 7367SOL    HW222643   3.219   3.262   1.750  0.1898 -0.7543  0.9363
 7368SOL     OW22644   3.608   4.587   4.587  0.4771  0.0487 -0.3528
 7368SOL    HW122645   3.686   4.610   4.637  0.5346  1.8671 -1.2205
 7368SOL    HW222646   3.553   4.539   4.649  2.7456 -2.4131 -0.0519
 7369SOL     OW22647   4.271   0.367   5.093  0.7897 -0.0818  0.3316
 7369SOL    HW122648   4.247   0.438   5.033 -0.5657 -2.2937 -1.9059
 7369SOL    HW222649   4.188   0.341   5.134  1.3002 -0.3084  1.2474
 7370SOL     OW22650   5.007   2.272   1.991 -0.1240 -0.0557 -0.1196
 7370SOL    HW122651   4.995   2.303   2.080 -0.9374  1.3533 -0.6828
 7370SOL    HW222652   5.050   2.345   1.946 -1.6529  0.1256 -1.3853
 7371SOL     OW22653   2.008   1.797   2.507 -0.3072  0.1526  0.1592
 7371SOL    HW122654   1.987   1.744   2.584 -2.4634 -0.4543 -0.7769
 7371SOL    HW222655   1.949   1.872   2.513 -1.0035 -0.2557 -1.2379
 7372SOL     OW22656   7.037   4.514   2.023 -0.2597 -0.2635  0.8440
 7372SOL    HW122657   7.075   4.431   1.994  0.0090 -0.3805  1.5155
 7372SOL    HW222658   7.071   4.526   2.112  0.6888  1.1623  0.3281
 7373SOL     OW22659   1.306   3.937   4.961  0.0656  0.2331  0.2120
 7373SOL    HW122660   1.230   3.880   4.954  0.0193  0.4279 -1.1132
 7373SOL    HW222661   1.279   4.019   4.919  0.5588  0.7785  0.9367
 7374SOL     OW22662   3.200   4.868   3.028  1.4072  0.2096  0.0529
 7374SOL    HW122663   3.159   4.803   2.970  1.4618  0.7253 -0.5806
 7374SOL    HW222664   3.291   4.871   2.999  1.6057 -0.0427  0.6440
 7375SOL     OW22665   2.250   3.887   5.465  0.3918  0.1744  0.0815
 7375SOL    HW122666   2.188   3.818   5.443 -0.8187  1.1394  0.3448
 7375SOL    HW222667   2.299   3.903   5.384 -0.8361  0.5154 -0.6159
 7376SOL     OW22668   7.169   7.118   6.073 -0.0041  0.0473 -0.5667
 7376SOL    HW122669   7.235   7.069   6.024 -0.4901  0.5100 -1.7015
 7376SOL    HW222670   7.136   7.055   6.138 -0.0902 -0.8993 -1.5090
 7377SOL     OW22671   2.097   1.065   5.121  0.3194 -0.1550  0.3003
 7377SOL    HW122672   2.149   1.076   5.042 -0.5412 -0.1911 -0.2885
 7377SOL    HW222673   2.052   1.149   5.132  0.3739 -0.1762  0.7120
 7378SOL     OW22674   3.118   4.499   3.484  0.4209  0.0967 -0.4438
 7378SOL    HW122675   3.154   4.450   3.558  0.8513  2.6378  1.1733
 7378SOL    HW222676   3.177   4.478   3.411  0.1656 -2.2428 -0.0597
 7379SOL     OW22677   5.765   4.600   6.945 -0.1309  0.4439  0.5573
 7379SOL    HW122678   5.773   4.680   6.893 -0.2079 -1.0485 -1.9402
 7379SOL    HW222679   5.842   4.548   6.921 -0.6391 -0.6712  1.2695
 7380SOL     OW22680   5.276   1.238   1.185 -0.2155  0.5921  0.5906
 7380SOL    HW122681   5.318   1.257   1.101 -0.5415  2.4694  0.8026
 7380SOL    HW222682   5.340   1.186   1.232 -0.0223 -0.4880 -0.8069
 7381SOL     OW22683   1.738   3.222   2.885 -0.6483  0.2012  0.5528
 7381SOL    HW122684   1.710   3.149   2.940  0.0591 -0.4309  0.1056
 7381SOL    HW222685   1.803   3.269   2.937 -0.2586 -0.1727  0.4083
 7382SOL     OW22686   6.559   1.255   7.061 -0.1805  0.3102  0.0766
 7382SOL    HW122687   6.593   1.177   7.105  1.8542  0.5127 -1.0199
 7382SOL    HW222688   6.607   1.328   7.100  0.5508  0.6343 -1.3660
 7383SOL     OW22689   1.810   6.226   1.996 -0.6217  0.3417  0.3825
 7383SOL    HW122690   1.814   6.185   2.082 -0.9018  0.8371  0.6345
 7383SOL    HW222691   1.811   6.153   1.934  1.0433  0.0012  0.7488
 7384SOL     OW22692   7.125   0.361   1.251 -0.6170  0.7318  0.0756
 7384SOL    HW122693   7.045   0.309   1.242  1.2713 -2.6528  0.8743
 7384SOL    HW222694   7.159   0.370   1.162 -1.5616  1.6918 -0.2011
 7385SOL     OW22695   5.176   2.492   5.341 -0.2969  0.5143  0.0026
 7385SOL    HW122696   5.135   2.535   5.417  0.9918 -0.0524  1.0463
 7385SOL    HW222697   5.269   2.512   5.349 -0.3180  2.4612 -2.7697
 7386SOL     OW22698   4.151   5.740   3.037 -0.0238  0.1802  0.3262
 7386SOL    HW122699   4.126   5.794   2.962 -1.5459  1.3016  1.5675
 7386SOL    HW222700   4.109   5.655   3.021 -0.6075  0.5148  0.0580
 7387SOL     OW22701   1.284   7.223   2.218 -0.2044  0.1870 -0.5833
 7387SOL    HW122702   1.293   7.265   2.133  2.4461 -0.8771 -0.9079
 7387SOL    HW222703   1.332   7.281   2.278 -0.6297  0.0688 -0.1217
 7388SOL     OW22704   4.896   3.065   6.840  0.0175  0.0424  0.2926
 7388SOL    HW122705   4.866   3.155   6.846 -1.6788 -0.5455  1.4424
 7388SOL    HW222706   4.817   3.014   6.823  0.7210 -1.3562  1.0379
 7389SOL     OW22707   6.233   5.165   4.067 -0.3429  0.4827 -0.1596
 7389SOL    HW122708   6.288   5.228   4.021  0.1140  0.3404  0.1911
 7389SOL    HW222709   6.153   5.214   4.087  0.4801  1.3431  1.1955
 7390SOL     OW22710   5.368   5.201   3.129 -0.1496  0.1448 -0.5153
 7390SOL    HW122711   5.365   5.182   3.035  0.2779 -0.3603 -0.4326
 7390SOL    HW222712   5.311   5.277   3.140  2.1161  2.1182 -1.6216
 7391SOL     OW22713   0.381   6.536   6.172 -0.4584 -0.2660 -0.2731
 7391SOL    HW122714   0.404   6.595   6.100 -1.6299  0.4594 -0.0795
 7391SOL    HW222715   0.440   6.461   6.162  0.2316  0.3879 -1.2452
 7392SOL     OW22716   2.962   5.876   4.138  0.1365 -0.3953 -0.0573
 7392SOL    HW122717   3.019   5.907   4.068 -0.0148  0.1280  0.0467
 7392SOL    HW222718   2.906   5.951   4.159 -1.3232 -1.2060 -0.8878
 7393SOL     OW22719   2.693   4.425   7.139 -0.1279  0.8896 -0.4873
 7393SOL    HW122720   2.648   4.466   7.064  1.6029  1.8585 -1.0369
 7393SOL    HW222721   2.766   4.377   7.100 -0.5512 -0.5572  0.4097
 7394SOL     OW22722   6.690   0.356   2.081  0.0907 -0.3386  0.0456
 7394SOL    HW122723   6.660   0.274   2.042  0.8915 -0.1920 -0.9108
 7394SOL    HW222724   6.740   0.329   2.158 -1.5404 -0.6242  1.0670
 7395SOL     OW22725   1.964   2.010   4.179  0.2440 -0.2771  0.0382
 7395SOL    HW122726   2.008   1.930   4.148  0.3854 -0.6496  1.1454
 7395SOL    HW222727   2.017   2.081   4.144 -0.3274 -0.6235 -1.6291
 7396SOL     OW22728   1.664   5.495   7.417 -0.2680 -0.8009 -0.2764
 7396SOL    HW122729   1.572   5.493   7.394  0.0589 -0.5718 -1.7179
 7396SOL    HW222730   1.677   5.581   7.457 -0.3257 -0.0497 -1.7921
 7397SOL     OW22731   1.804   6.602   5.185  0.0879 -0.0068 -0.1150
 7397SOL    HW122732   1.738   6.671   5.175  0.2147  0.2279  0.5929
 7397SOL    HW222733   1.886   6.650   5.198  0.4072 -0.2979 -0.9690
 7398SOL     OW22734   2.692   4.778   5.024  0.1572 -0.5080 -0.1443
 7398SOL    HW122735   2.667   4.704   4.969 -0.0425 -1.2436  0.9217
 7398SOL    HW222736   2.669   4.855   4.972 -1.1797 -1.1861 -0.5953
 7399SOL     OW22737   5.084   3.361   0.753  0.5759 -0.1295  0.1594
 7399SOL    HW122738   5.056   3.331   0.839  2.3199 -0.8691  0.5201
 7399SOL    HW222739   5.175   3.389   0.766  0.5299  0.7493 -1.2229
 7400SOL     OW22740   3.836   7.020   6.463  0.2196  0.0115  0.2954
 7400SOL    HW122741   3.846   7.030   6.368  3.8289  0.9780  0.6214
 7400SOL    HW222742   3.797   7.102   6.492 -2.6207 -0.9897 -0.4446
 7401SOL     OW22743   6.305   5.243   4.965 -0.0410 -0.2487  0.4021
 7401SOL    HW122744   6.280   5.152   4.984 -1.8932 -0.0087 -0.5971
 7401SOL    HW222745   6.295   5.250   4.870  0.6848  0.8487  0.3970
 7402SOL     OW22746   4.578   5.309   5.614  0.2303 -0.2747  0.2158
 7402SOL    HW122747   4.551   5.225   5.576 -1.7127  0.3991 -0.0190
 7402SOL    HW222748   4.496   5.349   5.644  1.2369  1.0870  1.2892
 7403SOL     OW22749   2.427   3.274   2.791  0.1627  0.2536 -0.3918
 7403SOL    HW122750   2.465   3.360   2.811  2.0540 -0.6621  0.1083
 7403SOL    HW222751   2.372   3.254   2.867  0.2597  0.7039 -0.1973
 7404SOL     OW22752   7.339   3.453   0.440 -0.8840  0.4128 -0.1152
 7404SOL    HW122753   7.410   3.396   0.469 -0.8003  0.5216 -0.1033
 7404SOL    HW222754   7.271   3.394   0.409 -2.1093  0.1549  2.7844
 7405SOL     OW22755   7.601   5.124   5.518 -0.5603 -0.0625  0.2662
 7405SOL    HW122756   7.571   5.049   5.466 -1.4973  0.3709  0.1487
 7405SOL    HW222757   7.572   5.104   5.608 -1.3806  0.4212  0.1286
 7406SOL     OW22758   1.294   1.889   2.434  0.1171  0.3039  0.3333
 7406SOL    HW122759   1.296   1.967   2.488  0.7091  0.6515 -0.1759
 7406SOL    HW222760   1.342   1.913   2.354 -1.6520  0.1589 -0.8330
 7407SOL     OW22761   2.044   3.477   2.434  0.5615 -0.7389 -0.3854
 7407SOL    HW122762   2.073   3.395   2.394  1.8817 -0.5111  0.0525
 7407SOL    HW222763   2.103   3.543   2.399  1.6668 -0.5002  1.7753
 7408SOL     OW22764   6.231   6.635   1.732  0.2899  0.3778 -0.4597
 7408SOL    HW122765   6.193   6.564   1.784  0.0890  0.9840  0.2493
 7408SOL    HW222766   6.316   6.652   1.773  0.5288  0.2477 -0.9035
 7409SOL     OW22767   4.116   5.231   3.228 -0.0110  0.3187  0.1804
 7409SOL    HW122768   4.070   5.285   3.292 -0.5231  1.4088 -1.0779
 7409SOL    HW222769   4.059   5.230   3.151  0.4677 -1.1753 -0.2029
 7410SOL     OW22770   7.404   4.589   4.583  0.2289  0.4330  0.5672
 7410SOL    HW122771   7.400   4.535   4.662  1.5601  0.2000  0.5117
 7410SOL    HW222772   7.418   4.526   4.511  1.8200  0.7931  0.5045
 7411SOL     OW22773   4.407   1.111   3.195 -0.1336 -0.6337  0.2387
 7411SOL    HW122774   4.363   1.161   3.263 -0.3708 -0.6176  0.0731
 7411SOL    HW222775   4.495   1.150   3.189 -1.4689  2.4877 -2.6223
 7412SOL     OW22776   0.724   1.838   0.826 -0.4860 -0.1269  0.1562
 7412SOL    HW122777   0.755   1.761   0.778 -0.3336 -0.3224  0.5605
 7412SOL    HW222778   0.783   1.908   0.799 -1.4047  0.1650 -1.1859
 7413SOL     OW22779   2.159   4.559   4.860 -0.1806 -1.0508  0.2225
 7413SOL    HW122780   2.137   4.476   4.903 -1.7313 -0.9053 -0.2233
 7413SOL    HW222781   2.125   4.550   4.771  1.3827 -0.6533 -0.4440
 7414SOL     OW22782   1.967   4.681   2.365 -0.5543 -0.8527 -0.3383
 7414SOL    HW122783   2.029   4.636   2.308 -1.1474 -2.4982  0.2515
 7414SOL    HW222784   1.902   4.615   2.388 -0.5758 -0.1551  1.8993
 7415SOL     OW22785   1.741   0.509   6.934  0.7378  0.0740 -0.1930
 7415SOL    HW122786   1.720   0.468   7.018  0.7822  1.8240  0.7103
 7415SOL    HW222787   1.663   0.561   6.912  1.0415  0.2720 -0.8425
 7416SOL     OW22788   7.478   5.207   1.777 -0.3469 -0.5878 -0.6719
 7416SOL    HW122789   7.542   5.139   1.796  0.5710  0.5992  0.6973
 7416SOL    HW222790   7.454   5.242   1.862 -0.6808  0.8814 -1.3344
 7417SOL     OW22791   1.111   0.400   3.993 -0.2031 -0.6398 -1.0306
 7417SOL    HW122792   1.155   0.473   3.950 -0.3665 -0.7380 -1.3663
 7417SOL    HW222793   1.144   0.322   3.950  1.2844 -0.8986  0.4756
 7418SOL     OW22794   6.066   5.369   2.437  0.0801 -0.1804 -0.2799
 7418SOL    HW122795   6.094   5.286   2.399  1.0512 -0.2694  0.5898
 7418SOL    HW222796   6.139   5.396   2.493 -1.2093  0.0417  1.3612
 7419SOL     OW22797   4.765   5.925   0.159 -0.1988  0.5200  0.5642
 7419SOL    HW122798   4.760   5.854   0.223  0.1654 -0.2710 -0.2556
 7419SOL    HW222799   4.675   5.956   0.151 -0.4551 -0.1856  0.5875
 7420SOL     OW22800   0.117   6.034   4.072 -0.6068 -0.1280 -0.3290
 7420SOL    HW122801   0.180   6.089   4.119 -1.5852  0.5828  0.1675
 7420SOL    HW222802   0.045   6.021   4.134 -1.3293 -0.2549 -1.1743
 7421SOL     OW22803   0.174   1.271   7.096  0.4277  0.3432 -0.4165
 7421SOL    HW122804   0.189   1.239   7.007  0.9433 -1.2174  0.1835
 7421SOL    HW222805   0.260   1.302   7.125 -0.1890  3.0339 -1.2121
 7422SOL     OW22806   4.204   4.975   0.675 -0.8791 -0.0836 -0.4438
 7422SOL    HW122807   4.183   5.053   0.727 -2.4174 -0.5036 -0.3801
 7422SOL    HW222808   4.204   4.903   0.739  1.7901 -0.0413 -0.2647
 7423SOL     OW22809   2.650   4.707   3.616  0.0349  0.1948 -0.6076
 7423SOL    HW122810   2.653   4.729   3.710  0.8220  0.4684 -0.6868
 7423SOL    HW222811   2.697   4.779   3.574  0.3059 -0.2939 -1.1446
 7424SOL     OW22812   0.656   5.364   5.848  0.0899 -0.4356  0.4149
 7424SOL    HW122813   0.637   5.358   5.755  1.0424  1.5919  0.0276
 7424SOL    HW222814   0.742   5.323   5.858  1.2728  1.7638 -0.1487
 7425SOL     OW22815   0.453   4.239   2.542  0.1284  0.7563  0.4664
 7425SOL    HW122816   0.503   4.212   2.619  0.7922  2.5869  0.7288
 7425SOL    HW222817   0.451   4.334   2.547 -0.0212  0.9096 -1.6466
 7426SOL     OW22818   6.689   5.960   6.112 -0.9567  0.3055 -0.2839
 7426SOL    HW122819   6.732   5.883   6.074 -0.2251  0.4247  0.2947
 7426SOL    HW222820   6.758   6.025   6.121  0.1165 -1.0171  5.0532
 7427SOL     OW22821   6.758   1.024   1.817 -0.2333  0.0062  0.2492
 7427SOL    HW122822   6.792   1.070   1.740 -0.3126 -0.9116 -0.3478
 7427SOL    HW222823   6.832   0.974   1.849 -0.3894 -0.1610  0.3478
 7428SOL     OW22824   3.616   2.815   2.782 -0.4764 -0.3211 -0.1121
 7428SOL    HW122825   3.632   2.814   2.876  1.3479 -1.0823 -0.3853
 7428SOL    HW222826   3.574   2.732   2.763 -0.2742 -0.4409 -0.0420
 7429SOL     OW22827   5.066   5.148   4.156 -0.3267  0.2263  0.5387
 7429SOL    HW122828   5.066   5.192   4.071  2.1839 -0.7001 -0.0210
 7429SOL    HW222829   5.070   5.220   4.219  1.5653  0.9197 -0.2895
 7430SOL     OW22830   2.200   2.605   3.039  1.0262 -0.3135 -0.4692
 7430SOL    HW122831   2.205   2.510   3.028 -0.4669 -0.5797  0.7811
 7430SOL    HW222832   2.133   2.634   2.978  0.2962 -0.3173  0.3090
 7431SOL     OW22833   6.262   4.153   4.213  0.4597 -0.1363  0.1561
 7431SOL    HW122834   6.323   4.208   4.164  0.0560 -0.5943 -0.9063
 7431SOL    HW222835   6.176   4.187   4.189  0.1406 -1.8353 -1.3718
 7432SOL     OW22836   0.594   7.033   0.750 -0.3622  0.4245 -0.5582
 7432SOL    HW122837   0.574   6.990   0.666  0.7791 -1.1868 -0.0462
 7432SOL    HW222838   0.608   7.125   0.726  0.0499 -0.0130 -2.1610
 7433SOL     OW22839   5.205   5.737   1.729  0.2415  0.2890 -0.0868
 7433SOL    HW122840   5.121   5.746   1.775 -0.2685  0.1853 -0.9901
 7433SOL    HW222841   5.182   5.705   1.642  1.2934 -0.5465 -0.0767
 7434SOL     OW22842   2.685   7.431   6.327  0.2596 -0.4435  0.0294
 7434SOL    HW122843   2.691   7.344   6.367  0.2417 -0.3523  0.2328
 7434SOL    HW222844   2.727   7.421   6.242  1.4511 -0.3092  0.5957
 7435SOL     OW22845   2.697   3.950   4.573 -0.5432  0.2633  0.2303
 7435SOL    HW122846   2.648   3.925   4.652 -1.1052 -0.7920 -0.4288
 7435SOL    HW222847   2.788   3.929   4.595 -0.8472 -1.2461  0.1660
 7436SOL     OW22848   7.522   1.899   0.850 -0.0580 -0.3397 -0.0453
 7436SOL    HW122849   7.497   1.982   0.891  1.0363  0.1995 -0.4358
 7436SOL    HW222850   7.618   1.900   0.850 -0.0081 -0.6472 -1.9470
 7437SOL     OW22851   1.390   5.992   4.531  0.2324  0.3791  0.0435
 7437SOL    HW122852   1.461   5.929   4.541 -1.4044 -1.5607 -0.0974
 7437SOL    HW222853   1.386   6.010   4.437 -1.4168 -1.9823 -0.4201
 7438SOL     OW22854   6.060   6.450   1.897  0.1176  0.3055 -0.3803
 7438SOL    HW122855   6.007   6.497   1.961  0.9759 -0.5373  0.9993
 7438SOL    HW222856   6.070   6.362   1.933 -0.1611 -0.5031 -2.1450
 7439SOL     OW22857   1.315   2.345   6.381 -0.6791 -0.5158 -0.4606
 7439SOL    HW122858   1.237   2.309   6.422  0.1520 -1.4417  0.3828
 7439SOL    HW222859   1.364   2.385   6.453 -0.3138 -0.0476 -0.9534
 7440SOL     OW22860   3.808   5.927   5.464  0.3706  0.0284 -0.3108
 7440SOL    HW122861   3.812   5.834   5.484  1.0960 -0.0899 -0.9784
 7440SOL    HW222862   3.881   5.942   5.404 -0.5861  0.7567 -1.3144
 7441SOL     OW22863   4.736   3.866   0.123  0.5184  1.0615  0.1790
 7441SOL    HW122864   4.661   3.837   0.174  0.2585  1.3314 -0.0458
 7441SOL    HW222865   4.807   3.874   0.187  0.9184 -1.1340  0.0751
 7442SOL     OW22866   2.406   7.569   4.725  0.0628  0.2490 -0.3899
 7442SOL    HW122867   2.391   7.663   4.723 -2.9696 -0.1041  0.4537
 7442SOL    HW222868   2.326   7.531   4.688  0.0325 -2.0307  1.7240
 7443SOL     OW22869   0.248   1.780   6.556 -0.4832 -0.4581 -0.2531
 7443SOL    HW122870   0.194   1.853   6.584 -0.3150 -0.2502 -0.4688
 7443SOL    HW222871   0.220   1.763   6.466  0.1819  0.0010 -0.5518
 7444SOL     OW22872   4.498   0.705   7.619 -0.5334  0.2857  0.6526
 7444SOL    HW122873   4.569   0.644   7.638 -0.7463 -0.2297 -0.1498
 7444SOL    HW222874   4.521   0.784   7.667 -0.2122 -0.3906  1.6547
 7445SOL     OW22875   5.961   0.786   3.239  0.2245 -0.6403 -1.2787
 7445SOL    HW122876   6.033   0.738   3.281 -1.3305 -0.8239  1.4021
 7445SOL    HW222877   5.944   0.738   3.158  2.4965 -1.1211 -1.5307
 7446SOL     OW22878   4.788   6.552   4.640  0.7352 -0.2681  0.1107
 7446SOL    HW122879   4.867   6.605   4.633 -0.5370  1.5602 -1.6637
 7446SOL    HW222880   4.726   6.593   4.579 -1.1834 -2.3447  0.5165
 7447SOL     OW22881   1.849   3.932   4.810 -0.1349  0.0421 -0.4262
 7447SOL    HW122882   1.838   3.888   4.894 -0.2539 -0.4077 -0.6753
 7447SOL    HW222883   1.760   3.956   4.784 -0.3422 -1.6435 -1.3930
 7448SOL     OW22884   2.220   4.079   3.300 -0.0571  0.5078  0.8733
 7448SOL    HW122885   2.136   4.124   3.293 -0.3163 -0.1566 -0.8944
 7448SOL    HW222886   2.281   4.134   3.252  0.0688  0.0053  0.4514
 7449SOL     OW22887   4.681   2.074   2.822  0.5679  0.1795  0.2424
 7449SOL    HW122888   4.765   2.112   2.845  0.7854  0.3599 -0.7938
 7449SOL    HW222889   4.616   2.136   2.855  0.9078  1.1883 -0.9120
 7450SOL     OW22890   0.716   3.623   5.406 -0.0805 -1.6051  0.2434
 7450SOL    HW122891   0.663   3.612   5.485  1.2185 -0.4616  1.3086
 7450SOL    HW222892   0.734   3.533   5.376 -1.0230 -2.0365  0.9176
 7451SOL     OW22893   0.297   0.353   2.550 -0.5955  0.1373  0.7382
 7451SOL    HW122894   0.208   0.385   2.564 -0.7737  0.0526 -0.1629
 7451SOL    HW222895   0.344   0.428   2.515 -1.1654 -0.6563 -1.9699
 7452SOL     OW22896   4.349   5.210   5.269  0.0476 -0.8230 -0.2696
 7452SOL    HW122897   4.427   5.196   5.323  0.3280  0.7738 -0.2121
 7452SOL    HW222898   4.276   5.183   5.325  0.3670  0.4272  0.7971
 7453SOL     OW22899   2.397   0.560   1.364  0.4873  0.0042  0.0508
 7453SOL    HW122900   2.397   0.653   1.342  1.0329  0.4602  1.7986
 7453SOL    HW222901   2.319   0.525   1.322 -1.1454  1.8010  1.4057
 7454SOL     OW22902   5.063   2.568   4.818 -0.2037 -0.3778 -0.0302
 7454SOL    HW122903   5.027   2.498   4.763  1.9029 -0.9098 -0.8016
 7454SOL    HW222904   5.023   2.554   4.903 -1.6180 -1.0681 -0.7713
 7455SOL     OW22905   1.263   5.027   1.425  0.6302 -0.4057 -1.0307
 7455SOL    HW122906   1.354   5.002   1.415  0.6040 -1.4910  0.9557
 7455SOL    HW222907   1.265   5.106   1.480  0.3630 -0.3218 -1.1338
 7456SOL     OW22908   0.514   0.077   7.422 -0.1901  0.0514  0.3889
 7456SOL    HW122909   0.509   0.122   7.506 -1.2149  2.9411 -1.1029
 7456SOL    HW222910   0.452   0.123   7.366  1.5536 -0.7554 -2.4077
 7457SOL     OW22911   6.781   6.481   3.736  0.4430 -0.7696 -0.6875
 7457SOL    HW122912   6.835   6.497   3.813 -1.6789  0.6178  0.6274
 7457SOL    HW222913   6.692   6.499   3.765 -0.6465 -1.9015 -3.0324
 7458SOL     OW22914   4.975   3.372   5.011  0.8328  0.0801 -0.1114
 7458SOL    HW122915   4.983   3.467   5.002 -0.1380  0.1004 -0.9898
 7458SOL    HW222916   4.881   3.358   5.026  0.9200 -0.7680 -0.3373
 7459SOL     OW22917   0.690   3.523   7.502  0.1856 -0.2039  0.2044
 7459SOL    HW122918   0.701   3.618   7.506  3.4568 -0.5013  2.3267
 7459SOL    HW222919   0.744   3.496   7.428  0.8216 -0.5393  0.7871
 7460SOL     OW22920   1.518   7.036   2.149  0.1939 -0.4672  0.4261
 7460SOL    HW122921   1.517   6.951   2.194 -2.8437 -0.4195  0.6633
 7460SOL    HW222922   1.437   7.079   2.177  1.2942  2.2476 -0.2481
 7461SOL     OW22923   1.136   0.343   5.786  0.2710 -0.3227 -0.4218
 7461SOL    HW122924   1.173   0.255   5.795  0.5317 -0.1138  0.7716
 7461SOL    HW222925   1.124   0.372   5.877  1.1138  1.2476 -0.7836
 7462SOL     OW22926   7.356   3.888   6.109 -0.0000 -0.3952 -0.0559
 7462SOL    HW122927   7.441   3.920   6.079 -0.3620 -0.0529 -0.7579
 7462SOL    HW222928   7.342   3.932   6.193  0.4875 -0.4007  0.0261
 7463SOL     OW22929   0.312   1.284   3.648 -0.0994 -0.0338 -0.6486
 7463SOL    HW122930   0.248   1.227   3.691 -0.5700  0.2632 -0.9412
 7463SOL    HW222931   0.310   1.365   3.699  1.7297 -0.8101  0.7324
 7464SOL     OW22932   3.010   3.117   4.103 -0.2533  0.4494 -0.0609
 7464SOL    HW122933   2.971   3.078   4.024  0.0405  0.9611 -0.4703
 7464SOL    HW222934   2.970   3.069   4.176  0.1930 -0.6977 -0.5480
 7465SOL     OW22935   0.187   4.735   0.862  0.5578 -0.4042  0.1686
 7465SOL    HW122936   0.245   4.771   0.929  0.2181 -0.4380  0.4859
 7465SOL    HW222937   0.186   4.640   0.879  0.3899 -0.4005  0.1822
 7466SOL     OW22938   0.684   0.978   4.595 -0.2517 -0.0707  0.0072
 7466SOL    HW122939   0.598   1.005   4.565 -0.3203  2.1001  1.8749
 7466SOL    HW222940   0.707   1.042   4.663  2.3986 -1.1667  0.2709
 7467SOL     OW22941   5.297   5.952   1.006  0.2955 -0.2063  0.1384
 7467SOL    HW122942   5.247   5.915   0.934  1.1198 -0.2699 -0.4172
 7467SOL    HW222943   5.241   6.021   1.042  0.8274  1.5198 -2.1343
 7468SOL     OW22944   0.652   1.692   0.086 -0.1011 -0.2084 -0.2881
 7468SOL    HW122945   0.686   1.626   0.025 -0.2284 -1.0364  0.5129
 7468SOL    HW222946   0.631   1.767   0.031 -0.2700 -0.9559 -1.2665
 7469SOL     OW22947   5.110   4.438   5.695  0.0882 -0.3482 -0.2251
 7469SOL    HW122948   5.088   4.489   5.773 -0.1682  0.8814 -1.0634
 7469SOL    HW222949   5.034   4.450   5.637  0.9171  0.0176 -1.2609
 7470SOL     OW22950   3.182   4.946   2.049 -0.4525  0.4887 -0.1130
 7470SOL    HW122951   3.117   5.007   2.013 -1.4417 -0.3877  0.1326
 7470SOL    HW222952   3.130   4.883   2.098  0.7019  0.4665  1.1401
 7471SOL     OW22953   4.162   1.098   0.184  0.1100 -0.3149  0.2902
 7471SOL    HW122954   4.227   1.128   0.121 -0.3012 -0.6170 -0.2918
 7471SOL    HW222955   4.157   1.003   0.169 -0.8398 -0.2237 -0.0490
 7472SOL     OW22956   6.736   5.916   2.219 -0.3927  0.3833  0.3376
 7472SOL    HW122957   6.807   5.970   2.184 -1.6473  2.7062  1.1607
 7472SOL    HW222958   6.750   5.917   2.314 -0.1048 -1.3182  0.3505
 7473SOL     OW22959   1.390   1.628   1.306 -0.3318 -0.3081  0.0433
 7473SOL    HW122960   1.475   1.584   1.301  0.3117  0.6030  1.9170
 7473SOL    HW222961   1.369   1.649   1.215  1.3482 -0.7371 -0.4891
 7474SOL     OW22962   7.227   4.664   1.425 -0.0516 -0.8283  0.0845
 7474SOL    HW122963   7.186   4.583   1.394  0.7724 -1.1991 -0.0816
 7474SOL    HW222964   7.264   4.703   1.346 -1.6371  0.4463 -0.0693
 7475SOL     OW22965   1.031   4.623   3.400  0.0521  0.0469  0.3410
 7475SOL    HW122966   1.041   4.535   3.365  1.9567  0.5991 -0.6276
 7475SOL    HW222967   1.068   4.680   3.334 -0.8161  1.5720  1.1099
 7476SOL     OW22968   2.792   4.396   0.310  0.2545 -0.5093 -0.0650
 7476SOL    HW122969   2.753   4.318   0.270  1.0309 -0.5350 -0.8121
 7476SOL    HW222970   2.818   4.368   0.398 -0.1515 -0.8782 -0.0634
 7477SOL     OW22971   5.083   6.142   3.796 -0.6441 -0.2089  0.0427
 7477SOL    HW122972   5.130   6.131   3.878 -0.3202 -0.5337 -0.1829
 7477SOL    HW222973   5.095   6.059   3.750  0.4438  0.4719 -0.9836
 7478SOL     OW22974   5.866   6.844   4.479  0.8020  0.3005  0.0496
 7478SOL    HW122975   5.908   6.873   4.398  0.1146  1.3752  0.0586
 7478SOL    HW222976   5.910   6.894   4.548  0.9168 -0.1142  0.2861
 7479SOL     OW22977   0.885   2.676   0.427 -0.1244  0.3357  0.0714
 7479SOL    HW122978   0.918   2.588   0.447 -1.8162 -0.0930  1.2189
 7479SOL    HW222979   0.829   2.663   0.350 -0.0502  0.5001 -0.0116
 7480SOL     OW22980   6.809   0.305   4.145 -0.0379 -0.4723 -0.4611
 7480SOL    HW122981   6.786   0.301   4.052  3.0801 -0.3404 -1.3555
 7480SOL    HW222982   6.831   0.215   4.169 -0.0123 -0.3723 -0.0975
 7481SOL     OW22983   6.422   4.923   4.271 -0.8690 -0.1981  0.2074
 7481SOL    HW122984   6.446   4.934   4.179  1.3973 -2.4758  0.4275
 7481SOL    HW222985   6.329   4.902   4.269 -1.3351  1.7508 -1.3615
 7482SOL     OW22986   1.934   1.589   4.477  0.9120  0.0864  0.0079
 7482SOL    HW122987   1.844   1.621   4.481  1.1791  0.8757 -0.1393
 7482SOL    HW222988   1.976   1.625   4.555  1.1942  0.0199 -0.1105
 7483SOL     OW22989   5.216   4.729   1.916 -0.6331  0.0083  0.1284
 7483SOL    HW122990   5.312   4.732   1.910 -0.4857 -1.9218  0.5983
 7483SOL    HW222991   5.198   4.738   2.009 -0.8225 -0.5613  0.1531
 7484SOL     OW22992   2.936   0.156   3.473 -0.6259 -0.1633  0.0686
 7484SOL    HW122993   2.976   0.221   3.531  3.0670  0.4808 -2.7547
 7484SOL    HW222994   2.996   0.081   3.477 -1.8553 -1.2248 -0.7384
 7485SOL     OW22995   3.043   2.060   0.414  0.3836 -0.7245 -0.0698
 7485SOL    HW122996   3.135   2.036   0.426  0.6348  0.3334  0.2616
 7485SOL    HW222997   3.014   2.089   0.500 -0.5754 -1.9806  0.0684
 7486SOL     OW22998   2.220   5.514   6.584  0.4604  0.3692  0.6953
 7486SOL    HW122999   2.206   5.607   6.568 -2.8732  0.1115  1.2297
 7486SOL    HW223000   2.206   5.503   6.678  0.3483 -0.6970  0.5707
 7487SOL     OW23001   7.625   4.688   2.198  0.3650  0.0655  0.2243
 7487SOL    HW123002   7.609   4.643   2.281 -1.1013 -0.1761 -0.1488
 7487SOL    HW223003   7.713   4.724   2.206  0.5630 -0.6550  1.5547
 7488SOL     OW23004   3.259   7.474   2.431 -0.5573 -0.1662  0.1859
 7488SOL    HW123005   3.217   7.389   2.444 -0.4902 -0.1083  0.8650
 7488SOL    HW223006   3.352   7.456   2.441 -0.6521  0.3304  2.6336
 7489SOL     OW23007   1.768   3.934   2.238  0.0615  0.7250  0.3990
 7489SOL    HW123008   1.758   3.975   2.324  0.2310 -0.9091  1.2239
 7489SOL    HW223009   1.758   3.840   2.254  3.4542  0.0072 -0.7462
 7490SOL     OW23010   7.305   3.878   3.698  0.3064 -0.5810  0.0400
 7490SOL    HW123011   7.283   3.946   3.762 -0.1834  0.7051 -1.4528
 7490SOL    HW223012   7.224   3.863   3.649  1.5621  1.4017 -2.9406
 7491SOL     OW23013   2.387   2.489   4.705  0.2474  0.1036 -0.0847
 7491SOL    HW123014   2.302   2.455   4.676  0.5444  0.4307 -1.4014
 7491SOL    HW223015   2.427   2.524   4.625  0.7843  1.7550  0.8720
 7492SOL     OW23016   5.642   1.194   7.269 -0.4795  0.3508 -0.1169
 7492SOL    HW123017   5.716   1.162   7.218  0.5356  0.7939  1.0201
 7492SOL    HW223018   5.618   1.121   7.326 -0.5074  0.4125 -0.0481
 7493SOL     OW23019   0.796   4.572   6.874  0.1496  0.3065 -0.0471
 7493SOL    HW123020   0.810   4.493   6.822  0.2306 -1.0325  1.8943
 7493SOL    HW223021   0.702   4.574   6.891  0.0629  0.9674 -0.5562
 7494SOL     OW23022   7.193   0.980   7.427 -0.8016  0.1574 -0.7741
 7494SOL    HW123023   7.141   0.932   7.362 -0.2725 -2.0168  0.3015
 7494SOL    HW223024   7.281   0.984   7.389 -0.2394 -2.0352  0.1666
 7495SOL     OW23025   2.569   2.133   6.131 -0.1174 -0.1647  0.2992
 7495SOL    HW123026   2.659   2.109   6.152 -0.2757  0.8742  2.3946
 7495SOL    HW223027   2.569   2.147   6.036  1.7871 -0.6870  0.1904
 7496SOL     OW23028   0.556   0.881   1.157 -0.7374 -0.0391 -0.2509
 7496SOL    HW123029   0.636   0.843   1.120 -1.3865 -0.5810 -1.1437
 7496SOL    HW223030   0.547   0.841   1.243  0.2912  0.5178  0.1311
 7497SOL     OW23031   6.277   0.421   5.511 -0.1736  0.4583 -0.6402
 7497SOL    HW123032   6.227   0.467   5.579  0.8411  1.6958 -0.6890
 7497SOL    HW223033   6.224   0.344   5.491 -0.3270 -0.1661  1.8212
 7498SOL     OW23034   4.854   1.810   0.606 -0.4962  0.0992  0.7607
 7498SOL    HW123035   4.856   1.820   0.511 -2.5973 -0.4587  0.6114
 7498SOL    HW223036   4.792   1.738   0.621  1.9990 -1.8857  2.4406
 7499SOL     OW23037   7.613   5.791   3.400  0.0199 -0.1232 -0.3430
 7499SOL    HW123038   7.636   5.717   3.457  2.3480  0.4631 -0.4274
 7499SOL    HW223039   7.697   5.832   3.378 -1.0171  1.1663 -2.2005
 7500SOL     OW23040   5.416   5.930   5.661 -0.2695  0.3165 -0.2504
 7500SOL    HW123041   5.472   6.001   5.631 -0.5806  1.4438  1.6392
 7500SOL    HW223042   5.442   5.854   5.609 -0.1712  1.8577 -2.6114
 7501SOL     OW23043   4.630   3.950   3.380 -0.1904 -0.4329  0.1823
 7501SOL    HW123044   4.613   3.920   3.291 -1.3261 -0.2716  0.3307
 7501SOL    HW223045   4.656   4.042   3.370  0.5569 -0.6619 -0.0448
 7502SOL     OW23046   2.233   7.138   0.175  0.3391  0.1840  0.1274
 7502SOL    HW123047   2.312   7.190   0.192  0.9137 -0.5587 -0.2168
 7502SOL    HW223048   2.251   7.055   0.218 -1.2877  0.8176  2.1862
 7503SOL     OW23049   3.888   1.393   3.676 -0.3414 -0.2343  0.4778
 7503SOL    HW123050   3.973   1.384   3.633  0.0265  0.9655  0.9025
 7503SOL    HW223051   3.900   1.466   3.737 -2.0627  0.8710 -0.4314
 7504SOL     OW23052   7.558   3.400   0.954  0.5337 -0.6993  0.6921
 7504SOL    HW123053   7.588   3.433   1.039  0.8460 -0.0624  0.3418
 7504SOL    HW223054   7.471   3.439   0.943  0.6475 -0.4798  0.5565
 7505SOL     OW23055   7.365   7.007   7.019 -0.8606  0.2610 -0.2916
 7505SOL    HW123056   7.430   6.979   7.083 -1.8529 -2.6758 -0.4048
 7505SOL    HW223057   7.379   7.101   7.009  0.6667  0.4397  2.6620
 7506SOL     OW23058   3.646   4.217   2.234 -0.0004 -0.4517 -0.2188
 7506SOL    HW123059   3.639   4.187   2.324  2.7670  0.2843  0.3448
 7506SOL    HW223060   3.592   4.295   2.229 -1.1267 -1.1593  0.4180
 7507SOL     OW23061   3.835   6.589   5.422 -0.5300  0.2604  0.4931
 7507SOL    HW123062   3.787   6.536   5.359  0.3782 -0.6831  0.5765
 7507SOL    HW223063   3.789   6.673   5.422  0.1344  0.7456 -2.3340
 7508SOL     OW23064   1.111   6.032   6.701  0.1477  0.2398  0.2513
 7508SOL    HW123065   1.066   5.973   6.642 -1.3523  0.6154  0.9813
 7508SOL    HW223066   1.201   5.998   6.705 -0.0870 -0.6067 -1.1116
 7509SOL     OW23067   3.410   0.121   5.650 -0.0103  0.0425  0.5781
 7509SOL    HW123068   3.470   0.188   5.685 -0.9532  1.7395 -0.8924
 7509SOL    HW223069   3.423   0.125   5.555 -0.9824 -1.0124  0.3851
 7510SOL     OW23070   0.109   2.001   5.159 -0.0571  0.2120 -0.7986
 7510SOL    HW123071   0.157   1.961   5.231  0.7210  0.1365 -1.3361
 7510SOL    HW223072   0.048   2.062   5.200 -1.3188 -1.5388  0.0547
 7511SOL     OW23073   6.986   1.870   0.176 -0.0468 -0.5252 -0.4144
 7511SOL    HW123074   6.918   1.842   0.238 -0.3134  0.7315 -0.1047
 7511SOL    HW223075   6.997   1.963   0.194 -2.3569  0.7305 -4.2590
 7512SOL     OW23076   2.333   6.253   3.374  0.5064  0.5405 -0.2268
 7512SOL    HW123077   2.306   6.270   3.464  1.2836 -0.5891  0.2425
 7512SOL    HW223078   2.289   6.320   3.322 -0.8579  0.4994  0.8467
 7513SOL     OW23079   7.610   0.268   4.365 -0.1291 -0.4354 -0.7138
 7513SOL    HW123080   7.558   0.291   4.442 -1.1883  0.0210 -1.5472
 7513SOL    HW223081   7.685   0.328   4.370 -1.0576  0.7952 -0.9298
 7514SOL     OW23082   3.105   2.176   7.589  0.0092 -0.2190  0.4980
 7514SOL    HW123083   3.025   2.151   7.634  0.2351  1.1140  1.7153
 7514SOL    HW223084   3.106   2.272   7.594  0.9574 -0.1362 -0.7762
 7515SOL     OW23085   2.749   3.788   4.171  0.3275 -0.1337  0.0911
 7515SOL    HW123086   2.822   3.767   4.229 -0.4412 -1.0381  0.7492
 7515SOL    HW223087   2.673   3.794   4.228 -0.1753  0.5108 -0.6276
 7516SOL     OW23088   6.882   2.011   5.540 -0.0331  0.2356  0.1476
 7516SOL    HW123089   6.874   1.980   5.630  0.6712 -2.1130 -0.5449
 7516SOL    HW223090   6.803   1.978   5.497  0.3382  0.0832 -0.4267
 7517SOL     OW23091   6.650   6.640   0.910 -0.3536  0.1496 -0.1442
 7517SOL    HW123092   6.690   6.568   0.863 -2.2817 -1.4994  0.5751
 7517SOL    HW223093   6.721   6.702   0.925  1.0735 -0.9482 -1.9758
 7518SOL     OW23094   6.339   2.791   7.073 -0.1449  1.2678  0.9271
 7518SOL    HW123095   6.311   2.750   7.154  1.2680 -0.8841  0.3964
 7518SOL    HW223096   6.258   2.801   7.022 -0.5801 -1.0595  1.0377
 7519SOL     OW23097   2.470   7.112   2.632 -0.2570 -0.5538 -0.7025
 7519SOL    HW123098   2.377   7.131   2.649  0.0258  0.1905  0.0709
 7519SOL    HW223099   2.508   7.103   2.719  1.0846  2.5086 -0.8539
 7520SOL     OW23100   5.850   2.439   5.379  0.0373  0.2112  0.3474
 7520SOL    HW123101   5.817   2.486   5.455 -0.4739 -0.8930  0.8099
 7520SOL    HW223102   5.850   2.505   5.309  0.3646  1.1922  1.2379
 7521SOL     OW23103   6.224   7.060   5.797  0.2265 -0.6879  0.1549
 7521SOL    HW123104   6.306   7.104   5.777  0.1882 -0.1662  1.0951
 7521SOL    HW223105   6.169   7.128   5.835  0.0837 -1.4842  1.4234
 7522SOL     OW23106   1.704   2.933   0.621  0.2345  0.5234  0.0537
 7522SOL    HW123107   1.615   2.899   0.614  0.3339  0.0956  0.7948
 7522SOL    HW223108   1.700   2.999   0.690  0.3951  0.8517 -0.2459
 7523SOL     OW23109   4.746   0.868   6.331 -0.5068 -0.0786 -0.3172
 7523SOL    HW123110   4.658   0.857   6.368 -0.3080 -2.2974 -0.4229
 7523SOL    HW223111   4.765   0.786   6.287  1.5008  0.4864 -0.6088
 7524SOL     OW23112   0.101   1.404   2.086 -0.1791 -0.1315  0.3074
 7524SOL    HW123113   0.044   1.327   2.092  0.7494 -0.9177 -0.5268
 7524SOL    HW223114   0.169   1.388   2.151 -0.8113  0.7451  1.2132
 7525SOL     OW23115   7.595   4.111   2.533  0.3171  0.2017  0.1183
 7525SOL    HW123116   7.684   4.077   2.524  0.3519  0.3212 -0.0038
 7525SOL    HW223117   7.546   4.066   2.464  0.3610  0.3940 -0.0375
 7526SOL     OW23118   6.549   5.232   5.132  0.7815 -0.3839  0.2697
 7526SOL    HW123119   6.549   5.212   5.038  2.3532  0.6688 -0.0024
 7526SOL    HW223120   6.506   5.317   5.137  1.0168 -0.2761  0.4525
 7527SOL     OW23121   0.764   6.161   4.845  0.3067 -0.2822 -0.0153
 7527SOL    HW123122   0.729   6.090   4.792 -1.0111 -0.6924  1.3506
 7527SOL    HW223123   0.851   6.132   4.870  0.3301 -0.7733 -0.6515
 7528SOL     OW23124   0.299   0.258   1.833 -0.3548 -0.5298 -0.7195
 7528SOL    HW123125   0.215   0.293   1.804 -0.1936 -0.2488 -0.8507
 7528SOL    HW223126   0.363   0.296   1.773 -0.0512 -0.1450 -0.1599
 7529SOL     OW23127   1.679   7.222   2.270  0.1215  0.2511 -0.1849
 7529SOL    HW123128   1.638   7.305   2.248  0.7742  0.2943 -1.3036
 7529SOL    HW223129   1.621   7.156   2.234  0.4398  0.2799 -0.7628
 7530SOL     OW23130   7.533   4.591   2.442 -0.0488 -0.5185  0.4075
 7530SOL    HW123131   7.582   4.519   2.481  0.7516  0.0168  0.4209
 7530SOL    HW223132   7.441   4.564   2.448  0.2791 -1.9514 -0.4295
 7531SOL     OW23133   4.614   7.439   2.523  0.1392  0.0974  0.3799
 7531SOL    HW123134   4.612   7.433   2.619  1.0151  0.7739  0.4487
 7531SOL    HW223135   4.705   7.459   2.502  0.7213 -3.0948 -0.7917
 7532SOL     OW23136   6.047   0.493   3.258 -0.4723 -0.2739  0.1663
 7532SOL    HW123137   6.135   0.505   3.295 -0.0871 -0.4670 -0.6693
 7532SOL    HW223138   5.993   0.468   3.333  0.1953 -0.2118  0.6794
 7533SOL     OW23139   7.507   4.038   0.156  0.3214 -0.3434 -0.5565
 7533SOL    HW123140   7.571   4.109   0.162  0.3806 -0.4369 -0.0403
 7533SOL    HW223141   7.501   4.019   0.063  0.3985  0.2571 -0.6885
 7534SOL     OW23142   5.600   5.751   0.093 -0.5844 -0.1735 -0.2322
 7534SOL    HW123143   5.545   5.735   0.170 -1.0386  1.3119 -0.2111
 7534SOL    HW223144   5.556   5.703   0.023 -0.6570 -0.8249  0.2436
 7535SOL     OW23145   0.815   0.995   3.652 -0.2431  0.2868  0.0041
 7535SOL    HW123146   0.759   1.039   3.715 -2.0366 -0.0566 -1.2596
 7535SOL    HW223147   0.814   0.903   3.678  0.2342  0.3641  0.3144
 7536SOL     OW23148   0.142   0.415   4.841  0.8346 -0.0950  0.0130
 7536SOL    HW123149   0.103   0.331   4.821 -0.4957  0.6619 -0.6929
 7536SOL    HW223150   0.138   0.422   4.936 -1.0443  0.0714 -0.0453
 7537SOL     OW23151   5.781   1.730   1.875  0.8636 -0.0630  0.3023
 7537SOL    HW123152   5.865   1.748   1.833  1.1853  1.4117  1.4939
 7537SOL    HW223153   5.727   1.805   1.853 -0.1867 -1.0086 -0.4715
 7538SOL     OW23154   0.454   4.904   0.685  0.1037  0.3795  0.1926
 7538SOL    HW123155   0.435   4.862   0.769 -0.9637  0.7629  0.1548
 7538SOL    HW223156   0.540   4.870   0.661  0.9223  1.0954  1.9609
 7539SOL     OW23157   5.908   3.224   4.371  0.1298 -0.0255  0.3645
 7539SOL    HW123158   5.880   3.134   4.356  2.2562 -0.4485 -1.5485
 7539SOL    HW223159   5.831   3.277   4.348 -1.0270 -1.2896  1.1837
 7540SOL     OW23160   4.097   3.408   2.343  0.1866  0.2437  0.3942
 7540SOL    HW123161   4.152   3.450   2.409  0.0210  0.1383  0.5992
 7540SOL    HW223162   4.018   3.461   2.339  0.2453  0.3195  0.1921
 7541SOL     OW23163   2.988   4.275   1.083  0.3169  0.1445  0.7200
 7541SOL    HW123164   2.906   4.278   1.133  0.5418  1.2057  1.0442
 7541SOL    HW223165   2.990   4.358   1.036  0.6887 -0.3413 -0.1457
 7542SOL     OW23166   5.725   4.913   3.977 -0.0936 -0.3136 -0.4520
 7542SOL    HW123167   5.723   4.875   3.889  2.9573  0.2114 -0.8400
 7542SOL    HW223168   5.695   4.842   4.034 -1.0171 -1.0333 -1.7677
 7543SOL     OW23169   2.527   5.946   6.138  0.1273  0.3159 -0.1722
 7543SOL    HW123170   2.541   6.009   6.208  0.6239  0.6291 -0.5479
 7543SOL    HW223171   2.511   6.000   6.060  0.5066 -0.0185 -0.4841
 7544SOL     OW23172   1.214   3.857   5.938 -0.3132  0.5016  0.4423
 7544SOL    HW123173   1.258   3.939   5.957 -1.5358  1.5471 -1.0126
 7544SOL    HW223174   1.247   3.831   5.852 -1.0031  0.2282  0.2523
 7545SOL     OW23175   0.649   0.896   2.117  0.4084 -0.7836  0.0160
 7545SOL    HW123176   0.693   0.901   2.033  2.1149  1.0334  0.9226
 7545SOL    HW223177   0.720   0.880   2.180 -0.2875  1.2088  1.4216
 7546SOL     OW23178   3.397   5.509   4.808 -0.0412 -0.2850 -0.1173
 7546SOL    HW123179   3.379   5.465   4.890  2.4085 -0.4500  0.4309
 7546SOL    HW223180   3.458   5.451   4.762  2.0779  1.7226 -0.0447
 7547SOL     OW23181   4.064   6.796   5.419 -0.6431  0.5840 -0.0181
 7547SOL    HW123182   4.091   6.817   5.508 -0.0008  1.7328 -0.4594
 7547SOL    HW223183   3.991   6.736   5.429  1.0662 -1.4072  1.2492
 7548SOL     OW23184   3.430   0.040   3.624 -0.0187  0.0542  0.2470
 7548SOL    HW123185   3.406  -0.043   3.666 -0.3688 -0.0786 -0.2084
 7548SOL    HW223186   3.456   0.097   3.696  0.5543 -0.5583  0.5383
 7549SOL     OW23187   7.101   2.120   7.138  0.3534  0.3240 -0.1334
 7549SOL    HW123188   7.186   2.163   7.147  1.6352 -1.7945 -1.3388
 7549SOL    HW223189   7.098   2.091   7.047 -1.6144  0.1999 -0.0729
 7550SOL     OW23190   0.555   5.664   5.317 -0.5675  0.2209 -0.2332
 7550SOL    HW123191   0.512   5.614   5.387  1.3617 -0.5692  0.4442
 7550SOL    HW223192   0.630   5.706   5.358  0.5721 -0.1833 -1.7818
 7551SOL     OW23193   7.604   7.119   0.850 -0.8186 -0.3718 -0.7901
 7551SOL    HW123194   7.589   7.092   0.760 -1.0281 -1.1361 -0.5330
 7551SOL    HW223195   7.671   7.187   0.844 -0.1999 -1.0286 -1.4548
 7552SOL     OW23196   5.467   1.368   2.717 -0.5361 -0.5282  0.7296
 7552SOL    HW123197   5.402   1.435   2.697 -0.7631 -0.9797 -0.0959
 7552SOL    HW223198   5.486   1.327   2.633  0.9083 -0.3318  0.9430
 7553SOL     OW23199   5.169   0.385   1.223 -0.0999  0.4390  0.4408
 7553SOL    HW123200   5.234   0.383   1.294  0.3436  0.9437  0.0582
 7553SOL    HW223201   5.094   0.339   1.259  0.0070  0.9427  1.3629
 7554SOL     OW23202   4.107   4.681   1.207  0.0111  0.0508 -0.4150
 7554SOL    HW123203   4.094   4.653   1.298 -1.5515  2.6008  0.2454
 7554SOL    HW223204   4.186   4.734   1.209 -1.0542  1.7207 -0.0461
 7555SOL     OW23205   2.620   3.791   0.340  0.0640  0.4090  0.4065
 7555SOL    HW123206   2.637   3.718   0.400 -0.1806 -0.1677 -0.2088
 7555SOL    HW223207   2.701   3.801   0.291  0.1579  0.6756  0.6129
 7556SOL     OW23208   0.595   5.478   1.844  0.3419 -0.0168  0.5898
 7556SOL    HW123209   0.686   5.499   1.822 -0.1946  2.0246  0.1582
 7556SOL    HW223210   0.566   5.549   1.901 -1.3827  0.1372 -0.3939
 7557SOL     OW23211   2.278   2.571   0.835 -0.5747  0.3333 -0.8267
 7557SOL    HW123212   2.291   2.549   0.743 -0.2507 -0.7056 -0.5512
 7557SOL    HW223213   2.223   2.500   0.869  0.1704  0.1365  0.0092
 7558SOL     OW23214   2.926   3.941   0.068  0.1520  0.2393  0.3038
 7558SOL    HW123215   3.000   3.933   0.007 -1.4430 -1.0486 -1.5663
 7558SOL    HW223216   2.941   3.874   0.134 -0.0605 -1.0047 -0.8871
 7559SOL     OW23217   2.031   0.725   3.875  0.2885  0.1330 -0.8594
 7559SOL    HW123218   2.097   0.790   3.851 -0.2906  0.4589 -1.6535
 7559SOL    HW223219   1.948   0.770   3.861 -0.1190  0.3238  1.8286
 7560SOL     OW23220   0.437   2.860   6.290 -0.0843 -0.2912  0.5821
 7560SOL    HW123221   0.395   2.908   6.219  0.9073 -0.7163 -0.3140
 7560SOL    HW223222   0.365   2.837   6.349 -0.9860 -0.3088 -0.4936
 7561SOL     OW23223   6.256   5.924   6.826  0.4521  0.3202  0.0870
 7561SOL    HW123224   6.273   5.933   6.920  3.0472  0.3842 -0.3389
 7561SOL    HW223225   6.340   5.903   6.788 -0.7164 -0.5771 -2.1627
 7562SOL     OW23226   2.460   2.118   3.289 -0.6233  0.8991 -0.0191
 7562SOL    HW123227   2.544   2.148   3.253 -0.2798 -0.5547 -0.4924
 7562SOL    HW223228   2.443   2.035   3.245 -1.5550  0.4143  1.1939
 7563SOL     OW23229   3.661   1.980   0.425  0.3967 -0.1282  0.1131
 7563SOL    HW123230   3.664   1.892   0.388 -2.5816  0.6084 -2.3879
 7563SOL    HW223231   3.703   2.036   0.359  1.5145  0.4382  1.2761
 7564SOL     OW23232   0.497   6.608   2.938 -0.3842 -0.0046 -0.0015
 7564SOL    HW123233   0.419   6.664   2.943  0.4451  1.1881 -0.0511
 7564SOL    HW223234   0.568   6.668   2.915  0.3960 -1.2199 -0.8351
 7565SOL     OW23235   0.580   1.200   2.944 -0.0918 -0.5379  0.0846
 7565SOL    HW123236   0.610   1.235   3.028  1.0068 -0.4314 -0.3292
 7565SOL    HW223237   0.593   1.272   2.882 -1.1741 -0.5176 -0.1305
 7566SOL     OW23238   6.696   3.961   4.887  0.4677  0.6368  0.4816
 7566SOL    HW123239   6.645   3.970   4.968  1.3709 -1.5343  1.3849
 7566SOL    HW223240   6.715   3.867   4.882  1.2175  0.8555 -1.7987
 7567SOL     OW23241   5.572   2.677   3.327 -0.1166  0.3810 -0.2633
 7567SOL    HW123242   5.605   2.589   3.341  0.6106  0.5980 -0.5819
 7567SOL    HW223243   5.559   2.683   3.232  1.8616  1.3061 -0.5219
 7568SOL     OW23244   4.613   6.736   2.076  0.1012  0.3007  0.1786
 7568SOL    HW123245   4.621   6.687   2.158  1.5642  0.1392 -0.0285
 7568SOL    HW223246   4.636   6.826   2.099  0.1736  0.3236  0.0212
 7569SOL     OW23247   3.203   2.427   3.690 -0.2345  0.0368  0.3633
 7569SOL    HW123248   3.272   2.360   3.683  1.8679  1.8417  2.0661
 7569SOL    HW223249   3.165   2.412   3.777 -2.0032 -0.8799 -0.5271
 7570SOL     OW23250   2.026   4.895   7.428  0.2217 -0.5357 -0.4059
 7570SOL    HW123251   2.075   4.964   7.384 -0.0833 -1.4351 -2.2557
 7570SOL    HW223252   2.059   4.896   7.518 -0.6400  2.7942  0.0065
 7571SOL     OW23253   2.359   4.022   1.601  0.2709 -0.6766 -0.0777
 7571SOL    HW123254   2.422   4.051   1.667  0.6596 -0.5848 -0.4888
 7571SOL    HW223255   2.318   3.944   1.639 -2.7178  1.7527  2.2639
 7572SOL     OW23256   0.136   5.571   0.072  0.3162  0.0282 -0.0288
 7572SOL    HW123257   0.209   5.545   0.129  0.4319  1.2229  0.3821
 7572SOL    HW223258   0.139   5.666   0.069 -0.8938  0.0784 -0.4522
 7573SOL     OW23259   0.207   5.787   6.707 -0.1207 -0.3935 -0.2325
 7573SOL    HW123260   0.115   5.807   6.726 -0.4014 -1.0207 -0.8667
 7573SOL    HW223261   0.229   5.845   6.633 -0.9638 -2.3497 -2.1364
 7574SOL     OW23262   0.889   2.963   2.461  0.4645 -0.4988 -0.1759
 7574SOL    HW123263   0.962   3.024   2.456  1.4139 -1.5086  0.6235
 7574SOL    HW223264   0.922   2.882   2.422  0.5043 -1.5883  1.9337
 7575SOL     OW23265   2.891   4.715   4.242 -0.2360  0.1259 -0.4054
 7575SOL    HW123266   2.966   4.662   4.269 -0.3801  1.1225  2.1636
 7575SOL    HW223267   2.926   4.774   4.175  1.7532  1.6451  1.8320
 7576SOL     OW23268   2.594   3.819   5.809 -0.0934 -1.0027  0.3402
 7576SOL    HW123269   2.547   3.872   5.746  0.7758 -2.7346 -1.9106
 7576SOL    HW223270   2.526   3.782   5.865 -1.1267 -1.0737 -0.9203
 7577SOL     OW23271   0.979   6.083   1.566  0.1412  0.5237  0.0709
 7577SOL    HW123272   1.065   6.081   1.609  0.0403 -0.2432  0.2491
 7577SOL    HW223273   0.980   6.006   1.509 -0.7747 -0.0107  0.7513
 7578SOL     OW23274   4.010   4.928   0.408 -0.0476 -0.3727 -0.1272
 7578SOL    HW123275   3.973   4.840   0.396  1.2847 -1.3404  2.0056
 7578SOL    HW223276   4.104   4.912   0.422  0.4393  1.5389 -0.8825
 7579SOL     OW23277   0.421   2.713   3.894 -0.0766 -0.3530 -0.4031
 7579SOL    HW123278   0.400   2.796   3.936  0.5682  0.1949 -1.1331
 7579SOL    HW223279   0.340   2.663   3.898 -0.2558  0.0092  0.7263
 7580SOL     OW23280   6.892   2.288   1.986 -0.3577  0.1440 -0.3161
 7580SOL    HW123281   6.928   2.242   1.910 -1.1197 -0.9111 -0.0591
 7580SOL    HW223282   6.907   2.380   1.967  1.2269 -0.1814 -0.8438
 7581SOL     OW23283   5.959   6.317   4.715 -0.6711  0.1132  0.5959
 7581SOL    HW123284   5.945   6.257   4.641 -0.7059 -0.4748  1.0671
 7581SOL    HW223285   5.891   6.292   4.778 -0.3104  0.2530  1.0421
 7582SOL     OW23286   7.567   5.254   4.647  0.1273  0.7239 -0.4946
 7582SOL    HW123287   7.613   5.170   4.643  0.4554  0.8052  1.0039
 7582SOL    HW223288   7.637   5.319   4.643 -0.1369  0.9549 -1.8019
 7583SOL     OW23289   6.500   2.777   4.848  0.4972 -0.1825  0.0927
 7583SOL    HW123290   6.430   2.840   4.870 -1.3308 -1.0842 -2.5518
 7583SOL    HW223291   6.460   2.691   4.863  2.0291 -0.7616  1.0696
 7584SOL     OW23292   3.031   6.787   2.026  0.3518  0.3998  0.2430
 7584SOL    HW123293   3.116   6.822   2.000  0.6044  1.3396  2.2270
 7584SOL    HW223294   2.968   6.836   1.973  0.8811  1.7670  0.8506
 7585SOL     OW23295   5.922   0.944   3.477  0.0612 -0.3950  0.1378
 7585SOL    HW123296   5.965   0.882   3.418  0.0743 -1.5947  1.3445
 7585SOL    HW223297   5.836   0.905   3.493 -0.7440  0.9657 -0.6715
 7586SOL     OW23298   5.129   4.715   7.510  0.1028 -0.2409  0.1725
 7586SOL    HW123299   5.080   4.728   7.591 -1.3125  1.3897 -0.8704
 7586SOL    HW223300   5.070   4.665   7.454  0.0867  0.7039 -0.6789
 7587SOL     OW23301   1.337   5.871   6.054 -0.2404  0.6591 -0.2511
 7587SOL    HW123302   1.295   5.947   6.016  0.3425  0.9491 -0.3245
 7587SOL    HW223303   1.311   5.798   5.998 -0.3924  0.8824 -0.4723
 7588SOL     OW23304   3.900   3.432   0.659 -0.0076  0.4041 -0.0527
 7588SOL    HW123305   3.849   3.501   0.702 -0.5763 -0.2367  0.3303
 7588SOL    HW223306   3.855   3.415   0.577 -1.5075 -1.3821  1.0560
 7589SOL     OW23307   4.795   4.832   2.450  0.0016 -0.4376 -0.3091
 7589SOL    HW123308   4.864   4.880   2.405  0.8275 -1.4027 -0.1298
 7589SOL    HW223309   4.735   4.804   2.381 -0.6080  1.0037 -0.3840
 7590SOL     OW23310   3.934   5.636   7.618 -0.0140  0.8140  0.3022
 7590SOL    HW123311   4.003   5.702   7.625  1.2804 -0.3608 -0.7173
 7590SOL    HW223312   3.862   5.681   7.574  0.9176  1.5219 -0.5414
 7591SOL     OW23313   6.329   4.444   5.136  0.1088 -0.6861  0.2286
 7591SOL    HW123314   6.263   4.414   5.199 -0.9682 -1.1705 -1.0944
 7591SOL    HW223315   6.379   4.365   5.114  0.2775 -0.5817  0.2359
 7592SOL     OW23316   7.495   3.296   0.712  0.0643  0.3079 -0.0154
 7592SOL    HW123317   7.511   3.320   0.803 -0.1299  1.4035 -0.2561
 7592SOL    HW223318   7.424   3.231   0.716  0.6729 -0.3270  0.6623
 7593SOL     OW23319   7.177   5.687   0.561  0.1916  0.6391  0.1722
 7593SOL    HW123320   7.219   5.602   0.572 -1.2685 -0.3143 -1.1469
 7593SOL    HW223321   7.094   5.667   0.517  0.0773  2.8093 -0.7099
 7594SOL     OW23322   3.815   3.068   1.498  0.5610 -0.0963 -0.2637
 7594SOL    HW123323   3.871   3.068   1.420  2.0838 -2.1461  0.7433
 7594SOL    HW223324   3.833   2.985   1.541 -0.6837  0.7018  1.9804
 7595SOL     OW23325   2.811   2.808   5.452 -0.2261  0.6200  0.0270
 7595SOL    HW123326   2.750   2.794   5.524  0.9174  0.7932  1.0517
 7595SOL    HW223327   2.771   2.763   5.378 -0.9752 -0.3604  0.9932
 7596SOL     OW23328   2.675   2.853   0.446  0.0553  0.7496  0.3498
 7596SOL    HW123329   2.663   2.908   0.524  1.3071  0.8155  0.5187
 7596SOL    HW223330   2.761   2.878   0.413 -0.3535  0.5310 -0.9152
 7597SOL     OW23331   6.206   6.296   5.431 -0.3351  0.3292 -0.1756
 7597SOL    HW123332   6.201   6.219   5.374 -1.8441 -1.6987  2.4384
 7597SOL    HW223333   6.298   6.301   5.456 -0.3655 -1.3388  0.4049
 7598SOL     OW23334   6.359   1.347   5.650  0.2480  0.1354 -0.0662
 7598SOL    HW123335   6.419   1.390   5.710  0.3285 -0.8188  0.5492
 7598SOL    HW223336   6.324   1.418   5.596 -0.9384  1.2327  2.0434
 7599SOL     OW23337   5.324   6.521   1.609  0.4225  0.1869 -0.3093
 7599SOL    HW123338   5.362   6.456   1.550 -1.6154 -0.7078 -0.7100
 7599SOL    HW223339   5.267   6.471   1.667  0.6257  1.3478  0.9465
 7600SOL     OW23340   6.506   6.942   6.679  0.1047 -0.0287 -0.8981
 7600SOL    HW123341   6.476   6.919   6.591  1.2204 -0.1293 -1.2748
 7600SOL    HW223342   6.601   6.928   6.676  0.0298 -1.1111  0.6539
 7601SOL     OW23343   6.594   0.033   7.323  0.6522  0.0926 -0.2340
 7601SOL    HW123344   6.550  -0.042   7.283 -1.2516  1.0563 -0.0431
 7601SOL    HW223345   6.552   0.043   7.408 -1.1815  3.0140 -1.3392
 7602SOL     OW23346   7.175   2.686   0.374  0.5134  0.1930 -0.4271
 7602SOL    HW123347   7.253   2.648   0.414  0.2548 -0.2618 -0.3554
 7602SOL    HW223348   7.138   2.741   0.443  1.1478  0.9650 -0.6859
 7603SOL     OW23349   0.958   6.414   2.679  0.1036  0.1316  0.2272
 7603SOL    HW123350   1.000   6.477   2.738  0.8708 -1.0136  0.9568
 7603SOL    HW223351   1.015   6.412   2.602  0.3091  0.0298  0.3799
 7604SOL     OW23352   2.899   1.376   1.158  0.0104  0.5787  0.3708
 7604SOL    HW123353   2.844   1.390   1.081  1.6376 -2.1041 -1.4459
 7604SOL    HW223354   2.841   1.391   1.233 -1.5842  3.5334 -1.2755
 7605SOL     OW23355   5.497   6.504   1.300 -0.0594  0.0015 -0.0083
 7605SOL    HW123356   5.557   6.509   1.226  1.0165  0.9765  0.9168
 7605SOL    HW223357   5.549   6.527   1.376 -1.1020 -1.1550  1.1138
 7606SOL     OW23358   5.527   2.269   5.477 -0.3709 -0.5898 -0.2183
 7606SOL    HW123359   5.540   2.200   5.541 -0.7365  0.4303  1.0017
 7606SOL    HW223360   5.480   2.227   5.405 -0.9963 -1.5107  0.6966
 7607SOL     OW23361   1.407   5.131   5.478  0.4230  0.4000  0.8891
 7607SOL    HW123362   1.363   5.046   5.486  2.0633 -0.4784  0.9805
 7607SOL    HW223363   1.338   5.195   5.494 -0.3796 -0.9476  3.2468
 7608SOL     OW23364   5.687   0.586   6.858 -0.4622 -0.6345  0.0778
 7608SOL    HW123365   5.608   0.637   6.839 -1.1741 -1.5852  0.4730
 7608SOL    HW223366   5.742   0.599   6.780 -0.3433  1.2252  0.4108
 7609SOL     OW23367   4.266   7.201   3.636 -0.0366 -0.0223  0.2553
 7609SOL    HW123368   4.309   7.194   3.550 -1.1811 -0.0219 -0.3447
 7609SOL    HW223369   4.173   7.184   3.617 -0.3867  0.5239  1.4129
 7610SOL     OW23370   7.164   5.485   1.911 -0.2020 -0.1402 -0.0573
 7610SOL    HW123371   7.241   5.496   1.967  0.6237  1.7267 -1.4784
 7610SOL    HW223372   7.196   5.431   1.838 -0.1724  0.7713 -0.7292
 7611SOL     OW23373   5.600   3.642   0.587  0.3307 -0.7110 -0.2792
 7611SOL    HW123374   5.659   3.678   0.522 -0.8545  1.3484 -0.2847
 7611SOL    HW223375   5.647   3.652   0.670 -0.2561  1.7225 -0.1661
 7612SOL     OW23376   3.793   6.275   2.183  0.1401  1.3406  0.7332
 7612SOL    HW123377   3.710   6.256   2.139  0.8575 -0.6273  0.1253
 7612SOL    HW223378   3.846   6.319   2.118  1.2780 -1.7514 -0.6362
 7613SOL     OW23379   3.976   2.580   6.284  0.0862  0.0972 -0.0720
 7613SOL    HW123380   4.002   2.606   6.373 -0.2111 -0.3105  0.1365
 7613SOL    HW223381   3.892   2.623   6.271 -0.8029 -1.3653  0.5803
 7614SOL     OW23382   1.921   0.519   2.583  0.2016 -0.0554 -0.3584
 7614SOL    HW123383   1.919   0.542   2.676  0.5987  1.0326 -0.6060
 7614SOL    HW223384   1.829   0.510   2.559  0.0786 -3.3503  0.8014
 7615SOL     OW23385   2.420   0.197   0.147 -0.2960 -0.1865  0.6801
 7615SOL    HW123386   2.473   0.134   0.194 -0.5831 -0.1781  1.0188
 7615SOL    HW223387   2.329   0.168   0.161 -0.3621 -0.5701 -0.4169
 7616SOL     OW23388   0.566   1.579   1.683  0.0581 -0.1612  0.1128
 7616SOL    HW123389   0.482   1.600   1.642 -0.7942  0.8976  2.2378
 7616SOL    HW223390   0.554   1.604   1.775  2.5496 -0.4650  0.5727
 7617SOL     OW23391   1.794   5.603   5.424  0.2146  0.4350 -0.1092
 7617SOL    HW123392   1.878   5.577   5.386  0.8657  0.5284  1.2045
 7617SOL    HW223393   1.729   5.575   5.360  1.2568  0.5446 -1.2516
 7618SOL     OW23394   3.233   6.872   2.508 -0.1112  0.2592 -0.1115
 7618SOL    HW123395   3.165   6.835   2.565 -0.7556 -0.7545 -1.5000
 7618SOL    HW223396   3.200   6.860   2.419  2.0553 -0.6716 -0.8629
 7619SOL     OW23397   6.754   4.832   4.983  0.0014 -0.0612  0.7439
 7619SOL    HW123398   6.803   4.814   4.904  0.5514 -0.8344  1.2480
 7619SOL    HW223399   6.750   4.927   4.989 -0.3830  0.0055 -0.4055
 7620SOL     OW23400   4.605   4.779   2.258  0.5429  0.1782 -0.5915
 7620SOL    HW123401   4.604   4.871   2.234 -1.1014  0.3218 -0.1161
 7620SOL    HW223402   4.527   4.742   2.215  0.4214 -0.6716  0.3141
 7621SOL     OW23403   4.921   2.962   0.124 -0.2389  0.1526  0.0272
 7621SOL    HW123404   4.838   3.003   0.099 -0.8391 -1.1864 -0.3200
 7621SOL    HW223405   4.964   2.942   0.041  0.5890  1.1059  0.2104
 7622SOL     OW23406   2.811   3.991   6.003  0.3988  0.2181 -0.4942
 7622SOL    HW123407   2.851   3.912   6.039 -0.2034 -0.5667 -1.5065
 7622SOL    HW223408   2.834   3.989   5.910 -0.6951  0.5671 -0.7812
 7623SOL     OW23409   7.484   6.307   4.686  0.5691  0.0176  0.4928
 7623SOL    HW123410   7.475   6.328   4.779 -0.6251  0.1133  0.3646
 7623SOL    HW223411   7.569   6.344   4.661  0.1887  1.4084  1.1588
 7624SOL     OW23412   1.164   5.374   4.505 -0.4093  0.4389  0.0380
 7624SOL    HW123413   1.227   5.353   4.437  0.0015 -2.0483  1.0498
 7624SOL    HW223414   1.207   5.439   4.560  0.7230 -0.2010 -0.0710
 7625SOL     OW23415   6.673   6.539   2.630  0.6950 -0.3717  0.0226
 7625SOL    HW123416   6.649   6.561   2.719 -0.4474 -0.1234 -0.3374
 7625SOL    HW223417   6.688   6.623   2.587 -2.9909 -0.1752 -1.1617
 7626SOL     OW23418   0.554   7.100   7.128 -0.0741  0.0518 -0.6972
 7626SOL    HW123419   0.611   7.174   7.103 -1.3476  1.4308  0.3054
 7626SOL    HW223420   0.488   7.098   7.058 -0.5623  0.4687 -0.2553
 7627SOL     OW23421   1.792   7.401   3.616  0.5044  0.7527 -0.0122
 7627SOL    HW123422   1.707   7.445   3.606  0.2971  0.2639 -0.3945
 7627SOL    HW223423   1.811   7.365   3.530  0.3625 -0.4700  0.4468
 7628SOL     OW23424   1.172   7.319   5.178 -0.3097 -0.2613  0.1279
 7628SOL    HW123425   1.130   7.270   5.249  0.4695 -0.6103  0.3622
 7628SOL    HW223426   1.265   7.309   5.194 -0.0259 -2.0942 -2.0724
 7629SOL     OW23427   1.202   1.195   0.436  0.1619  0.3756  0.3276
 7629SOL    HW123428   1.129   1.148   0.476  0.7243 -0.9592 -0.1588
 7629SOL    HW223429   1.276   1.179   0.494  0.6006 -0.2121 -0.3742
 7630SOL     OW23430   3.172   2.839   3.858  0.0782 -0.0126 -0.0918
 7630SOL    HW123431   3.246   2.871   3.909  0.4198  2.5315 -1.9733
 7630SOL    HW223432   3.192   2.864   3.768 -2.1519 -1.0890 -0.9719
 7631SOL     OW23433   1.043   6.003   5.487 -0.5890 -0.4741 -1.0955
 7631SOL    HW123434   1.027   5.919   5.531  2.0680 -0.2577  0.4692
 7631SOL    HW223435   0.966   6.055   5.507 -1.2318 -1.7508 -0.1020
 7632SOL     OW23436   5.883   3.225   6.700  0.6708  0.0975 -0.1793
 7632SOL    HW123437   5.954   3.203   6.640  0.0323  0.0893 -0.9460
 7632SOL    HW223438   5.905   3.313   6.732  0.7296  0.3336 -0.8598
 7633SOL     OW23439   3.453   0.077   0.192 -0.6643  0.0877  0.1525
 7633SOL    HW123440   3.521   0.009   0.191  0.7287  1.4187  0.7369
 7633SOL    HW223441   3.443   0.101   0.100  0.0159  0.2146  0.1049
 7634SOL     OW23442   6.052   6.866   3.255  0.2792  0.0668 -0.6561
 7634SOL    HW123443   5.985   6.828   3.198 -0.9147 -0.8411  1.2636
 7634SOL    HW223444   6.015   6.859   3.343  0.8835  3.8219  0.0672
 7635SOL     OW23445   5.928   7.284   0.613 -0.3168  0.4672 -0.5089
 7635SOL    HW123446   5.862   7.250   0.673  0.8988  1.0762  1.2321
 7635SOL    HW223447   5.886   7.281   0.527 -1.9805 -0.7524  0.3037
 7636SOL     OW23448   4.351   1.516   3.695 -0.3310  0.1319 -0.8420
 7636SOL    HW123449   4.446   1.509   3.701 -0.3882 -0.2978 -0.3054
 7636SOL    HW223450   4.333   1.610   3.696 -0.0359  0.2400  1.6182
 7637SOL     OW23451   3.989   3.597   3.189 -0.4384  0.4542  0.5169
 7637SOL    HW123452   3.941   3.535   3.134 -1.5618  0.4611  1.4550
 7637SOL    HW223453   4.081   3.588   3.161 -0.5756 -1.5865  0.5921
 7638SOL     OW23454   3.088   3.639   7.368  0.9256 -0.2671  0.3342
 7638SOL    HW123455   3.131   3.626   7.452 -0.6474 -0.4318  1.1449
 7638SOL    HW223456   3.125   3.720   7.334  1.8039 -0.3638  1.0231
 7639SOL     OW23457   5.890   0.316   0.210 -0.0945  0.6553  0.3859
 7639SOL    HW123458   5.967   0.285   0.257  0.1201  0.5547 -0.0230
 7639SOL    HW223459   5.871   0.402   0.247 -1.2190 -0.2839  2.1525
 7640SOL     OW23460   5.853   0.989   4.163  0.6350 -0.6543  0.5397
 7640SOL    HW123461   5.932   1.035   4.135  1.0938 -1.4603  0.4629
 7640SOL    HW223462   5.783   1.027   4.111  1.1676 -0.7660 -0.2764
 7641SOL     OW23463   5.623   3.852   3.282 -0.1342  0.7030 -0.7004
 7641SOL    HW123464   5.660   3.853   3.193 -0.5328  0.7199 -0.8676
 7641SOL    HW223465   5.532   3.878   3.270 -0.6273 -0.8682 -0.4823
 7642SOL     OW23466   0.382   5.977   4.383 -0.0018 -0.8563  0.1531
 7642SOL    HW123467   0.451   5.987   4.317 -1.1984  1.6786 -0.8669
 7642SOL    HW223468   0.417   6.018   4.462 -0.1023 -0.0112 -0.2230
 7643SOL     OW23469   7.553   4.944   4.313 -0.2993 -0.4642  0.2070
 7643SOL    HW123470   7.465   4.976   4.297 -0.8488 -1.4913  1.1196
 7643SOL    HW223471   7.563   4.943   4.408 -0.1784 -2.5688  0.2273
 7644SOL     OW23472   6.484   3.012   5.786 -0.7342  0.5889  0.2414
 7644SOL    HW123473   6.455   3.103   5.788  0.7943  1.1291 -0.5538
 7644SOL    HW223474   6.495   2.992   5.693 -0.5667 -0.2463  0.4295
 7645SOL     OW23475   1.477   1.879   4.260  0.3779 -0.4542  0.1859
 7645SOL    HW123476   1.562   1.861   4.219  0.9036  3.0936 -0.6115
 7645SOL    HW223477   1.498   1.900   4.351  0.5176  1.0249 -0.1570
 7646SOL     OW23478   3.918   4.141   5.832 -0.2409 -0.5258 -0.4816
 7646SOL    HW123479   3.954   4.164   5.918 -1.8937  2.6019 -0.5092
 7646SOL    HW223480   3.994   4.139   5.774  0.4884  1.2251  0.3494
 7647SOL     OW23481   4.712   4.413   1.829  0.4272 -0.4311 -1.1795
 7647SOL    HW123482   4.633   4.458   1.800  1.1222  1.4116 -0.3447
 7647SOL    HW223483   4.775   4.483   1.845  2.3262 -1.8605 -2.0221
 7648SOL     OW23484   5.606   5.374   7.580 -0.3871 -0.0507  0.1218
 7648SOL    HW123485   5.669   5.303   7.567 -1.8696 -1.1002 -1.8948
 7648SOL    HW223486   5.592   5.377   7.674  0.4199 -1.8191  0.3411
 7649SOL     OW23487   5.473   1.651   0.607  0.2287 -0.1184 -0.0690
 7649SOL    HW123488   5.487   1.724   0.547 -0.5343 -0.3968 -0.6001
 7649SOL    HW223489   5.536   1.584   0.579  0.0388 -0.1567 -0.4022
 7650SOL     OW23490   6.496   4.021   3.819 -0.0298 -0.2626  0.0678
 7650SOL    HW123491   6.476   4.090   3.756 -1.9507  0.7498  1.6317
 7650SOL    HW223492   6.505   3.942   3.767  0.0969  0.8107 -1.6042
 7651SOL     OW23493   4.069   4.554   4.152  0.3802  0.2335 -0.0542
 7651SOL    HW123494   4.132   4.622   4.175 -0.3215  0.7093  0.5148
 7651SOL    HW223495   3.994   4.603   4.115 -0.2396 -0.1973  0.6076
 7652SOL     OW23496   1.525   7.415   7.436 -0.1967 -0.1365 -0.1863
 7652SOL    HW123497   1.587   7.421   7.363  0.6055 -2.9579  0.1550
 7652SOL    HW223498   1.549   7.488   7.493  2.1343 -0.5118 -0.5732
 7653SOL     OW23499   3.540   5.987   5.542 -0.5147  0.1323 -0.0563
 7653SOL    HW123500   3.510   6.014   5.629 -0.8441  1.5580 -0.5832
 7653SOL    HW223501   3.635   5.991   5.547 -0.4670 -1.3717  0.6979
 7654SOL     OW23502   4.240   2.405   3.288 -0.3943  1.1144 -0.0276
 7654SOL    HW123503   4.307   2.382   3.352 -1.1853  0.3690  0.5327
 7654SOL    HW223504   4.265   2.493   3.259  0.4928  1.0821  0.6032
 7655SOL     OW23505   1.521   6.377   4.844  0.7177  0.0623  0.2784
 7655SOL    HW123506   1.518   6.308   4.911 -0.9361 -0.1699  0.0078
 7655SOL    HW223507   1.445   6.360   4.789  0.9698  1.3966 -0.5201
 7656SOL     OW23508   5.564   4.671   0.057  0.1400 -0.1207 -0.0611
 7656SOL    HW123509   5.611   4.745   0.019  0.2907  0.0512  0.4586
 7656SOL    HW223510   5.514   4.635  -0.016  0.8609 -0.1380 -0.5531
 7657SOL     OW23511   2.738   6.365   4.800  0.2311  0.0674 -0.2260
 7657SOL    HW123512   2.700   6.283   4.832  1.3463 -1.3980 -2.3972
 7657SOL    HW223513   2.831   6.346   4.787  0.5889  1.7844 -0.4695
 7658SOL     OW23514   7.383   7.600   4.114 -0.3398  0.0291  0.4868
 7658SOL    HW123515   7.304   7.649   4.093 -0.2601  0.0661  0.2755
 7658SOL    HW223516   7.376   7.583   4.208  0.3469  1.7333  0.8918
 7659SOL     OW23517   6.004   0.476   3.004  0.8777 -0.0827  0.8887
 7659SOL    HW123518   6.051   0.458   3.086  1.7926  1.1521  0.6612
 7659SOL    HW223519   6.035   0.408   2.944  2.3069  0.6302  0.7855
 7660SOL     OW23520   5.795   6.810   5.412 -0.2998 -0.1516 -0.7580
 7660SOL    HW123521   5.799   6.903   5.391  0.9074  0.5201  1.9518
 7660SOL    HW223522   5.885   6.779   5.405  0.1491  0.0450  2.4613
 7661SOL     OW23523   2.221   4.833   2.346  0.1257  0.1340  0.1452
 7661SOL    HW123524   2.255   4.754   2.388 -1.1337  0.9296  2.9175
 7661SOL    HW223525   2.246   4.904   2.405 -1.1997  1.4440 -0.7872
 7662SOL     OW23526   4.278   1.321   6.929  0.0955  0.6129  0.4430
 7662SOL    HW123527   4.288   1.295   6.838 -1.5581 -0.7636  0.6063
 7662SOL    HW223528   4.329   1.401   6.937  1.9453 -0.3381 -1.1644
 7663SOL     OW23529   6.752   6.190   3.722  0.8480 -0.2160 -0.1342
 7663SOL    HW123530   6.765   6.194   3.816 -0.2583 -0.0153  0.0231
 7663SOL    HW223531   6.740   6.282   3.696  0.9660 -0.2866 -0.4399
 7664SOL     OW23532   0.996   2.455   5.567  0.2051  0.2954  0.3465
 7664SOL    HW123533   0.967   2.366   5.589 -0.0729  0.4572  0.6358
 7664SOL    HW223534   0.924   2.492   5.517  0.0263  0.6018  0.8246
 7665SOL     OW23535   6.150   1.134   1.407 -0.2748  0.3634  0.4235
 7665SOL    HW123536   6.193   1.120   1.492 -2.3640  2.7837  2.0178
 7665SOL    HW223537   6.218   1.172   1.351  0.3348  1.8494  2.0871
 7666SOL     OW23538   3.243   5.930   7.612  0.0890  0.0944  0.4846
 7666SOL    HW123539   3.194   5.988   7.555  0.1711  0.5728  0.8937
 7666SOL    HW223540   3.185   5.914   7.687  0.6751  0.9609  1.1485
 7667SOL     OW23541   1.978   0.919   2.650 -0.3079 -0.2612 -0.1954
 7667SOL    HW123542   2.009   0.966   2.573 -0.0521 -0.3651 -0.1578
 7667SOL    HW223543   1.933   0.985   2.702  1.9267  0.4931  0.9247
 7668SOL     OW23544   0.231   1.420   5.325 -0.1747 -0.2625 -0.3507
 7668SOL    HW123545   0.179   1.499   5.340  0.7347  0.1549  0.7879
 7668SOL    HW223546   0.177   1.349   5.360 -2.5339 -0.7482 -4.3929
 7669SOL     OW23547   1.125   1.271   5.056 -0.0639  0.2700  0.0782
 7669SOL    HW123548   1.069   1.344   5.081  0.7122  0.8780  0.0454
 7669SOL    HW223549   1.063   1.202   5.031 -0.8174  0.5886  0.9881
 7670SOL     OW23550   2.900   0.528   5.203 -0.2434 -0.0470 -0.4680
 7670SOL    HW123551   2.836   0.532   5.275 -0.9338  0.2233 -1.0756
 7670SOL    HW223552   2.968   0.470   5.234 -1.9318 -2.2612 -0.6694
 7671SOL     OW23553   7.519   0.214   5.829  0.2682  0.5611  0.4716
 7671SOL    HW123554   7.586   0.270   5.790 -1.1585  2.7256  0.9873
 7671SOL    HW223555   7.467   0.184   5.754  1.4708 -0.7771  0.1155
 7672SOL     OW23556   1.869   2.890   5.670 -0.4940  0.3048 -0.2221
 7672SOL    HW123557   1.952   2.857   5.702 -0.3766  0.2210 -0.6073
 7672SOL    HW223558   1.825   2.925   5.748  0.1738  0.9504 -0.1235
 7673SOL     OW23559   4.609   1.206   2.539 -0.2286 -0.2468  0.0443
 7673SOL    HW123560   4.607   1.286   2.486 -0.0009 -1.4917 -1.9246
 7673SOL    HW223561   4.531   1.158   2.512  0.6791 -1.5868 -0.2983
 7674SOL     OW23562   3.098   4.892   6.685 -0.2849 -0.5371  0.3860
 7674SOL    HW123563   3.079   4.953   6.614 -2.1595 -1.0851  0.3482
 7674SOL    HW223564   3.052   4.929   6.761  0.0917 -0.9627  0.8312
 7675SOL     OW23565   4.997   3.242   1.026 -0.3862  0.0694 -0.0417
 7675SOL    HW123566   5.062   3.177   1.050  1.2626  1.3056 -0.9720
 7675SOL    HW223567   4.925   3.192   0.989  1.1778 -1.1888 -1.5082
 7676SOL     OW23568   3.145   1.887   5.108 -0.4369 -0.3500  0.0578
 7676SOL    HW123569   3.221   1.896   5.050 -1.3577  0.5395 -1.0718
 7676SOL    HW223570   3.179   1.847   5.188  1.5732  1.6707  0.2901
 7677SOL     OW23571   7.590   3.147   6.071 -0.4426  0.2646 -0.6565
 7677SOL    HW123572   7.598   3.207   6.145  1.4497 -1.0156  0.2537
 7677SOL    HW223573   7.679   3.135   6.040 -0.8275 -1.6166 -1.1730
 7678SOL     OW23574   2.589   6.506   0.270 -0.1311 -0.0487 -0.0638
 7678SOL    HW123575   2.590   6.476   0.179 -1.6072 -1.8432  0.4458
 7678SOL    HW223576   2.630   6.435   0.319  1.7368  1.3993  0.6059
 7679SOL     OW23577   2.601   5.699   6.864 -1.0271  0.0465 -0.2209
 7679SOL    HW123578   2.584   5.606   6.849  0.9137 -0.9112  2.6048
 7679SOL    HW223579   2.624   5.705   6.957  1.8660  2.8409 -0.9230
 7680SOL     OW23580   5.702   6.056   3.078  0.6406  0.5802 -0.1435
 7680SOL    HW123581   5.756   6.019   3.008  1.0888  0.9378  0.0061
 7680SOL    HW223582   5.764   6.105   3.132  0.4326 -0.3271  0.9461
 7681SOL     OW23583   7.064   4.985   4.512  0.2546  0.2038  0.3962
 7681SOL    HW123584   7.006   4.943   4.576  2.3932  0.8350  2.9051
 7681SOL    HW223585   7.109   4.912   4.469 -0.0305 -0.1944  0.7657
 7682SOL     OW23586   0.906   6.088   6.189 -0.2005  0.2667 -0.5661
 7682SOL    HW123587   0.818   6.051   6.185  0.8062 -2.3575 -0.2266
 7682SOL    HW223588   0.907   6.155   6.121 -2.8943  1.5139  0.4753
 7683SOL     OW23589   2.881   2.445   5.343  0.0836 -0.0771  0.1312
 7683SOL    HW123590   2.830   2.364   5.336  0.7493 -0.4447 -0.6546
 7683SOL    HW223591   2.942   2.429   5.416 -0.0749 -0.1155  0.2552
 7684SOL     OW23592   6.087   0.786   1.248  0.1316  0.1058 -0.2998
 7684SOL    HW123593   6.112   0.826   1.331 -2.1394  0.9554  0.0337
 7684SOL    HW223594   6.142   0.831   1.183  1.5025 -0.1525  0.6222
 7685SOL     OW23595   5.410   6.681   3.066 -0.2481 -0.4029  0.0718
 7685SOL    HW123596   5.321   6.687   3.102 -0.9488 -0.2398 -1.5548
 7685SOL    HW223597   5.413   6.751   3.001  1.8985  1.0848  1.6586
 7686SOL     OW23598   2.497   5.866   0.642  0.0821 -0.4847 -0.5523
 7686SOL    HW123599   2.501   5.872   0.547 -0.5322  0.1636 -0.5435
 7686SOL    HW223600   2.473   5.775   0.659 -0.6137 -0.4036 -1.0501
 7687SOL     OW23601   4.944   1.238   4.151  0.0844  0.9138 -0.0924
 7687SOL    HW123602   4.875   1.262   4.091 -0.3589  0.6057  0.2876
 7687SOL    HW223603   4.922   1.284   4.233 -0.6711 -0.5857  0.5832
 7688SOL     OW23604   1.153   6.859   6.484 -0.0874 -0.0491 -0.3510
 7688SOL    HW123605   1.213   6.930   6.508  0.8625 -0.9356 -0.0644
 7688SOL    HW223606   1.071   6.904   6.462  1.3108  1.4156 -3.0821
 7689SOL     OW23607   7.070   5.888   5.110  0.0785 -0.3201  0.3076
 7689SOL    HW123608   7.091   5.954   5.043  1.4023 -1.1263 -0.1183
 7689SOL    HW223609   7.151   5.876   5.158 -0.4459 -0.8650  1.0812
 7690SOL     OW23610   7.111   7.594   6.864 -0.4423 -0.2305  0.7572
 7690SOL    HW123611   7.128   7.520   6.806 -0.2822 -0.1255  0.6678
 7690SOL    HW223612   7.022   7.622   6.841 -0.0812  0.3259 -0.0154
 7691SOL     OW23613   6.678   1.154   6.840 -0.6113 -0.2396  0.0808
 7691SOL    HW123614   6.692   1.063   6.865  0.7676 -0.1079 -0.1225
 7691SOL    HW223615   6.616   1.188   6.904 -0.2933 -1.0246  0.8162
 7692SOL     OW23616   3.203   4.891   5.492  0.1733  0.8076 -0.2528
 7692SOL    HW123617   3.166   4.914   5.577 -0.2042 -0.3866 -0.0635
 7692SOL    HW223618   3.138   4.921   5.429 -1.3624 -1.4636  0.0876
 7693SOL     OW23619   6.184   6.042   6.263  0.9346  0.3973  0.2287
 7693SOL    HW123620   6.168   6.092   6.343 -0.2373  0.9625 -0.3377
 7693SOL    HW223621   6.206   6.108   6.197  3.6100 -0.1837  0.4388
 7694SOL     OW23622   3.558   3.811   5.283  0.2887  0.7140  0.0229
 7694SOL    HW123623   3.533   3.803   5.375  2.2836  0.4871  0.5915
 7694SOL    HW223624   3.543   3.724   5.246  1.1979  0.2674  0.6392
 7695SOL     OW23625   3.532   3.821   5.880  0.0342 -0.0699 -0.5869
 7695SOL    HW123626   3.499   3.878   5.949 -0.9061 -0.1683 -0.9480
 7695SOL    HW223627   3.621   3.853   5.864 -0.0407  0.5004  0.0699
 7696SOL     OW23628   2.053   3.149   7.333 -0.7916 -0.0337  0.0646
 7696SOL    HW123629   2.008   3.135   7.250 -2.0086 -1.0110  0.8508
 7696SOL    HW223630   2.041   3.067   7.380  2.7758 -0.7585 -0.0706
 7697SOL     OW23631   3.509   2.641   4.571 -0.4647 -0.3672  0.3795
 7697SOL    HW123632   3.528   2.669   4.661 -0.5729  2.3940 -0.3654
 7697SOL    HW223633   3.580   2.581   4.549  0.4169  0.1129  1.7964
 7698SOL     OW23634   0.195   0.680   2.172  0.7882  0.6094  0.0848
 7698SOL    HW123635   0.278   0.721   2.197  1.1617  0.0370 -0.1969
 7698SOL    HW223636   0.194   0.684   2.076  0.1791  1.2061  0.1100
 7699SOL     OW23637   1.291   6.530   7.470 -0.1042  0.1458  0.3358
 7699SOL    HW123638   1.351   6.510   7.398 -1.4970 -1.0263 -0.5664
 7699SOL    HW223639   1.330   6.605   7.514  0.4652  1.3657 -2.0837
 7700SOL     OW23640   5.811   4.453   0.723 -0.4076  0.3478 -0.2773
 7700SOL    HW123641   5.800   4.548   0.710  1.7531  0.5778 -0.9166
 7700SOL    HW223642   5.747   4.413   0.665 -0.9264  1.4277 -0.4719
 7701SOL     OW23643   0.951   4.289   1.181 -0.2387  0.0357  0.6888
 7701SOL    HW123644   0.998   4.335   1.251  0.7882 -0.1511  0.1397
 7701SOL    HW223645   0.997   4.205   1.173 -0.4651 -0.0171 -0.0743
 7702SOL     OW23646   2.560   4.860   5.719 -0.3085 -0.1879  0.3888
 7702SOL    HW123647   2.654   4.860   5.700 -0.5380 -1.3513 -0.8614
 7702SOL    HW223648   2.549   4.931   5.783  1.1964  0.9494 -0.5364
 7703SOL     OW23649   7.563   4.175   7.489 -0.3342 -0.1828 -0.4767
 7703SOL    HW123650   7.638   4.142   7.440  0.1541 -1.6552  1.1684
 7703SOL    HW223651   7.488   4.159   7.432  0.5289  1.0408 -2.0253
 7704SOL     OW23652   6.276   3.503   2.884 -0.1086 -0.4173 -0.3365
 7704SOL    HW123653   6.335   3.514   2.809 -1.2388 -0.9729 -1.3315
 7704SOL    HW223654   6.308   3.425   2.928  0.5014 -0.1493 -0.2914
 7705SOL     OW23655   6.067   5.189   0.098 -0.3640 -0.4818 -0.8268
 7705SOL    HW123656   6.150   5.141   0.106  0.7641  1.3901 -0.6608
 7705SOL    HW223657   6.082   5.249   0.025 -1.6681 -0.2617 -0.9205
 7706SOL     OW23658   7.021   4.926   2.678  0.1275  0.5024 -0.2385
 7706SOL    HW123659   7.072   4.924   2.759 -1.1660  0.4287  0.6196
 7706SOL    HW223660   7.076   4.974   2.616  0.2293  2.6459  1.3740
 7707SOL     OW23661   1.689   1.916   3.431 -0.5143 -0.6929 -0.6513
 7707SOL    HW123662   1.614   1.971   3.455  0.3034  1.1540 -2.0898
 7707SOL    HW223663   1.740   1.908   3.511  0.2730  2.2589 -0.7347
 7708SOL     OW23664   3.455   0.278   5.982 -0.7893  0.3012 -0.5861
 7708SOL    HW123665   3.474   0.279   5.889 -0.9274  1.3828 -0.6204
 7708SOL    HW223666   3.538   0.253   6.023 -0.1011  1.9217 -0.9019
 7709SOL     OW23667   1.925   5.406   4.215  0.1890  0.0701 -0.1282
 7709SOL    HW123668   1.982   5.357   4.274  0.4334 -1.2451 -1.3951
 7709SOL    HW223669   1.887   5.340   4.157 -0.0522  1.2871 -1.4299
 7710SOL     OW23670   5.311   2.447   3.547  0.1973 -0.1001  0.0551
 7710SOL    HW123671   5.306   2.396   3.466 -0.0721 -1.9062  1.1569
 7710SOL    HW223672   5.337   2.384   3.614 -1.2747  0.9668  1.7123
 7711SOL     OW23673   4.645   3.982   7.494  0.3530  0.5774 -0.3534
 7711SOL    HW123674   4.627   3.971   7.587 -1.2992  1.1817 -0.5494
 7711SOL    HW223675   4.696   3.905   7.469 -1.3741 -0.9318  0.5226
 7712SOL     OW23676   0.107   4.810   6.305 -0.0932 -0.6477 -0.5705
 7712SOL    HW123677   0.201   4.821   6.286 -0.2312  1.2454 -0.3189
 7712SOL    HW223678   0.101   4.813   6.400 -0.6180  1.6818 -0.6200
 7713SOL     OW23679   4.592   4.058   1.520 -0.2018  0.9282 -0.3838
 7713SOL    HW123680   4.638   3.980   1.488 -1.7549 -0.0904 -0.2758
 7713SOL    HW223681   4.600   4.053   1.616 -1.1507  0.2937 -0.3134
 7714SOL     OW23682   7.467   6.489   3.205  0.0730 -0.2563  0.4150
 7714SOL    HW123683   7.375   6.491   3.235 -0.6753  0.7744 -1.7674
 7714SOL    HW223684   7.462   6.509   3.112  2.5917  0.2492  0.3408
 7715SOL     OW23685   3.570   1.938   1.755 -0.2294 -0.3929  0.0762
 7715SOL    HW123686   3.488   1.893   1.774 -0.5956 -0.4410 -1.4655
 7715SOL    HW223687   3.628   1.869   1.721  0.5653 -0.4092  1.3899
 7716SOL     OW23688   1.424   3.294   3.097  0.3549  0.3538 -0.1705
 7716SOL    HW123689   1.335   3.270   3.121  1.1720 -1.7561  1.0850
 7716SOL    HW223690   1.421   3.309   3.003 -1.2939  0.2152 -0.1595
 7717SOL     OW23691   2.418   2.151   0.782 -0.0294  0.4539 -0.8401
 7717SOL    HW123692   2.401   2.129   0.873 -0.1422 -0.8714 -1.1647
 7717SOL    HW223693   2.513   2.162   0.777  0.1458 -0.8734 -0.8322
 7718SOL     OW23694   7.001   1.057   3.977 -0.2342 -0.1782  0.5409
 7718SOL    HW123695   6.922   1.075   3.927  0.0076 -0.2487  0.1296
 7718SOL    HW223696   7.017   0.964   3.965  0.1379 -0.0856  0.2791
 7719SOL     OW23697   4.018   2.780   7.194 -0.0004  0.0333 -0.5090
 7719SOL    HW123698   3.931   2.742   7.190 -0.3731  0.2725  2.5451
 7719SOL    HW223699   4.010   2.865   7.151 -0.2428 -1.3988 -3.5422
 7720SOL     OW23700   5.872   0.418   4.655 -0.1562 -0.1311 -0.7177
 7720SOL    HW123701   5.925   0.442   4.579  0.9611 -3.4456 -1.1637
 7720SOL    HW223702   5.899   0.329   4.676 -2.2787 -0.2832  2.0202
 7721SOL     OW23703   6.436   0.676   4.520  0.1464  0.1200 -0.0690
 7721SOL    HW123704   6.528   0.700   4.507 -0.1759  0.3700 -2.1500
 7721SOL    HW223705   6.387   0.742   4.472 -1.0679 -0.7954 -0.1290
 7722SOL     OW23706   6.911   4.082   4.397 -0.2498  0.4519 -0.5954
 7722SOL    HW123707   6.932   3.994   4.428 -0.6641  0.6183  0.1916
 7722SOL    HW223708   6.849   4.116   4.461  1.7905  2.2586  0.5740
 7723SOL     OW23709   4.144   2.436   5.670  0.1723 -0.2215  0.7917
 7723SOL    HW123710   4.181   2.384   5.599  0.0350 -0.4246  0.8698
 7723SOL    HW223711   4.061   2.470   5.635  0.7866  0.8607  0.3424
 7724SOL     OW23712   2.668   4.401   0.775  0.9615  0.2070  0.1697
 7724SOL    HW123713   2.668   4.415   0.870  0.9830  1.2157  0.0301
 7724SOL    HW223714   2.622   4.318   0.763  2.2243 -0.6763  1.1580
 7725SOL     OW23715   0.724   2.616   3.862  0.8435  0.5285  0.0977
 7725SOL    HW123716   0.639   2.646   3.830  0.3690 -0.9350 -0.1106
 7725SOL    HW223717   0.711   2.604   3.956  0.7189  0.0045  0.0154
 7726SOL     OW23718   5.776   5.466   0.362 -0.5618 -0.3213  0.3590
 7726SOL    HW123719   5.777   5.558   0.388 -0.5482 -0.4160  0.6919
 7726SOL    HW223720   5.852   5.428   0.406  0.3021 -0.1757 -0.9387
 7727SOL     OW23721   6.504   0.535   1.281  0.5760 -0.0639 -0.0666
 7727SOL    HW123722   6.510   0.479   1.359 -1.5280  0.3333  0.4381
 7727SOL    HW223723   6.441   0.491   1.224 -0.3381  1.2473 -0.1115
 7728SOL     OW23724   7.614   0.354   3.893 -0.0281 -0.4063  0.2066
 7728SOL    HW123725   7.707   0.369   3.909 -0.5446  2.3664  1.0052
 7728SOL    HW223726   7.613   0.277   3.836  2.8893  0.7690 -1.6970
 7729SOL     OW23727   6.850   1.994   6.576  0.9264 -0.1040 -0.3957
 7729SOL    HW123728   6.837   1.899   6.574  2.2576 -0.3065 -0.5200
 7729SOL    HW223729   6.800   2.027   6.501 -2.5362 -0.2383  1.6340
 7730SOL     OW23730   0.412   0.575   2.445  0.1316  0.6799  0.1701
 7730SOL    HW123731   0.417   0.661   2.404  1.2662  0.8347  0.6063
 7730SOL    HW223732   0.452   0.515   2.383 -1.7697  0.2144 -0.6928
 7731SOL     OW23733   2.432   0.466   2.381  0.3117 -0.7526 -0.0668
 7731SOL    HW123734   2.494   0.471   2.454  0.9818 -0.6946 -0.6379
 7731SOL    HW223735   2.346   0.477   2.423  0.6356 -1.3263  0.7969
 7732SOL     OW23736   4.700   6.952   2.257  0.0532  0.3541  0.7896
 7732SOL    HW123737   4.793   6.930   2.264 -0.2258 -1.5428 -0.6905
 7732SOL    HW223738   4.662   6.926   2.340  0.1452 -3.0619 -0.0857
 7733SOL     OW23739   2.571   2.729   1.611 -0.0163  0.0338 -0.4606
 7733SOL    HW123740   2.559   2.823   1.625  1.2759  0.0606  0.7223
 7733SOL    HW223741   2.660   2.712   1.640  0.2892 -1.3214 -2.0425
 7734SOL     OW23742   4.904   3.111   1.397 -0.0582  0.1529 -1.0204
 7734SOL    HW123743   4.856   3.193   1.401 -1.4467 -0.6990  0.7836
 7734SOL    HW223744   4.990   3.131   1.434 -0.4404  0.7408 -0.4504
 7735SOL     OW23745   1.210   0.599   0.816  0.0664 -0.3332  0.6842
 7735SOL    HW123746   1.266   0.584   0.740 -2.2079 -1.4654 -0.8939
 7735SOL    HW223747   1.256   0.666   0.867  2.4986 -0.7633 -0.7894
 7736SOL     OW23748   4.947   0.554   5.991  0.2099 -0.3242  0.5457
 7736SOL    HW123749   5.038   0.526   5.996  0.8921  1.3957 -1.0856
 7736SOL    HW223750   4.909   0.501   5.921  0.1068 -0.6037  0.8080
 7737SOL     OW23751   7.171   0.791   3.002 -0.5118  0.7168 -0.4333
 7737SOL    HW123752   7.188   0.769   2.910  0.1351 -0.8711  0.0307
 7737SOL    HW223753   7.257   0.812   3.038 -0.7438  1.2043 -0.1494
 7738SOL     OW23754   0.590   3.227   5.905  0.2073  0.6715  0.0475
 7738SOL    HW123755   0.615   3.148   5.952 -0.2119 -0.1709 -1.0952
 7738SOL    HW223756   0.531   3.273   5.964 -1.0259 -0.8075  0.0303
 7739SOL     OW23757   5.029   2.974   7.052 -0.1048 -0.1659 -0.3294
 7739SOL    HW123758   5.117   2.940   7.034 -0.2498 -0.0712 -1.2549
 7739SOL    HW223759   4.994   2.995   6.966 -1.0058 -0.1160  0.0467
 7740SOL     OW23760   0.645   6.352   0.978  0.3248 -0.5742 -0.7523
 7740SOL    HW123761   0.604   6.360   1.064  0.4182  0.3706 -0.7871
 7740SOL    HW223762   0.672   6.441   0.956 -1.3167 -0.4525 -2.5704
 7741SOL     OW23763   3.363   1.487   2.023  0.3923  0.0262  0.1292
 7741SOL    HW123764   3.349   1.430   2.098 -0.8271 -1.2424 -1.0074
 7741SOL    HW223765   3.448   1.461   1.988  0.2233 -0.5360  0.1250
 7742SOL     OW23766   3.089   4.792   2.770 -0.0485 -0.0017 -0.3271
 7742SOL    HW123767   3.002   4.826   2.748  0.3949 -0.1030 -2.4324
 7742SOL    HW223768   3.148   4.838   2.710  1.4417  0.4221  1.3947
 7743SOL     OW23769   7.154   6.878   3.646 -0.5948 -0.3237  0.1196
 7743SOL    HW123770   7.092   6.806   3.654  0.4734 -1.3933 -0.8584
 7743SOL    HW223771   7.233   6.847   3.691  0.2392 -0.2380 -1.2118
 7744SOL     OW23772   6.198   2.077   2.812  0.0830  0.0184 -0.4581
 7744SOL    HW123773   6.221   1.998   2.765  2.5637  1.3960 -1.7515
 7744SOL    HW223774   6.213   2.056   2.904  0.3296 -1.1031 -0.7387
 7745SOL     OW23775   1.330   5.258   6.697  0.6079 -0.0309  0.5418
 7745SOL    HW123776   1.341   5.347   6.730 -1.2474  0.0720  1.0028
 7745SOL    HW223777   1.411   5.240   6.650  1.1712  1.7617  0.7340
 7746SOL     OW23778   6.049   4.052   7.354 -0.0497 -0.8691 -0.4409
 7746SOL    HW123779   5.977   4.084   7.299  0.9443  1.6894 -0.3935
 7746SOL    HW223780   6.128   4.082   7.310  0.9747 -2.3203  0.3023
 7747SOL     OW23781   4.234   3.097   7.600 -0.6406 -0.3625 -0.1664
 7747SOL    HW123782   4.308   3.114   7.541 -0.9037 -1.1415 -0.7317
 7747SOL    HW223783   4.264   3.130   7.685 -0.9433  2.4634 -1.0639
 7748SOL     OW23784   2.150   7.494   0.173 -0.2282 -0.2518  0.5055
 7748SOL    HW123785   2.215   7.429   0.198  0.7915 -0.3422 -2.1137
 7748SOL    HW223786   2.077   7.479   0.233  1.5152 -1.1405  2.5538
 7749SOL     OW23787   6.485   6.788   2.306  0.1889 -0.3350 -0.1304
 7749SOL    HW123788   6.519   6.793   2.216 -0.3860  1.0302 -0.2916
 7749SOL    HW223789   6.480   6.878   2.335 -0.3510 -0.7169  1.0113
 7750SOL     OW23790   6.520   5.692   5.597 -0.0688 -0.0188  0.0359
 7750SOL    HW123791   6.527   5.596   5.593 -0.7284 -0.0234 -1.3168
 7750SOL    HW223792   6.557   5.714   5.683  1.3343 -1.3715 -0.1643
 7751SOL     OW23793   7.113   2.011   6.878 -0.1997  0.8015  0.6432
 7751SOL    HW123794   7.083   1.923   6.856  0.5923  0.5646  0.4540
 7751SOL    HW223795   7.136   2.051   6.794  1.2658  0.4863  0.8666
 7752SOL     OW23796   1.055   1.714   4.771 -0.4529  0.1643 -0.4412
 7752SOL    HW123797   1.116   1.705   4.844 -1.1340 -1.2151 -0.0097
 7752SOL    HW223798   0.981   1.764   4.807 -0.0673  0.9329 -0.6785
 7753SOL     OW23799   4.032   7.563   1.909 -0.0928 -0.0090  0.6023
 7753SOL    HW123800   4.104   7.539   1.968  1.2031 -3.5746 -2.0711
 7753SOL    HW223801   3.979   7.483   1.903  0.1141 -0.0034 -3.3132
 7754SOL     OW23802   0.483   0.457   7.444 -0.9369  0.0654 -0.1190
 7754SOL    HW123803   0.539   0.462   7.521  1.4339 -0.6692 -1.6912
 7754SOL    HW223804   0.405   0.411   7.474  0.2366 -0.8689  1.6747
 7755SOL     OW23805   1.314   3.752   2.038  0.3540 -0.7473 -0.4566
 7755SOL    HW123806   1.287   3.766   1.947  0.9635 -1.3891 -0.7459
 7755SOL    HW223807   1.263   3.816   2.088 -2.4257 -2.4587 -0.8515
 7756SOL     OW23808   5.475   6.811   1.589  0.0385 -0.1012  0.3157
 7756SOL    HW123809   5.496   6.904   1.585  2.4950 -0.3389  3.3124
 7756SOL    HW223810   5.535   6.771   1.526 -0.0404  0.2128  0.0358
 7757SOL     OW23811   6.443   1.322   0.417 -0.2372  0.1682  0.6725
 7757SOL    HW123812   6.366   1.275   0.449  0.3505 -0.8737  0.5782
 7757SOL    HW223813   6.513   1.300   0.478  1.2471 -2.8587 -1.8473
 7758SOL     OW23814   3.401   5.419   0.534  0.2331 -0.1937 -0.1162
 7758SOL    HW123815   3.436   5.371   0.610  0.0298  1.1594  0.8696
 7758SOL    HW223816   3.470   5.481   0.511  0.1112 -0.2972 -0.7799
 7759SOL     OW23817   0.679   3.324   7.228 -0.0428 -0.3743 -0.2012
 7759SOL    HW123818   0.624   3.290   7.300  0.3199  0.1707  0.3440
 7759SOL    HW223819   0.618   3.370   7.171 -0.1873  0.1013  0.3232
 7760SOL     OW23820   2.484   1.754   3.387  0.2373  0.4416  0.2522
 7760SOL    HW123821   2.550   1.738   3.320 -1.1346  0.2513 -1.0987
 7760SOL    HW223822   2.402   1.761   3.339 -0.8808 -0.2467  1.9613
 7761SOL     OW23823   1.887   1.819   6.244  0.4866 -0.9279  0.9377
 7761SOL    HW123824   1.810   1.802   6.299  0.1670 -0.2811  0.7108
 7761SOL    HW223825   1.850   1.843   6.159  0.8446  1.3367  1.3491
 7762SOL     OW23826   2.690   3.176   2.305  0.6638  0.1380 -0.5262
 7762SOL    HW123827   2.749   3.152   2.376  1.8651  0.7110 -1.3043
 7762SOL    HW223828   2.665   3.093   2.265 -1.2524 -0.3420  1.4481
 7763SOL     OW23829   0.316   1.010   5.600 -0.0590  0.0687  0.2754
 7763SOL    HW123830   0.332   0.932   5.653  1.2514 -0.3354 -0.6584
 7763SOL    HW223831   0.387   1.070   5.623  0.4148 -0.0365 -0.8589
 7764SOL     OW23832   1.957   4.749   1.800 -0.1382  0.3310 -0.6893
 7764SOL    HW123833   1.924   4.667   1.837  1.6691  0.9125  2.7024
 7764SOL    HW223834   2.052   4.737   1.794 -0.0078  1.6186 -1.6610
 7765SOL     OW23835   7.394   5.648   2.008  0.7281 -0.7019  0.2188
 7765SOL    HW123836   7.467   5.636   2.069  1.4240 -1.6957 -0.7766
 7765SOL    HW223837   7.422   5.720   1.952 -0.6809  1.4733  2.1193
 7766SOL     OW23838   2.940   6.881   5.561  0.2236 -0.0902 -0.7597
 7766SOL    HW123839   2.958   6.842   5.475  1.5298 -1.1626 -0.0355
 7766SOL    HW223840   2.914   6.971   5.541 -0.3955 -0.5729 -2.3233
 7767SOL     OW23841   0.125   2.300   6.689 -0.2044 -0.1577  0.3245
 7767SOL    HW123842   0.160   2.317   6.601  0.0311 -2.2158 -0.0359
 7767SOL    HW223843   0.142   2.207   6.703 -1.7947 -0.2546  1.8605
 7768SOL     OW23844   6.757   0.371   6.316  0.1489 -0.7071  0.1018
 7768SOL    HW123845   6.841   0.386   6.273  0.5767 -0.6735  0.9448
 7768SOL    HW223846   6.725   0.458   6.338  0.3011 -0.7617  0.5492
 7769SOL     OW23847   7.281   1.375   6.968 -0.4219  0.1364  0.3035
 7769SOL    HW123848   7.313   1.355   7.056 -0.4775  2.1521  0.8407
 7769SOL    HW223849   7.186   1.381   6.979 -0.5791 -1.0672 -0.2449
 7770SOL     OW23850   0.172   0.099   3.070 -0.3824  0.0089 -0.4178
 7770SOL    HW123851   0.220   0.054   3.139 -1.1691 -0.0859  0.0799
 7770SOL    HW223852   0.218   0.076   2.989  0.7477  0.3959  0.1034
 7771SOL     OW23853   0.530   6.457   7.459 -0.1106  0.7404  0.3138
 7771SOL    HW123854   0.464   6.487   7.396 -0.1528 -2.0167 -1.0988
 7771SOL    HW223855   0.506   6.366   7.478  2.5472  0.0418  0.7245
 7772SOL     OW23856   0.714   3.873   6.917 -0.6738  0.0049  0.7572
 7772SOL    HW123857   0.652   3.943   6.941 -0.5031 -0.0085  1.2414
 7772SOL    HW223858   0.673   3.793   6.949 -2.1945 -0.5132 -2.1570
 7773SOL     OW23859   4.477   0.849   6.109  0.3768  0.4533  0.1429
 7773SOL    HW123860   4.411   0.806   6.054  0.1567  0.5078  0.3593
 7773SOL    HW223861   4.465   0.810   6.196  0.6510  0.4425  0.1752
 7774SOL     OW23862   4.774   5.696   3.684  0.0621 -0.2375  0.1904
 7774SOL    HW123863   4.857   5.716   3.728  0.0641  0.0705  0.0522
 7774SOL    HW223864   4.719   5.773   3.701 -0.2971 -0.5715  0.5306
 7775SOL     OW23865   6.860   6.166   6.730 -0.2494  0.0181  0.7977
 7775SOL    HW123866   6.778   6.145   6.774 -0.5734 -1.0367 -0.2429
 7775SOL    HW223867   6.908   6.220   6.792 -0.7222 -1.3146  2.3680
 7776SOL     OW23868   1.061   0.062   3.986 -0.1799  0.3313 -0.8470
 7776SOL    HW123869   1.151   0.031   3.995  0.6235  2.3646 -1.4321
 7776SOL    HW223870   1.038   0.041   3.896 -0.7867 -1.3232 -0.3428
 7777SOL     OW23871   6.544   5.933   6.663  0.0125  0.6449 -0.2535
 7777SOL    HW123872   6.569   5.999   6.727 -3.0294  0.2913  1.5228
 7777SOL    HW223873   6.504   5.982   6.592  0.5088  0.8577 -0.3900
 7778SOL     OW23874   1.263   5.638   4.054 -0.0938 -0.4610 -0.4939
 7778SOL    HW123875   1.276   5.712   3.995 -0.9331  0.0986 -0.0024
 7778SOL    HW223876   1.342   5.636   4.108 -0.5293  0.7634  0.2133
 7779SOL     OW23877   1.203   1.988   0.460 -0.1902 -0.0532  0.3696
 7779SOL    HW123878   1.212   2.066   0.514  0.2924  0.6952 -0.7591
 7779SOL    HW223879   1.137   2.011   0.394  0.9245 -0.0811 -0.8045
 7780SOL     OW23880   6.415   2.438   4.394  0.0581 -0.0009 -0.1953
 7780SOL    HW123881   6.425   2.390   4.477 -2.5383  0.9850  0.7741
 7780SOL    HW223882   6.428   2.371   4.327  0.9045 -1.1112  1.0059
 7781SOL     OW23883   4.136   1.214   3.318  0.0628 -0.0738 -0.0153
 7781SOL    HW123884   4.070   1.147   3.300  0.3411 -0.1042 -0.9524
 7781SOL    HW223885   4.140   1.266   3.238  2.4953 -1.1799 -0.7180
 7782SOL     OW23886   3.003   4.456   5.966  0.1304  0.0540 -0.0176
 7782SOL    HW123887   3.093   4.452   6.000 -0.7021 -3.1869  2.3235
 7782SOL    HW223888   3.013   4.440   5.872  2.0462  0.3129  0.0985
 7783SOL     OW23889   5.152   0.383   4.957  0.5225 -0.1315 -0.3516
 7783SOL    HW123890   5.075   0.326   4.968  0.5637 -0.0095  0.5759
 7783SOL    HW223891   5.167   0.383   4.862 -0.9579  0.2887 -0.6086
 7784SOL     OW23892   1.278   5.922   1.375 -0.0427 -0.1817 -0.1361
 7784SOL    HW123893   1.360   5.888   1.340  1.3545  1.6493  1.1525
 7784SOL    HW223894   1.254   5.994   1.315  0.6810  0.9158  0.8494
 7785SOL     OW23895   7.577   4.298   5.855 -0.3144 -0.6420 -0.2166
 7785SOL    HW123896   7.643   4.366   5.845 -1.6997  0.7253 -0.6038
 7785SOL    HW223897   7.575   4.279   5.948  0.1108 -0.1478 -0.1028
 7786SOL     OW23898   7.597   3.961   0.409  0.0583  0.1426 -0.1706
 7786SOL    HW123899   7.582   4.021   0.336  2.4506  0.2918 -0.6355
 7786SOL    HW223900   7.657   4.008   0.467  1.7734 -1.5886 -0.4075
 7787SOL     OW23901   3.676   3.805   3.005 -0.3290 -0.3088 -0.1216
 7787SOL    HW123902   3.718   3.865   3.067  2.2080 -1.3358 -0.7170
 7787SOL    HW223903   3.609   3.761   3.057 -0.9992  1.6809  0.7946
 7788SOL     OW23904   6.343   6.817   3.179  0.1962 -0.0228  0.6947
 7788SOL    HW123905   6.354   6.722   3.169 -1.6423 -0.2739  0.7164
 7788SOL    HW223906   6.266   6.826   3.236  1.2988  1.4975  2.0277
 7789SOL     OW23907   1.711   1.333   2.275 -0.6500  0.0528 -0.1278
 7789SOL    HW123908   1.723   1.324   2.369  0.3683  0.6098 -0.1949
 7789SOL    HW223909   1.775   1.399   2.248  2.4646 -3.2996 -1.8941
 7790SOL     OW23910   1.153   6.676   2.472 -0.1932 -0.5379  0.4030
 7790SOL    HW123911   1.071   6.677   2.422 -0.6310 -1.3608  1.0760
 7790SOL    HW223912   1.203   6.603   2.435 -0.0762 -0.5043  0.4954
 7791SOL     OW23913   2.047   1.369   1.339  0.0009 -0.3723 -0.3632
 7791SOL    HW123914   2.060   1.368   1.434 -1.4975  1.8566 -0.0831
 7791SOL    HW223915   2.007   1.284   1.320  1.2205 -1.2516  0.8260
 7792SOL     OW23916   3.988   1.772   0.528  0.7743 -0.3252 -0.0698
 7792SOL    HW123917   4.027   1.685   0.521  1.0575 -0.2209  0.1790
 7792SOL    HW223918   4.010   1.801   0.616  2.9395  1.0545 -0.9821
 7793SOL     OW23919   0.767   6.385   4.186 -0.3852  0.0597  0.2961
 7793SOL    HW123920   0.774   6.473   4.223  0.4489 -0.2043  0.8138
 7793SOL    HW223921   0.678   6.379   4.153 -0.3933  1.1651  0.0775
 7794SOL     OW23922   7.340   6.678   0.158 -0.3354  0.0700 -0.7897
 7794SOL    HW123923   7.284   6.604   0.180 -0.7583  0.0355 -1.9304
 7794SOL    HW223924   7.310   6.749   0.214 -0.1718 -0.5009  0.0469
 7795SOL     OW23925   0.874   5.617   6.737 -1.0159 -0.3618 -0.4688
 7795SOL    HW123926   0.863   5.694   6.681 -0.6318 -0.3347 -0.5095
 7795SOL    HW223927   0.949   5.639   6.793  0.9075 -1.7783 -2.3365
 7796SOL     OW23928   0.005   3.686   0.555  0.1418 -0.0183 -0.2103
 7796SOL    HW123929   0.040   3.756   0.499 -1.6456 -0.2653 -1.7400
 7796SOL    HW223930  -0.090   3.701   0.554 -0.0749 -1.1632  1.2548
 7797SOL     OW23931   4.491   0.279   0.425  0.5060 -0.3048  0.1382
 7797SOL    HW123932   4.523   0.291   0.515  0.4263 -0.0385  0.1315
 7797SOL    HW223933   4.401   0.312   0.427  0.9142  0.8582 -0.3337
 7798SOL     OW23934   7.405   3.341   5.040  0.0258  0.0737  0.1732
 7798SOL    HW123935   7.370   3.400   4.973  1.4149  1.8667  0.9338
 7798SOL    HW223936   7.498   3.334   5.018  0.1270 -0.7927  0.8676
 7799SOL     OW23937   4.803   6.558   6.395 -0.1479  0.2618 -0.0902
 7799SOL    HW123938   4.881   6.584   6.347 -1.0427  1.7159 -0.8334
 7799SOL    HW223939   4.737   6.624   6.371 -3.1088 -3.4302 -3.3129
 7800SOL     OW23940   5.875   0.642   2.645  0.0868  0.1549  0.7858
 7800SOL    HW123941   5.863   0.723   2.594  0.5174 -0.5511 -0.4691
 7800SOL    HW223942   5.957   0.657   2.693  0.3282  0.3509  0.3231
 7801SOL     OW23943   7.410   0.923   1.655 -0.6975  0.8696  0.1361
 7801SOL    HW123944   7.402   0.878   1.739  3.2405  1.8135  1.1985
 7801SOL    HW223945   7.466   0.866   1.603 -0.0543  2.0146 -0.4526
 7802SOL     OW23946   4.011   3.389   4.900  0.4576 -0.2579  0.6593
 7802SOL    HW123947   3.994   3.386   4.806  1.4275 -1.4409  0.4999
 7802SOL    HW223948   3.991   3.480   4.925  1.0147  0.3072 -0.8355
 7803SOL     OW23949   0.625   4.814   6.687  0.2224 -0.1199 -0.4242
 7803SOL    HW123950   0.688   4.872   6.728 -0.2173 -0.0314  0.1456
 7803SOL    HW223951   0.669   4.729   6.684 -0.4053 -0.6053  2.0314
 7804SOL     OW23952   5.412   0.337   0.737 -0.1566 -0.3740  0.5515
 7804SOL    HW123953   5.425   0.417   0.789  0.9099 -0.6729  0.7634
 7804SOL    HW223954   5.321   0.342   0.709 -0.5792  0.1240  1.9083
 7805SOL     OW23955   5.866   6.885   3.449  0.2937  0.2371  0.1518
 7805SOL    HW123956   5.799   6.897   3.382  1.0650  0.2168 -0.6457
 7805SOL    HW223957   5.835   6.812   3.502  0.0110 -0.2055 -0.6103
 7806SOL     OW23958   0.083   3.223   2.618  0.0608  0.0047 -0.2289
 7806SOL    HW123959   0.080   3.135   2.581  0.3960 -0.9934  1.9537
 7806SOL    HW223960  -0.005   3.238   2.652  0.6512 -0.5627  1.6441
 7807SOL     OW23961   4.763   2.084   6.671 -0.0872  0.5793  0.0927
 7807SOL    HW123962   4.856   2.083   6.696 -0.2489  1.4324  0.7612
 7807SOL    HW223963   4.716   2.061   6.751 -0.5312  1.7990  0.2007
 7808SOL     OW23964   3.453   1.645   2.961  0.2637  0.3730  0.2933
 7808SOL    HW123965   3.379   1.586   2.944 -0.3146  1.5031 -1.4252
 7808SOL    HW223966   3.444   1.667   3.053  0.9349 -2.7261  1.2222
 7809SOL     OW23967   3.746   0.532   0.371  0.1060 -0.1597  0.5660
 7809SOL    HW123968   3.819   0.580   0.333 -0.2348 -0.7637 -0.9015
 7809SOL    HW223969   3.670   0.587   0.356  0.0860 -0.0167  1.1510
 7810SOL     OW23970   3.924   6.615   2.326 -0.2741 -0.0343  0.1741
 7810SOL    HW123971   3.922   6.702   2.366  1.5655  0.5301 -0.8207
 7810SOL    HW223972   3.900   6.630   2.234 -2.3776 -0.9932  0.5068
 7811SOL     OW23973   3.848   2.672   4.624 -0.5386 -0.1560  0.0619
 7811SOL    HW123974   3.809   2.694   4.709  0.2871  2.6630 -0.1945
 7811SOL    HW223975   3.799   2.595   4.595 -1.1962 -0.9003  2.8258
 7812SOL     OW23976   5.798   5.070   1.945 -0.1517 -0.2296 -0.5349
 7812SOL    HW123977   5.741   5.118   1.884 -0.5786  0.0858  0.0982
 7812SOL    HW223978   5.879   5.121   1.946 -0.1155 -0.2765 -0.8952
 7813SOL     OW23979   5.783   2.649   7.342 -0.0530  0.1285  0.3230
 7813SOL    HW123980   5.806   2.609   7.258 -0.7744 -0.1864  0.2660
 7813SOL    HW223981   5.722   2.587   7.382  0.1672  0.3514  1.0122
 7814SOL     OW23982   0.087   6.583   5.880  0.4146 -0.5553  0.1544
 7814SOL    HW123983   0.068   6.494   5.911  0.6746 -0.8755 -0.5952
 7814SOL    HW223984   0.012   6.634   5.908  0.3735 -0.9582  0.8098
 7815SOL     OW23985   3.377   1.865   1.463  0.1550  0.2397  0.3181
 7815SOL    HW123986   3.416   1.935   1.411 -3.0155  1.4575 -0.6222
 7815SOL    HW223987   3.390   1.786   1.410 -1.4860  1.1741 -1.5822
 7816SOL     OW23988   1.070   6.885   3.520 -0.0822 -0.4167  0.3694
 7816SOL    HW123989   1.057   6.955   3.456 -1.3935 -1.6057 -0.7275
 7816SOL    HW223990   1.148   6.839   3.489  0.4421  0.1765  0.7685
 7817SOL     OW23991   6.423   4.656   5.391 -0.1868 -0.0818  0.5023
 7817SOL    HW123992   6.500   4.697   5.352  0.4574 -0.8134  0.9574
 7817SOL    HW223993   6.354   4.667   5.326  0.0183  1.4852  0.5131
 7818SOL     OW23994   0.200   6.216   5.517  0.2556  0.0790 -0.5264
 7818SOL    HW123995   0.188   6.122   5.502 -0.4077 -0.0056  0.4510
 7818SOL    HW223996   0.168   6.231   5.605  3.6854  0.5924  0.8050
 7819SOL     OW23997   0.678   2.105   3.618  0.3784  0.3751  0.0619
 7819SOL    HW123998   0.621   2.155   3.561  0.1948  1.6917  1.3458
 7819SOL    HW223999   0.669   2.146   3.704  1.8800 -0.5089  0.6931
 7820SOL     OW24000   1.059   7.515   0.285  0.5433 -0.1020 -0.1318
 7820SOL    HW124001   1.014   7.466   0.353  0.8146 -0.6638 -0.3469
 7820SOL    HW224002   1.042   7.465   0.205  1.9591 -0.6096 -0.1351
 7821SOL     OW24003   4.272   3.591   1.977  0.3827  0.2697  0.3213
 7821SOL    HW124004   4.271   3.630   2.064  0.3318  1.2850 -0.1300
 7821SOL    HW224005   4.333   3.644   1.926  1.9483 -1.4845  0.2380
 7822SOL     OW24006   5.810   1.691   5.997 -0.6219 -0.0458  0.0946
 7822SOL    HW124007   5.825   1.695   5.903 -0.5427 -0.7421  0.0686
 7822SOL    HW224008   5.797   1.782   6.024 -0.4584  0.1736 -0.5557
 7823SOL     OW24009   5.054   1.859   5.822  0.1754  0.1441  0.1272
 7823SOL    HW124010   5.028   1.889   5.909  1.7171  0.8587  0.3812
 7823SOL    HW224011   5.094   1.936   5.781  0.3508 -0.4413 -0.8419
 7824SOL     OW24012   4.485   3.517   1.534 -0.9668  0.1641 -0.0578
 7824SOL    HW124013   4.580   3.531   1.538 -0.9969  0.7987 -1.1313
 7824SOL    HW224014   4.475   3.423   1.546 -0.2126  0.1138  0.2695
 7825SOL     OW24015   1.795   5.310   2.689 -0.1351 -0.4845  0.8137
 7825SOL    HW124016   1.870   5.333   2.744 -0.3839  0.9939  0.5719
 7825SOL    HW224017   1.800   5.370   2.615  0.0709 -2.3065 -0.7190
 7826SOL     OW24018   7.018   4.099   1.089 -0.0632  0.1472 -0.2368
 7826SOL    HW124019   7.014   4.103   1.184  0.7074  2.0732 -0.2435
 7826SOL    HW224020   6.947   4.155   1.059  0.1046  0.0730 -0.7903
 7827SOL     OW24021   6.676   7.331   6.524  0.0298  0.1245  0.2032
 7827SOL    HW124022   6.620   7.281   6.465  1.1540  0.2659 -1.0523
 7827SOL    HW224023   6.736   7.378   6.465  0.7971  0.7586  1.4492
 7828SOL     OW24024   4.051   5.849   5.831 -0.2643  0.0467  0.0620
 7828SOL    HW124025   4.028   5.805   5.913  0.7091  0.9269  0.8267
 7828SOL    HW224026   4.079   5.778   5.773  0.2612 -0.4585  0.9105
 7829SOL     OW24027   0.383   6.378   0.487 -0.2370 -0.0414  0.2445
 7829SOL    HW124028   0.322   6.324   0.537 -1.5278  1.4621  0.3562
 7829SOL    HW224029   0.354   6.468   0.502  1.0295  0.6131 -1.0041
 7830SOL     OW24030   7.525   2.341   4.909 -0.2445  0.1692 -0.6513
 7830SOL    HW124031   7.540   2.432   4.931  0.6755 -0.0539 -0.3155
 7830SOL    HW224032   7.541   2.335   4.815  0.2306  0.2415 -0.5727
 7831SOL     OW24033   3.316   1.212   6.313 -0.7293  0.0713  0.3544
 7831SOL    HW124034   3.298   1.298   6.275  0.7723  0.6801  0.9273
 7831SOL    HW224035   3.274   1.150   6.254  0.7729  1.0154 -1.8346
 7832SOL     OW24036   5.167   0.049   0.851  0.4426 -0.4150  0.2876
 7832SOL    HW124037   5.241   0.110   0.855 -1.1510  1.7701 -1.2794
 7832SOL    HW224038   5.093   0.099   0.885 -0.9734 -1.3769 -1.2226
 7833SOL     OW24039   0.343   0.070   3.320 -0.0293  0.5672  0.0988
 7833SOL    HW124040   0.312   0.050   3.409 -1.0237 -2.2923 -0.7993
 7833SOL    HW224041   0.431   0.033   3.317 -1.5032 -3.3305 -1.2501
 7834SOL     OW24042   7.403   1.272   6.732 -0.1761 -0.1258 -0.0518
 7834SOL    HW124043   7.354   1.309   6.805  0.0613  1.4982 -0.6708
 7834SOL    HW224044   7.478   1.331   6.721  0.4077 -0.9985 -0.8711
 7835SOL     OW24045   0.840   7.207   7.584  0.0196 -0.0905 -0.1308
 7835SOL    HW124046   0.795   7.199   7.500 -1.7334  1.9695  0.5373
 7835SOL    HW224047   0.927   7.240   7.562 -0.7080  1.2541 -1.1237
 7836SOL     OW24048   2.424   5.844   3.156  0.2024 -0.0039  0.0604
 7836SOL    HW124049   2.494   5.909   3.168 -1.4342  1.6439  1.2377
 7836SOL    HW224050   2.375   5.875   3.081 -0.7419  0.2957  0.7841
 7837SOL     OW24051   5.968   4.653   1.218  0.2944  0.0803  0.1465
 7837SOL    HW124052   5.990   4.746   1.227 -2.2384  0.7218  0.3259
 7837SOL    HW224053   6.024   4.610   1.282  1.5866  1.4369  0.0064
 7838SOL     OW24054   4.892   0.491   2.434 -0.1545 -0.0221 -0.1651
 7838SOL    HW124055   4.891   0.457   2.345 -0.0546 -0.2269 -0.0882
 7838SOL    HW224056   4.860   0.419   2.488 -0.5543  0.2174 -0.0725
 7839SOL     OW24057   0.817   5.041   1.789  0.4031 -0.6928 -0.4507
 7839SOL    HW124058   0.824   5.045   1.885  0.4261  1.2049 -0.5015
 7839SOL    HW224059   0.906   5.055   1.758 -0.1709  3.2223 -0.7619
 7840SOL     OW24060   7.139   0.017   6.501 -0.6217  0.5433  0.0510
 7840SOL    HW124061   7.066   0.035   6.560 -1.5677  2.9261 -1.6748
 7840SOL    HW224062   7.168  -0.071   6.524 -1.3405  1.0979  3.5569
 7841SOL     OW24063   2.670   7.434   1.777  0.3043  0.1262  0.2376
 7841SOL    HW124064   2.666   7.467   1.687 -0.3315  0.4083  0.3613
 7841SOL    HW224065   2.733   7.491   1.821 -0.0427  0.5491  0.1927
 7842SOL     OW24066   4.569   4.987   0.727  0.1880 -0.3068  0.0161
 7842SOL    HW124067   4.606   4.929   0.659  1.7284 -0.3632  0.8552
 7842SOL    HW224068   4.578   4.937   0.808  0.5582  0.6925  0.6059
 7843SOL     OW24069   1.090   6.517   3.781 -0.3511 -0.2536  0.1971
 7843SOL    HW124070   1.055   6.598   3.818 -1.4813 -0.4971 -0.3104
 7843SOL    HW224071   1.029   6.494   3.711  0.7093 -0.8116 -0.5846
 7844SOL     OW24072   4.303   6.067   4.528 -0.2438  0.6494 -0.0985
 7844SOL    HW124073   4.358   6.132   4.483 -2.1261  1.0473 -2.0270
 7844SOL    HW224074   4.324   5.984   4.485  2.1409 -0.1572  2.3490
 7845SOL     OW24075   1.893   6.647   0.102 -0.3599  0.2656  0.3698
 7845SOL    HW124076   1.880   6.742   0.102 -2.0250  0.1194  2.9128
 7845SOL    HW224077   1.825   6.613   0.160  1.3787 -2.3210  1.0611
 7846SOL     OW24078   1.057   5.156   2.319  0.1335  0.4649 -0.4524
 7846SOL    HW124079   1.132   5.185   2.267 -0.1232  0.9975 -0.5318
 7846SOL    HW224080   1.090   5.084   2.371  1.2632  1.9784  1.0310
 7847SOL     OW24081   6.172   2.562   6.487  0.4306 -0.4498  0.1216
 7847SOL    HW124082   6.120   2.507   6.428  1.0274 -2.0033  0.9585
 7847SOL    HW224083   6.240   2.503   6.520  1.3459  0.9233  0.7905
 7848SOL     OW24084   0.523   0.660   6.068 -0.6132 -0.4958 -0.1926
 7848SOL    HW124085   0.478   0.688   5.988 -1.2993  1.9811  0.9644
 7848SOL    HW224086   0.608   0.705   6.064 -0.1863 -1.2712 -0.0403
 7849SOL     OW24087   7.616   0.011   1.730 -0.1145  0.5875 -0.1859
 7849SOL    HW124088   7.576  -0.076   1.728  1.2195 -0.0411 -2.0581
 7849SOL    HW224089   7.684   0.004   1.797  1.0547 -0.3701 -1.4159
 7850SOL     OW24090   4.398   0.132   2.840 -0.0529 -0.2344  0.3060
 7850SOL    HW124091   4.378   0.103   2.751  0.3482 -1.7790  0.6918
 7850SOL    HW224092   4.343   0.078   2.896 -1.7620  2.0456  0.9693
 7851SOL     OW24093   2.223   4.382   7.339  0.2405  0.2315 -0.2206
 7851SOL    HW124094   2.316   4.379   7.361  0.3363 -0.2100 -0.6791
 7851SOL    HW224095   2.180   4.406   7.421  0.9250  2.5116 -0.4527
 7852SOL     OW24096   2.720   1.764   6.107 -0.2967  0.5160  0.5633
 7852SOL    HW124097   2.733   1.730   6.019 -0.9183 -0.4197  0.8203
 7852SOL    HW224098   2.794   1.733   6.157 -0.2608  0.5308  0.5194
 7853SOL     OW24099   2.661   7.353   3.760  0.3940 -0.0465 -0.1555
 7853SOL    HW124100   2.572   7.320   3.764 -0.1100  1.1613 -0.8181
 7853SOL    HW224101   2.709   7.302   3.826 -0.8281 -0.5511  0.3720
 7854SOL     OW24102   7.404   6.112   4.486 -0.1469  0.0399 -0.0166
 7854SOL    HW124103   7.462   6.150   4.552  0.5659 -0.9178 -0.0673
 7854SOL    HW224104   7.325   6.164   4.491 -0.5922 -0.7360  2.4463
 7855SOL     OW24105   2.915   2.316   1.914  0.2964 -0.0152  0.2318
 7855SOL    HW124106   2.954   2.297   1.829  0.1078  0.2302  0.0885
 7855SOL    HW224107   2.845   2.253   1.924  1.6064 -1.4050  1.1197
 7856SOL     OW24108   5.272   0.084   5.427  0.0496 -0.5659  0.1192
 7856SOL    HW124109   5.361   0.120   5.432  0.0523 -0.6818  1.2174
 7856SOL    HW224110   5.285  -0.009   5.407  0.0585 -0.1280 -2.2294
 7857SOL     OW24111   4.279   4.040   2.385  0.0150 -1.0887 -0.0914
 7857SOL    HW124112   4.235   4.088   2.316 -0.8785 -2.1344 -0.2903
 7857SOL    HW224113   4.372   4.045   2.364 -0.2803 -1.8123 -1.6616
 7858SOL     OW24114   2.958   5.948   2.823  0.3553 -0.2155 -0.1334
 7858SOL    HW124115   2.902   5.938   2.746  0.2122 -1.0520  0.0629
 7858SOL    HW224116   2.911   5.902   2.893  0.9005 -0.2375  0.2311
 7859SOL     OW24117   5.910   5.277   3.488 -0.0589  0.7166  0.0753
 7859SOL    HW124118   5.924   5.314   3.575 -0.6377  0.2245  0.3844
 7859SOL    HW224119   5.915   5.352   3.429  0.9466  0.9672  0.4630
 7860SOL     OW24120   3.978   3.666   6.780  0.1824 -0.3158 -0.0525
 7860SOL    HW124121   4.053   3.720   6.806  0.5323  0.0112 -1.6269
 7860SOL    HW224122   4.017   3.580   6.761  0.0046 -0.4140  0.0231
 7861SOL     OW24123   3.878   1.858   1.646  0.0951 -0.1059 -0.2656
 7861SOL    HW124124   3.848   1.920   1.579 -0.0876 -0.8944 -0.9322
 7861SOL    HW224125   3.860   1.902   1.729 -0.7398  0.4138 -0.7035
 7862SOL     OW24126   1.347   3.503   6.114 -0.0477 -0.5626  0.3708
 7862SOL    HW124127   1.358   3.584   6.065  1.7550 -0.3120  1.1051
 7862SOL    HW224128   1.344   3.530   6.206  0.9157 -1.3180  0.6440
 7863SOL     OW24129   2.260   3.137   4.776 -0.3329 -0.2833 -0.0411
 7863SOL    HW124130   2.216   3.129   4.860  2.5229 -0.8067  1.5270
 7863SOL    HW224131   2.311   3.057   4.768  0.7301  0.4949 -1.5039
 7864SOL     OW24132   0.570   2.437   3.228  0.3009 -0.4993 -0.7916
 7864SOL    HW124133   0.551   2.529   3.245  0.2862 -0.4862 -0.8827
 7864SOL    HW224134   0.665   2.433   3.219  0.2411 -0.3726 -1.5348
 7865SOL     OW24135   7.459   0.714   4.996  0.1844  0.6414  0.1391
 7865SOL    HW124136   7.439   0.806   4.979  1.1395  1.1781  1.6685
 7865SOL    HW224137   7.376   0.676   5.024 -0.1062  1.1814  0.0236
 7866SOL     OW24138   7.153   1.494   5.141  0.0714  0.6227  0.3376
 7866SOL    HW124139   7.105   1.411   5.145  1.4428 -0.2679 -0.6491
 7866SOL    HW224140   7.125   1.533   5.058  3.0665 -1.3256 -1.8251
 7867SOL     OW24141   0.778   2.641   5.563 -0.6102 -0.2673  0.4942
 7867SOL    HW124142   0.762   2.713   5.502  0.0064 -2.3332 -2.3120
 7867SOL    HW224143   0.714   2.654   5.633 -1.0993  2.4545 -0.3373
 7868SOL     OW24144   0.722   7.474   0.008 -0.3289  0.5924  0.2270
 7868SOL    HW124145   0.727   7.379   0.014 -0.7146  0.6358  1.5149
 7868SOL    HW224146   0.754   7.494  -0.080  1.4234 -0.6019  0.5349
 7869SOL     OW24147   7.096   2.872   1.389  0.3211  0.2312 -0.9021
 7869SOL    HW124148   7.011   2.916   1.388 -0.4275 -1.1815 -0.5554
 7869SOL    HW224149   7.115   2.859   1.481 -0.4127 -1.9151 -1.0155
 7870SOL     OW24150   3.236   1.393   6.767  0.6797  0.3475  0.1917
 7870SOL    HW124151   3.150   1.426   6.793 -0.3739 -1.3868 -0.8604
 7870SOL    HW224152   3.287   1.471   6.747  0.0843  1.5206  2.8406
 7871SOL     OW24153   2.652   4.208   0.122 -0.2076  0.0984 -0.0525
 7871SOL    HW124154   2.574   4.199   0.176  0.5724 -1.9591  0.8423
 7871SOL    HW224155   2.652   4.130   0.067 -0.1299  1.3702 -1.9277
 7872SOL     OW24156   2.853   0.234   5.469  0.0821  0.7215  0.1483
 7872SOL    HW124157   2.854   0.138   5.460  1.1701  0.8688 -1.8315
 7872SOL    HW224158   2.868   0.249   5.562  1.5959 -1.0297  0.2442
 7873SOL     OW24159   7.104   3.238   1.397 -0.1260  0.2518  0.2948
 7873SOL    HW124160   7.166   3.240   1.324  0.4925 -0.2968  0.7967
 7873SOL    HW224161   7.024   3.202   1.359  0.1471  0.1007 -0.1489
 7874SOL     OW24162   2.070   2.059   7.419  0.4158  0.3575 -0.0300
 7874SOL    HW124163   2.099   2.001   7.489 -1.3979 -0.3736  0.1577
 7874SOL    HW224164   2.017   2.126   7.463 -1.3418 -0.5082 -0.7115
 7875SOL     OW24165   1.577   1.589   5.060  0.2675  0.5168  0.4142
 7875SOL    HW124166   1.504   1.555   5.113 -0.2863  0.9562 -0.0459
 7875SOL    HW224167   1.598   1.673   5.101 -0.6080  1.1733 -0.4349
 7876SOL     OW24168   4.045   0.557   1.050  0.0193 -0.1091 -0.5293
 7876SOL    HW124169   4.048   0.650   1.030 -0.1329 -0.0267 -0.1772
 7876SOL    HW224170   4.130   0.523   1.022 -0.2754 -0.0520 -1.5483
 7877SOL     OW24171   5.390   7.107   7.548 -0.6044 -0.1801  0.1941
 7877SOL    HW124172   5.380   7.192   7.591  3.1490  0.5278  0.0002
 7877SOL    HW224173   5.461   7.120   7.484  0.4970 -3.5457  0.5126
 7878SOL     OW24174   4.669   6.853   6.895  0.1921  0.5827 -0.3593
 7878SOL    HW124175   4.610   6.906   6.841  0.4262 -0.7382 -1.9589
 7878SOL    HW224176   4.612   6.812   6.960 -0.3449  0.8314 -0.6703
 7879SOL     OW24177   3.802   3.482   1.495  0.2154 -0.3259  0.0249
 7879SOL    HW124178   3.743   3.406   1.496  0.5763 -0.6058  0.4557
 7879SOL    HW224179   3.883   3.448   1.457  0.5421 -0.2828  0.6771
 7880SOL     OW24180   5.836   4.457   1.704  0.0952  0.5504  0.2580
 7880SOL    HW124181   5.871   4.499   1.782  0.9028 -0.4817  0.4751
 7880SOL    HW224182   5.904   4.396   1.677 -1.5448 -1.6298  0.7501
 7881SOL     OW24183   2.717   0.293   0.495  0.1902 -0.9645 -0.1512
 7881SOL    HW124184   2.743   0.242   0.418 -1.7992 -1.0071 -0.8611
 7881SOL    HW224185   2.659   0.235   0.544 -0.2227 -0.2138  0.2794
 7882SOL     OW24186   5.280   5.788   7.437 -0.3408 -0.4996  0.3429
 7882SOL    HW124187   5.368   5.754   7.453 -0.2167  0.3588  1.6063
 7882SOL    HW224188   5.283   5.823   7.348  0.6740 -0.2370  0.4745
 7883SOL     OW24189   2.362   5.394   2.192  0.2182  0.4932  0.0019
 7883SOL    HW124190   2.416   5.449   2.249  0.4067 -0.6547  0.9684
 7883SOL    HW224191   2.295   5.358   2.250  1.6622 -2.3836  0.0459
 7884SOL     OW24192   5.383   1.978   5.853 -0.4539 -0.0653  0.3098
 7884SOL    HW124193   5.385   1.883   5.867  0.8425  0.3597  4.0889
 7884SOL    HW224194   5.464   1.997   5.805  0.0693 -0.7228  0.9112
 7885SOL     OW24195   7.037   1.221   7.481 -0.0994  0.2783 -0.8172
 7885SOL    HW124196   6.996   1.226   7.395 -0.9216 -1.1690 -0.5355
 7885SOL    HW224197   7.107   1.156   7.471 -0.6061 -0.3772 -0.2634
 7886SOL     OW24198   4.587   1.313   3.292  0.8625  0.0992  0.3784
 7886SOL    HW124199   4.548   1.293   3.377 -1.4809  0.7894 -0.4461
 7886SOL    HW224200   4.575   1.407   3.281  1.5356  0.0981 -0.5302
 7887SOL     OW24201   3.154   3.607   1.496  0.3539 -0.0839 -0.6847
 7887SOL    HW124202   3.131   3.639   1.583  1.1613  1.8212 -1.1251
 7887SOL    HW224203   3.213   3.534   1.513 -0.4219 -0.4985  0.3556
 7888SOL     OW24204   4.891   6.935   6.259  0.1256 -0.3515 -0.5241
 7888SOL    HW124205   4.864   6.867   6.196 -1.0333  0.5000 -0.9805
 7888SOL    HW224206   4.809   6.974   6.288  0.7295  0.1107  0.5937
 7889SOL     OW24207   2.211   2.547   4.141  0.1302  0.2673  0.0209
 7889SOL    HW124208   2.189   2.469   4.192 -1.7106  0.1267 -0.9021
 7889SOL    HW224209   2.298   2.530   4.107 -0.7713 -2.0743 -1.3290
 7890SOL     OW24210   1.931   3.778   0.403 -0.5176 -0.2955  0.4931
 7890SOL    HW124211   1.914   3.748   0.493 -2.7263 -0.3353  0.1221
 7890SOL    HW224212   2.008   3.834   0.411  0.2333 -1.4564  2.1514
 7891SOL     OW24213   5.531   4.186   2.875  0.1661  0.1386 -0.4966
 7891SOL    HW124214   5.516   4.110   2.932  0.3505 -1.9430 -3.0236
 7891SOL    HW224215   5.611   4.225   2.908  0.0915 -0.7695  0.8699
 7892SOL     OW24216   5.281   6.227   2.807 -0.6090 -0.1817 -0.4426
 7892SOL    HW124217   5.359   6.280   2.822  0.2949 -1.5187 -0.2050
 7892SOL    HW224218   5.240   6.220   2.894 -0.1924 -0.6402 -0.2715
 7893SOL     OW24219   4.567   2.676   2.728 -0.0099 -0.6310 -0.0347
 7893SOL    HW124220   4.611   2.744   2.779 -0.3526 -0.6746  0.3167
 7893SOL    HW224221   4.535   2.614   2.793 -0.6796 -0.5532 -0.2863
 7894SOL     OW24222   5.302   1.957   6.471  0.6745  0.2694 -0.4127
 7894SOL    HW124223   5.252   1.905   6.533 -0.7746 -1.2555 -2.7011
 7894SOL    HW224224   5.387   1.914   6.466 -0.2675 -1.5544 -1.7477
 7895SOL     OW24225   5.758   2.452   0.100  0.5252 -0.1974 -0.1635
 7895SOL    HW124226   5.687   2.469   0.162  1.6155  1.9550  0.6097
 7895SOL    HW224227   5.755   2.358   0.084 -1.2198 -0.4541  1.4033
 7896SOL     OW24228   5.419   6.263   7.436 -0.0488  0.4677  0.0953
 7896SOL    HW124229   5.426   6.219   7.351 -1.4438 -1.1204  0.7398
 7896SOL    HW224230   5.500   6.241   7.481 -0.1946 -0.4838 -0.0689
 7897SOL     OW24231   1.425   0.244   5.486  0.7190  0.1523 -0.0563
 7897SOL    HW124232   1.441   0.247   5.580  0.7785  0.6967 -0.0819
 7897SOL    HW224233   1.330   0.250   5.477  0.7556  0.7958 -0.0550
 7898SOL     OW24234   4.372   1.558   4.739  0.3867 -0.6657  0.1611
 7898SOL    HW124235   4.326   1.635   4.772 -0.4444 -0.9689 -0.2555
 7898SOL    HW224236   4.460   1.589   4.719 -0.6595  0.8754 -2.5639
 7899SOL     OW24237   3.138   0.832   3.252 -0.3038  0.0233 -0.0667
 7899SOL    HW124238   3.088   0.803   3.328  0.0207 -1.9299 -0.5455
 7899SOL    HW224239   3.073   0.877   3.197 -1.0214 -0.4769  0.3586
 7900SOL     OW24240   4.127   1.282   7.221  0.5216  0.2103 -0.2707
 7900SOL    HW124241   4.172   1.352   7.269 -0.2504  0.1597  0.5562
 7900SOL    HW224242   4.065   1.328   7.164 -2.1957  0.2559  2.4407
 7901SOL     OW24243   7.174   6.747   4.046 -0.4945 -0.4115  0.1495
 7901SOL    HW124244   7.187   6.653   4.033  0.2310 -0.3587  0.4721
 7901SOL    HW224245   7.208   6.764   4.134 -1.3195  0.0204  0.3951
 7902SOL     OW24246   6.842   4.798   3.949 -0.8150 -0.6321  0.1476
 7902SOL    HW124247   6.786   4.869   3.982 -1.3066 -1.1874  0.5251
 7902SOL    HW224248   6.928   4.839   3.939 -0.8645 -0.2165  1.2777
 7903SOL     OW24249   2.358   0.204   4.899  0.5344 -0.0298  0.2028
 7903SOL    HW124250   2.269   0.195   4.865 -0.2888  0.3128  2.1897
 7903SOL    HW224251   2.405   0.249   4.829 -2.1487  4.7102  1.0223
 7904SOL     OW24252   0.834   0.711   4.630  0.5349 -0.0157 -0.6098
 7904SOL    HW124253   0.774   0.785   4.624 -1.7251 -1.6958  0.0044
 7904SOL    HW224254   0.914   0.748   4.668 -0.6790  1.9972  0.1349
 7905SOL     OW24255   7.361   6.124   7.523  0.8615 -0.4336 -0.9032
 7905SOL    HW124256   7.443   6.162   7.556  0.9737 -1.4797  0.0643
 7905SOL    HW224257   7.388   6.051   7.468  0.6092  0.1710 -1.8506
 7906SOL     OW24258   5.930   2.478   4.357 -0.7005 -0.0350 -0.3788
 7906SOL    HW124259   5.969   2.516   4.279  0.1074 -0.6040 -0.2630
 7906SOL    HW224260   5.993   2.497   4.427  0.5339 -2.8634 -0.5780
 7907SOL     OW24261   5.207   3.116   2.793  0.3573 -0.2340 -0.1598
 7907SOL    HW124262   5.276   3.152   2.737  1.6843  0.1892  1.6609
 7907SOL    HW224263   5.206   3.023   2.772  2.3219 -0.4638  0.5685
 7908SOL     OW24264   3.373   4.588   7.490 -0.4241  0.1974  0.0669
 7908SOL    HW124265   3.354   4.540   7.409  1.6953 -0.5790 -0.0384
 7908SOL    HW224266   3.468   4.597   7.490 -0.6331  4.3655  0.1597
 7909SOL     OW24267   1.518   4.728   6.087  0.6576 -0.3712 -0.2687
 7909SOL    HW124268   1.526   4.817   6.053  1.3621  0.2830  1.4919
 7909SOL    HW224269   1.426   4.705   6.071  0.0036  1.3314  0.6933
 7910SOL     OW24270   0.744   5.582   4.807 -0.0464 -0.0800 -0.1099
 7910SOL    HW124271   0.798   5.512   4.844  1.4329  0.2795 -1.4940
 7910SOL    HW224272   0.761   5.578   4.713 -1.5763  0.7916 -0.4532
 7911SOL     OW24273   1.761   2.572   3.352 -0.4693 -0.1088 -0.0394
 7911SOL    HW124274   1.696   2.639   3.373 -2.0705 -1.6773  0.2644
 7911SOL    HW224275   1.782   2.587   3.260  1.2407  2.4208  0.6813
 7912SOL     OW24276   7.155   6.629   5.296  0.3505 -0.7040 -0.5695
 7912SOL    HW124277   7.184   6.643   5.206  0.9588 -2.3711 -0.6608
 7912SOL    HW224278   7.071   6.584   5.288  0.2857 -0.6317 -0.3121
 7913SOL     OW24279   1.676   1.888   3.886  0.2581 -0.3438 -0.3451
 7913SOL    HW124280   1.747   1.866   3.825  1.5257 -0.8933  1.2422
 7913SOL    HW224281   1.707   1.967   3.930 -0.1479 -0.5449  0.3061
 7914SOL     OW24282   5.970   5.106   0.452  0.1582  0.0534 -0.1484
 7914SOL    HW124283   5.940   5.074   0.367 -1.7668  2.0499 -0.2831
 7914SOL    HW224284   6.059   5.070   0.461 -0.5207 -2.2865 -1.8154
 7915SOL     OW24285   3.436   0.153   1.570  0.2718 -0.2250  0.1680
 7915SOL    HW124286   3.378   0.177   1.642  1.2256 -1.5405  1.4343
 7915SOL    HW224287   3.437   0.230   1.513  0.4744  1.3616  2.2034
 7916SOL     OW24288   0.151   0.998   2.006  0.0205  0.4210  0.1789
 7916SOL    HW124289   0.156   0.972   1.914 -0.8869  1.0008 -0.0473
 7916SOL    HW224290   0.242   1.015   2.031  0.0984  2.6712 -1.3273
 7917SOL     OW24291   3.176   5.169   5.670 -0.7527 -0.6540 -0.5982
 7917SOL    HW124292   3.213   5.257   5.682  0.0161 -1.1884  1.3094
 7917SOL    HW224293   3.251   5.115   5.645 -0.0199 -1.7714  3.4082
 7918SOL     OW24294   4.463   0.987   0.651 -0.1516  0.6172  0.1681
 7918SOL    HW124295   4.524   0.929   0.697 -1.3391 -0.4113  0.5295
 7918SOL    HW224296   4.516   1.032   0.586  1.2994  1.0143  1.5703
 7919SOL     OW24297   7.151   5.023   5.020  0.0297 -0.3696 -0.1601
 7919SOL    HW124298   7.179   4.962   4.951 -1.0433  0.0481 -0.9943
 7919SOL    HW224299   7.107   4.967   5.084  0.3368 -0.6628 -0.2023
 7920SOL     OW24300   4.621   6.041   0.629 -0.3811 -0.2026  0.1393
 7920SOL    HW124301   4.649   6.046   0.721 -2.2889  1.7984  0.6961
 7920SOL    HW224302   4.691   6.082   0.580 -0.6595  1.4787  1.0819
 7921SOL     OW24303   3.870   6.580   5.855 -0.1751 -0.3173  0.2681
 7921SOL    HW124304   3.777   6.586   5.878 -1.3408  1.8056 -3.9345
 7921SOL    HW224305   3.876   6.501   5.801  1.3030 -2.2568  3.0533
 7922SOL     OW24306   4.122   5.840   0.006 -0.1441 -0.1596  0.2781
 7922SOL    HW124307   4.149   5.883  -0.075 -0.3854  0.1499  0.3620
 7922SOL    HW224308   4.201   5.837   0.060  0.0459 -0.4661 -0.0088
 7923SOL     OW24309   1.043   5.210   1.748 -0.1370  0.0404 -0.0622
 7923SOL    HW124310   1.073   5.280   1.690  3.4942  1.3212  2.9292
 7923SOL    HW224311   0.987   5.255   1.811 -0.0801 -0.2912  0.2259
 7924SOL     OW24312   6.559   3.475   5.186  0.0103  0.2934 -0.1954
 7924SOL    HW124313   6.544   3.453   5.094  0.0167  0.2392 -0.1837
 7924SOL    HW224314   6.570   3.570   5.187 -2.0829  0.5840  0.0098
 7925SOL     OW24315   6.525   1.859   1.174  0.0679  0.1166  0.3438
 7925SOL    HW124316   6.483   1.783   1.133 -0.4077  1.2619 -1.3896
 7925SOL    HW224317   6.615   1.857   1.141  0.7471 -0.9208  2.0959
 7926SOL     OW24318   3.635   6.490   7.099  0.0574 -0.3356 -0.0817
 7926SOL    HW124319   3.559   6.485   7.041 -1.3401  0.7953  1.5487
 7926SOL    HW224320   3.696   6.549   7.054 -0.6189 -0.1603 -0.7841
 7927SOL     OW24321   0.728   0.518   7.595  0.3952 -0.0582  0.3668
 7927SOL    HW124322   0.799   0.457   7.616 -0.1678 -0.4696  1.1347
 7927SOL    HW224323   0.755   0.558   7.512  1.8375  0.2769  0.9593
 7928SOL     OW24324   6.925   4.290   3.655 -0.0485  0.0234 -0.4933
 7928SOL    HW124325   6.892   4.362   3.709  0.7771 -0.2144  0.3385
 7928SOL    HW224326   6.941   4.219   3.716 -0.4639 -0.7525 -1.2564
 7929SOL     OW24327   3.338   5.084   4.823  0.0122 -0.2981 -0.0356
 7929SOL    HW124328   3.271   5.015   4.818 -1.0444  0.7586 -1.2299
 7929SOL    HW224329   3.344   5.104   4.916 -2.4191  0.5340  0.0235
 7930SOL     OW24330   6.646   1.714   0.698 -0.1549 -0.6176  0.0098
 7930SOL    HW124331   6.586   1.787   0.682  0.8531  0.4726  1.0160
 7930SOL    HW224332   6.620   1.679   0.784  1.4737  0.7675  1.1234
 7931SOL     OW24333   6.437   3.969   4.080 -0.5214  0.3636  0.1528
 7931SOL    HW124334   6.357   4.020   4.094 -0.9232 -0.4441  0.9080
 7931SOL    HW224335   6.479   4.011   4.005 -1.0838  1.4870  0.4383
 7932SOL     OW24336   1.652   1.694   4.504  0.4753  0.3345  0.2182
 7932SOL    HW124337   1.609   1.649   4.576 -0.0693 -0.0665 -0.3500
 7932SOL    HW224338   1.603   1.775   4.493  0.5813  0.4131  0.3188
 7933SOL     OW24339   5.271   2.206   7.209  0.5360  0.0117  0.1639
 7933SOL    HW124340   5.197   2.185   7.265  2.1594 -0.3028  2.3284
 7933SOL    HW224341   5.313   2.121   7.193  0.5937  0.2194 -0.8335
 7934SOL     OW24342   2.668   7.259   7.247  0.0553  0.9381 -0.4357
 7934SOL    HW124343   2.719   7.197   7.195 -2.1545 -0.3680 -1.1425
 7934SOL    HW224344   2.667   7.222   7.335 -0.3926  0.5019 -0.6215
 7935SOL     OW24345   2.671   3.779   1.939 -0.5151 -0.0163 -0.1533
 7935SOL    HW124346   2.681   3.873   1.953 -0.5029  0.0543 -0.6225
 7935SOL    HW224347   2.577   3.765   1.933 -0.5461 -0.1264  0.5154
 7936SOL     OW24348   4.985   7.530   1.640  0.0893 -0.0764  0.2347
 7936SOL    HW124349   5.077   7.521   1.665  0.2632  1.5115  0.2510
 7936SOL    HW224350   4.984   7.600   1.575 -1.3077  1.2967  1.6332
 7937SOL     OW24351   5.078   3.274   0.475  0.0909  0.4070  0.2554
 7937SOL    HW124352   4.993   3.296   0.437 -0.0526  0.5743  0.6686
 7937SOL    HW224353   5.078   3.316   0.561  0.0162 -0.7680  0.8546
 7938SOL     OW24354   1.442   6.608   6.154 -0.2636 -0.3622  0.2180
 7938SOL    HW124355   1.503   6.536   6.168 -1.4962 -1.9602 -2.0614
 7938SOL    HW224356   1.380   6.602   6.228  0.3191 -0.8695  0.6742
 7939SOL     OW24357   1.502   6.621   3.600  0.0723  0.1611  0.2659
 7939SOL    HW124358   1.418   6.662   3.578  0.5124  0.3216 -1.2386
 7939SOL    HW224359   1.518   6.646   3.691 -2.2544 -1.1821  1.1350
 7940SOL     OW24360   4.761   0.616   2.086 -0.1899 -0.7786  0.0541
 7940SOL    HW124361   4.778   0.546   2.023  0.5569  0.8744 -1.6802
 7940SOL    HW224362   4.668   0.635   2.076  0.1960  0.4409 -1.6970
 7941SOL     OW24363   6.622   1.817   7.256 -0.2859  0.4968  0.0557
 7941SOL    HW124364   6.686   1.761   7.300  0.3865  1.1925  0.0001
 7941SOL    HW224365   6.611   1.778   7.169  0.2153  0.4737 -0.0004
 7942SOL     OW24366   7.596   0.104   7.042 -0.3841 -0.4295 -0.6180
 7942SOL    HW124367   7.620   0.089   6.950 -0.8961 -2.1014 -0.5226
 7942SOL    HW224368   7.514   0.057   7.053  0.7740 -2.1996  1.2323
 7943SOL     OW24369   0.076   7.310   4.719  0.4585 -0.2912  0.4046
 7943SOL    HW124370   0.048   7.221   4.699 -0.2039 -0.0300  0.1545
 7943SOL    HW224371   0.043   7.327   4.807 -1.8861  0.6868 -0.5937
 7944SOL     OW24372   1.449   1.305   2.652  0.1294  0.0224 -0.3523
 7944SOL    HW124373   1.365   1.328   2.612 -0.7564 -1.1762  0.7296
 7944SOL    HW224374   1.441   1.212   2.672  0.7562  0.4190  2.0064
 7945SOL     OW24375   0.049   1.055   3.690 -0.2053 -0.2471  0.0301
 7945SOL    HW124376   0.140   1.032   3.707  0.0462 -0.8174 -1.8842
 7945SOL    HW224377   0.009   0.974   3.659 -0.6926  0.5663 -1.5718
 7946SOL     OW24378   2.349   6.100   0.653 -0.1441 -0.1528  0.4212
 7946SOL    HW124379   2.327   6.141   0.569  1.0440 -0.9041 -0.2860
 7946SOL    HW224380   2.394   6.019   0.629  0.9439  0.0092  1.7847
 7947SOL     OW24381   0.538   4.525   0.731 -0.3901 -0.3423 -0.2347
 7947SOL    HW124382   0.579   4.490   0.652 -0.4448 -1.3169  0.1477
 7947SOL    HW224383   0.458   4.473   0.741 -1.4561  1.1533 -0.6615
 7948SOL     OW24384   6.314   3.431   2.580 -0.3607  0.5899  0.5282
 7948SOL    HW124385   6.254   3.503   2.603 -1.8879  0.4070 -2.4103
 7948SOL    HW224386   6.282   3.356   2.630 -0.3603  1.3141  1.6526
 7949SOL     OW24387   6.175   7.195   1.378 -0.2131 -0.3569  0.1464
 7949SOL    HW124388   6.198   7.216   1.469 -0.3970 -2.0726  0.6203
 7949SOL    HW224389   6.080   7.185   1.378 -0.0544 -2.4044  0.2835
 7950SOL     OW24390   0.413   4.031   2.808  0.5896 -0.2927  0.0813
 7950SOL    HW124391   0.475   3.960   2.825  0.3176 -0.1513  1.8576
 7950SOL    HW224392   0.415   4.084   2.888 -0.9771  0.3522 -0.2788
 7951SOL     OW24393   0.133   0.195   5.236  0.2000 -0.0835  0.3009
 7951SOL    HW124394   0.145   0.116   5.184 -0.4441 -0.6487  0.9886
 7951SOL    HW224395   0.060   0.240   5.193 -0.0153 -0.3100  0.4261
 7952SOL     OW24396   2.975   2.558   0.915  0.0497  0.0298  0.9497
 7952SOL    HW124397   3.027   2.483   0.942 -0.3703  0.1964  2.2782
 7952SOL    HW224398   2.907   2.566   0.981 -2.2315 -0.6898 -1.1805
 7953SOL     OW24399   7.353   4.053   7.351  0.0857 -0.4313 -0.9421
 7953SOL    HW124400   7.283   4.072   7.289 -0.4488 -2.3935 -1.0196
 7953SOL    HW224401   7.318   3.984   7.407  1.4175 -0.3843  0.0166
 7954SOL     OW24402   0.200   2.350   4.857  0.2178 -0.1660  0.2349
 7954SOL    HW124403   0.119   2.395   4.880 -0.0762  0.2418 -1.5190
 7954SOL    HW224404   0.181   2.257   4.869 -1.0812 -0.2041 -1.7312
 7955SOL     OW24405   4.743   7.465   1.539  0.0184 -0.0629  0.0171
 7955SOL    HW124406   4.782   7.465   1.451 -1.6450  0.7370 -0.7720
 7955SOL    HW224407   4.817   7.471   1.598  1.1348  0.5714 -1.3844
 7956SOL     OW24408   3.149   2.317   0.957 -0.2470 -0.5836  0.0074
 7956SOL    HW124409   3.226   2.261   0.951 -0.2099 -0.6621  1.0880
 7956SOL    HW224410   3.119   2.308   1.047 -0.8828  0.2980 -0.1004
 7957SOL     OW24411   3.014   2.625   3.754  0.2936 -0.2550 -0.4333
 7957SOL    HW124412   3.089   2.567   3.768  1.4512  0.9020 -1.5662
 7957SOL    HW224413   3.043   2.710   3.786 -0.7392  0.1043 -0.4153
 7958SOL     OW24414   6.993   5.036   7.119  0.2115 -0.0751 -0.6725
 7958SOL    HW124415   6.964   4.982   7.046  0.5823 -0.7282 -0.3481
 7958SOL    HW224416   7.049   5.103   7.079  1.0330 -0.8888 -0.9088
 7959SOL     OW24417   4.769   3.971   5.873 -0.3692  0.4098 -0.0127
 7959SOL    HW124418   4.715   3.928   5.806 -0.6305 -0.6235  0.8331
 7959SOL    HW224419   4.727   4.056   5.887 -0.5987  0.4319 -0.7910
 7960SOL     OW24420   5.583   6.017   0.318  0.1882  0.0735  0.2399
 7960SOL    HW124421   5.548   5.929   0.332 -2.3653  0.6747 -1.7283
 7960SOL    HW224422   5.666   6.003   0.273 -1.4932 -1.4181 -2.7001
 7961SOL     OW24423   4.520   3.779   3.577  0.0698  0.0503  0.1693
 7961SOL    HW124424   4.444   3.736   3.539  0.2339 -0.5013  0.4573
 7961SOL    HW224425   4.549   3.841   3.509 -1.9572  1.9379  0.8961
 7962SOL     OW24426   7.245   2.571   3.867  0.2193  0.4154  0.2195
 7962SOL    HW124427   7.234   2.544   3.958  2.7692 -1.3251  0.0999
 7962SOL    HW224428   7.180   2.521   3.818  0.7340 -0.8249  0.7765
 7963SOL     OW24429   2.321   4.743   2.013  0.1568  0.3700  0.2483
 7963SOL    HW124430   2.283   4.721   1.928  0.0642 -1.4152  0.7082
 7963SOL    HW224431   2.349   4.834   2.004  0.4762  0.1184 -1.8130
 7964SOL     OW24432   5.826   3.905   4.781  0.1244  0.2785 -0.4247
 7964SOL    HW124433   5.855   3.950   4.860 -0.7980 -0.7459  0.5429
 7964SOL    HW224434   5.864   3.817   4.788 -1.2973 -0.3581 -0.2514
 7965SOL     OW24435   3.815   4.940   1.959 -0.4828 -0.1371 -0.1686
 7965SOL    HW124436   3.891   4.926   2.016 -0.3437 -2.5440 -0.8294
 7965SOL    HW224437   3.795   4.853   1.925 -1.7967  0.9067 -2.2444
 7966SOL     OW24438   7.246   0.814   0.493 -0.1214 -0.3029  0.0943
 7966SOL    HW124439   7.192   0.866   0.552 -0.7959 -0.4588 -0.3677
 7966SOL    HW224440   7.246   0.862   0.411 -0.4211 -0.8283 -0.2192
 7967SOL     OW24441   6.916   4.477   3.446  0.5175 -0.1739 -0.3915
 7967SOL    HW124442   6.836   4.493   3.396  0.4541  1.8342  0.2745
 7967SOL    HW224443   6.889   4.422   3.519 -0.6798  2.0079  0.8752
 7968SOL     OW24444   3.139   6.419   4.637 -0.0181 -0.4077 -0.0696
 7968SOL    HW124445   3.125   6.369   4.717 -2.2895 -0.5671 -0.5166
 7968SOL    HW224446   3.052   6.433   4.601  0.7797  1.4571 -1.4498
 7969SOL     OW24447   4.588   1.244   4.149  0.1207 -0.5106 -0.2624
 7969SOL    HW124448   4.638   1.232   4.068 -0.3384 -1.0834 -0.4642
 7969SOL    HW224449   4.603   1.165   4.199 -0.0490 -0.3976 -0.0304
 7970SOL     OW24450   0.522   4.599   2.801 -0.0905 -0.3460 -0.2276
 7970SOL    HW124451   0.553   4.518   2.842 -0.8127 -0.0085  1.0657
 7970SOL    HW224452   0.589   4.621   2.737  1.2472 -0.7858  0.9587
 7971SOL     OW24453   2.079   5.777   3.520 -0.2633  0.4706 -0.2212
 7971SOL    HW124454   2.167   5.757   3.489 -0.6520 -2.5328  0.3445
 7971SOL    HW224455   2.029   5.794   3.440  0.1512 -1.0477 -0.8462
 7972SOL     OW24456   2.046   5.453   5.394  0.4675 -0.1108  0.1506
 7972SOL    HW124457   2.074   5.422   5.480 -0.3200  0.6552  0.7114
 7972SOL    HW224458   2.106   5.524   5.373 -0.3187  0.7860  0.8377
 7973SOL     OW24459   3.068   4.778   5.915  0.1129  0.3732  0.3426
 7973SOL    HW124460   3.057   4.839   5.987  1.5252  0.8949  0.1326
 7973SOL    HW224461   3.160   4.753   5.917  0.0536 -0.0528 -0.9164
 7974SOL     OW24462   0.360   0.512   4.706  0.0292  0.3950 -0.4316
 7974SOL    HW124463   0.276   0.499   4.748 -0.4533  0.0789 -1.4752
 7974SOL    HW224464   0.359   0.604   4.679  0.2256  0.5248  0.0044
 7975SOL     OW24465   4.067   7.478   5.884  0.3422  0.3556 -0.7073
 7975SOL    HW124466   4.082   7.467   5.790 -1.5165 -0.7864 -0.9102
 7975SOL    HW224467   3.972   7.469   5.895  0.6476 -0.9246  1.4547
 7976SOL     OW24468   2.478   3.940   0.564  0.4635  0.3363  0.1126
 7976SOL    HW124469   2.429   3.858   0.570 -1.1447  0.9704 -2.6808
 7976SOL    HW224470   2.538   3.928   0.491  1.2855  1.1738  0.6113
 7977SOL     OW24471   7.294   1.309   1.593 -0.0743 -0.5382 -0.2646
 7977SOL    HW124472   7.220   1.302   1.654 -0.3148  0.6544 -0.3953
 7977SOL    HW224473   7.363   1.256   1.634 -0.9625 -1.6230 -0.1085
 7978SOL     OW24474   6.968   2.980   4.962 -0.6874  0.4448 -0.0703
 7978SOL    HW124475   6.873   2.986   4.953 -1.0737 -1.5186  1.7988
 7978SOL    HW224476   6.995   2.926   4.888 -0.8129  2.0194 -1.3126
 7979SOL     OW24477   3.928   4.342   6.524  0.4586 -0.1447 -0.4261
 7979SOL    HW124478   3.998   4.381   6.577 -0.0842 -0.7849  0.8004
 7979SOL    HW224479   3.903   4.411   6.463  1.7874  0.2720 -0.5316
 7980SOL     OW24480   7.376   5.043   6.990 -0.0542 -0.6604 -0.0958
 7980SOL    HW124481   7.297   5.027   7.041 -0.5980 -0.8893 -0.9917
 7980SOL    HW224482   7.364   5.130   6.953 -1.0123 -1.6252 -2.1863
 7981SOL     OW24483   1.675   2.997   4.180 -0.0208 -0.2249 -0.1774
 7981SOL    HW124484   1.627   2.948   4.247 -1.9403  1.4884 -0.2163
 7981SOL    HW224485   1.733   2.932   4.140  0.2573 -1.5913  2.2481
 7982SOL     OW24486   7.045   7.376   1.126 -0.5722 -0.0331 -0.7693
 7982SOL    HW124487   7.104   7.359   1.052  0.7778 -0.3429  0.3305
 7982SOL    HW224488   6.963   7.405   1.085  0.3724  0.5518 -2.3588
 7983SOL     OW24489   5.346   0.923   7.584 -0.1787 -0.4038  0.2669
 7983SOL    HW124490   5.287   0.993   7.614 -0.8256 -0.5506 -0.6089
 7983SOL    HW224491   5.383   0.886   7.665 -2.6765 -1.5150  1.0039
 7984SOL     OW24492   5.751   7.477   6.735  0.2740 -0.2461 -0.1817
 7984SOL    HW124493   5.703   7.474   6.818 -0.7832  2.3533 -0.5894
 7984SOL    HW224494   5.731   7.393   6.693  0.0434 -1.2128  1.7381
 7985SOL     OW24495   1.121   1.320   1.514  0.1993  0.1496 -0.9453
 7985SOL    HW124496   1.100   1.269   1.592  0.6782 -1.3281 -1.7319
 7985SOL    HW224497   1.064   1.396   1.519 -0.7212 -0.5798  0.1757
 7986SOL     OW24498   4.602   3.111   5.940 -0.1017  0.6630 -0.3168
 7986SOL    HW124499   4.692   3.145   5.942 -0.3453  1.3570 -0.7514
 7986SOL    HW224500   4.548   3.185   5.966 -0.4632 -0.1243  1.2648
 7987SOL     OW24501   2.302   5.701   1.326 -0.2165  0.2121 -0.3735
 7987SOL    HW124502   2.391   5.665   1.335  0.5179  2.1466  0.7327
 7987SOL    HW224503   2.269   5.706   1.416 -1.0183  0.5350 -0.6823
 7988SOL     OW24504   3.355   6.201   7.282  0.1923 -0.2906  0.1347
 7988SOL    HW124505   3.445   6.181   7.258  0.9107  2.8483 -0.2443
 7988SOL    HW224506   3.314   6.234   7.202 -2.2363 -3.9863 -0.4040
 7989SOL     OW24507   3.022   4.866   3.763 -0.3501  0.7771  0.1319
 7989SOL    HW124508   3.057   4.857   3.674  0.8676  1.1050  0.5545
 7989SOL    HW224509   3.049   4.954   3.791 -1.0475  0.8254  0.6913
 7990SOL     OW24510   0.712   3.083   5.199  0.5968  0.4557  0.0890
 7990SOL    HW124511   0.748   3.172   5.201  1.9748 -0.0446 -0.9854
 7990SOL    HW224512   0.744   3.046   5.117 -1.1514 -0.5646 -0.1999
 7991SOL     OW24513   3.879   2.474   5.581  0.6465 -0.9129  0.1521
 7991SOL    HW124514   3.863   2.529   5.504  2.1729 -1.7089 -0.7977
 7991SOL    HW224515   3.859   2.385   5.552 -0.5467 -1.0345  1.2744
 7992SOL     OW24516   0.616   7.354   1.186 -0.5178  0.0392  1.0321
 7992SOL    HW124517   0.649   7.323   1.271 -0.3082  0.1337  0.9861
 7992SOL    HW224518   0.669   7.308   1.121 -0.4774  0.1889  0.9583
 7993SOL     OW24519   1.860   3.432   1.199 -0.0221 -0.0418  0.2225
 7993SOL    HW124520   1.784   3.392   1.240 -1.2226  1.6881 -0.1793
 7993SOL    HW224521   1.825   3.508   1.152  2.0773  1.5290  0.9919
 7994SOL     OW24522   2.925   6.397   5.418  0.1117  0.0094  0.8505
 7994SOL    HW124523   2.926   6.471   5.479  2.1096  0.4100  0.4072
 7994SOL    HW224524   2.833   6.371   5.413 -0.3625  1.2037  2.5216
 7995SOL     OW24525   7.504   1.586   7.552 -0.4588  0.3160  0.0691
 7995SOL    HW124526   7.556   1.506   7.543 -1.8103 -0.4924 -0.9745
 7995SOL    HW224527   7.548   1.650   7.495 -0.3576 -0.2194 -0.4610
 7996SOL     OW24528   3.783   4.754   3.505 -0.4202  0.4484  0.9260
 7996SOL    HW124529   3.705   4.750   3.449 -0.5805  0.9267  1.1151
 7996SOL    HW224530   3.773   4.835   3.555  1.5185  2.0355 -1.0169
 7997SOL     OW24531   6.868   2.358   4.360 -0.0088 -0.0135 -0.3671
 7997SOL    HW124532   6.799   2.312   4.312  0.7417 -0.2630 -1.2312
 7997SOL    HW224533   6.827   2.441   4.387 -0.8885 -0.5018 -0.1610
 7998SOL     OW24534   4.147   4.901   3.353  0.1232  0.7863  0.1709
 7998SOL    HW124535   4.124   4.891   3.260  0.8617 -1.2620  0.1590
 7998SOL    HW224536   4.243   4.901   3.354  0.1378 -0.5294  1.0174
 7999SOL     OW24537   0.843   1.606   5.015 -0.4260 -0.0153  0.7456
 7999SOL    HW124538   0.789   1.565   4.947  1.1728 -1.0662  0.0552
 7999SOL    HW224539   0.821   1.699   5.009 -2.0940 -0.3927  0.4610
 8000SOL     OW24540   7.345   4.371   4.129  0.2634  0.1662 -0.4484
 8000SOL    HW124541   7.333   4.379   4.034  1.1370  0.0507 -0.5719
 8000SOL    HW224542   7.394   4.290   4.140 -1.0868 -0.5906  0.2159
 8001SOL     OW24543   4.145   1.308   3.006 -0.2973  0.4005 -0.1550
 8001SOL    HW124544   4.206   1.381   2.993  0.4006 -0.2173 -0.4016
 8001SOL    HW224545   4.196   1.230   2.984 -0.7961 -0.2262  0.8600
 8002SOL     OW24546   5.364   3.129   5.133 -0.2625  0.4133  0.6510
 8002SOL    HW124547   5.393   3.128   5.042  1.0339  1.7759  1.0118
 8002SOL    HW224548   5.304   3.203   5.139 -2.0372 -0.9290  0.4774
 8003SOL     OW24549   7.034   1.989   5.934  0.0569  0.4679 -0.3450
 8003SOL    HW124550   7.034   2.073   5.890 -0.3875  1.7738  1.9841
 8003SOL    HW224551   7.096   2.000   6.007  2.4193 -2.2717 -1.7453
 8004SOL     OW24552   6.677   5.850   7.415 -0.4186  0.4636 -0.3567
 8004SOL    HW124553   6.759   5.901   7.414 -0.7543  1.1809  2.0554
 8004SOL    HW224554   6.660   5.835   7.508 -1.7580 -1.8289 -0.9018
 8005SOL     OW24555   7.254   5.537   7.077  0.5315 -0.6530 -0.2961
 8005SOL    HW124556   7.257   5.525   7.171  1.6498 -1.8279 -0.4561
 8005SOL    HW224557   7.346   5.545   7.050  0.2059  3.4189 -0.9024
 8006SOL     OW24558   1.105   2.099   6.962 -0.1731 -0.4694  0.3424
 8006SOL    HW124559   1.021   2.144   6.963 -0.8464 -1.7102  1.1658
 8006SOL    HW224560   1.085   2.009   6.988  1.2693 -1.0314 -0.3851
 8007SOL     OW24561   3.433   4.340   0.355 -0.0997 -0.6584 -0.3773
 8007SOL    HW124562   3.413   4.406   0.422  0.2291 -0.3613 -0.5733
 8007SOL    HW224563   3.491   4.384   0.294  0.3210 -1.2057 -0.3780
 8008SOL     OW24564   4.229   7.520   4.304  0.5441  0.2376 -0.3861
 8008SOL    HW124565   4.214   7.613   4.322  0.3740 -0.1744  1.8402
 8008SOL    HW224566   4.178   7.502   4.225  1.8972  2.3782 -1.8805
 8009SOL     OW24567   3.032   5.210   0.441 -0.0339  0.2672  0.4299
 8009SOL    HW124568   3.007   5.282   0.383 -0.9375 -1.1358 -1.0244
 8009SOL    HW224569   2.956   5.151   0.440 -0.2351  0.3411  3.3968
 8010SOL     OW24570   2.517   0.405   5.600 -0.2822 -0.0845  0.2903
 8010SOL    HW124571   2.466   0.432   5.677 -0.3132 -0.3981  0.3817
 8010SOL    HW224572   2.608   0.413   5.628 -0.2100  2.0627 -0.4007
 8011SOL     OW24573   2.505   4.754   7.310 -0.4536 -0.1733  0.4227
 8011SOL    HW124574   2.479   4.665   7.288  1.0231 -0.0482 -2.3222
 8011SOL    HW224575   2.544   4.747   7.397 -1.0988 -2.0390  0.5963
 8012SOL     OW24576   4.544   1.087   5.441  0.3170  0.1146 -0.9083
 8012SOL    HW124577   4.541   1.093   5.536 -3.0882 -0.6424 -0.8387
 8012SOL    HW224578   4.539   1.178   5.411 -0.2993  0.2676 -0.3513
 8013SOL     OW24579   0.102   5.734   2.575  0.0796 -1.0124  0.1190
 8013SOL    HW124580   0.154   5.750   2.654  2.1465  0.7905 -1.4930
 8013SOL    HW224581   0.023   5.787   2.588  1.8638  1.9939 -0.3002
 8014SOL     OW24582   7.325   4.832   5.135 -0.5416 -0.5007  0.4056
 8014SOL    HW124583   7.388   4.889   5.090  0.2018 -1.0786  0.6987
 8014SOL    HW224584   7.269   4.892   5.185 -0.1328  0.0023  0.2644
 8015SOL     OW24585   3.289   4.567   6.558  0.6512 -0.0347 -0.1121
 8015SOL    HW124586   3.224   4.544   6.625  2.7190 -2.4951  1.2079
 8015SOL    HW224587   3.247   4.543   6.475 -0.6561 -0.1986  0.5661
 8016SOL     OW24588   1.409   0.947   6.146  0.4294 -0.0612  0.2837
 8016SOL    HW124589   1.435   0.970   6.057 -1.3416  0.8769 -0.0458
 8016SOL    HW224590   1.316   0.925   6.139 -0.0126  1.0374  2.0397
 8017SOL     OW24591   0.338   5.877   3.104 -0.1898  0.0917  0.3603
 8017SOL    HW124592   0.411   5.839   3.056 -0.8437  1.2304 -1.6340
 8017SOL    HW224593   0.268   5.886   3.039 -1.6367  0.3684  1.8705
 8018SOL     OW24594   0.018   0.510   5.783  0.1862  0.2519  0.0302
 8018SOL    HW124595   0.023   0.573   5.712 -0.1548  0.1492 -0.0900
 8018SOL    HW224596   0.033   0.561   5.862  1.2086  0.2552 -0.1593
 8019SOL     OW24597   3.495   4.952   2.951  0.0660  0.7615  0.0250
 8019SOL    HW124598   3.556   4.974   2.881  1.7489 -1.0993  0.7999
 8019SOL    HW224599   3.546   4.897   3.011 -2.2609 -0.5692  0.9304
 8020SOL     OW24600   2.033   1.300   4.492 -0.2246  0.3883  0.6578
 8020SOL    HW124601   1.949   1.261   4.517 -1.3041 -0.4531 -3.4764
 8020SOL    HW224602   2.011   1.389   4.465  0.9894  1.5168  3.0873
 8021SOL     OW24603   5.361   0.408   1.427 -0.0329 -0.5781 -0.0548
 8021SOL    HW124604   5.452   0.380   1.414  0.6392  0.7212  1.4689
 8021SOL    HW224605   5.368   0.488   1.479 -2.0777 -0.9506  0.8944
 8022SOL     OW24606   2.325   1.680   4.209  0.0241 -0.1583  0.2354
 8022SOL    HW124607   2.413   1.657   4.179 -0.4890  1.1111 -2.4836
 8022SOL    HW224608   2.307   1.619   4.280  2.9005 -0.7545  0.5611
 8023SOL     OW24609   3.256   6.462   3.586  0.4698 -0.6476  0.4078
 8023SOL    HW124610   3.217   6.405   3.652  1.2594 -1.2269  0.3876
 8023SOL    HW224611   3.191   6.467   3.516 -0.2125 -0.3376  1.0444
 8024SOL     OW24612   4.711   2.201   1.922 -0.2092 -0.5860  0.9098
 8024SOL    HW124613   4.686   2.187   2.013 -0.3407 -0.4084  0.9016
 8024SOL    HW224614   4.805   2.218   1.925 -0.2934 -0.1333  1.0615
 8025SOL     OW24615   1.461   4.844   6.779 -0.0695  0.2976  0.2429
 8025SOL    HW124616   1.415   4.786   6.840 -0.8981 -0.0266 -0.6623
 8025SOL    HW224617   1.497   4.912   6.835 -2.1162  0.8696  0.9783
 8026SOL     OW24618   7.111   6.312   6.888 -0.2843 -0.2841  0.1705
 8026SOL    HW124619   7.175   6.373   6.925 -0.9563  1.2127 -1.0053
 8026SOL    HW224620   7.165   6.242   6.851  0.5163 -0.3971  1.4771
 8027SOL     OW24621   3.914   4.807   0.732  0.3761 -0.2342  0.1077
 8027SOL    HW124622   3.931   4.719   0.765  1.2557 -0.3633 -0.6609
 8027SOL    HW224623   3.877   4.794   0.645  1.1540  0.1589 -0.2902
 8028SOL     OW24624   7.133   3.687   2.452  0.2010  0.0015  0.7186
 8028SOL    HW124625   7.162   3.682   2.361 -0.0677  0.1611  0.6239
 8028SOL    HW224626   7.203   3.735   2.496  1.1007 -1.4407  0.9246
 8029SOL     OW24627   4.465   1.588   2.154  0.0605  0.0007  0.5064
 8029SOL    HW124628   4.437   1.666   2.105 -1.1253 -0.4822  0.3704
 8029SOL    HW224629   4.384   1.554   2.192  0.6744 -0.7730  1.1483
 8030SOL     OW24630   1.551   7.195   3.259 -0.1431 -0.1673 -0.0471
 8030SOL    HW124631   1.617   7.184   3.189  2.2871 -0.2137  2.0987
 8030SOL    HW224632   1.512   7.281   3.240  1.5392  0.5256 -0.6597
 8031SOL     OW24633   3.225   6.036   6.091  0.1275  0.0765  0.4552
 8031SOL    HW124634   3.240   5.991   6.175 -1.8068 -0.6012  0.4938
 8031SOL    HW224635   3.154   5.986   6.050  2.0850 -0.5916 -2.3454
 8032SOL     OW24636   0.667   3.115   2.408 -0.6338 -0.4296 -0.0878
 8032SOL    HW124637   0.586   3.078   2.374  0.0522 -0.6841 -1.5021
 8032SOL    HW224638   0.733   3.047   2.394  0.1991  0.4778 -0.7133
 8033SOL     OW24639   3.149   6.613   6.710  0.3352 -0.7298 -0.2176
 8033SOL    HW124640   3.067   6.661   6.721  1.1305  0.4395  0.8867
 8033SOL    HW224641   3.176   6.632   6.621 -0.6269 -1.1904 -0.6178
 8034SOL     OW24642   0.396   0.540   4.417  0.1084  0.1916  0.3303
 8034SOL    HW124643   0.411   0.475   4.486  0.0675 -0.1806 -0.0060
 8034SOL    HW224644   0.451   0.614   4.442 -2.8930  1.7714  2.9717
 8035SOL     OW24645   3.746   3.737   7.455  0.1757  0.1108 -0.1542
 8035SOL    HW124646   3.710   3.706   7.539 -0.0995  0.8771  0.0145
 8035SOL    HW224647   3.705   3.822   7.441  1.4010  0.6939 -0.3045
 8036SOL     OW24648   0.698   5.753   5.051 -0.5605  0.2416  0.3201
 8036SOL    HW124649   0.744   5.828   5.088 -0.4764  0.7110 -0.6965
 8036SOL    HW224650   0.750   5.729   4.974 -2.6529  1.6132 -1.6651
 8037SOL     OW24651   3.063   3.302   0.301 -0.7513  0.1392  0.0255
 8037SOL    HW124652   3.092   3.337   0.216  0.6251 -1.0737 -0.0396
 8037SOL    HW224653   2.975   3.338   0.312 -0.0490  2.3049 -0.7551
 8038SOL     OW24654   2.394   4.845   6.477 -0.2963  0.0255  0.1408
 8038SOL    HW124655   2.432   4.913   6.421 -1.0592  0.8798  0.6412
 8038SOL    HW224656   2.386   4.769   6.420 -1.0395  0.8729 -0.9239
 8039SOL     OW24657   5.727   3.370   1.501 -0.1750  0.0587 -0.0598
 8039SOL    HW124658   5.778   3.310   1.447  0.4852  0.5721 -0.0314
 8039SOL    HW224659   5.793   3.421   1.549 -0.6916 -1.7957  2.9027
 8040SOL     OW24660   6.337   6.072   0.596  0.0533  1.2038  0.6977
 8040SOL    HW124661   6.419   6.108   0.563  0.2867  0.7758  0.7995
 8040SOL    HW224662   6.315   6.125   0.672  0.6344  0.8354  1.1226
 8041SOL     OW24663   0.613   1.641   0.521  0.6467  0.0205 -0.5176
 8041SOL    HW124664   0.565   1.577   0.574  1.1577  0.9271  1.0800
 8041SOL    HW224665   0.705   1.616   0.529  1.2247  2.5423  2.5646
 8042SOL     OW24666   6.270   1.889   2.596  0.1818 -0.4021  0.3155
 8042SOL    HW124667   6.238   1.814   2.646 -1.2951  1.1153  1.7733
 8042SOL    HW224668   6.206   1.900   2.525  0.0838 -0.1974  0.4344
 8043SOL     OW24669   0.128   2.252   7.064  0.2357 -0.6345 -0.5439
 8043SOL    HW124670   0.080   2.223   6.987 -1.3305 -0.3810  0.2977
 8043SOL    HW224671   0.119   2.347   7.064 -1.3535 -0.7393  0.8918
 8044SOL     OW24672   0.437   2.668   3.639 -0.5280  0.0231 -0.3960
 8044SOL    HW124673   0.452   2.702   3.727 -1.5457  2.1531 -0.9793
 8044SOL    HW224674   0.434   2.573   3.650  1.0485  0.1391  1.5704
 8045SOL     OW24675   4.629   1.768   5.302 -0.2100  0.5907 -0.2034
 8045SOL    HW124676   4.610   1.862   5.294 -0.7713  0.4547 -0.4910
 8045SOL    HW224677   4.617   1.733   5.214  1.3686  0.4781 -0.4013
 8046SOL     OW24678   1.022   0.141   3.243 -0.1252 -0.2008 -0.1663
 8046SOL    HW124679   1.022   0.234   3.263  0.0388  0.3578 -2.4686
 8046SOL    HW224680   0.934   0.111   3.267 -0.8849  1.0318 -1.2889
 8047SOL     OW24681   1.672   2.460   6.381  0.0997 -0.1769 -0.4569
 8047SOL    HW124682   1.759   2.442   6.417  0.0520 -0.8952 -0.7022
 8047SOL    HW224683   1.613   2.405   6.432 -0.3331  0.9507  0.2953
 8048SOL     OW24684   0.550   4.038   3.445  0.2167 -0.0247 -0.8336
 8048SOL    HW124685   0.549   4.132   3.427  0.7592  0.0686 -0.4144
 8048SOL    HW224686   0.547   4.032   3.541  2.1592 -0.3646 -0.7563
 8049SOL     OW24687   0.731   2.602   4.129 -0.2880  0.1885 -0.2495
 8049SOL    HW124688   0.735   2.538   4.200  2.1731 -0.1991 -0.6441
 8049SOL    HW224689   0.749   2.686   4.171 -0.1066  0.1437 -0.2398
 8050SOL     OW24690   3.217   0.514   3.405  0.2016 -0.0657  0.6949
 8050SOL    HW124691   3.310   0.534   3.393  0.2892 -1.3402 -1.5053
 8050SOL    HW224692   3.217   0.425   3.439 -0.2131  0.2360  1.4809
 8051SOL     OW24693   5.228   3.308   6.338  0.3501  0.3532 -0.9271
 8051SOL    HW124694   5.162   3.297   6.270 -0.6423 -2.8348  0.3873
 8051SOL    HW224695   5.298   3.248   6.314 -0.8454 -2.3100  1.6461
 8052SOL     OW24696   0.966   3.712   5.449  0.0171  0.1368  0.4150
 8052SOL    HW124697   0.877   3.675   5.443  0.9639 -2.8727  2.3254
 8052SOL    HW224698   1.014   3.671   5.378  0.1359  0.9928 -0.0095
 8053SOL     OW24699   7.064   2.555   6.666  0.1473  0.2353  0.3803
 8053SOL    HW124700   6.984   2.607   6.661 -0.0239  0.0275  0.8966
 8053SOL    HW224701   7.135   2.618   6.655 -0.0986  0.3030 -0.9822
 8054SOL     OW24702   1.899   2.080   1.842 -0.5870 -0.2512  0.1307
 8054SOL    HW124703   1.843   2.005   1.864  0.5999 -0.9764  0.7987
 8054SOL    HW224704   1.909   2.076   1.747  0.7324 -1.9244  0.2900
 8055SOL     OW24705   0.093   2.090   3.225 -0.2599  0.6039  0.1082
 8055SOL    HW124706   0.042   2.117   3.301  0.2820  0.4688  0.5294
 8055SOL    HW224707   0.176   2.058   3.262 -1.4283 -3.2307 -0.1555
 8056SOL     OW24708   2.100   5.227   2.612 -0.0602 -0.1937  0.2819
 8056SOL    HW124709   2.113   5.199   2.702  0.4090  0.5593  0.4631
 8056SOL    HW224710   2.079   5.147   2.564 -0.0687 -0.6355  1.0110
 8057SOL     OW24711   4.542   5.451   5.052  0.0888  0.2388 -0.1300
 8057SOL    HW124712   4.621   5.404   5.026 -0.1156  0.2641 -0.8090
 8057SOL    HW224713   4.553   5.466   5.146  0.5933 -0.3210 -0.0936
 8058SOL     OW24714   7.511   0.591   3.760 -0.0217  0.2239  0.6868
 8058SOL    HW124715   7.517   0.511   3.812  0.5537 -0.0028  0.2858
 8058SOL    HW224716   7.454   0.648   3.811 -0.9137 -0.6490  0.7076
 8059SOL     OW24717   3.071   2.854   2.156 -0.3534  0.0866  0.4967
 8059SOL    HW124718   3.076   2.943   2.190  1.2722 -0.1483  0.9840
 8059SOL    HW224719   3.062   2.799   2.235  0.7402 -0.2829  0.3907
 8060SOL     OW24720   0.999   6.391   4.891  0.1308 -0.0190  0.6269
 8060SOL    HW124721   1.015   6.397   4.986 -1.4814  0.5126  0.8974
 8060SOL    HW224722   0.968   6.302   4.877  0.8790 -0.2685  0.4937
 8061SOL     OW24723   1.319   3.619   7.398  0.1779  0.4205 -0.0078
 8061SOL    HW124724   1.252   3.553   7.380  0.6466 -0.5830  1.7212
 8061SOL    HW224725   1.323   3.672   7.318 -2.7006  0.5703 -0.1443
 8062SOL     OW24726   2.441   5.424   6.888  0.6080 -0.0997  0.1245
 8062SOL    HW124727   2.430   5.331   6.912 -1.1759  0.6224  2.6329
 8062SOL    HW224728   2.535   5.435   6.878  0.8717 -2.1794 -0.2308
 8063SOL     OW24729   1.655   2.064   6.453  0.2885 -0.1904  0.4428
 8063SOL    HW124730   1.744   2.087   6.429  0.4585  0.3457  1.5099
 8063SOL    HW224731   1.647   2.092   6.544 -1.2649  0.6392  0.0884
 8064SOL     OW24732   4.147   4.402   7.430  0.1337 -0.2869  0.4873
 8064SOL    HW124733   4.106   4.318   7.412 -1.0427  0.3577  0.0282
 8064SOL    HW224734   4.189   4.427   7.347 -0.7891  0.2445  0.1615
 8065SOL     OW24735   6.218   4.398   1.599  0.1601  0.1148  0.4624
 8065SOL    HW124736   6.257   4.310   1.605 -1.2551 -0.6167 -0.4031
 8065SOL    HW224737   6.182   4.414   1.686 -0.2857 -0.5295  0.4074
 8066SOL     OW24738   5.299   7.040   6.577  0.0202 -0.1716  1.0072
 8066SOL    HW124739   5.324   6.952   6.549  0.4833 -0.6350  2.7463
 8066SOL    HW224740   5.373   7.095   6.551 -0.2556 -0.2802 -0.0579
 8067SOL     OW24741   0.938   1.533   1.552  0.4740  0.1976 -0.0730
 8067SOL    HW124742   0.860   1.581   1.526  0.3923 -0.1815 -0.5592
 8067SOL    HW224743   1.008   1.569   1.498  0.9390  1.5092  1.3523
 8068SOL     OW24744   0.204   4.075   2.109  0.0961  0.3832 -0.4656
 8068SOL    HW124745   0.258   4.109   2.181  0.8094 -0.7389 -0.4508
 8068SOL    HW224746   0.158   4.152   2.076  0.0659  0.9912  0.9237
 8069SOL     OW24747   2.889   0.986   2.078  0.1113  0.2414  0.4762
 8069SOL    HW124748   2.869   0.990   1.985 -1.4614  1.6913  0.8457
 8069SOL    HW224749   2.827   0.922   2.113 -0.0354  0.5013  0.6964
 8070SOL     OW24750   3.388   5.163   4.190 -0.3052 -0.1658  0.1516
 8070SOL    HW124751   3.319   5.111   4.231 -0.5961  0.6064  0.6569
 8070SOL    HW224752   3.455   5.173   4.257  1.7083 -3.3004 -1.1518
 8071SOL     OW24753   7.392   7.308   3.883  0.2320 -0.2138  0.5218
 8071SOL    HW124754   7.310   7.351   3.907  0.9279  0.7635  1.2319
 8071SOL    HW224755   7.401   7.325   3.789  0.4075  1.0936  0.7512
 8072SOL     OW24756   6.949   1.575   0.312  0.4237 -0.2660 -0.3155
 8072SOL    HW124757   7.002   1.655   0.306 -3.3608  2.4607 -1.1767
 8072SOL    HW224758   6.885   1.594   0.381 -2.5422 -1.1249 -2.5927
 8073SOL     OW24759   4.172   5.773   6.525  0.0328 -0.5264 -0.0950
 8073SOL    HW124760   4.130   5.687   6.534  1.7657 -1.4294 -0.2623
 8073SOL    HW224761   4.251   5.767   6.578 -0.5061  1.4905  1.0707
 8074SOL     OW24762   7.186   1.828   2.406  0.3099 -0.2199 -0.2397
 8074SOL    HW124763   7.118   1.800   2.467  1.8701 -3.7940  0.1300
 8074SOL    HW224764   7.268   1.799   2.446  1.7618  0.8675 -2.2327
 8075SOL     OW24765   4.141   7.190   5.896 -0.3051  0.3991  0.3069
 8075SOL    HW124766   4.056   7.186   5.851  1.3057  2.5081 -3.4466
 8075SOL    HW224767   4.195   7.126   5.850  1.2789  2.2762 -0.6342
 8076SOL     OW24768   7.393   6.395   3.495  0.4707  0.1436  0.0161
 8076SOL    HW124769   7.411   6.483   3.462  0.6413 -0.0439 -0.4043
 8076SOL    HW224770   7.434   6.337   3.431 -0.1683 -0.2558 -0.0468
 8077SOL     OW24771   4.352   7.088   1.937 -0.1711  0.2669 -0.2722
 8077SOL    HW124772   4.430   7.115   1.986 -1.2741  0.9557  1.1643
 8077SOL    HW224773   4.281   7.093   2.001 -1.1915 -1.6467 -1.1850
 8078SOL     OW24774   6.499   6.339   6.956 -0.2004  0.5118  0.8387
 8078SOL    HW124775   6.417   6.386   6.938 -0.2382  0.7098  1.5023
 8078SOL    HW224776   6.537   6.384   7.031  1.2132  1.2921 -0.2793
 8079SOL     OW24777   6.436   5.313   2.407  0.4075 -0.1491 -0.0107
 8079SOL    HW124778   6.519   5.305   2.360  1.3422  0.5002  1.4639
 8079SOL    HW224779   6.410   5.223   2.426  1.0926 -0.3404  0.0456
 8080SOL     OW24780   3.872   2.573   6.610  0.5684  0.0718  0.5090
 8080SOL    HW124781   3.777   2.568   6.616  0.5574 -0.0043  0.2868
 8080SOL    HW224782   3.899   2.487   6.576  0.5615  0.7426 -1.2513
 8081SOL     OW24783   1.793   0.353   0.891  0.1908  0.0460  0.2279
 8081SOL    HW124784   1.819   0.297   0.817 -0.5161 -0.7555  0.5754
 8081SOL    HW224785   1.733   0.417   0.852  2.0795  1.5089 -0.4529
 8082SOL     OW24786   5.314   3.532   0.748 -0.0553  0.0927  0.2219
 8082SOL    HW124787   5.378   3.594   0.785 -0.6565  1.9983 -1.7339
 8082SOL    HW224788   5.359   3.492   0.674 -1.0220  1.4518 -1.1734
 8083SOL     OW24789   3.027   1.590   0.129  0.5110 -0.2841  0.3806
 8083SOL    HW124790   3.023   1.686   0.139  0.0044  0.0350 -2.0765
 8083SOL    HW224791   2.995   1.556   0.212 -0.2200  1.7016  0.9897
 8084SOL     OW24792   6.402   5.709   6.271 -0.4344 -0.4764 -0.2987
 8084SOL    HW124793   6.489   5.681   6.245 -0.5623 -1.5736  0.3819
 8084SOL    HW224794   6.403   5.804   6.263  0.9364 -0.4502  0.0762
 8085SOL     OW24795   1.558   3.377   1.216  0.1450  0.1661 -0.4052
 8085SOL    HW124796   1.509   3.333   1.146  2.3363 -0.7970 -1.4335
 8085SOL    HW224797   1.491   3.407   1.278 -1.5747 -3.3397 -0.3744
 8086SOL     OW24798   1.896   5.623   2.995 -0.1913 -0.2528 -0.6642
 8086SOL    HW124799   1.938   5.704   2.965  0.0132  0.0945  0.5095
 8086SOL    HW224800   1.921   5.557   2.930  3.1017 -0.3212  0.5017
 8087SOL     OW24801   6.791   5.495   6.543  0.1598 -0.2002 -0.6059
 8087SOL    HW124802   6.724   5.437   6.577  0.9163 -1.2560 -0.8587
 8087SOL    HW224803   6.759   5.583   6.562 -0.1552 -0.7018  1.4708
 8088SOL     OW24804   4.234   3.348   2.921 -0.2182  0.2076  0.0711
 8088SOL    HW124805   4.201   3.330   2.833 -1.0608  1.0718  0.1884
 8088SOL    HW224806   4.302   3.282   2.935  0.6111  0.6458 -1.5880
 8089SOL     OW24807   7.493   6.485   2.013  0.1338  0.1644  0.3297
 8089SOL    HW124808   7.437   6.540   1.957 -0.6521  0.2633  1.1866
 8089SOL    HW224809   7.504   6.536   2.093  0.9139 -0.1487  0.4265
 8090SOL     OW24810   3.938   6.283   5.369 -0.0388  1.1369  0.4020
 8090SOL    HW124811   3.849   6.292   5.335 -0.2914  0.8983  0.9788
 8090SOL    HW224812   3.983   6.363   5.341 -0.2278  0.9485 -0.4906
 8091SOL     OW24813   0.346   0.249   3.773 -0.0557  0.4057 -0.1613
 8091SOL    HW124814   0.408   0.322   3.780 -0.2221  0.6245 -0.8825
 8091SOL    HW224815   0.334   0.219   3.863 -1.3157  2.3631  0.3741
 8092SOL     OW24816   2.042   7.039   7.519 -0.2877 -0.1331  0.0854
 8092SOL    HW124817   1.987   7.004   7.589 -0.0167 -0.5745  0.0817
 8092SOL    HW224818   1.990   7.109   7.480 -0.7595 -0.4140  0.2102
 8093SOL     OW24819   2.115   4.904   5.388 -0.2200  0.1540 -0.2105
 8093SOL    HW124820   2.092   4.929   5.299  0.2892  2.0276  0.1319
 8093SOL    HW224821   2.057   4.956   5.444  1.0478  0.8070  0.5650
 8094SOL     OW24822   3.516   2.529   5.594  0.3962  0.4715 -0.0203
 8094SOL    HW124823   3.449   2.461   5.604  1.0015  0.0074  1.0219
 8094SOL    HW224824   3.512   2.554   5.501  0.8814 -1.7418 -0.6868
 8095SOL     OW24825   0.735   1.358   2.099  0.0892 -0.1406  0.2523
 8095SOL    HW124826   0.683   1.316   2.030 -1.8239 -1.6411  2.4315
 8095SOL    HW224827   0.822   1.319   2.091 -0.4645 -1.2581 -0.5313
 8096SOL     OW24828   4.766   4.262   4.675  0.1583 -0.6203  0.3910
 8096SOL    HW124829   4.715   4.205   4.734  0.3655 -0.3748  0.8065
 8096SOL    HW224830   4.848   4.277   4.721  0.9240 -1.6123 -0.5969
 8097SOL     OW24831   2.534   0.104   2.311 -0.3676 -0.0772  0.3449
 8097SOL    HW124832   2.446   0.075   2.335 -1.2716  1.3623 -1.0396
 8097SOL    HW224833   2.548   0.183   2.363  0.3248 -0.5690  0.9228
 8098SOL     OW24834   0.836   4.105   1.502  0.6105  0.4374 -0.4969
 8098SOL    HW124835   0.775   4.084   1.430 -1.9670  1.1162  1.3360
 8098SOL    HW224836   0.867   4.193   1.482  0.8427  0.1742 -1.3503
 8099SOL     OW24837   6.259   6.429   2.651  0.4428  0.7149  0.2775
 8099SOL    HW124838   6.230   6.440   2.560  0.4814 -0.7927  0.0498
 8099SOL    HW224839   6.178   6.430   2.702  0.0230 -1.7131 -0.1726
 8100SOL     OW24840   5.308   3.694   7.538  0.7839  0.7774 -0.2794
 8100SOL    HW124841   5.323   3.610   7.580 -1.4301  0.5341  0.1517
 8100SOL    HW224842   5.323   3.678   7.445 -2.7379 -1.0834 -0.7024
 8101SOL     OW24843   0.429   2.967   7.406 -0.4620 -0.0157 -0.2684
 8101SOL    HW124844   0.493   2.900   7.428 -0.1232  0.4089  0.0443
 8101SOL    HW224845   0.462   3.047   7.447  0.9503  1.1936 -3.3996
 8102SOL     OW24846   4.362   3.423   0.188  0.8925 -0.2044 -0.5811
 8102SOL    HW124847   4.396   3.499   0.234 -1.0867  0.6055 -0.3644
 8102SOL    HW224848   4.373   3.444   0.095 -0.3895  0.7474 -0.5401
 8103SOL     OW24849   5.694   2.429   3.395  0.0620 -0.6811  0.1324
 8103SOL    HW124850   5.689   2.383   3.479 -3.0746 -1.7593 -0.5255
 8103SOL    HW224851   5.749   2.372   3.341  1.6449 -0.2603  1.2267
 8104SOL     OW24852   0.135   5.264   3.799 -0.1139 -0.1105 -0.1282
 8104SOL    HW124853   0.181   5.347   3.782 -1.6001  0.4067 -1.9534
 8104SOL    HW224854   0.205   5.199   3.806  1.0818  1.2697  1.3308
 8105SOL     OW24855   2.339   3.228   0.891 -0.0137  0.0372  0.1232
 8105SOL    HW124856   2.352   3.138   0.862  1.0003 -0.0696  0.8458
 8105SOL    HW224857   2.321   3.221   0.985 -1.7880  0.4764 -0.1374
 8106SOL     OW24858   2.742   0.951   0.701 -0.0666 -0.0075 -0.0009
 8106SOL    HW124859   2.815   0.990   0.653  2.0270 -2.4519  1.0098
 8106SOL    HW224860   2.719   1.018   0.766  0.1467  1.4472 -1.3453
 8107SOL     OW24861   1.335   4.047   7.568  0.3261  0.2684  0.4360
 8107SOL    HW124862   1.301   4.136   7.575 -0.6245 -0.0410 -0.1527
 8107SOL    HW224863   1.330   4.026   7.474  1.5156 -0.0368  0.4135
 8108SOL     OW24864   6.015   3.594   1.718  0.6066 -0.2145 -0.3203
 8108SOL    HW124865   6.023   3.507   1.678  1.4344 -0.8328  1.0967
 8108SOL    HW224866   6.105   3.625   1.724  0.3134  0.7759 -0.8341
 8109SOL     OW24867   1.873   1.015   1.766  0.9626  0.0136 -0.1779
 8109SOL    HW124868   1.795   1.050   1.808  1.4542  1.4696 -0.4324
 8109SOL    HW224869   1.906   0.951   1.829 -0.4522 -0.6851 -0.1060
 8110SOL     OW24870   6.706   0.652   2.453  0.3107 -0.4476 -0.2401
 8110SOL    HW124871   6.778   0.624   2.397  0.0838 -1.4162 -0.0703
 8110SOL    HW224872   6.744   0.659   2.540  0.8074  1.6417 -0.5682
 8111SOL     OW24873   6.087   0.131   1.231 -0.2042  0.0743  0.3200
 8111SOL    HW124874   5.999   0.096   1.218 -0.9338  1.4501  1.3374
 8111SOL    HW224875   6.144   0.054   1.226 -1.6894 -1.2389  2.0399
 8112SOL     OW24876   4.307   6.568   5.182 -0.0113 -0.1206 -0.5504
 8112SOL    HW124877   4.350   6.608   5.257 -2.0889  0.4937  0.3951
 8112SOL    HW224878   4.284   6.642   5.126 -2.9718  0.0924  0.7233
 8113SOL     OW24879   3.489   0.576   1.747 -0.4789  0.0613  0.0275
 8113SOL    HW124880   3.456   0.542   1.831 -0.9866  1.0856  0.2596
 8113SOL    HW224881   3.413   0.572   1.689 -1.2222  2.8239  0.6801
 8114SOL     OW24882   4.805   2.022   1.377 -0.2919 -0.5625 -0.1306
 8114SOL    HW124883   4.826   2.066   1.459  0.3422  0.5040 -0.8411
 8114SOL    HW224884   4.792   2.094   1.314 -0.2019 -1.3715 -1.0956
 8115SOL     OW24885   6.883   2.251   5.194 -0.3869 -0.3823  0.7650
 8115SOL    HW124886   6.977   2.249   5.213 -0.5071 -0.7898  1.3670
 8115SOL    HW224887   6.860   2.344   5.198 -0.2375 -0.3691  1.8632
 8116SOL     OW24888   4.199   1.701   0.136 -0.3575 -0.6508 -0.2988
 8116SOL    HW124889   4.174   1.629   0.195  2.1904  0.0825  1.9278
 8116SOL    HW224890   4.140   1.773   0.160 -2.3381 -1.6431 -1.9283
 8117SOL     OW24891   5.429   3.267   4.213 -0.1026 -0.2839  0.2031
 8117SOL    HW124892   5.500   3.297   4.269 -0.0505 -1.9439  1.1073
 8117SOL    HW224893   5.361   3.237   4.274 -2.3361  2.6862 -0.5863
 8118SOL     OW24894   7.361   0.500   0.908 -0.6928  0.2230  0.5117
 8118SOL    HW124895   7.357   0.591   0.937 -0.8797  0.0916  0.9153
 8118SOL    HW224896   7.430   0.461   0.962  0.6894  0.5631 -0.9463
 8119SOL     OW24897   2.946   3.786   2.728  0.3313  0.3985  0.3723
 8119SOL    HW124898   2.940   3.810   2.820 -0.7040  0.5633  0.2735
 8119SOL    HW224899   2.890   3.849   2.683 -0.2984 -0.5447 -0.1995
 8120SOL     OW24900   1.441   1.962   1.129  0.3617  0.1317  0.4010
 8120SOL    HW124901   1.416   1.968   1.037 -0.3666 -0.4295  0.5476
 8120SOL    HW224902   1.456   1.868   1.144  0.2523  0.1919  0.9038
 8121SOL     OW24903   2.742   5.599   1.154  0.2854  0.5743 -0.6410
 8121SOL    HW124904   2.827   5.628   1.121  1.0165 -0.9293 -0.2075
 8121SOL    HW224905   2.761   5.515   1.196 -1.4526  0.1376 -0.6624
 8122SOL     OW24906   2.045   6.217   7.020 -0.1939  0.5215 -0.0040
 8122SOL    HW124907   2.037   6.169   7.102 -1.0731  0.2045 -0.2632
 8122SOL    HW224908   2.105   6.289   7.040  0.2297 -0.0102  0.6948
 8123SOL     OW24909   1.387   6.445   0.701 -0.2054  0.0502  0.1879
 8123SOL    HW124910   1.348   6.516   0.650 -0.2825  0.3507  0.6556
 8123SOL    HW224911   1.389   6.370   0.641 -0.9569  0.1972 -0.0286
 8124SOL     OW24912   2.000   6.267   3.997 -0.7143  0.1528  0.3453
 8124SOL    HW124913   2.008   6.322   3.919 -1.3539 -0.2942 -0.0370
 8124SOL    HW224914   1.919   6.218   3.984 -0.4330 -0.4793  0.9398
 8125SOL     OW24915   6.101   6.469   5.111 -0.4884 -0.2973  0.0390
 8125SOL    HW124916   6.054   6.513   5.041 -1.1972  1.2619  1.4238
 8125SOL    HW224917   6.143   6.393   5.069  0.2728  1.3336 -2.3389
 8126SOL     OW24918   0.866   5.023   1.372  0.3640  0.2939  0.3072
 8126SOL    HW124919   0.923   5.018   1.296 -0.2440 -0.2074 -0.1278
 8126SOL    HW224920   0.885   4.945   1.423  0.0424  0.0994  0.1354
 8127SOL     OW24921   1.347   3.632   1.611  0.1621  0.2380  0.2102
 8127SOL    HW124922   1.364   3.718   1.573 -0.5086  0.0776 -0.4768
 8127SOL    HW224923   1.434   3.597   1.632  0.6385 -0.0018 -1.9540
 8128SOL     OW24924   5.169   2.072   5.688 -0.7051  0.5342  0.2197
 8128SOL    HW124925   5.125   2.148   5.724 -0.3704  0.5649  0.5651
 8128SOL    HW224926   5.261   2.083   5.712 -0.5252  0.4156 -0.3975
 8129SOL     OW24927   6.434   5.029   2.338  0.5237  0.4679 -0.2019
 8129SOL    HW124928   6.490   4.955   2.363  0.4123  0.5159  0.2003
 8129SOL    HW224929   6.355   4.988   2.304  0.7500  0.4003 -0.6576
 8130SOL     OW24930   6.569   7.509   2.406 -0.3287 -0.9761 -0.3579
 8130SOL    HW124931   6.499   7.491   2.468 -0.8102 -1.2715 -0.9786
 8130SOL    HW224932   6.562   7.440   2.340 -0.7664  0.1419 -1.5465
 8131SOL     OW24933   0.934   6.742   3.866 -1.0405  0.0012 -0.6084
 8131SOL    HW124934   0.957   6.827   3.828 -1.6205  0.1440 -0.6524
 8131SOL    HW224935   0.924   6.759   3.960 -0.5723 -0.1471 -0.5275
 8132SOL     OW24936   0.693   1.621   1.980  0.3104 -0.0408  0.2661
 8132SOL    HW124937   0.773   1.618   2.032  0.9944  1.4137 -0.6618
 8132SOL    HW224938   0.627   1.578   2.035  1.1813  0.7869  2.0317
 8133SOL     OW24939   4.739   4.319   2.186 -0.6467 -0.4869 -0.0881
 8133SOL    HW124940   4.745   4.313   2.090 -0.8951  0.2475 -0.1595
 8133SOL    HW224941   4.653   4.281   2.206 -0.0912 -1.7735 -0.0243
 8134SOL     OW24942   5.086   0.031   1.996 -0.8665 -0.2429 -0.2070
 8134SOL    HW124943   4.997  -0.003   1.986  0.2716 -3.6266 -0.2296
 8134SOL    HW224944   5.132  -0.001   1.918  1.0031 -1.1451  1.1932
 8135SOL     OW24945   1.720   5.845   6.799 -0.4486  0.4388  0.5210
 8135SOL    HW124946   1.769   5.910   6.850 -2.0253  2.4360 -0.3526
 8135SOL    HW224947   1.694   5.892   6.720 -2.0762 -1.1300  0.0621
 8136SOL     OW24948   2.366   2.341   7.390 -0.2011  0.3598  0.1167
 8136SOL    HW124949   2.343   2.318   7.479  0.4264 -0.6161  0.0452
 8136SOL    HW224950   2.363   2.437   7.388  0.2084  0.4119  1.2983
 8137SOL     OW24951   2.139   4.378   5.959 -0.9257  0.1053 -0.4593
 8137SOL    HW124952   2.078   4.305   5.975 -0.5302 -0.0209  0.5380
 8137SOL    HW224953   2.098   4.453   6.002 -0.7572  0.2017 -0.4654
 8138SOL     OW24954   0.080   0.070   7.309  0.1776 -0.0389  0.0589
 8138SOL    HW124955   0.145   0.131   7.343  0.4054  0.6284 -1.4837
 8138SOL    HW224956   0.027   0.122   7.248 -0.5037 -1.0557 -0.2540
 8139SOL     OW24957   6.744   4.537   4.959 -0.0867  0.4351 -0.0508
 8139SOL    HW124958   6.670   4.534   4.898  0.2592 -2.3162 -0.4541
 8139SOL    HW224959   6.737   4.623   5.001 -3.1416  0.5084 -0.4897
 8140SOL     OW24960   3.289   6.738   0.404 -0.2194  0.4029 -0.0228
 8140SOL    HW124961   3.246   6.751   0.488  0.7467 -1.3358  0.8010
 8140SOL    HW224962   3.295   6.643   0.395  1.4687  0.5748 -1.1014
 8141SOL     OW24963   0.194   3.374   0.878 -0.3963  0.8065  0.0385
 8141SOL    HW124964   0.197   3.288   0.920  0.0255  0.8767  0.1583
 8141SOL    HW224965   0.102   3.400   0.882 -0.5399  0.3279 -0.0671
 8142SOL     OW24966   2.185   3.886   0.347 -0.0191  0.8895 -0.5683
 8142SOL    HW124967   2.249   3.901   0.278  1.8931 -0.3674  0.8303
 8142SOL    HW224968   2.223   3.815   0.400 -2.7369 -0.1791  0.1309
 8143SOL     OW24969   1.277   4.318   1.354  0.1932 -0.3945 -0.1730
 8143SOL    HW124970   1.285   4.382   1.282  0.1765 -1.8980 -1.5637
 8143SOL    HW224971   1.298   4.368   1.432 -1.4229  1.7497 -0.9885
 8144SOL     OW24972   7.288   5.405   5.967  0.8800 -0.0949  0.2570
 8144SOL    HW124973   7.247   5.456   5.897 -0.3536  1.2277  1.8492
 8144SOL    HW224974   7.380   5.401   5.943  0.0637 -2.5974 -3.1243
 8145SOL     OW24975   6.667   0.692   0.151 -0.8095  0.3660 -0.1441
 8145SOL    HW124976   6.586   0.719   0.109  0.2082 -0.5139 -2.8845
 8145SOL    HW224977   6.654   0.599   0.172 -0.7536  0.3996  0.0435
 8146SOL     OW24978   7.012   7.390   1.400 -0.2493 -0.0797 -0.2343
 8146SOL    HW124979   7.038   7.480   1.420  2.4683 -0.7069 -0.4890
 8146SOL    HW224980   7.009   7.387   1.304 -2.0077  0.1059 -0.2164
 8147SOL     OW24981   2.323   4.968   4.446 -0.3086 -0.2263  0.4232
 8147SOL    HW124982   2.293   4.878   4.459 -1.1834 -0.1116 -0.6501
 8147SOL    HW224983   2.380   4.963   4.368 -2.4464  0.5251 -1.2908
 8148SOL     OW24984   5.070   1.927   3.407 -0.4832  0.3898  0.3620
 8148SOL    HW124985   5.056   1.996   3.342 -1.0479 -0.8093 -0.8230
 8148SOL    HW224986   5.154   1.888   3.383 -0.0637  0.7649  1.1544
 8149SOL     OW24987   7.241   0.477   4.802  0.2733 -0.1133  0.4035
 8149SOL    HW124988   7.233   0.520   4.887  2.6745  1.7699 -0.2030
 8149SOL    HW224989   7.320   0.515   4.763 -1.6429  0.4439 -3.4188
 8150SOL     OW24990   0.522   6.295   6.166  0.2330  0.6888 -0.2543
 8150SOL    HW124991   0.589   6.273   6.231  0.4860  0.5903 -0.5445
 8150SOL    HW224992   0.480   6.211   6.145 -0.1696  0.7925  0.1318
 8151SOL     OW24993   5.476   4.287   3.306  0.2560 -0.0907  0.5860
 8151SOL    HW124994   5.424   4.364   3.284 -0.5068 -0.5125  0.8801
 8151SOL    HW224995   5.567   4.318   3.305 -0.0860  0.9812  1.4080
 8152SOL     OW24996   1.900   4.671   6.393 -0.2493  0.2893 -0.3006
 8152SOL    HW124997   1.834   4.730   6.429 -1.5747 -1.7934  0.9430
 8152SOL    HW224998   1.973   4.675   6.455 -0.8698 -0.3026  0.4863
 8153SOL     OW24999   3.127   1.320   1.763 -0.2365  0.2319 -0.0530
 8153SOL    HW125000   3.204   1.291   1.715 -0.7953  0.4843 -1.1298
 8153SOL    HW225001   3.066   1.350   1.695 -1.9731 -1.5275  0.6274
 8154SOL     OW25002   0.934   1.039   4.952 -0.3987  0.2624  0.1034
 8154SOL    HW125003   0.900   0.975   4.889  1.6992  1.6853 -2.6543
 8154SOL    HW225004   0.938   0.991   5.035 -4.7861 -1.2497 -0.2885
 8155SOL     OW25005   2.225   4.625   0.534 -0.0608 -0.0920 -0.1240
 8155SOL    HW125006   2.232   4.550   0.474 -2.0371 -1.3525  1.1091
 8155SOL    HW225007   2.254   4.590   0.618  3.2378  1.8057 -0.2933
 8156SOL     OW25008   5.419   0.702   1.549 -0.4970  0.4305  0.3091
 8156SOL    HW125009   5.474   0.766   1.594  0.6807 -0.5665  0.3384
 8156SOL    HW225010   5.360   0.754   1.495  0.4650  1.5393  0.2970
 8157SOL     OW25011   2.509   7.319   1.991  0.0377 -0.4233 -0.4521
 8157SOL    HW125012   2.560   7.382   1.939 -1.0397  1.6337  0.8244
 8157SOL    HW225013   2.422   7.320   1.951 -0.4020  0.0963  0.4887
 8158SOL     OW25014   2.763   3.388   1.024  0.0555 -0.1769 -0.0577
 8158SOL    HW125015   2.773   3.397   1.119 -2.2844 -1.9530  0.4551
 8158SOL    HW225016   2.674   3.418   1.007 -0.2253 -1.6508 -1.3903
 8159SOL     OW25017   4.762   5.918   3.421 -0.0802 -0.8506 -0.0440
 8159SOL    HW125018   4.672   5.936   3.395 -1.1697  0.0923  3.6714
 8159SOL    HW225019   4.767   5.823   3.425 -0.6434 -0.9347 -1.0877
 8160SOL     OW25020   4.929   6.119   5.906 -0.0694  0.3181 -0.2127
 8160SOL    HW125021   5.000   6.122   5.971 -0.7664  0.3709  0.5710
 8160SOL    HW225022   4.935   6.031   5.868 -0.7718 -0.4111  1.2565
 8161SOL     OW25023   2.919   6.891   1.658  0.2737  0.0539 -0.0779
 8161SOL    HW125024   2.863   6.861   1.587 -0.6917  0.1628  0.6113
 8161SOL    HW225025   2.910   6.987   1.658  0.4030  0.0679  0.0760
 8162SOL     OW25026   5.366   7.247   1.884 -0.4301  0.4416 -0.0039
 8162SOL    HW125027   5.297   7.258   1.817 -0.0800  1.0521 -0.2802
 8162SOL    HW225028   5.393   7.156   1.876 -2.2321 -0.2490  1.1251
 8163SOL     OW25029   4.850   0.253   4.429 -0.1471 -0.1366  0.0721
 8163SOL    HW125030   4.908   0.328   4.444  2.2988 -1.6231 -1.1956
 8163SOL    HW225031   4.777   0.288   4.378  1.0213  1.3586 -0.6525
 8164SOL     OW25032   5.402   5.901   6.809  0.3959  0.2360 -0.4412
 8164SOL    HW125033   5.313   5.866   6.806  0.5024 -0.0771 -0.0834
 8164SOL    HW225034   5.392   5.996   6.803 -0.0185  0.2544  0.5007
 8165SOL     OW25035   0.045   6.421   1.539 -0.0638  0.1928 -0.6763
 8165SOL    HW125036  -0.001   6.505   1.545  0.1331  0.2220  0.9130
 8165SOL    HW225037  -0.024   6.355   1.547  0.0214  0.2359  0.6669
 8166SOL     OW25038   1.877   7.380   5.358 -0.0962  0.1761  0.1382
 8166SOL    HW125039   1.836   7.296   5.336  0.7313 -0.0840 -0.4528
 8166SOL    HW225040   1.958   7.356   5.403 -0.9864  0.6906  2.1190
 8167SOL     OW25041   4.129   4.197   1.728  0.6179 -0.1560  0.0267
 8167SOL    HW125042   4.118   4.132   1.659 -0.8848 -0.4340  0.4817
 8167SOL    HW225043   4.041   4.207   1.766  1.3160  0.2887  1.6286
 8168SOL     OW25044   5.410   0.295   7.605  0.0984 -0.2057  0.5248
 8168SOL    HW125045   5.503   0.287   7.626  0.1826 -1.5918 -0.2460
 8168SOL    HW225046   5.396   0.388   7.586  1.6723 -0.2373 -0.9274
 8169SOL     OW25047   0.703   3.477   6.075  0.0443  0.5050 -0.6251
 8169SOL    HW125048   0.661   3.419   6.012  0.9722 -1.2754  0.3113
 8169SOL    HW225049   0.645   3.475   6.151 -0.3046  1.4442 -0.8545
 8170SOL     OW25050   3.358   2.797   6.151 -0.4158  0.0256 -0.0128
 8170SOL    HW125051   3.405   2.833   6.076  2.4252 -0.0808  1.5533
 8170SOL    HW225052   3.391   2.707   6.159  0.1527  0.3453  1.8844
 8171SOL     OW25053   5.899   2.595   4.961  0.1865  0.0020  0.1623
 8171SOL    HW125054   5.978   2.591   4.907 -0.0768 -2.4513 -0.1902
 8171SOL    HW225055   5.827   2.584   4.898 -0.4085  1.4488  0.5611
 8172SOL     OW25056   3.490   4.782   0.616 -0.2826  0.0163  0.0022
 8172SOL    HW125057   3.534   4.828   0.544  1.6367 -1.1702  0.3724
 8172SOL    HW225058   3.551   4.786   0.689 -0.2441 -2.6542  0.1919
 8173SOL     OW25059   7.237   5.379   0.969 -0.1481  0.2646 -0.4073
 8173SOL    HW125060   7.191   5.463   0.960 -1.6232 -0.5735 -0.8998
 8173SOL    HW225061   7.239   5.362   1.063 -0.6769  0.3950 -0.3734
 8174SOL     OW25062   3.032   5.154   1.974 -0.1298 -0.2639  0.1627
 8174SOL    HW125063   3.026   5.224   1.909 -3.4401 -0.9724 -0.5116
 8174SOL    HW225064   2.970   5.178   2.042  0.5816 -1.3233  1.2367
 8175SOL     OW25065   2.980   6.671   3.880  0.3378  0.2587 -0.3921
 8175SOL    HW125066   2.961   6.758   3.845  1.0363 -0.5040 -2.8594
 8175SOL    HW225067   2.923   6.612   3.830  0.8655 -0.8490  0.2806
 8176SOL     OW25068   3.013   4.837   2.279 -0.4727 -0.0412  0.4585
 8176SOL    HW125069   3.098   4.812   2.315  0.2129  0.3528 -0.8125
 8176SOL    HW225070   2.950   4.787   2.330  0.6657 -2.2313 -0.1640
 8177SOL     OW25071   3.906   0.747   3.089  0.0338 -0.1877 -0.4525
 8177SOL    HW125072   3.843   0.776   3.023  0.3495  0.5589 -0.4312
 8177SOL    HW225073   3.894   0.652   3.093 -1.9497  0.0353  0.4213
 8178SOL     OW25074   4.219   0.508   3.554 -0.4334 -0.3282  0.7292
 8178SOL    HW125075   4.184   0.586   3.510  0.6533 -1.2784 -1.9931
 8178SOL    HW225076   4.308   0.533   3.579 -0.0787 -0.6971 -0.1615
 8179SOL     OW25077   0.336   5.206   0.155 -0.2761  0.0792  0.2159
 8179SOL    HW125078   0.262   5.171   0.106  0.3287 -0.6759 -0.1733
 8179SOL    HW225079   0.333   5.162   0.239 -0.4184  0.2312  0.2890
 8180SOL     OW25080   5.383   2.950   3.174 -0.0607 -0.2028 -0.4238
 8180SOL    HW125081   5.470   2.991   3.179 -0.0515 -0.1693 -0.8559
 8180SOL    HW225082   5.392   2.882   3.107 -0.5640  0.2912 -1.0073
 8181SOL     OW25083   1.069   4.060   1.087 -0.2240  0.4570  0.5759
 8181SOL    HW125084   1.115   3.979   1.111 -0.0631  0.3953  0.0751
 8181SOL    HW225085   1.119   4.095   1.013 -0.3786  0.9393  0.6944
 8182SOL     OW25086   2.768   5.816   7.183 -0.9267 -0.1216 -0.0456
 8182SOL    HW125087   2.730   5.731   7.161 -0.4614 -0.1350 -0.8759
 8182SOL    HW225088   2.797   5.851   7.098 -1.5819  1.0928  0.2179
 8183SOL     OW25089   1.155   4.691   2.696 -0.1428  0.0244  0.2516
 8183SOL    HW125090   1.201   4.614   2.728  0.8177  1.0226  1.3515
 8183SOL    HW225091   1.092   4.656   2.632  0.8073 -1.5639  0.1239
 8184SOL     OW25092   3.448   5.927   7.142 -0.1169  0.7741  0.1818
 8184SOL    HW125093   3.439   5.837   7.112  0.6172  0.6410  0.3387
 8184SOL    HW225094   3.416   5.980   7.069  0.9696  0.4289 -0.5845
 8185SOL     OW25095   6.739   1.712   6.253  0.4919 -0.8077 -0.4811
 8185SOL    HW125096   6.776   1.683   6.336 -0.8430 -1.0798  0.0349
 8185SOL    HW225097   6.748   1.807   6.254 -0.7430 -0.6780  0.6049
 8186SOL     OW25098   4.851   2.805   3.324 -0.2602 -0.1424 -0.4023
 8186SOL    HW125099   4.944   2.802   3.302 -0.1905 -2.8338 -0.0683
 8186SOL    HW225100   4.842   2.746   3.399 -1.9654  1.6310  0.9153
 8187SOL     OW25101   4.076   1.042   5.940 -0.0505  0.4030 -0.3987
 8187SOL    HW125102   4.001   1.086   5.900 -0.7789  0.3546  0.8858
 8187SOL    HW225103   4.151   1.076   5.891 -0.8318  1.0308 -1.2020
 8188SOL     OW25104   0.579   1.295   1.012  0.1778 -0.7135 -0.3993
 8188SOL    HW125105   0.624   1.237   0.951 -0.6766 -1.3073 -0.4743
 8188SOL    HW225106   0.517   1.239   1.058  0.5408 -0.1966  0.7490
 8189SOL     OW25107   5.053   2.785   4.208  0.2836 -0.1324  0.3101
 8189SOL    HW125108   5.013   2.700   4.189  0.3033  0.2560 -1.6446
 8189SOL    HW225109   5.137   2.763   4.250  0.9016 -1.1435 -1.3694
 8190SOL     OW25110   0.978   2.743   3.927 -0.3620 -0.4379  0.1987
 8190SOL    HW125111   0.884   2.732   3.914 -0.9410  2.5001  1.0732
 8190SOL    HW225112   0.985   2.789   4.011  1.7486  0.4834 -0.4218
 8191SOL     OW25113   3.961   7.614   5.416 -0.0299  1.0327  0.0812
 8191SOL    HW125114   3.878   7.567   5.423 -0.1959  1.5451  2.5348
 8191SOL    HW225115   4.026   7.557   5.457  0.2334  1.8358  0.8367
 8192SOL     OW25116   5.975   6.926   6.541  0.5147 -0.9395 -0.0372
 8192SOL    HW125117   5.934   6.867   6.478  0.3873 -0.9302  0.0377
 8192SOL    HW225118   6.032   6.982   6.488  0.1461 -0.7024 -0.1900
 8193SOL     OW25119   4.629   6.858   3.391  0.4669  0.0143  0.0574
 8193SOL    HW125120   4.666   6.797   3.455 -0.8774  0.2952  1.1428
 8193SOL    HW225121   4.694   6.860   3.320  1.8411 -0.5479  1.2460
 8194SOL     OW25122   5.144   6.152   1.148 -0.2234 -0.6885 -0.6945
 8194SOL    HW125123   5.056   6.164   1.182 -0.6188 -2.6751 -0.8921
 8194SOL    HW225124   5.171   6.239   1.118 -2.4634 -0.2146 -1.4604
 8195SOL     OW25125   0.411   6.354   4.385 -0.5496 -0.0423 -0.5943
 8195SOL    HW125126   0.370   6.418   4.443 -0.1526  2.1024 -2.5291
 8195SOL    HW225127   0.437   6.282   4.443 -0.8028  1.6321  1.7311
 8196SOL     OW25128   2.241   6.664   5.662 -0.5081  0.0224 -0.5970
 8196SOL    HW125129   2.331   6.698   5.667 -0.8374  0.8061  1.9730
 8196SOL    HW225130   2.186   6.741   5.680 -1.5780 -0.7766 -0.3533
 8197SOL     OW25131   5.547   1.814   6.406 -0.1136 -0.0505 -0.0785
 8197SOL    HW125132   5.485   1.748   6.376 -1.1334  0.9153 -0.1390
 8197SOL    HW225133   5.619   1.763   6.444 -1.4899 -1.1746  1.1111
 8198SOL     OW25134   2.218   5.248   4.329  0.3741  0.2365 -0.3888
 8198SOL    HW125135   2.210   5.310   4.402  0.4690  1.0861 -1.0943
 8198SOL    HW225136   2.312   5.229   4.325  0.2837 -0.3706  0.1575
 8199SOL     OW25137   4.804   2.775   6.567 -0.0066 -0.5185  0.3588
 8199SOL    HW125138   4.753   2.769   6.648  1.3642  0.4906  1.3461
 8199SOL    HW225139   4.781   2.696   6.519 -0.6846 -1.2745  1.8374
 8200SOL     OW25140   2.731   2.780   1.313 -0.3581 -0.3505  0.1813
 8200SOL    HW125141   2.801   2.785   1.248  1.1387 -1.3828  1.6184
 8200SOL    HW225142   2.755   2.844   1.380 -0.7798 -0.7129  0.6947
 8201SOL     OW25143   3.765   6.521   3.094  0.2719  0.8369 -0.1965
 8201SOL    HW125144   3.818   6.542   3.171  0.5463  0.4094 -0.2666
 8201SOL    HW225145   3.720   6.440   3.116 -1.3900  1.8683  0.3686
 8202SOL     OW25146   4.923   1.816   2.220 -0.2853 -0.1115  0.0848
 8202SOL    HW125147   4.888   1.738   2.176 -1.3513  0.1451  0.4469
 8202SOL    HW225148   4.943   1.786   2.308 -0.0504 -0.1390  0.0223
 8203SOL     OW25149   6.042   7.555   0.444  0.6745 -0.1380  0.2447
 8203SOL    HW125150   5.953   7.525   0.428  1.0577 -0.8228 -0.7069
 8203SOL    HW225151   6.081   7.486   0.497  0.8124 -0.1217  0.1653
 8204SOL     OW25152   5.743   3.277   5.061 -0.1686  0.2309  0.6448
 8204SOL    HW125153   5.656   3.310   5.079  0.0913  1.4200 -0.1785
 8204SOL    HW225154   5.736   3.234   4.976  0.0273  0.2817  0.6007
 8205SOL     OW25155   1.346   3.970   5.611 -0.0690  0.1829  0.5826
 8205SOL    HW125156   1.410   3.984   5.681 -0.0204  0.2476  0.5264
 8205SOL    HW225157   1.399   3.947   5.535  0.0449  1.9915  0.0622
 8206SOL     OW25158   4.648   4.275   4.422 -0.2783 -0.0914 -0.8202
 8206SOL    HW125159   4.679   4.273   4.512 -2.4112  0.8100 -0.0229
 8206SOL    HW225160   4.727   4.260   4.370  1.0848 -0.1467  1.1572
 8207SOL     OW25161   6.999   0.821   2.434  0.0730 -0.3607  0.1118
 8207SOL    HW125162   7.060   0.886   2.400 -0.2336  0.7166  1.5031
 8207SOL    HW225163   6.924   0.873   2.465  0.3245 -1.2031  2.3559
 8208SOL     OW25164   6.756   3.769   2.180  0.2133 -0.4371 -0.1382
 8208SOL    HW125165   6.701   3.698   2.212  0.2952 -0.6970 -0.5660
 8208SOL    HW225166   6.794   3.807   2.259  2.0330 -2.3684 -0.0052
 8209SOL     OW25167   1.673   2.551   4.303 -0.3715 -0.0752 -0.7072
 8209SOL    HW125168   1.712   2.596   4.229 -0.7146  0.5625 -0.5148
 8209SOL    HW225169   1.724   2.580   4.379 -1.3664  1.0003 -0.4134
 8210SOL     OW25170   5.859   3.819   6.903 -0.0005 -0.1215  0.0179
 8210SOL    HW125171   5.803   3.882   6.948  0.2405 -0.5564  0.9528
 8210SOL    HW225172   5.810   3.737   6.907  0.6049 -0.4663  0.6907
 8211SOL     OW25173   3.924   5.019   2.910  0.2082  0.3130 -0.4147
 8211SOL    HW125174   3.961   4.936   2.882 -0.5809  0.2687 -1.3687
 8211SOL    HW225175   3.886   5.001   2.996  0.3544 -0.2234 -0.4592
 8212SOL     OW25176   4.650   6.294   1.198  0.0763 -0.5669 -0.2969
 8212SOL    HW125177   4.664   6.253   1.113  0.6568 -1.0634  0.0319
 8212SOL    HW225178   4.675   6.386   1.184  1.8213 -1.0008 -0.2434
 8213SOL     OW25179   1.150   1.898   3.762 -0.0447  0.2448 -0.0578
 8213SOL    HW125180   1.241   1.905   3.791 -0.5251 -0.3782  1.7472
 8213SOL    HW225181   1.131   1.982   3.723  1.6410 -0.0035 -1.5573
 8214SOL     OW25182   6.377   2.852   3.384 -0.0586 -0.2823  0.7271
 8214SOL    HW125183   6.305   2.848   3.320 -0.0722 -1.2520  0.7894
 8214SOL    HW225184   6.417   2.938   3.369 -0.4842 -0.2189 -0.1288
 8215SOL     OW25185   1.630   2.230   3.238  0.1782  0.0539 -0.1274
 8215SOL    HW125186   1.566   2.266   3.176  1.4643 -0.6900 -1.9541
 8215SOL    HW225187   1.614   2.278   3.319 -0.7055  2.0001 -1.3830
 8216SOL     OW25188   5.490   5.554   3.363  0.4072 -0.3624  0.0859
 8216SOL    HW125189   5.408   5.505   3.368  0.5156 -0.6342 -0.7554
 8216SOL    HW225190   5.477   5.615   3.291  0.6687  0.1315  0.4493
 8217SOL     OW25191   2.764   7.151   6.357  0.9164  0.4217 -0.7648
 8217SOL    HW125192   2.717   7.129   6.438  2.9037  0.0156  0.3299
 8217SOL    HW225193   2.763   7.069   6.307  1.4798  0.0653 -0.2072
 8218SOL     OW25194   6.020   3.493   0.151  0.2879 -0.0470 -0.1136
 8218SOL    HW125195   6.025   3.505   0.246 -0.0799  1.3096 -0.2409
 8218SOL    HW225196   6.062   3.571   0.115 -0.0881 -0.2745 -1.0685
 8219SOL     OW25197   4.637   1.917   4.684 -0.6015  0.2816 -0.4201
 8219SOL    HW125198   4.730   1.919   4.661 -0.4827  1.5382  0.0831
 8219SOL    HW225199   4.616   1.824   4.693  1.3759 -0.0057  2.4071
 8220SOL     OW25200   5.519   0.789   4.904  0.4183  0.1861  0.0472
 8220SOL    HW125201   5.469   0.817   4.827 -0.5911 -0.8364  0.2956
 8220SOL    HW225202   5.588   0.854   4.913  0.1691  0.6806 -1.3472
 8221SOL     OW25203   7.279   0.247   0.063 -0.2012  0.6658 -0.1302
 8221SOL    HW125204   7.217   0.245  -0.011  0.0791 -0.1128 -0.3497
 8221SOL    HW225205   7.360   0.280   0.024 -0.3963  1.4330  0.1009
 8222SOL     OW25206   0.842   6.667   3.125  0.7384 -0.1614 -0.2001
 8222SOL    HW125207   0.795   6.750   3.124  0.3228 -0.3764 -2.4076
 8222SOL    HW225208   0.777   6.603   3.154  1.4611  0.3981  3.0807
 8223SOL     OW25209   3.291   1.865   2.586 -0.5675  0.0822 -0.0585
 8223SOL    HW125210   3.367   1.880   2.642 -0.6151  2.3381 -0.5056
 8223SOL    HW225211   3.295   1.771   2.565  0.6077 -0.3981  2.0011
 8224SOL     OW25212   5.980   6.105   3.438  0.2761  0.4176  0.3755
 8224SOL    HW125213   5.885   6.116   3.425  0.3357  1.4254  0.7328
 8224SOL    HW225214   6.007   6.050   3.364 -0.8423 -1.3027  1.1658
 8225SOL     OW25215   6.280   3.595   7.196 -0.6640  0.3121 -0.2212
 8225SOL    HW125216   6.308   3.588   7.105 -1.7231 -0.4168 -0.5155
 8225SOL    HW225217   6.356   3.630   7.242 -0.1872  0.9184 -1.4176
 8226SOL     OW25218   5.825   2.095   7.390  0.0560  0.6987 -0.3040
 8226SOL    HW125219   5.733   2.107   7.413  0.0140  0.5980 -0.4196
 8226SOL    HW225220   5.871   2.097   7.474 -0.0947  0.3490 -0.2107
 8227SOL     OW25221   4.265   3.708   0.825 -0.3924  0.0187  0.1211
 8227SOL    HW125222   4.182   3.755   0.833 -0.4605 -0.3405  1.8782
 8227SOL    HW225223   4.274   3.660   0.907  1.7941  0.4344  0.1962
 8228SOL     OW25224   5.183   2.996   6.006  0.2124  0.1050 -0.5814
 8228SOL    HW125225   5.161   2.952   5.923 -0.1970 -0.3254 -0.2487
 8228SOL    HW225226   5.111   2.973   6.065 -0.2733  1.6217 -0.5390
 8229SOL     OW25227   2.850   2.250   5.685  0.3828  0.2359  0.0159
 8229SOL    HW125228   2.758   2.276   5.677  0.4838  0.4170 -0.6676
 8229SOL    HW225229   2.853   2.198   5.765 -0.7301 -1.4856 -0.9739
 8230SOL     OW25230   1.870   2.278   7.478  0.2969  0.6643  0.4837
 8230SOL    HW125231   1.811   2.214   7.439 -0.6244  2.2906 -0.8923
 8230SOL    HW225232   1.911   2.322   7.403 -0.4347  2.8805  1.3055
 8231SOL     OW25233   3.533   7.513   7.582  0.0573 -0.1807 -0.8597
 8231SOL    HW125234   3.519   7.607   7.566 -1.0358 -0.4523 -1.6306
 8231SOL    HW225235   3.567   7.480   7.498  1.3933 -0.3125 -0.2910
 8232SOL     OW25236   6.251   4.154   1.905  0.6077 -0.0980  1.0031
 8232SOL    HW125237   6.248   4.192   1.993  0.2897  0.8724  0.5870
 8232SOL    HW225238   6.159   4.137   1.883  0.3229  2.8416 -0.4524
 8233SOL     OW25239   3.418   4.364   1.705  0.2132  0.0505  0.1431
 8233SOL    HW125240   3.480   4.434   1.683  0.4875 -0.1964  0.1271
 8233SOL    HW225241   3.431   4.298   1.637 -2.6549  1.5565 -2.1452
 8234SOL     OW25242   7.063   5.963   3.357 -0.2467 -0.5537  0.0088
 8234SOL    HW125243   7.107   6.045   3.331  0.8991 -1.0510  0.3029
 8234SOL    HW225244   7.091   5.899   3.291 -0.8168 -0.8067  0.0087
 8235SOL     OW25245   6.920   2.056   5.012  0.5541  0.0920  0.4625
 8235SOL    HW125246   6.954   2.005   5.086  1.3260 -0.2949 -0.1411
 8235SOL    HW225247   6.880   2.132   5.052  1.7868  0.3575  1.2543
 8236SOL     OW25248   0.211   4.677   1.237 -0.1146  0.3512  0.0821
 8236SOL    HW125249   0.236   4.753   1.291 -0.4535 -0.4533  1.4003
 8236SOL    HW225250   0.137   4.638   1.283  0.5538 -1.2502 -0.1404
 8237SOL     OW25251   7.251   0.991   2.336  0.0393  0.8609 -0.4491
 8237SOL    HW125252   7.212   0.955   2.256 -0.8140  1.1297 -0.1589
 8237SOL    HW225253   7.335   0.945   2.343  0.2121  0.9583 -1.5893
 8238SOL     OW25254   0.714   5.357   7.259 -0.1884 -0.7157 -0.0209
 8238SOL    HW125255   0.798   5.371   7.302 -0.5627  0.0762  0.4604
 8238SOL    HW225256   0.711   5.424   7.190 -0.7301 -0.2779  0.4215
 8239SOL     OW25257   7.530   4.076   5.668  0.2886 -0.1924 -0.2216
 8239SOL    HW125258   7.519   4.151   5.726  2.8046  1.5541 -1.7807
 8239SOL    HW225259   7.612   4.036   5.696 -0.3249 -1.5432 -0.2972
 8240SOL     OW25260   4.963   1.179   6.646 -0.5990  0.3901 -0.0648
 8240SOL    HW125261   5.004   1.245   6.702 -2.6661  2.0069 -0.3008
 8240SOL    HW225262   5.006   1.190   6.561 -1.3973  2.0310 -0.3075
 8241SOL     OW25263   5.923   3.694   2.242  0.4300 -0.3780  0.1009
 8241SOL    HW125264   5.996   3.741   2.202 -0.2158  1.3267  0.8244
 8241SOL    HW225265   5.953   3.603   2.248  1.8776 -0.0093 -1.0165
 8242SOL     OW25266   3.392   2.000   6.166 -0.1598  0.3230 -0.5955
 8242SOL    HW125267   3.477   2.016   6.124  0.2932  1.3900  0.6209
 8242SOL    HW225268   3.383   1.905   6.167  0.9233  0.2004 -0.9573
 8243SOL     OW25269   1.594   0.797   1.828 -0.8061 -0.1546 -0.0661
 8243SOL    HW125270   1.591   0.729   1.894 -3.0050 -0.7404 -0.6856
 8243SOL    HW225271   1.614   0.877   1.877 -0.8060 -0.8192  1.0565
 8244SOL     OW25272   0.185   5.378   0.868  0.6112  0.0159  0.3581
 8244SOL    HW125273   0.161   5.459   0.912  2.2964  1.3750 -1.0752
 8244SOL    HW225274   0.226   5.325   0.936  2.1180  1.5899  0.7329
 8245SOL     OW25275   4.682   5.704   6.750  0.0559 -0.1676  0.7488
 8245SOL    HW125276   4.674   5.723   6.844 -0.2237 -0.6079  0.8129
 8245SOL    HW225277   4.592   5.697   6.719  0.1515 -0.4055  0.5248
 8246SOL     OW25278   4.340   1.085   5.828  0.0075 -0.3254 -0.0614
 8246SOL    HW125279   4.362   1.132   5.909 -0.8526 -0.4712  0.2672
 8246SOL    HW225280   4.424   1.067   5.787  0.3591  1.7494 -0.3434
 8247SOL     OW25281   1.995   3.360   3.499  0.5191 -0.3271  0.3935
 8247SOL    HW125282   1.969   3.447   3.527 -0.2556 -0.3379 -0.2497
 8247SOL    HW225283   2.030   3.318   3.578  2.2993  1.0538  0.3867
 8248SOL     OW25284   7.247   0.194   4.840 -0.2724 -0.3181 -0.3176
 8248SOL    HW125285   7.164   0.180   4.885 -0.0681  0.3145  0.2655
 8248SOL    HW225286   7.264   0.288   4.847  1.7148 -0.7471  1.8024
 8249SOL     OW25287   4.963   0.917   0.133 -0.2440  0.3977  0.7068
 8249SOL    HW125288   5.000   1.004   0.118 -0.6480  0.3919 -0.3540
 8249SOL    HW225289   5.031   0.870   0.181  0.0664  1.2203  1.0888
 8250SOL     OW25290   6.241   0.227   1.029 -0.1466 -0.1299  0.4858
 8250SOL    HW125291   6.286   0.143   1.032 -0.4395 -0.2796  0.8186
 8250SOL    HW225292   6.167   0.217   1.090 -0.3736  0.2560  0.2799
 8251SOL     OW25293   0.922   0.574   3.122 -0.3532 -0.2304 -0.0720
 8251SOL    HW125294   0.963   0.595   3.038 -2.0682 -1.0737 -1.1797
 8251SOL    HW225295   0.900   0.659   3.160  3.3987  0.3613  1.1941
 8252SOL     OW25296   3.633   5.445   6.578 -0.3657 -0.2128  0.2578
 8252SOL    HW125297   3.705   5.383   6.572 -0.0201  0.2806 -1.0720
 8252SOL    HW225298   3.555   5.390   6.583  0.0044 -0.7447  0.3160
 8253SOL     OW25299   6.899   2.574   5.453 -0.0057  0.6316 -0.1415
 8253SOL    HW125300   6.931   2.487   5.477 -3.5807 -0.7952  0.0919
 8253SOL    HW225301   6.898   2.573   5.357  1.0874  0.9181 -0.1676
 8254SOL     OW25302   4.376   2.150   7.094  0.3880 -0.3676 -0.3669
 8254SOL    HW125303   4.367   2.241   7.119  0.8192 -0.0220 -1.3995
 8254SOL    HW225304   4.458   2.121   7.134  1.2678  0.2873 -1.6427
 8255SOL     OW25305   3.727   3.632   0.722 -0.2395  0.1272  0.2596
 8255SOL    HW125306   3.687   3.709   0.681  0.9246  1.1021  0.9178
 8255SOL    HW225307   3.773   3.666   0.799 -2.3667 -1.6484  2.4692
 8256SOL     OW25308   2.125   2.860   2.568 -0.1050 -0.6006 -0.4510
 8256SOL    HW125309   2.121   2.799   2.494 -2.1290 -0.1834 -0.7354
 8256SOL    HW225310   2.211   2.901   2.561  1.5472 -3.6887  0.0074
 8257SOL     OW25311   2.864   7.139   4.210 -0.1856  0.2002 -0.2325
 8257SOL    HW125312   2.944   7.162   4.257  0.5861 -0.0305 -1.3945
 8257SOL    HW225313   2.889   7.066   4.154 -1.4566 -0.4799  0.0551
 8258SOL     OW25314   2.980   1.548   7.468 -0.2542 -0.0195 -0.5339
 8258SOL    HW125315   2.891   1.515   7.473 -0.7100  1.2220  0.1397
 8258SOL    HW225316   2.991   1.598   7.549  1.4842 -1.1497 -0.0315
 8259SOL     OW25317   4.434   4.889   3.424 -0.3763  0.3939 -0.1644
 8259SOL    HW125318   4.399   4.806   3.455 -1.7539  0.9422 -0.1500
 8259SOL    HW225319   4.496   4.866   3.355  0.2764 -0.6873  0.7606
 8260SOL     OW25320   3.647   1.412   3.552 -0.0743 -0.4756 -0.0238
 8260SOL    HW125321   3.612   1.473   3.618  1.5832  1.2873 -0.6819
 8260SOL    HW225322   3.735   1.392   3.582  0.7461  0.4354 -1.7031
 8261SOL     OW25323   0.741   4.091   5.570 -0.6799 -0.6238 -0.1092
 8261SOL    HW125324   0.723   4.183   5.590 -3.7357 -1.2819  0.7660
 8261SOL    HW225325   0.833   4.078   5.593 -0.6217  1.8208  1.3496
 8262SOL     OW25326   6.589   1.527   7.481 -0.6503 -0.8051 -0.1479
 8262SOL    HW125327   6.663   1.496   7.428  0.5221  1.6422 -0.0893
 8262SOL    HW225328   6.512   1.498   7.432  0.3210 -2.4724 -0.8012
 8263SOL     OW25329   5.855   0.112   6.255  0.0865 -0.4271  0.3600
 8263SOL    HW125330   5.937   0.144   6.291  0.4943 -0.9008 -0.1415
 8263SOL    HW225331   5.823   0.049   6.320  0.7455 -1.1669 -0.0146
 8264SOL     OW25332   5.398   4.472   1.252 -0.2384 -0.1526 -0.3727
 8264SOL    HW125333   5.316   4.521   1.246 -0.2709  0.0621  1.4477
 8264SOL    HW225334   5.389   4.403   1.186 -1.2251  0.7912 -1.2611
 8265SOL     OW25335   0.552   3.948   1.712  0.1695  0.3468  0.2396
 8265SOL    HW125336   0.637   3.993   1.713  0.2420  0.3376 -1.7138
 8265SOL    HW225337   0.489   4.016   1.737  0.4705  1.0815 -0.9198
 8266SOL     OW25338   6.078   7.269   5.885 -0.0746 -0.4694  0.6800
 8266SOL    HW125339   6.119   7.317   5.813 -1.5741 -0.5509 -0.2904
 8266SOL    HW225340   6.002   7.322   5.908 -2.9454 -3.1119 -1.7307
 8267SOL     OW25341   4.239   1.182   6.654  0.1918 -0.2335  0.0446
 8267SOL    HW125342   4.263   1.090   6.648  1.5709  0.1823 -1.4513
 8267SOL    HW225343   4.232   1.212   6.563 -1.4540  0.8513  0.4809
 8268SOL     OW25344   2.000   3.593   7.035  0.0588  0.5336  0.2290
 8268SOL    HW125345   1.955   3.509   7.021 -0.9308  1.2756 -1.5131
 8268SOL    HW225346   2.072   3.572   7.093 -2.5836 -0.7434  3.3760
 8269SOL     OW25347   1.007   1.104   2.372  0.0202 -0.3492 -0.2543
 8269SOL    HW125348   1.000   1.094   2.277 -1.4531  1.4603 -0.3837
 8269SOL    HW225349   0.917   1.107   2.403  0.4658 -2.0613  1.3900
 8270SOL     OW25350   2.725   3.164   0.641  0.8749  0.4125 -0.1309
 8270SOL    HW125351   2.815   3.189   0.621  1.0260  0.3931  0.5021
 8270SOL    HW225352   2.729   3.128   0.729  0.1456  0.9766  0.1429
 8271SOL     OW25353   7.513   4.994   2.082 -0.6453 -0.3614 -0.9373
 8271SOL    HW125354   7.583   4.965   2.023  0.9894 -1.5347  1.4065
 8271SOL    HW225355   7.544   5.078   2.116 -0.8417 -0.4226 -0.6029
 8272SOL     OW25356   3.893   6.379   2.883 -0.3165 -0.0980 -0.1419
 8272SOL    HW125357   3.824   6.369   2.816 -0.1020  0.3152 -0.4279
 8272SOL    HW225358   3.855   6.439   2.947  0.0450  0.7266 -0.6795
 8273SOL     OW25359   1.546   3.159   3.312  0.3652 -0.1456  0.4246
 8273SOL    HW125360   1.626   3.207   3.332  0.4969  0.1161 -0.7037
 8273SOL    HW225361   1.516   3.195   3.228  0.1361 -1.6093 -0.1465
 8274SOL     OW25362   2.876   6.215   3.207 -0.1711 -0.4083  0.4511
 8274SOL    HW125363   2.941   6.219   3.137  0.2192 -0.4588  0.8061
 8274SOL    HW225364   2.824   6.295   3.196  0.3634 -0.0398  0.5574
 8275SOL     OW25365   0.592   3.181   3.898  0.6929 -0.1125 -0.0291
 8275SOL    HW125366   0.587   3.114   3.830 -0.6449  0.5057 -0.5604
 8275SOL    HW225367   0.546   3.257   3.862  1.0104  0.6465  1.0857
 8276SOL     OW25368   3.610   7.590   6.248 -0.0987 -0.2205 -0.3454
 8276SOL    HW125369   3.668   7.522   6.215  1.2770  0.2908  0.9074
 8276SOL    HW225370   3.526   7.572   6.206  0.5767 -1.8604 -1.0892
 8277SOL     OW25371   3.835   2.406   5.861  0.7255 -0.3725 -0.2005
 8277SOL    HW125372   3.852   2.463   5.786  1.5039  0.2248  0.4155
 8277SOL    HW225373   3.899   2.336   5.853  0.1897 -0.8190 -0.6063
 8278SOL     OW25374   3.525   4.272   4.965  0.7444 -0.1279 -0.1209
 8278SOL    HW125375   3.618   4.249   4.972  1.3094  2.1886  0.6375
 8278SOL    HW225376   3.508   4.277   4.871  1.2564 -0.9601 -0.2690
 8279SOL     OW25377   6.445   3.991   5.645  0.0966  0.3765  0.0322
 8279SOL    HW125378   6.406   4.078   5.640 -0.4544  0.1546  0.2653
 8279SOL    HW225379   6.376   3.937   5.685  0.4039 -0.1756 -0.1707
 8280SOL     OW25380   1.629   1.514   7.146 -0.0863 -0.4100  0.1358
 8280SOL    HW125381   1.657   1.605   7.155 -0.5078 -0.1626 -0.9113
 8280SOL    HW225382   1.534   1.516   7.162 -0.3642 -0.3979 -1.4308
 8281SOL     OW25383   1.967   4.333   3.448 -0.1000  0.5164 -0.3773
 8281SOL    HW125384   1.939   4.333   3.356 -0.1097  0.7534 -0.3757
 8281SOL    HW225385   1.938   4.248   3.482  2.4820 -0.8767 -1.3556
 8282SOL     OW25386   6.545   1.021   3.397 -0.6018 -0.2441 -0.4716
 8282SOL    HW125387   6.628   0.976   3.404 -0.0997  0.7591  0.2853
 8282SOL    HW225388   6.526   1.052   3.485 -1.5956 -0.1429 -0.7062
 8283SOL     OW25389   0.298   3.063   6.176 -0.8136  0.6246  0.1888
 8283SOL    HW125390   0.344   3.141   6.207  1.2169 -1.1599  2.0405
 8283SOL    HW225391   0.335   3.047   6.089 -0.3237  1.0367  0.3138
 8284SOL     OW25392   1.162   1.424   1.858  0.6004 -0.1269 -0.1025
 8284SOL    HW125393   1.067   1.437   1.862  0.5737 -0.4605  0.4770
 8284SOL    HW225394   1.193   1.449   1.946  0.8785 -1.3009  0.1430
 8285SOL     OW25395   4.047   2.540   6.024  0.0395  0.1787 -0.2503
 8285SOL    HW125396   3.989   2.471   5.991 -0.5959  0.5528  0.0544
 8285SOL    HW225397   4.024   2.547   6.117  2.0650 -1.1329  0.4335
 8286SOL     OW25398   4.740   2.286   1.118 -0.2019  0.1404 -0.1066
 8286SOL    HW125399   4.708   2.320   1.035  0.6217 -1.6424 -1.2262
 8286SOL    HW225400   4.692   2.204   1.131 -0.5817  0.5749  1.3729
 8287SOL     OW25401   0.756   7.044   6.123  0.2063 -0.0751  0.0177
 8287SOL    HW125402   0.688   7.031   6.190 -0.2432 -1.0060 -0.6029
 8287SOL    HW225403   0.835   7.007   6.161  0.6740  1.9585  1.1867
 8288SOL     OW25404   7.487   2.208   1.241 -0.1000  0.4030  0.2665
 8288SOL    HW125405   7.447   2.292   1.220  0.9309  1.1265  1.0827
 8288SOL    HW225406   7.417   2.157   1.281 -0.7618  0.8314 -0.3309
 8289SOL     OW25407   5.640   5.983   7.569 -0.7441 -0.1783  0.4043
 8289SOL    HW125408   5.600   5.951   7.489  1.3629 -0.5604 -0.5776
 8289SOL    HW225409   5.645   5.907   7.626  0.2440 -0.6004 -0.2114
 8290SOL     OW25410   6.557   6.600   6.804  0.1574  0.0406 -0.0278
 8290SOL    HW125411   6.587   6.684   6.768  0.1605 -0.4167 -1.1323
 8290SOL    HW225412   6.502   6.624   6.878 -0.5537  1.0672 -0.8602
 8291SOL     OW25413   5.622   7.597   6.132  0.2513  0.2225 -0.0715
 8291SOL    HW125414   5.536   7.633   6.153  0.7967  1.3338  0.3450
 8291SOL    HW225415   5.660   7.660   6.071  0.5119 -0.6172 -0.7966
 8292SOL     OW25416   1.690   5.178   2.930  0.1537 -0.4328 -0.0549
 8292SOL    HW125417   1.629   5.247   2.954 -0.4603 -0.2962 -1.8661
 8292SOL    HW225418   1.741   5.215   2.858 -1.8768 -2.6428 -2.8074
 8293SOL     OW25419   1.395   7.560   4.736  0.3355  0.3656  0.0179
 8293SOL    HW125420   1.311   7.606   4.744  0.4431  0.6204 -0.2880
 8293SOL    HW225421   1.460   7.626   4.760  0.6436  1.0222 -2.2933
 8294SOL     OW25422   2.203   1.134   2.017  0.1721 -0.5883 -0.6535
 8294SOL    HW125423   2.210   1.092   1.932  0.2077  1.1989 -1.5858
 8294SOL    HW225424   2.116   1.173   2.018 -0.7660 -2.4984  1.1208
 8295SOL     OW25425   5.867   7.063   5.322 -0.1447  0.3186  0.2095
 8295SOL    HW125426   5.960   7.068   5.302 -0.1726 -0.3925 -0.1145
 8295SOL    HW225427   5.826   7.121   5.257 -0.1054 -0.9158 -0.9611
 8296SOL     OW25428   2.517   4.231   5.973  0.2285  0.0339 -0.0376
 8296SOL    HW125429   2.572   4.304   5.946 -0.6150  0.7980  0.2585
 8296SOL    HW225430   2.461   4.214   5.896 -1.5528  1.6206  0.8163
 8297SOL     OW25431   6.101   5.066   3.669  0.0593 -0.3157  0.2552
 8297SOL    HW125432   6.142   5.141   3.626  0.9776 -0.2722  1.1624
 8297SOL    HW225433   6.058   5.018   3.598 -1.2116  1.4650 -0.2387
 8298SOL     OW25434   2.733   3.838   0.814 -0.3122 -0.1219  0.1592
 8298SOL    HW125435   2.737   3.764   0.754 -0.4782  1.0526 -1.3730
 8298SOL    HW225436   2.792   3.815   0.885  1.1876 -0.8818 -1.2752
 8299SOL     OW25437   5.202   0.821   6.987  0.2158 -0.0224  0.4441
 8299SOL    HW125438   5.229   0.750   6.929  0.1158 -0.2794  0.7038
 8299SOL    HW225439   5.107   0.809   6.997  0.4107 -0.7728  1.6765
 8300SOL     OW25440   2.790   5.166   0.681 -0.6928 -0.0083  0.8036
 8300SOL    HW125441   2.854   5.098   0.661 -2.2037 -1.2008 -0.2679
 8300SOL    HW225442   2.840   5.248   0.677  0.8205 -0.9114  0.3552
 8301SOL     OW25443   6.544   0.715   5.314  0.1429 -0.3376  0.2155
 8301SOL    HW125444   6.554   0.810   5.312  0.5814 -0.3880 -0.9393
 8301SOL    HW225445   6.633   0.682   5.301 -0.1823 -0.8916 -0.6368
 8302SOL     OW25446   2.260   2.645   7.184 -0.2892  0.1793  0.0463
 8302SOL    HW125447   2.355   2.655   7.174 -0.1527  1.7717  2.2335
 8302SOL    HW225448   2.223   2.710   7.124 -0.0057 -0.1619 -0.5113
 8303SOL     OW25449   1.253   2.114   3.381  0.6582  0.1178 -0.2707
 8303SOL    HW125450   1.283   2.048   3.444  0.2051  0.3700  0.2202
 8303SOL    HW225451   1.288   2.196   3.414 -0.1557  0.3473  0.0424
 8304SOL     OW25452   6.158   0.021   6.039  0.0131  0.0920 -0.0675
 8304SOL    HW125453   6.187  -0.045   5.976  0.3963 -0.1470  0.3487
 8304SOL    HW225454   6.113  -0.030   6.107 -0.2284  0.3284 -0.0467
 8305SOL     OW25455   1.835   1.633   5.252  0.4609  0.1354 -0.3325
 8305SOL    HW125456   1.876   1.573   5.189  0.4921  1.9438 -2.1129
 8305SOL    HW225457   1.875   1.609   5.336  2.8219 -0.2768 -1.4811
 8306SOL     OW25458   6.895   2.854   5.969 -0.1011 -0.0213 -0.1176
 8306SOL    HW125459   6.873   2.945   5.987 -1.0766 -0.5189  1.3345
 8306SOL    HW225460   6.899   2.812   6.054  2.4943 -0.9179 -0.5810
 8307SOL     OW25461   6.966   6.586   0.779 -0.1094 -0.1068 -0.0349
 8307SOL    HW125462   6.941   6.678   0.788 -0.8971 -0.2648 -0.5851
 8307SOL    HW225463   6.883   6.539   0.775  0.2874 -0.7970 -0.2238
 8308SOL     OW25464   3.844   6.227   7.577  0.1172  0.1384  0.1678
 8308SOL    HW125465   3.824   6.161   7.510  0.1177  0.8270 -0.5218
 8308SOL    HW225466   3.794   6.304   7.550  0.3178  0.5053  0.8245
 8309SOL     OW25467   6.942   2.977   2.817 -0.1566 -0.3377 -0.3135
 8309SOL    HW125468   6.898   3.040   2.760  0.3019  0.1429 -0.1488
 8309SOL    HW225469   6.912   2.892   2.787 -1.5777 -0.0127  0.1033
 8310SOL     OW25470   0.497   1.061   6.463 -0.3503 -0.0646 -0.1465
 8310SOL    HW125471   0.514   0.967   6.462 -0.6658 -0.1260 -0.9991
 8310SOL    HW225472   0.556   1.096   6.530 -0.5981 -0.9293  0.5322
 8311SOL     OW25473   0.687   5.015   0.149 -0.3808  0.4832  0.4851
 8311SOL    HW125474   0.600   4.986   0.178 -0.0345  0.3290  1.3711
 8311SOL    HW225475   0.747   4.951   0.186  0.1990  1.1181  0.6532
 8312SOL     OW25476   3.188   6.367   1.527  0.1027  0.3369  0.1210
 8312SOL    HW125477   3.110   6.327   1.491 -0.8335  0.9904  1.3425
 8312SOL    HW225478   3.250   6.370   1.454 -0.0696 -2.5020 -0.2514
 8313SOL     OW25479   4.020   0.887   3.294  0.2702  0.3114 -0.2277
 8313SOL    HW125480   4.115   0.893   3.305  0.3769  1.2319 -1.4577
 8313SOL    HW225481   4.009   0.848   3.207 -0.4858  0.5067 -0.2226
 8314SOL     OW25482   5.817   3.806   6.159 -0.5859 -0.2591 -0.5410
 8314SOL    HW125483   5.849   3.845   6.240 -1.8352 -0.6816  0.1860
 8314SOL    HW225484   5.791   3.881   6.105  0.2449  0.0244 -0.5584
 8315SOL     OW25485   6.292   2.707   2.076  0.3705 -0.2077  0.4280
 8315SOL    HW125486   6.228   2.635   2.073  0.5622 -0.4132  1.1113
 8315SOL    HW225487   6.315   2.714   2.168 -0.4587  1.4691  0.5341
 8316SOL     OW25488   1.737   3.848   6.581  0.7529 -0.4611  0.4672
 8316SOL    HW125489   1.665   3.895   6.624  2.2227  1.1113  1.3556
 8316SOL    HW225490   1.816   3.880   6.625  2.0365 -1.8510 -0.7157
 8317SOL     OW25491   3.734   1.131   3.014  0.2370 -0.3455  0.3495
 8317SOL    HW125492   3.822   1.113   2.981  0.5077  0.5453  0.5536
 8317SOL    HW225493   3.683   1.053   2.990  1.2647 -1.2295  0.9612
 8318SOL     OW25494   3.924   6.771   6.502 -0.1748  0.2538 -0.5352
 8318SOL    HW125495   3.891   6.860   6.491  0.0914  0.5534  0.8051
 8318SOL    HW225496   3.994   6.763   6.437 -0.0313  1.1192 -0.5020
 8319SOL     OW25497   1.414   3.502   6.721  0.2246 -0.8092 -0.2331
 8319SOL    HW125498   1.359   3.431   6.687  0.1834 -0.1947 -1.5295
 8319SOL    HW225499   1.503   3.475   6.700  0.1840 -0.3150 -1.0951
 8320SOL     OW25500   3.827   4.788   6.148 -0.2300  0.0193 -0.2737
 8320SOL    HW125501   3.837   4.710   6.094 -2.1725 -0.9543  0.6575
 8320SOL    HW225502   3.764   4.842   6.100  0.2175  0.4927 -0.3422
 8321SOL     OW25503   4.695   2.460   3.264  0.3818 -0.3943 -0.1609
 8321SOL    HW125504   4.649   2.387   3.304  3.0106 -2.5032 -0.7167
 8321SOL    HW225505   4.739   2.504   3.337 -1.1864  0.7016  0.1709
 8322SOL     OW25506   0.526   2.884   0.661 -0.0736 -0.2941  0.1787
 8322SOL    HW125507   0.599   2.919   0.610  0.3541 -0.2861  0.7838
 8322SOL    HW225508   0.548   2.792   0.673  0.7290  0.0775  1.8420
 8323SOL     OW25509   0.547   0.355   6.398 -0.4628  0.5006  0.4041
 8323SOL    HW125510   0.491   0.370   6.321  2.6879 -1.0963 -2.4769
 8323SOL    HW225511   0.558   0.261   6.401  1.6762  0.7374  1.1276
 8324SOL     OW25512   0.108   1.178   2.856  0.0923 -0.0933  0.4014
 8324SOL    HW125513   0.193   1.197   2.817 -0.3594 -0.9328 -1.0840
 8324SOL    HW225514   0.126   1.114   2.925  0.5120 -1.4795 -0.9463
 8325SOL     OW25515   4.379   4.019   5.562 -0.0171 -0.2435  0.0470
 8325SOL    HW125516   4.332   3.936   5.566 -0.2672 -0.3433 -2.7487
 8325SOL    HW225517   4.377   4.043   5.469  1.7846  1.8910  0.4699
 8326SOL     OW25518   4.710   5.958   1.273 -0.1197  0.5027  0.7637
 8326SOL    HW125519   4.736   5.866   1.269  0.1151  0.5703  0.7002
 8326SOL    HW225520   4.716   5.988   1.182  0.8625  0.8656  0.9383
 8327SOL     OW25521   6.045   3.005   0.563 -0.2704 -0.6108 -0.3479
 8327SOL    HW125522   5.963   2.965   0.534 -1.0137  0.1522  0.6213
 8327SOL    HW225523   6.076   3.054   0.486  0.5534 -2.8012 -1.4794
 8328SOL     OW25524   4.118   7.373   5.247 -0.3642 -0.1853  0.3397
 8328SOL    HW125525   4.170   7.316   5.304  0.3347  0.1520  0.0453
 8328SOL    HW225526   4.182   7.424   5.198 -0.9857  0.6976  0.4266
 8329SOL     OW25527   1.412   2.291   3.099  0.2354  0.2101  0.6522
 8329SOL    HW125528   1.358   2.231   3.151  0.1508  0.1527  0.5002
 8329SOL    HW225529   1.360   2.372   3.094 -0.9610 -0.5883 -1.4826
 8330SOL     OW25530   0.412   1.386   4.550  0.3777 -0.5470 -0.4755
 8330SOL    HW125531   0.499   1.399   4.514  1.2635  1.3561  2.0412
 8330SOL    HW225532   0.362   1.462   4.521 -0.1369 -1.0748 -1.0023
 8331SOL     OW25533   4.160   4.405   7.135  0.1078 -0.0682 -0.0071
 8331SOL    HW125534   4.243   4.361   7.115  0.2235  0.1841 -0.0950
 8331SOL    HW225535   4.116   4.413   7.051 -1.3667 -2.8370  0.3816
 8332SOL     OW25536   1.814   5.120   6.417  0.0443  0.0083 -0.1116
 8332SOL    HW125537   1.731   5.160   6.442 -0.8125 -1.6762 -0.1001
 8332SOL    HW225538   1.835   5.061   6.490  0.5338 -0.6031 -0.7321
 8333SOL     OW25539   5.474   0.799   0.412  0.0138  0.1918  0.4338
 8333SOL    HW125540   5.558   0.843   0.398  1.2439 -1.5458  1.9341
 8333SOL    HW225541   5.416   0.867   0.447  0.6258  1.5176 -1.0125
 8334SOL     OW25542   7.319   6.686   2.667  0.0223 -0.8137 -0.3433
 8334SOL    HW125543   7.307   6.730   2.583 -0.8224 -3.7937 -1.9208
 8334SOL    HW225544   7.250   6.720   2.722  0.2225  0.7632 -1.0164
 8335SOL     OW25545   3.104   4.573   1.850 -0.5358  0.1636 -0.1955
 8335SOL    HW125546   3.175   4.616   1.802  1.4147 -2.1241  0.4379
 8335SOL    HW225547   3.088   4.492   1.802 -1.9596  0.1244  0.3095
 8336SOL     OW25548   0.704   6.557   3.949 -0.0611 -0.2054  0.3126
 8336SOL    HW125549   0.767   6.606   3.896  0.5186  0.6930  1.7685
 8336SOL    HW225550   0.741   6.560   4.037  0.4636 -4.0127  0.3831
 8337SOL     OW25551   6.531   3.352   6.638  0.0107 -0.1798 -0.6968
 8337SOL    HW125552   6.559   3.284   6.576  1.8548 -0.0351 -0.0869
 8337SOL    HW225553   6.607   3.410   6.646 -0.5637  0.4223  0.8344
 8338SOL     OW25554   3.888   3.804   2.336 -0.1434  0.1142 -0.1010
 8338SOL    HW125555   3.853   3.865   2.401 -1.3377  0.1049 -0.7092
 8338SOL    HW225556   3.924   3.861   2.267 -1.0074  0.1528 -0.5359
 8339SOL     OW25557   3.062   5.084   2.418  0.4033  0.7486 -0.0900
 8339SOL    HW125558   3.146   5.110   2.381 -0.1247  1.4375 -0.8492
 8339SOL    HW225559   3.046   4.997   2.381  0.9704  0.4249  0.4030
 8340SOL     OW25560   6.668   3.411   0.942 -0.5678 -0.3357 -0.5363
 8340SOL    HW125561   6.740   3.436   0.884 -0.8949  0.6680 -0.5263
 8340SOL    HW225562   6.595   3.393   0.884 -0.3005 -1.4399 -0.5509
 8341SOL     OW25563   5.214   2.544   1.455 -0.3700 -0.0317 -0.2794
 8341SOL    HW125564   5.151   2.615   1.450 -1.2310 -0.7023  0.6321
 8341SOL    HW225565   5.299   2.587   1.447 -0.9268  0.9118 -1.2320
 8342SOL     OW25566   4.136   7.174   3.985  0.1670 -0.0325  0.0557
 8342SOL    HW125567   4.095   7.114   3.923 -2.0259  0.7133  0.6956
 8342SOL    HW225568   4.160   7.250   3.933  0.5573 -0.3813 -0.2832
 8343SOL     OW25569   4.762   0.528   0.649 -0.0762 -0.2394 -0.0254
 8343SOL    HW125570   4.736   0.439   0.673 -0.3497 -0.1046  0.1808
 8343SOL    HW225571   4.855   0.520   0.626  0.3501 -0.2690  1.5970
 8344SOL     OW25572   4.038   5.509   6.183 -0.4916  0.4219  0.0231
 8344SOL    HW125573   4.029   5.481   6.273 -0.2355 -0.1128 -0.1155
 8344SOL    HW225574   4.034   5.429   6.131  1.8913  0.4081 -0.2651
 8345SOL     OW25575   1.328   1.265   0.195  0.7664 -0.4308  0.5491
 8345SOL    HW125576   1.287   1.190   0.240  0.5595 -0.0603  0.9855
 8345SOL    HW225577   1.256   1.304   0.145  1.4425 -2.1383 -1.9223
 8346SOL     OW25578   0.622   0.910   0.738  0.1104 -0.6648  0.1753
 8346SOL    HW125579   0.555   0.867   0.685  0.8253  0.4211 -1.6938
 8346SOL    HW225580   0.701   0.905   0.685  0.9693  0.1176  1.3389
 8347SOL     OW25581   6.544   4.697   4.369  0.3194  0.1871 -0.5447
 8347SOL    HW125582   6.478   4.765   4.355 -1.5743 -1.7126 -1.2567
 8347SOL    HW225583   6.572   4.672   4.281  0.7461 -0.2068 -0.3043
 8348SOL     OW25584   1.954   6.071   1.465 -0.1887 -0.0599  0.1730
 8348SOL    HW125585   2.002   5.992   1.489  1.9054  1.4491  1.2427
 8348SOL    HW225586   1.910   6.049   1.383 -0.6304 -2.6823  1.0519
 8349SOL     OW25587   4.253   5.315   0.825 -0.9312 -0.6665  0.0678
 8349SOL    HW125588   4.251   5.365   0.744  0.2349  0.3897  0.6572
 8349SOL    HW225589   4.179   5.349   0.877 -1.6597 -1.3247 -0.5218
 8350SOL     OW25590   2.851   0.998   1.338 -0.6973 -0.4089  0.2168
 8350SOL    HW125591   2.857   1.010   1.243 -0.1767 -0.1902  0.2746
 8350SOL    HW225592   2.863   0.904   1.351  2.2208 -0.1230  0.2590
 8351SOL     OW25593   2.912   6.365   1.528  0.2420 -0.5013  0.1544
 8351SOL    HW125594   2.916   6.383   1.622  0.3125  1.3215 -0.1526
 8351SOL    HW225595   2.884   6.448   1.489  0.2198 -1.2216 -1.4399
 8352SOL     OW25596   3.049   2.740   0.418  0.3794  0.2382 -0.0546
 8352SOL    HW125597   3.089   2.799   0.481 -1.2256  0.2445  1.0134
 8352SOL    HW225598   2.995   2.797   0.363  1.5156  0.1895 -1.2812
 8353SOL     OW25599   1.339   5.459   4.845 -0.0148 -0.2770  0.8571
 8353SOL    HW125600   1.427   5.426   4.830 -0.1765  0.0740 -1.2494
 8353SOL    HW225601   1.284   5.381   4.848  0.0892 -0.4105 -0.2449
 8354SOL     OW25602   5.932   5.346   3.011  0.0565 -0.9625  0.1808
 8354SOL    HW125603   5.998   5.364   2.944  1.1031 -1.5296  1.0354
 8354SOL    HW225604   5.854   5.320   2.962  0.7258 -1.1057 -0.8247
 8355SOL     OW25605   0.641   0.493   4.146  0.2926  0.0359  0.1256
 8355SOL    HW125606   0.709   0.425   4.142  0.6906  0.4268  0.2885
 8355SOL    HW225607   0.665   0.548   4.220  0.1025  0.4973 -0.1491
 8356SOL     OW25608   0.958   7.593   1.881  0.0246  0.1318 -0.3606
 8356SOL    HW125609   0.888   7.608   1.818  0.1992  1.8838 -0.2055
 8356SOL    HW225610   0.913   7.576   1.963 -0.2314  0.4197 -0.4385
 8357SOL     OW25611   3.129   7.418   4.012  0.6099  0.0519  0.1847
 8357SOL    HW125612   3.101   7.505   4.041  0.7230  0.0940  0.1695
 8357SOL    HW225613   3.179   7.383   4.085  0.2376 -0.1585  0.3411
 8358SOL     OW25614   0.901   4.611   3.922  0.5168  0.6268  0.6165
 8358SOL    HW125615   0.880   4.660   3.843 -0.9069 -0.0367  0.5359
 8358SOL    HW225616   0.981   4.563   3.901 -0.4071 -0.3596 -0.8487
 8359SOL     OW25617   4.263   4.537   0.771  0.4624 -0.2084 -0.3772
 8359SOL    HW125618   4.260   4.595   0.695 -2.3979 -1.8011 -1.5995
 8359SOL    HW225619   4.233   4.453   0.739  2.2480 -1.8421  1.8736
 8360SOL     OW25620   7.134   0.974   1.537  0.0222  0.5544 -0.3289
 8360SOL    HW125621   7.227   0.976   1.560 -0.2478 -0.0459  0.9017
 8360SOL    HW225622   7.113   0.881   1.526 -0.2541  0.7334 -1.4366
 8361SOL     OW25623   1.745   3.504   0.066  0.0721 -0.3187  0.1360
 8361SOL    HW125624   1.695   3.424   0.080  0.2360 -0.7258 -1.4526
 8361SOL    HW225625   1.787   3.492  -0.019  0.5440  1.2243  0.1195
 8362SOL     OW25626   1.463   0.676   5.899  0.3267 -0.0250 -0.1494
 8362SOL    HW125627   1.533   0.611   5.897  0.7120  0.3448  0.6689
 8362SOL    HW225628   1.402   0.644   5.965  0.4211  0.3402  0.1197
 8363SOL     OW25629   4.444   3.965   5.260 -0.0280 -0.2284  0.4692
 8363SOL    HW125630   4.361   4.008   5.239 -0.1804 -0.0765  1.3347
 8363SOL    HW225631   4.422   3.872   5.265 -0.0880 -0.2169  0.4212
 8364SOL     OW25632   5.613   7.591   4.399 -0.3691  0.1097  0.5139
 8364SOL    HW125633   5.606   7.640   4.317 -0.7297  1.0355  1.0819
 8364SOL    HW225634   5.562   7.642   4.462 -0.7189 -0.9887  1.1375
 8365SOL     OW25635   4.001   1.921   7.544  0.2112  0.5328 -0.3451
 8365SOL    HW125636   3.926   1.869   7.573 -0.0518  0.3245 -1.3399
 8365SOL    HW225637   4.003   1.908   7.449  0.9100  1.3341 -0.4480
 8366SOL     OW25638   6.933   0.034   4.725 -0.0061  0.1161 -0.2517
 8366SOL    HW125639   6.856   0.083   4.754  0.9394  1.1979  0.5749
 8366SOL    HW225640   6.944   0.059   4.634 -0.6048 -0.0012 -0.3585
 8367SOL     OW25641   7.306   3.723   5.841  0.1294 -0.0778  0.8953
 8367SOL    HW125642   7.376   3.690   5.897  1.4401  0.1190 -0.5671
 8367SOL    HW225643   7.274   3.801   5.885 -0.0494 -0.8571  2.2086
 8368SOL     OW25644   5.282   5.709   4.513 -0.3282 -0.3607  0.9336
 8368SOL    HW125645   5.236   5.775   4.565 -1.2377 -1.3361  1.3823
 8368SOL    HW225646   5.333   5.659   4.577  2.4816  1.4791  0.3474
 8369SOL     OW25647   6.838   0.027   6.750 -0.0392  0.5781 -0.2179
 8369SOL    HW125648   6.760   0.029   6.806 -0.4436  0.2356 -0.7625
 8369SOL    HW225649   6.829   0.105   6.695 -1.5456 -0.9672 -2.3201
 8370SOL     OW25650   6.670   5.303   2.232 -0.0847  0.4725 -0.2840
 8370SOL    HW125651   6.754   5.307   2.186  1.1639  3.2670  1.9826
 8370SOL    HW225652   6.691   5.313   2.324 -2.9556  3.0180  0.2671
 8371SOL     OW25653   6.094   5.942   3.261  0.6601 -0.2681 -0.1214
 8371SOL    HW125654   6.095   5.876   3.331 -2.7329  2.1471  2.4863
 8371SOL    HW225655   6.041   5.903   3.192  1.3581 -1.4452 -0.0207
 8372SOL     OW25656   4.267   4.047   4.915 -0.0189  0.0849 -0.0118
 8372SOL    HW125657   4.295   3.962   4.949 -0.7169 -0.4194 -0.6567
 8372SOL    HW225658   4.262   4.033   4.820  1.5633  1.3536 -0.3198
 8373SOL     OW25659   5.297   3.819   6.449 -0.6072  0.0158 -0.3277
 8373SOL    HW125660   5.388   3.793   6.462 -0.3720  0.9200 -0.0775
 8373SOL    HW225661   5.288   3.827   6.354 -0.3982  0.0049 -0.3489
 8374SOL     OW25662   7.589   1.943   4.761  0.0241 -0.3762 -0.6888
 8374SOL    HW125663   7.578   1.871   4.823  0.8162 -1.8888 -2.2137
 8374SOL    HW225664   7.518   2.004   4.782 -0.7485 -1.6585  0.5837
 8375SOL     OW25665   7.617   1.622   4.372 -0.1538 -0.6142  0.1821
 8375SOL    HW125666   7.579   1.661   4.451  0.9825  1.4063 -0.2059
 8375SOL    HW225667   7.600   1.686   4.303  5.1820  1.3741  0.2883
 8376SOL     OW25668   0.306   6.935   5.781 -0.2572 -0.3365 -0.1428
 8376SOL    HW125669   0.273   6.890   5.704  0.9194  0.0664 -0.9121
 8376SOL    HW225670   0.319   7.026   5.753  0.4661 -0.2506  0.4184
 8377SOL     OW25671   2.710   0.010   6.529 -0.2320 -0.0248  0.5037
 8377SOL    HW125672   2.693  -0.039   6.448 -1.2299 -0.5511  1.0107
 8377SOL    HW225673   2.673  -0.045   6.598 -1.6145  1.5349  1.0755
 8378SOL     OW25674   7.052   5.071   3.584  0.1263  0.1161 -0.6024
 8378SOL    HW125675   7.051   5.161   3.552  1.3330 -0.0360 -1.1252
 8378SOL    HW225676   7.131   5.066   3.638 -2.1877  0.5723  3.1499
 8379SOL     OW25677   0.030   0.137   4.906 -0.2431 -0.6463 -0.1004
 8379SOL    HW125678   0.081   0.096   4.835  2.6563 -0.0320  1.4596
 8379SOL    HW225679  -0.004   0.063   4.956  1.8726 -1.2029  0.6143
 8380SOL     OW25680   4.451   6.319   5.088 -0.1508 -0.2806  0.1375
 8380SOL    HW125681   4.488   6.336   5.001  0.0113  0.2063  0.2975
 8380SOL    HW225682   4.435   6.406   5.125 -0.1380 -0.4828  0.6304
 8381SOL     OW25683   7.575   4.910   6.889 -0.9608 -0.3513 -0.0256
 8381SOL    HW125684   7.623   4.975   6.838  0.7749 -0.5112  1.3119
 8381SOL    HW225685   7.503   4.959   6.930 -0.2392  0.5282  0.2156
 8382SOL     OW25686   0.020   2.710   1.268  0.0493 -0.1819 -0.3401
 8382SOL    HW125687   0.009   2.655   1.345  2.5718 -0.4516 -0.0818
 8382SOL    HW225688   0.047   2.650   1.199  0.0364  0.3647 -0.8325
 8383SOL     OW25689   0.747   2.134   4.277  0.2947  0.8062 -0.4883
 8383SOL    HW125690   0.699   2.096   4.351  2.2981  0.2934  0.6360
 8383SOL    HW225691   0.793   2.059   4.238 -1.1551  0.9623 -2.6729
 8384SOL     OW25692   6.543   1.908   5.889 -0.0307  0.1404 -0.7393
 8384SOL    HW125693   6.481   1.933   5.820  1.3118  0.9522 -1.7085
 8384SOL    HW225694   6.489   1.870   5.958 -1.4393 -0.7566 -2.2526
 8385SOL     OW25695   5.574   4.477   6.359  0.4377 -0.1755 -0.4345
 8385SOL    HW125696   5.627   4.527   6.296  0.7906  1.1498  0.8596
 8385SOL    HW225697   5.611   4.500   6.444 -2.4016  1.0788  0.5684
 8386SOL     OW25698   5.527   5.835   6.524  0.2496 -0.1217  0.0026
 8386SOL    HW125699   5.508   5.755   6.572 -1.7398  0.3038  0.0343
 8386SOL    HW225700   5.585   5.808   6.452 -1.3840 -1.8372 -0.7474
 8387SOL     OW25701   3.329   1.270   0.767 -0.1131 -0.4066  0.6864
 8387SOL    HW125702   3.416   1.307   0.751  0.0389 -0.3903  1.5339
 8387SOL    HW225703   3.345   1.176   0.777 -0.2906 -0.4994  0.1452
 8388SOL     OW25704   4.501   5.918   3.381 -0.0173 -0.3373 -0.1107
 8388SOL    HW125705   4.447   5.857   3.332 -0.1807 -0.6842  0.4998
 8388SOL    HW225706   4.457   5.927   3.465  1.6247 -1.7576  0.9623
 8389SOL     OW25707   0.012   2.540   0.672  0.2693  0.2640 -0.5430
 8389SOL    HW125708   0.022   2.448   0.694  0.2018  0.3746 -0.0452
 8389SOL    HW225709   0.095   2.564   0.630 -0.3564 -0.4538 -2.2541
 8390SOL     OW25710   5.412   4.772   6.532 -0.2387 -0.2531  0.3036
 8390SOL    HW125711   5.366   4.846   6.572  0.7787 -0.9284  2.9126
 8390SOL    HW225712   5.467   4.812   6.464  0.5756  1.5123  1.8935
 8391SOL     OW25713   1.631   0.577   2.013  0.9114 -0.2663 -0.2829
 8391SOL    HW125714   1.695   0.639   2.046  0.8815  0.4024 -1.4071
 8391SOL    HW225715   1.681   0.499   1.991  1.0569 -0.3939  0.5116
 8392SOL     OW25716   1.391   6.472   4.472  0.2619  0.0292 -0.0926
 8392SOL    HW125717   1.340   6.468   4.391 -1.8546 -0.3025  1.1822
 8392SOL    HW225718   1.403   6.380   4.497 -0.9115  0.1499  1.0113
 8393SOL     OW25719   0.111   2.584   3.857  0.0197 -0.3008  0.1506
 8393SOL    HW125720   0.086   2.502   3.901  1.2326 -1.1379 -0.6428
 8393SOL    HW225721   0.081   2.572   3.767 -0.2673  0.3723  0.1536
 8394SOL     OW25722   1.676   2.928   1.605  0.3572 -0.2068  0.2081
 8394SOL    HW125723   1.661   3.008   1.555  0.9095  0.4016  0.9835
 8394SOL    HW225724   1.744   2.881   1.557  1.1494  0.5496  0.5626
 8395SOL     OW25725   5.812   0.624   0.725 -0.2661 -0.1078 -0.3455
 8395SOL    HW125726   5.746   0.575   0.774 -2.1338  1.5693 -1.0406
 8395SOL    HW225727   5.828   0.571   0.647  0.0325 -1.0465  0.3354
 8396SOL     OW25728   3.863   6.182   3.252  0.6252 -0.7422  0.0693
 8396SOL    HW125729   3.842   6.172   3.159  0.4271  0.1516  0.0066
 8396SOL    HW225730   3.956   6.205   3.253  0.2205  1.0906 -0.0605
 8397SOL     OW25731   3.277   7.529   0.606 -0.2809 -0.6067  0.0544
 8397SOL    HW125732   3.246   7.484   0.685 -1.4128  1.8760  1.1436
 8397SOL    HW225733   3.368   7.503   0.597 -1.0905 -3.7765  0.0326
 8398SOL     OW25734   4.131   6.605   3.117 -0.1456 -0.1324 -0.3388
 8398SOL    HW125735   4.193   6.672   3.089 -0.8253 -0.1568 -1.9861
 8398SOL    HW225736   4.083   6.581   3.038 -1.1768 -1.2580  0.5784
 8399SOL     OW25737   7.474   4.838   3.773 -0.0094 -0.6400 -0.2327
 8399SOL    HW125738   7.489   4.800   3.687 -0.4244 -1.8938  0.2131
 8399SOL    HW225739   7.552   4.817   3.823 -0.2934 -1.0371  0.0553
 8400SOL     OW25740   1.118   1.631   6.606 -0.4066  0.4753 -0.4587
 8400SOL    HW125741   1.184   1.698   6.586  0.8988 -0.6818 -0.2082
 8400SOL    HW225742   1.100   1.642   6.699  1.0669 -0.5345 -0.0102
 8401SOL     OW25743   5.115   3.678   0.419 -0.5214 -0.0153 -0.1504
 8401SOL    HW125744   5.190   3.697   0.475 -0.1614  1.9422 -1.2042
 8401SOL    HW225745   5.128   3.587   0.391 -0.5909 -0.9736  2.6442
 8402SOL     OW25746   1.662   1.491   0.952  0.0423 -0.2263  0.2366
 8402SOL    HW125747   1.664   1.404   0.990 -0.2529  0.0047  0.7871
 8402SOL    HW225748   1.639   1.477   0.860  2.4682 -0.9495 -0.3541
 8403SOL     OW25749   3.421   6.456   2.067  0.1942  0.0396 -0.2519
 8403SOL    HW125750   3.436   6.523   2.134  2.2206 -0.7552  0.1749
 8403SOL    HW225751   3.468   6.489   1.990  0.0947 -0.2868 -0.4524
 8404SOL     OW25752   6.259   1.632   5.851  0.0673 -0.3351  0.0757
 8404SOL    HW125753   6.186   1.591   5.805 -0.0155 -1.1693  0.9107
 8404SOL    HW225754   6.321   1.562   5.865 -1.3111 -1.0412  4.0685
 8405SOL     OW25755   1.937   7.142   2.173 -0.1023  0.3200 -0.1628
 8405SOL    HW125756   2.003   7.128   2.241 -0.0178 -0.5246 -0.4149
 8405SOL    HW225757   1.861   7.175   2.220  0.8182  2.3721  0.0175
 8406SOL     OW25758   7.592   6.895   2.459 -0.1492 -0.2254 -0.0082
 8406SOL    HW125759   7.588   6.978   2.412  1.2659  0.0834  0.3669
 8406SOL    HW225760   7.569   6.917   2.549 -1.4758 -0.5739 -0.2311
 8407SOL     OW25761   7.081   0.981   1.867 -0.3390  0.0911 -0.5840
 8407SOL    HW125762   7.092   1.050   1.802  0.3732 -1.2547 -1.9942
 8407SOL    HW225763   7.044   0.908   1.817 -2.0038 -0.2636  1.0547
 8408SOL     OW25764   7.236   2.753   6.644 -0.3536  0.3954 -0.4995
 8408SOL    HW125765   7.317   2.794   6.674  0.0782 -0.2540 -0.7473
 8408SOL    HW225766   7.196   2.818   6.586 -0.8223  1.3559  0.8575
 8409SOL     OW25767   5.706   7.591   2.373 -0.0586 -0.2664 -0.8985
 8409SOL    HW125768   5.652   7.628   2.443  1.4759  0.4965 -0.0839
 8409SOL    HW225769   5.713   7.662   2.309  2.3506  0.7534  0.3666
 8410SOL     OW25770   1.282   6.723   0.224  0.4252 -0.0174  0.3172
 8410SOL    HW125771   1.195   6.687   0.209  1.1514 -1.2066 -1.3159
 8410SOL    HW225772   1.324   6.663   0.286  0.9286 -0.8645 -0.8263
 8411SOL     OW25773   5.682   3.386   3.373 -0.1167  0.0404  0.0355
 8411SOL    HW125774   5.613   3.369   3.438 -1.2096  1.0797 -0.7987
 8411SOL    HW225775   5.707   3.300   3.342 -1.5155 -0.3391 -0.1000
 8412SOL     OW25776   1.398   6.852   3.847 -0.8815 -0.0876  0.7229
 8412SOL    HW125777   1.333   6.897   3.792 -0.1376 -0.6328 -0.6530
 8412SOL    HW225778   1.480   6.900   3.831 -0.4684 -0.7997  0.6600
 8413SOL     OW25779   6.601   0.148   0.098 -0.1483 -0.5659  0.7614
 8413SOL    HW125780   6.521   0.199   0.084 -0.6096 -1.1671  1.1632
 8413SOL    HW225781   6.589   0.070   0.045  0.4142 -0.4137  0.4033
 8414SOL     OW25782   2.898   2.273   4.856 -0.4820  0.1715  0.1599
 8414SOL    HW125783   2.856   2.282   4.770 -0.3665 -1.6236 -0.1226
 8414SOL    HW225784   2.906   2.363   4.888 -0.7645  0.8613 -1.5871
 8415SOL     OW25785   0.708   4.511   6.052 -0.3066 -0.0501 -0.5721
 8415SOL    HW125786   0.672   4.491   5.966  0.3003  0.1187 -0.8706
 8415SOL    HW225787   0.796   4.544   6.034  0.8197 -2.3690  0.2287
 8416SOL     OW25788   2.188   6.221   6.437  0.4505 -0.6550  0.2136
 8416SOL    HW125789   2.149   6.169   6.367  0.0336  0.3322 -0.3176
 8416SOL    HW225790   2.128   6.295   6.448  1.3545  0.0653  0.4804
 8417SOL     OW25791   2.349   3.517   6.135 -0.0809  0.3727  0.2895
 8417SOL    HW125792   2.364   3.591   6.077 -0.2368  0.5455  0.4661
 8417SOL    HW225793   2.339   3.557   6.222 -0.3262  0.1591  0.3596
 8418SOL     OW25794   7.448   5.925   2.760 -0.3890  0.3318 -0.4437
 8418SOL    HW125795   7.483   5.885   2.680 -0.2448 -1.9446  0.6730
 8418SOL    HW225796   7.525   5.961   2.805  0.1440 -1.7055  0.3971
 8419SOL     OW25797   4.655   2.003   6.922 -0.4954 -0.2520  0.0186
 8419SOL    HW125798   4.750   1.990   6.920 -0.4619 -0.0093  0.0289
 8419SOL    HW225799   4.635   2.023   7.013 -0.7494 -1.7268  0.3082
 8420SOL     OW25800   3.531   3.433   7.278 -0.2771 -0.2856  0.8596
 8420SOL    HW125801   3.585   3.428   7.357  2.1703 -0.7334 -0.7420
 8420SOL    HW225802   3.545   3.349   7.234 -0.1762  0.5995 -0.8906
 8421SOL     OW25803   3.854   5.200   2.056 -0.0857  0.7058 -0.4806
 8421SOL    HW125804   3.823   5.113   2.030  0.1587  0.8404 -1.2495
 8421SOL    HW225805   3.942   5.205   2.020  0.6523  0.5346  1.2365
 8422SOL     OW25806   5.884   2.896   6.434  0.3214  0.7273  0.1614
 8422SOL    HW125807   5.893   2.809   6.473  0.2745  0.9498  0.6762
 8422SOL    HW225808   5.820   2.941   6.489 -0.7039  0.6351 -0.9163
 8423SOL     OW25809   0.728   2.337   6.238 -0.3408  0.1288  1.1380
 8423SOL    HW125810   0.713   2.431   6.245  0.7694  0.2913  1.4848
 8423SOL    HW225811   0.722   2.304   6.328  0.2208  0.0243  1.1411
 8424SOL     OW25812   0.595   0.123   1.995  0.0879  0.2680  0.0796
 8424SOL    HW125813   0.543   0.203   2.001  0.4130  0.4860  0.0264
 8424SOL    HW225814   0.654   0.138   1.921  1.8245  0.9676  1.5389
 8425SOL     OW25815   3.694   4.880   4.872 -0.1000 -0.1692 -0.4697
 8425SOL    HW125816   3.712   4.786   4.877 -1.1445 -0.2916  2.3816
 8425SOL    HW225817   3.622   4.887   4.808  0.3682 -1.2061 -1.1447
 8426SOL     OW25818   2.855   2.488   1.134  0.0357 -0.0799 -0.1503
 8426SOL    HW125819   2.785   2.499   1.198  0.8041  0.5005  0.5980
 8426SOL    HW225820   2.929   2.537   1.169  0.7941 -0.5847 -0.9856
 8427SOL     OW25821   6.944   3.464   3.928 -0.4523  0.6165  0.2331
 8427SOL    HW125822   7.038   3.454   3.947 -0.1145  1.0356 -1.1008
 8427SOL    HW225823   6.900   3.433   4.007  0.8038  0.0059  0.7214
 8428SOL     OW25824   2.570   1.966   6.961  0.1631 -0.3483 -0.3853
 8428SOL    HW125825   2.624   1.987   7.037 -0.8373  2.4416 -0.3252
 8428SOL    HW225826   2.483   1.949   6.998  0.3007 -1.9333 -0.7171
 8429SOL     OW25827   0.250   0.364   3.545  0.2256 -0.7343 -0.2617
 8429SOL    HW125828   0.253   0.310   3.624 -0.0616 -0.0343  0.2336
 8429SOL    HW225829   0.336   0.405   3.541  0.7314 -1.8127 -1.0731
 8430SOL     OW25830   3.222   0.193   0.571 -0.1270  0.5126 -0.1520
 8430SOL    HW125831   3.152   0.194   0.505 -1.0180  0.0169  0.7573
 8430SOL    HW225832   3.234   0.100   0.591  0.2382  0.6471  0.2675
 8431SOL     OW25833   6.824   6.652   4.458  0.0599 -0.4920 -0.1870
 8431SOL    HW125834   6.916   6.661   4.482  0.1917  0.4504 -0.9841
 8431SOL    HW225835   6.818   6.693   4.372 -0.9354 -1.3455 -0.5460
 8432SOL     OW25836   6.199   4.051   6.696 -0.0557  0.7123  0.2396
 8432SOL    HW125837   6.203   4.115   6.768  0.9034 -0.0020  0.8617
 8432SOL    HW225838   6.288   4.050   6.661  0.2968 -1.1266  1.0433
 8433SOL     OW25839   1.310   4.653   7.319 -0.7022  0.5474  0.4288
 8433SOL    HW125840   1.372   4.725   7.309  0.2156  0.1842  2.8745
 8433SOL    HW225841   1.339   4.588   7.256  0.1909  1.1865  0.1541
 8434SOL     OW25842   4.985   6.166   5.571 -0.3132  0.2342 -0.1135
 8434SOL    HW125843   5.024   6.081   5.592  0.1234  0.1410 -1.2199
 8434SOL    HW225844   4.892   6.149   5.561 -0.2208 -0.1249 -0.3580
 8435SOL     OW25845   0.275   3.844   7.041 -0.5283  0.2215  0.2984
 8435SOL    HW125846   0.226   3.888   7.111 -1.6787 -1.3380  0.5316
 8435SOL    HW225847   0.243   3.884   6.961  0.3880  1.6277  0.5904
 8436SOL     OW25848   5.768   7.331   2.143  0.0245 -0.1774 -0.0799
 8436SOL    HW125849   5.777   7.422   2.115 -0.5736 -0.8817 -2.8339
 8436SOL    HW225850   5.795   7.279   2.067 -2.3030 -2.2924  0.3995
 8437SOL     OW25851   3.035   6.541   6.367 -0.0780 -0.2982  0.2320
 8437SOL    HW125852   3.069   6.471   6.311 -1.7711 -0.6658 -0.3909
 8437SOL    HW225853   2.971   6.498   6.423 -0.5427  0.5965  0.4060
 8438SOL     OW25854   6.865   4.058   6.049  0.5521  0.2097 -0.0425
 8438SOL    HW125855   6.770   4.058   6.063  0.2723  2.0754 -1.5471
 8438SOL    HW225856   6.901   4.019   6.129 -1.4029  0.9531  1.2699
 8439SOL     OW25857   4.640   4.740   3.631 -0.3636  0.6418  0.4144
 8439SOL    HW125858   4.621   4.819   3.680  0.5661 -0.0426  1.9517
 8439SOL    HW225859   4.730   4.752   3.599 -0.0576  0.0674  1.0148
 8440SOL     OW25860   2.807   3.181   3.645 -0.3254  0.8006 -0.8995
 8440SOL    HW125861   2.774   3.139   3.565  0.8207 -0.4678 -0.7504
 8440SOL    HW225862   2.902   3.173   3.638 -0.2052 -1.6863  1.7579
 8441SOL     OW25863   6.925   0.918   7.446  0.4660 -0.5632 -0.2551
 8441SOL    HW125864   6.885   0.998   7.411  1.8580  0.0208 -0.5641
 8441SOL    HW225865   7.006   0.947   7.487  1.3883 -1.9246 -1.0559
 8442SOL     OW25866   6.595   2.187   5.815  0.0668  0.3029 -0.1841
 8442SOL    HW125867   6.638   2.217   5.896  1.9475  0.2745 -1.0998
 8442SOL    HW225868   6.594   2.092   5.823 -0.7292  0.3397  0.2530
 8443SOL     OW25869   0.755   0.471   0.679 -0.1744  0.4081 -0.5347
 8443SOL    HW125870   0.798   0.521   0.610 -0.8883 -1.6384 -2.6027
 8443SOL    HW225871   0.731   0.388   0.637 -1.8162 -0.4260  1.8390
 8444SOL     OW25872   4.447   4.276   3.501  0.1199  0.1316  0.1181
 8444SOL    HW125873   4.429   4.188   3.534  0.0808  0.5621  1.2676
 8444SOL    HW225874   4.521   4.307   3.552  0.5385  0.5393 -0.7143
 8445SOL     OW25875   5.729   7.086   1.669  0.1936 -0.2315  0.3487
 8445SOL    HW125876   5.777   7.005   1.650 -0.5226 -1.1239  2.1212
 8445SOL    HW225877   5.644   7.074   1.626  0.4122 -0.0089 -0.1548
 8446SOL     OW25878   1.620   3.060   7.173  0.3576 -0.4776  0.6703
 8446SOL    HW125879   1.671   3.110   7.237 -1.6614  0.5189  1.5867
 8446SOL    HW225880   1.612   2.973   7.211  0.0208 -0.1751  1.3054
 8447SOL     OW25881   2.550   1.168   6.657 -0.2653  0.0450  1.0069
 8447SOL    HW125882   2.639   1.132   6.657  0.0241  0.6771 -0.5146
 8447SOL    HW225883   2.536   1.197   6.567 -1.4303  1.4112  1.5939
 8448SOL     OW25884   2.738   0.717   1.616  0.4842 -0.1365  0.4028
 8448SOL    HW125885   2.757   0.707   1.523 -0.3810  0.5012  0.1429
 8448SOL    HW225886   2.705   0.631   1.643  3.2008 -1.1709  0.7873
 8449SOL     OW25887   2.636   2.261   7.124  0.7195  0.5999 -0.7192
 8449SOL    HW125888   2.711   2.202   7.114 -1.3949 -2.2523 -0.7725
 8449SOL    HW225889   2.645   2.322   7.051  3.3594  0.8592 -0.2770
 8450SOL     OW25890   6.328   7.616   3.015  0.1000  0.1247  0.5224
 8450SOL    HW125891   6.357   7.530   2.985 -0.2461  0.5593 -1.1849
 8450SOL    HW225892   6.241   7.601   3.051  1.6175 -0.9219  4.2643
 8451SOL     OW25893   0.780   7.477   0.669  0.2320  0.2638  0.0754
 8451SOL    HW125894   0.763   7.395   0.716  0.0578  1.5002  2.2938
 8451SOL    HW225895   0.874   7.491   0.679  0.1796  0.5731  0.1510
 8452SOL     OW25896   2.841   4.949   7.417 -0.4005  0.1029 -0.0341
 8452SOL    HW125897   2.935   4.946   7.433 -0.3893  2.6522  0.8838
 8452SOL    HW225898   2.806   4.876   7.467  1.1976 -2.2114 -2.0442
 8453SOL     OW25899   2.177   1.456   5.015  0.1099 -0.2138 -0.1525
 8453SOL    HW125900   2.151   1.439   5.105 -0.8303 -3.4631 -0.9148
 8453SOL    HW225901   2.116   1.405   4.962  1.2281  0.8324 -2.6118
 8454SOL     OW25902   2.416   0.843   1.591  0.0738 -0.4181 -1.1018
 8454SOL    HW125903   2.476   0.865   1.519  3.6428  4.9780  2.6634
 8454SOL    HW225904   2.467   0.784   1.647 -0.1506  0.2100 -0.2174
 8455SOL     OW25905   0.386   2.401   2.052 -0.2477 -0.4033  0.0854
 8455SOL    HW125906   0.418   2.313   2.070  1.2541 -0.2757 -1.6655
 8455SOL    HW225907   0.403   2.414   1.959  0.6512  2.1454  0.5294
 8456SOL     OW25908   2.915   5.195   3.333 -0.2152 -0.5704  0.2180
 8456SOL    HW125909   2.916   5.282   3.294 -0.9420  0.5290  2.4681
 8456SOL    HW225910   2.931   5.135   3.260  0.8988  1.4611 -1.2980
 8457SOL     OW25911   1.831   6.172   6.609 -0.3281 -0.1732 -0.2818
 8457SOL    HW125912   1.825   6.116   6.686 -1.2501 -1.2651 -1.1202
 8457SOL    HW225913   1.826   6.261   6.644  2.3748 -0.4827  1.2010
 8458SOL     OW25914   1.076   6.796   1.411 -0.1285 -0.3510 -0.6391
 8458SOL    HW125915   1.149   6.758   1.460 -0.2162  0.6965  0.3457
 8458SOL    HW225916   1.033   6.721   1.370 -0.1477 -1.2906  1.0314
 8459SOL     OW25917   7.612   1.059   1.367 -0.0635  0.3931 -0.1710
 8459SOL    HW125918   7.545   1.127   1.374  0.4416  1.1351 -1.9233
 8459SOL    HW225919   7.683   1.088   1.425 -1.2913 -0.5240  1.8937
 8460SOL     OW25920   5.018   2.420   4.527  0.0460 -0.2231 -0.0195
 8460SOL    HW125921   5.063   2.336   4.540 -1.5500 -1.3504 -1.3213
 8460SOL    HW225922   5.083   2.477   4.488  0.7669 -1.3553 -0.5331
 8461SOL     OW25923   6.734   6.159   5.597 -0.0738  0.1612 -0.3248
 8461SOL    HW125924   6.823   6.141   5.566 -0.6178  3.4375 -4.8040
 8461SOL    HW225925   6.682   6.087   5.562  0.5229 -1.1173  1.2746
 8462SOL     OW25926   3.557   2.367   3.030  0.0514  0.2910 -0.1632
 8462SOL    HW125927   3.474   2.403   3.000  0.3357  0.5619 -0.6423
 8462SOL    HW225928   3.623   2.424   2.990  0.4741 -0.1108 -0.0403
 8463SOL     OW25929   5.780   0.509   7.348  0.3917 -0.0158 -0.2060
 8463SOL    HW125930   5.782   0.530   7.255  0.6096  0.4493 -0.0953
 8463SOL    HW225931   5.871   0.513   7.376  0.2759  0.2904  0.1292
 8464SOL     OW25932   1.386   6.461   3.970  0.2086 -0.2735  0.9835
 8464SOL    HW125933   1.417   6.437   3.883 -0.9921  1.2367  0.0812
 8464SOL    HW225934   1.302   6.504   3.954 -0.4033 -0.6423  2.9683
 8465SOL     OW25935   2.403   4.975   7.519  0.2716 -0.0180  0.4007
 8465SOL    HW125936   2.432   4.893   7.478  1.5172  0.8943 -0.6152
 8465SOL    HW225937   2.326   4.950   7.570  0.1459 -1.6614 -0.5307
 8466SOL     OW25938   0.211   1.556   1.112  0.0672 -0.8530  0.3680
 8466SOL    HW125939   0.190   1.505   1.190 -2.3046  1.9986  1.7888
 8466SOL    HW225940   0.128   1.563   1.064  0.5986  0.5374 -0.4186
 8467SOL     OW25941   3.611   4.895   0.139 -0.0297 -0.5486  0.3147
 8467SOL    HW125942   3.560   4.974   0.155  0.8125 -0.3267  2.0984
 8467SOL    HW225943   3.685   4.926   0.086 -0.4647 -0.4253 -0.2293
 8468SOL     OW25944   5.683   0.044   7.192 -0.1017 -0.5341  0.1949
 8468SOL    HW125945   5.665   0.089   7.274 -0.5757  0.1881 -0.2971
 8468SOL    HW225946   5.763   0.084   7.159 -0.8954  0.4801 -0.5877
 8469SOL     OW25947   4.298   4.656   3.132 -0.0306 -0.3975  0.0041
 8469SOL    HW125948   4.321   4.576   3.180 -0.3033 -1.2695 -1.2597
 8469SOL    HW225949   4.378   4.707   3.130 -0.0854 -0.1830  1.6209
 8470SOL     OW25950   1.883   4.565   4.310 -0.0861  0.3276  0.0487
 8470SOL    HW125951   1.950   4.578   4.243 -0.5181  1.9909 -0.1139
 8470SOL    HW225952   1.832   4.646   4.309 -1.0522 -0.2200  1.3451
 8471SOL     OW25953   6.718   7.344   2.155  0.5315  0.0146  0.3398
 8471SOL    HW125954   6.625   7.346   2.132  0.7445 -0.9249 -0.6792
 8471SOL    HW225955   6.754   7.423   2.116  0.4959 -0.5542 -0.8971
 8472SOL     OW25956   3.916   4.494   0.703  0.0675 -0.2939  0.1022
 8472SOL    HW125957   4.000   4.481   0.747  0.3121 -1.4598 -0.6756
 8472SOL    HW225958   3.853   4.445   0.756  0.0585 -0.2375  0.1428
 8473SOL     OW25959   7.554   1.767   4.176 -0.1508  0.0646  0.2418
 8473SOL    HW125960   7.565   1.739   4.085  0.5935 -0.5882  0.5175
 8473SOL    HW225961   7.599   1.851   4.181 -2.4689  1.4439 -0.6127
 8474SOL     OW25962   5.018   5.736   3.809 -0.2599 -0.5460 -0.3131
 8474SOL    HW125963   5.082   5.705   3.872 -0.9281  1.4981  1.4920
 8474SOL    HW225964   4.957   5.789   3.860 -1.2877  0.5793 -2.5491
 8475SOL     OW25965   3.020   1.115   2.561 -0.3005 -0.0745 -0.3417
 8475SOL    HW125966   2.946   1.158   2.603 -1.1990 -1.1035 -0.8172
 8475SOL    HW225967   3.019   1.026   2.597  1.5935  0.2836  0.7303
 8476SOL     OW25968   4.482   5.085   6.440 -0.5319 -0.2432 -0.2519
 8476SOL    HW125969   4.437   5.137   6.505  0.6136  0.1381  0.2645
 8476SOL    HW225970   4.541   5.028   6.490 -0.1446 -0.4459 -0.9105
 8477SOL     OW25971   1.061   7.171   2.422 -0.5398  0.5232 -0.3882
 8477SOL    HW125972   1.045   7.079   2.442  0.4469 -0.0234 -1.9316
 8477SOL    HW225973   1.118   7.170   2.346 -0.9440  2.4335 -0.7869
 8478SOL     OW25974   7.056   4.344   4.642 -0.0997 -0.6203 -0.0434
 8478SOL    HW125975   7.040   4.417   4.703  1.1669 -1.8662  1.8878
 8478SOL    HW225976   7.025   4.267   4.690  0.0471 -1.5396 -1.3983
 8479SOL     OW25977   6.086   2.355   3.529  0.0904  0.1943 -0.4681
 8479SOL    HW125978   6.078   2.266   3.497  1.0166  0.1482 -0.6226
 8479SOL    HW225979   6.177   2.361   3.560 -0.1931  0.8375  0.2879
 8480SOL     OW25980   6.130   0.568   6.455 -0.0107 -0.0511  0.2307
 8480SOL    HW125981   6.072   0.517   6.398 -0.5484  0.4559  0.3174
 8480SOL    HW225982   6.153   0.645   6.402  1.5188 -0.8023 -0.2429
 8481SOL     OW25983   2.619   1.884   4.348 -0.5200  0.3145 -0.6315
 8481SOL    HW125984   2.552   1.952   4.359 -0.3617  0.2996  0.4833
 8481SOL    HW225985   2.589   1.811   4.402  1.8505  1.4090  2.4852
 8482SOL     OW25986   2.613   2.704   5.638  0.2845 -0.7693  0.4998
 8482SOL    HW125987   2.531   2.753   5.631  1.5010  1.6057  1.5062
 8482SOL    HW225988   2.598   2.641   5.708 -1.0989 -1.3229 -0.2730
 8483SOL     OW25989   7.165   3.471   0.089 -0.7063  0.5399  0.8129
 8483SOL    HW125990   7.238   3.505   0.037 -2.3510  2.4929 -0.3995
 8483SOL    HW225991   7.099   3.446   0.024 -0.9455 -1.7433  1.8491
 8484SOL     OW25992   2.133   2.097   3.270 -0.1160 -0.2470  1.0338
 8484SOL    HW125993   2.117   2.081   3.178  1.8795  1.6687  0.2695
 8484SOL    HW225994   2.169   2.015   3.304 -0.1345 -0.7205 -0.0723
 8485SOL     OW25995   2.851   1.367   0.665  0.3233  0.0479  0.6694
 8485SOL    HW125996   2.785   1.374   0.596 -0.4943 -1.9774  1.1689
 8485SOL    HW225997   2.865   1.457   0.694  0.0668  0.8685 -1.5261
 8486SOL     OW25998   7.150   6.310   5.978 -0.3070  0.0477 -0.4399
 8486SOL    HW125999   7.143   6.229   5.926  0.0128 -0.0741 -0.2940
 8486SOL    HW226000   7.082   6.367   5.942  0.6238  0.3812 -1.7237
 8487SOL     OW26001   4.188   1.629   1.020 -0.0599 -0.3198  0.7643
 8487SOL    HW126002   4.281   1.605   1.013 -0.4305 -1.7989  0.5247
 8487SOL    HW226003   4.180   1.670   1.106  1.2483  2.0805 -0.1519
 8488SOL     OW26004   6.159   1.363   1.228 -0.0247 -0.1996  0.5177
 8488SOL    HW126005   6.253   1.345   1.224  0.0103  0.1551 -1.3493
 8488SOL    HW226006   6.121   1.303   1.164 -1.3298 -1.5623  2.4639
 8489SOL     OW26007   4.364   5.358   4.637  0.0876  0.0807 -0.2872
 8489SOL    HW126008   4.397   5.446   4.655 -0.5216  0.3457 -0.4158
 8489SOL    HW226009   4.276   5.357   4.677  0.4761 -0.8079  0.6044
 8490SOL     OW26010   3.537   0.770   1.310 -0.0995  0.3960  0.5512
 8490SOL    HW126011   3.457   0.719   1.325  0.2841 -0.5928 -0.5870
 8490SOL    HW226012   3.596   0.744   1.380 -0.9081  1.4836  1.6815
 8491SOL     OW26013   2.633   7.623   3.728 -0.4274  0.0241  0.3220
 8491SOL    HW126014   2.661   7.638   3.818 -2.8064 -1.3190  1.3709
 8491SOL    HW226015   2.666   7.535   3.707  0.5985  0.5466 -0.3788
 8492SOL     OW26016   1.185   0.876   3.981 -0.0826  0.5226  0.2127
 8492SOL    HW126017   1.110   0.826   4.012 -0.1166  0.5757  0.2166
 8492SOL    HW226018   1.221   0.822   3.910 -2.5913  2.3239 -2.7245
 8493SOL     OW26019   7.271   7.499   3.681  0.1121 -0.4431  0.2217
 8493SOL    HW126020   7.333   7.572   3.686  1.1097 -1.2230 -0.3447
 8493SOL    HW226021   7.195   7.529   3.730  0.8210  0.6587  0.6925
 8494SOL     OW26022   4.393   5.719   6.716  0.7491  0.1451  0.1860
 8494SOL    HW126023   4.350   5.648   6.763 -0.7202  0.2898 -0.8839
 8494SOL    HW226024   4.420   5.680   6.633 -1.2371  1.0876 -0.9729
 8495SOL     OW26025   1.484   2.833   5.573 -0.2424 -0.4267 -0.2825
 8495SOL    HW126026   1.455   2.779   5.646  1.5558 -1.5327 -0.3076
 8495SOL    HW226027   1.463   2.922   5.599 -1.8890 -0.9898  0.4539
 8496SOL     OW26028   6.537   3.833   2.393  0.0322  0.1640 -0.4809
 8496SOL    HW126029   6.498   3.789   2.318 -0.5069 -0.8553  0.3705
 8496SOL    HW226030   6.593   3.766   2.433 -1.2070  0.0356  1.1372
 8497SOL     OW26031   6.990   1.687   5.456  0.1283  0.0028  0.2606
 8497SOL    HW126032   6.990   1.649   5.544 -2.3671  2.5025  1.5410
 8497SOL    HW226033   6.937   1.627   5.404 -0.2004 -0.4301  1.0764
 8498SOL     OW26034   6.615   6.899   1.744 -0.4418 -0.0759 -0.2463
 8498SOL    HW126035   6.634   6.813   1.707 -1.4018  0.4180 -2.0546
 8498SOL    HW226036   6.541   6.931   1.692 -0.3088  1.7093  0.5809
 8499SOL     OW26037   0.602   1.489   4.124  0.2611  0.1339 -0.1610
 8499SOL    HW126038   0.641   1.402   4.128  0.9590  0.3909 -1.0411
 8499SOL    HW226039   0.601   1.510   4.030 -0.0664  0.9923  0.0295
 8500SOL     OW26040   6.168   3.067   5.584  0.7775 -0.5531  0.0387
 8500SOL    HW126041   6.165   3.026   5.498 -1.3496  1.8465 -1.1621
 8500SOL    HW226042   6.101   3.021   5.635  0.0242 -0.1172 -0.5435
 8501SOL     OW26043   7.413   3.333   3.005  0.1799 -0.2796 -0.0258
 8501SOL    HW126044   7.375   3.246   3.016 -0.4750  0.2700  3.2741
 8501SOL    HW226045   7.350   3.380   2.950 -1.7681 -0.7087  1.6858
 8502SOL     OW26046   2.687   6.652   2.956  0.5036  0.1654  0.7008
 8502SOL    HW126047   2.766   6.686   2.998 -0.3729  0.7612  1.9176
 8502SOL    HW226048   2.643   6.729   2.920 -1.2013  0.3576  2.9661
 8503SOL     OW26049   2.493   2.344   1.251 -0.7327 -0.6935  0.2383
 8503SOL    HW126050   2.512   2.431   1.216  0.4987 -1.0946 -0.1237
 8503SOL    HW226051   2.432   2.305   1.188  0.3426 -0.8617 -0.7210
 8504SOL     OW26052   3.154   3.131   6.192  0.3137  0.2543 -0.2705
 8504SOL    HW126053   3.087   3.083   6.143  1.0494 -1.7178  0.5486
 8504SOL    HW226054   3.163   3.083   6.274  2.5033  0.6314 -0.2191
 8505SOL     OW26055   1.857   3.420   2.604 -0.3664  0.1008 -0.2418
 8505SOL    HW126056   1.929   3.453   2.550 -1.1440 -0.5249 -1.7493
 8505SOL    HW226057   1.838   3.334   2.567 -0.9652 -0.3440  1.0477
 8506SOL     OW26058   4.916   2.497   1.540  0.2414  0.1677 -0.4809
 8506SOL    HW126059   4.980   2.426   1.553 -1.0146 -1.1383 -1.2386
 8506SOL    HW226060   4.854   2.485   1.612  0.3843  0.9442 -0.2202
 8507SOL     OW26061   5.570   4.825   6.330  0.1068 -0.0167  0.1775
 8507SOL    HW126062   5.661   4.798   6.331  0.1173 -0.0787 -1.2824
 8507SOL    HW226063   5.552   4.849   6.239 -0.3502  3.3127  0.9926
 8508SOL     OW26064   7.458   3.276   7.465  0.3820 -0.0648 -0.8683
 8508SOL    HW126065   7.553   3.289   7.466  0.3179  0.4677  0.4236
 8508SOL    HW226066   7.422   3.359   7.497 -0.4643 -0.5747 -0.4502
 8509SOL     OW26067   1.153   2.038   2.001 -0.7226 -0.2082 -0.4373
 8509SOL    HW126068   1.167   2.130   1.980  2.2057 -0.0048  1.7881
 8509SOL    HW226069   1.210   1.990   1.942  0.1140 -0.3175  0.4299
 8510SOL     OW26070   3.546   2.908   2.437  0.0323  0.6519 -0.3714
 8510SOL    HW126071   3.571   2.832   2.385  0.8415  0.2929  0.5081
 8510SOL    HW226072   3.457   2.890   2.466  0.7848 -0.7672  1.2078
 8511SOL     OW26073   5.961   7.533   5.657 -0.0700 -0.1924 -0.5344
 8511SOL    HW126074   5.887   7.591   5.678  0.3950  0.4808 -0.7239
 8511SOL    HW226075   5.941   7.500   5.570  0.2799  0.6978 -0.9633
 8512SOL     OW26076   0.712   7.622   6.982  0.0680  0.2802 -0.1256
 8512SOL    HW126077   0.624   7.606   6.949 -0.1741  2.1583 -0.5225
 8512SOL    HW226078   0.698   7.661   7.069  0.5955 -1.2783  0.6913
 8513SOL     OW26079   6.122   7.596   3.842 -0.4974 -0.2424 -0.1094
 8513SOL    HW126080   6.114   7.601   3.747  0.1795  0.8218 -0.1282
 8513SOL    HW226081   6.103   7.505   3.863 -0.4301 -0.5434 -1.2884
 8514SOL     OW26082   7.489   1.713   2.205  0.3237  0.6547 -0.6752
 8514SOL    HW126083   7.518   1.704   2.115 -1.8137 -1.1346 -1.2948
 8514SOL    HW226084   7.395   1.732   2.198  0.2379  1.1022  1.1700
 8515SOL     OW26085   5.441   3.639   4.497 -0.2690  0.0466  0.1607
 8515SOL    HW126086   5.358   3.663   4.539 -0.0700  0.2877  0.4226
 8515SOL    HW226087   5.507   3.655   4.565  0.1459  1.1553 -0.4790
 8516SOL     OW26088   3.452   3.533   1.265 -0.4323  0.5350 -0.5090
 8516SOL    HW126089   3.387   3.596   1.232 -1.6308  0.2336  1.1213
 8516SOL    HW226090   3.499   3.581   1.333 -0.7843 -0.0476  0.1636
 8517SOL     OW26091   6.041   2.029   4.024  0.0118  0.1673 -0.5256
 8517SOL    HW126092   5.970   2.046   4.086  0.5459  1.1913 -0.1776
 8517SOL    HW226093   6.038   1.934   4.010 -0.3494 -0.0347  0.7804
 8518SOL     OW26094   4.443   6.579   4.891 -0.2569  0.0904  0.3418
 8518SOL    HW126095   4.428   6.659   4.840  1.9380  0.9892  1.0079
 8518SOL    HW226096   4.459   6.610   4.980 -1.1617 -1.2541  1.0134
 8519SOL     OW26097   2.123   7.131   1.561  0.1618 -0.3718 -0.3265
 8519SOL    HW126098   2.163   7.194   1.620 -1.3931 -0.2210  0.6100
 8519SOL    HW226099   2.104   7.054   1.615  0.3765 -0.9462 -1.0395
 8520SOL     OW26100   0.860   6.060   3.723  0.2753  0.3471  1.1093
 8520SOL    HW126101   0.887   6.008   3.647  1.5498 -1.1402  2.5090
 8520SOL    HW226102   0.802   6.127   3.687  0.8278 -0.3155 -1.1629
 8521SOL     OW26103   0.980   7.347   4.246  0.2323  0.1284 -0.1755
 8521SOL    HW126104   0.903   7.308   4.288 -0.3945 -0.6813 -1.9602
 8521SOL    HW226105   1.027   7.390   4.317 -1.5617  0.1389  1.0689
 8522SOL     OW26106   6.938   1.048   3.681  0.1777  0.2060  0.1910
 8522SOL    HW126107   6.992   1.010   3.612 -0.2086 -0.4212  0.2234
 8522SOL    HW226108   6.988   1.123   3.713  1.5469 -1.0004  0.9855
 8523SOL     OW26109   5.653   3.643   5.007 -0.1657 -0.4928 -0.3580
 8523SOL    HW126110   5.597   3.687   5.071  0.7656 -0.7536  0.6668
 8523SOL    HW226111   5.742   3.670   5.031  0.1784 -0.2306 -1.8411
 8524SOL     OW26112   5.679   2.803   4.595 -0.1246  0.6716 -0.4025
 8524SOL    HW126113   5.602   2.849   4.628  0.4587  1.6414 -0.3605
 8524SOL    HW226114   5.746   2.818   4.662 -0.0183 -0.5544 -0.2108
 8525SOL     OW26115   5.888   5.711   2.509 -0.1903  0.0213  0.2638
 8525SOL    HW126116   5.879   5.804   2.532  0.7084 -0.2266  1.7647
 8525SOL    HW226117   5.977   5.704   2.474 -0.2691 -0.2651  0.1213
 8526SOL     OW26118   6.302   1.339   5.167 -0.3627 -0.5454  0.1512
 8526SOL    HW126119   6.275   1.286   5.092 -1.2183 -0.2549  0.2424
 8526SOL    HW226120   6.306   1.278   5.240 -1.9979 -0.3997  0.4044
 8527SOL     OW26121   1.572   3.801   2.623  0.1659 -0.0348 -0.5057
 8527SOL    HW126122   1.571   3.829   2.715 -1.4045  0.9978 -0.7804
 8527SOL    HW226123   1.480   3.782   2.603  0.8132 -2.8850 -1.1402
 8528SOL     OW26124   0.017   6.750   0.099 -0.0256  0.0631 -0.3819
 8528SOL    HW126125   0.018   6.828   0.042 -0.8477  0.3565 -0.0124
 8528SOL    HW226126  -0.072   6.746   0.132  0.0721 -0.9220 -0.2166
 8529SOL     OW26127   6.526   2.945   1.495  0.1457  0.4281  0.3766
 8529SOL    HW126128   6.521   3.024   1.442  1.7598  0.2199 -0.1476
 8529SOL    HW226129   6.456   2.955   1.560 -0.9317  1.3707 -0.8578
 8530SOL     OW26130   6.418   5.688   1.060  0.0841 -0.1059 -0.2796
 8530SOL    HW126131   6.423   5.782   1.075  1.0734 -0.0523 -0.8608
 8530SOL    HW226132   6.405   5.650   1.147 -1.6688  0.6245 -0.1777
 8531SOL     OW26133   3.022   5.018   0.971 -0.0110 -0.1489  0.0798
 8531SOL    HW126134   2.945   5.073   0.987 -0.3745 -0.3070 -1.0881
 8531SOL    HW226135   3.062   5.008   1.058 -0.5538  1.0379  0.4873
 8532SOL     OW26136   1.568   4.608   4.934  0.6053  0.4718  0.1407
 8532SOL    HW126137   1.661   4.596   4.955  0.1270 -1.0506  1.6464
 8532SOL    HW226138   1.537   4.671   4.999  0.4658  0.6133 -0.0612
 8533SOL     OW26139   6.737   0.342   3.892 -0.0019 -0.2980 -0.4524
 8533SOL    HW126140   6.758   0.400   3.819 -2.0138  0.7734 -0.2663
 8533SOL    HW226141   6.741   0.254   3.855  2.1003 -0.0190 -1.0072
 8534SOL     OW26142   1.021   5.664   4.174  0.5019  0.2304 -0.0506
 8534SOL    HW126143   1.076   5.633   4.102  0.6066  0.7288 -0.1846
 8534SOL    HW226144   1.079   5.717   4.228  0.4863 -0.3329  0.5413
 8535SOL     OW26145   1.358   3.080   0.779 -1.0487 -0.3131 -0.3171
 8535SOL    HW126146   1.393   3.121   0.700 -2.7009  2.2958  0.2014
 8535SOL    HW226147   1.265   3.068   0.760 -1.4584  0.3342  1.1899
 8536SOL     OW26148   6.300   2.706   2.350  0.5173 -0.3382  0.3503
 8536SOL    HW126149   6.311   2.618   2.387  0.0920 -0.5919 -0.1210
 8536SOL    HW226150   6.293   2.762   2.427  1.9366 -0.5506  0.6694
 8537SOL     OW26151   5.629   7.202   0.578 -0.6227  0.0788  0.5037
 8537SOL    HW126152   5.667   7.207   0.666  0.4459 -1.0787  0.1282
 8537SOL    HW226153   5.538   7.177   0.593 -0.9848  1.7516  1.3564
 8538SOL     OW26154   1.545   7.198   3.626 -0.0396  0.7037  0.1641
 8538SOL    HW126155   1.550   7.128   3.691  0.7821  1.7264  1.2494
 8538SOL    HW226156   1.515   7.155   3.546 -0.6411 -0.6675  1.0977
 8539SOL     OW26157   5.875   1.550   3.537 -0.0514  0.2044  0.5110
 8539SOL    HW126158   5.888   1.544   3.443  0.2677 -0.7391  0.5986
 8539SOL    HW226159   5.784   1.580   3.548  0.9861  4.1125 -0.0968
 8540SOL     OW26160   2.132   4.822   6.125 -0.1461 -0.0186  0.2198
 8540SOL    HW126161   2.073   4.810   6.051 -0.0649 -0.5233  0.2365
 8540SOL    HW226162   2.175   4.906   6.107 -0.4105  0.0490 -0.1076
 8541SOL     OW26163   5.198   3.142   4.313 -0.1057  0.3640 -0.2398
 8541SOL    HW126164   5.160   3.073   4.367 -1.4906 -0.3248 -2.0033
 8541SOL    HW226165   5.208   3.102   4.227  0.9196  1.7929 -0.8185
 8542SOL     OW26166   1.533   6.043   5.314  0.2071  0.0582  0.2821
 8542SOL    HW126167   1.520   5.948   5.312 -1.1379  0.2333 -0.3644
 8542SOL    HW226168   1.478   6.074   5.385 -1.9804  0.6597 -1.5553
 8543SOL     OW26169   0.343   6.816   3.659  0.3886 -0.2180 -0.2379
 8543SOL    HW126170   0.429   6.779   3.638  0.7730  1.8036 -2.7616
 8543SOL    HW226171   0.362   6.894   3.710 -0.1760 -1.2062  1.5631
 8544SOL     OW26172   3.080   1.788   6.627  0.3645 -0.5071 -0.4090
 8544SOL    HW126173   3.013   1.729   6.663  1.4101 -1.2950  0.2785
 8544SOL    HW226174   3.072   1.868   6.679  1.2077 -1.2855  0.9796
 8545SOL     OW26175   4.285   4.000   1.001 -0.0957 -0.0266  0.0156
 8545SOL    HW126176   4.356   3.956   1.049 -0.6905  0.8078  1.7400
 8545SOL    HW226177   4.206   3.951   1.024 -0.1857 -0.6495 -1.5056
 8546SOL     OW26178   4.567   6.672   6.598 -0.3930 -0.1189  0.6198
 8546SOL    HW126179   4.565   6.671   6.502 -2.1553 -2.2615  0.5965
 8546SOL    HW226180   4.538   6.760   6.621  0.9892  0.7628 -0.7630
 8547SOL     OW26181   3.521   2.447   2.504  0.3818 -1.0895 -0.7712
 8547SOL    HW126182   3.534   2.471   2.596  1.8463 -1.9741 -0.7050
 8547SOL    HW226183   3.466   2.368   2.507 -0.3030 -0.6166 -0.7159
 8548SOL     OW26184   2.154   0.469   0.758 -0.1755  0.1690 -0.5149
 8548SOL    HW126185   2.187   0.514   0.681  1.9155 -1.7047 -0.8130
 8548SOL    HW226186   2.136   0.539   0.821 -1.1950  1.6659 -2.3910
 8549SOL     OW26187   1.579   2.825   4.372 -0.9634  0.8772  0.3072
 8549SOL    HW126188   1.528   2.850   4.449 -0.2012  2.1080  0.4375
 8549SOL    HW226189   1.562   2.731   4.361 -0.1197  0.3592  2.7384
 8550SOL     OW26190   7.061   3.318   1.661  0.0360  0.6845 -0.4261
 8550SOL    HW126191   7.028   3.407   1.646  0.6789  0.9914 -0.0382
 8550SOL    HW226192   7.067   3.280   1.573  0.3370  1.2334 -0.6445
 8551SOL     OW26193   3.982   6.130   4.260 -0.1702  0.2475 -0.7379
 8551SOL    HW126194   3.911   6.069   4.241 -0.3736  0.3493 -0.3150
 8551SOL    HW226195   3.979   6.142   4.355  0.3739  0.3014 -0.7248
 8552SOL     OW26196   0.542   3.656   2.299  0.1237  0.2221 -0.0550
 8552SOL    HW126197   0.479   3.709   2.348 -1.0171 -0.2721 -0.9508
 8552SOL    HW226198   0.539   3.570   2.341  1.9846  0.7856  1.4069
 8553SOL     OW26199   3.385   7.358   1.425  0.1247 -0.0991  0.3022
 8553SOL    HW126200   3.325   7.426   1.394 -0.8209 -1.4841 -1.0386
 8553SOL    HW226201   3.364   7.347   1.518  1.6970  2.7873  1.1415
 8554SOL     OW26202   7.265   5.456   6.254 -0.2542 -0.1681 -0.1451
 8554SOL    HW126203   7.271   5.434   6.161 -0.3878 -0.1368 -0.1613
 8554SOL    HW226204   7.316   5.388   6.298 -2.5174 -1.8855  0.0104
 8555SOL     OW26205   1.175   2.898   6.051  0.2917 -0.1366  0.3349
 8555SOL    HW126206   1.116   2.834   6.011  1.6285 -0.1429 -1.7362
 8555SOL    HW226207   1.125   2.931   6.126 -1.8152 -1.0907 -0.5425
 8556SOL     OW26208   0.840   1.284   0.715 -0.2628 -0.4255  0.0274
 8556SOL    HW126209   0.786   1.307   0.640 -0.8237  3.1523  1.3330
 8556SOL    HW226210   0.787   1.220   0.763  0.0776 -2.7240 -2.4274
 8557SOL     OW26211   2.841   4.840   5.571  0.4827  0.4609 -0.5108
 8557SOL    HW126212   2.914   4.875   5.621  1.1107  2.0872 -2.4198
 8557SOL    HW226213   2.883   4.790   5.500 -0.3142 -0.1756 -0.5460
 8558SOL     OW26214   6.997   4.827   5.933 -0.1871 -0.1753  0.2447
 8558SOL    HW126215   7.023   4.778   5.855  0.9929 -0.7921  0.9963
 8558SOL    HW226216   6.961   4.908   5.898 -0.6994 -0.8908 -0.9781
 8559SOL     OW26217   7.270   1.788   3.891 -0.2231  0.0721  0.1190
 8559SOL    HW126218   7.257   1.770   3.798 -0.5150  0.8707  0.0019
 8559SOL    HW226219   7.193   1.752   3.934  0.2751 -0.9936  0.1475
 8560SOL     OW26220   1.527   3.652   5.498  0.2366 -0.0622 -0.3051
 8560SOL    HW126221   1.494   3.734   5.461  0.5558  1.3001  2.2191
 8560SOL    HW226222   1.455   3.618   5.551  0.5401 -0.7879 -0.3403
 8561SOL     OW26223   4.753   2.590   6.826 -0.3174  0.1772 -0.7225
 8561SOL    HW126224   4.681   2.584   6.763 -0.0264 -1.7043 -0.9404
 8561SOL    HW226225   4.814   2.521   6.799  0.7549  0.6285  0.4592
 8562SOL     OW26226   6.153   1.477   0.812 -0.0898 -0.2458 -0.1582
 8562SOL    HW126227   6.131   1.557   0.763 -3.0207  0.1360  1.5109
 8562SOL    HW226228   6.222   1.504   0.873 -0.2591  0.7411 -0.3874
 8563SOL     OW26229   4.380   2.004   7.344 -0.2876  0.2823  0.2459
 8563SOL    HW126230   4.406   2.043   7.427 -2.1892  0.8617  0.6246
 8563SOL    HW226231   4.350   2.078   7.290 -0.7404 -0.2768 -0.2905
 8564SOL     OW26232   3.478   6.232   1.408 -0.0151  0.1283 -0.3638
 8564SOL    HW126233   3.404   6.279   1.369 -2.7347 -1.6489  2.2345
 8564SOL    HW226234   3.466   6.142   1.380  1.0510 -0.2423  0.3210
 8565SOL     OW26235   3.064   5.211   6.693 -0.0831 -0.1830  0.4694
 8565SOL    HW126236   3.066   5.209   6.598  0.4278 -0.2141  0.4796
 8565SOL    HW226237   3.017   5.291   6.715 -0.1682 -0.1587  0.1937
 8566SOL     OW26238   6.016   4.075   2.689 -0.4794 -0.4639 -0.2575
 8566SOL    HW126239   6.094   4.111   2.732 -0.6098  1.0439 -1.2088
 8566SOL    HW226240   5.983   4.009   2.750  1.9206 -1.6530 -0.1435
 8567SOL     OW26241   2.009   5.260   3.027  0.4010 -0.4367  0.2007
 8567SOL    HW126242   1.944   5.232   3.092 -2.4995  0.4404 -2.0859
 8567SOL    HW226243   2.027   5.351   3.050  0.9063 -0.6948  0.8732
 8568SOL     OW26244   7.468   0.753   2.329 -0.4484 -0.0928  0.8379
 8568SOL    HW126245   7.395   0.717   2.278 -0.3821 -0.2588  0.8572
 8568SOL    HW226246   7.527   0.679   2.340  1.2418  0.6963 -1.8298
 8569SOL     OW26247   4.220   0.866   5.648  0.0512 -0.4896 -0.0196
 8569SOL    HW126248   4.259   0.889   5.564  1.3820 -0.5067  0.5702
 8569SOL    HW226249   4.225   0.947   5.700 -1.9550 -0.1032 -0.3679
 8570SOL     OW26250   2.214   2.151   3.748  0.5223  0.2772 -0.3236
 8570SOL    HW126251   2.171   2.077   3.706  0.5166  0.0023  0.1635
 8570SOL    HW226252   2.307   2.127   3.750  0.4832  0.1540  0.0928
 8571SOL     OW26253   1.714   1.310   2.553  0.1165  0.1301  0.0634
 8571SOL    HW126254   1.642   1.321   2.615 -0.8158 -0.9937 -0.7676
 8571SOL    HW226255   1.792   1.303   2.607 -0.4782  0.7019  1.0179
 8572SOL     OW26256   4.183   2.977   1.435  0.5795  0.2094  0.3435
 8572SOL    HW126257   4.111   2.947   1.379  0.2592  0.9272  0.3568
 8572SOL    HW226258   4.190   2.910   1.503  0.3426 -0.1870 -0.0154
 8573SOL     OW26259   5.154   4.813   3.035  0.0898 -0.0114 -0.0589
 8573SOL    HW126260   5.117   4.726   3.018  0.9311 -0.0999 -1.5655
 8573SOL    HW226261   5.248   4.802   3.021  0.1246  1.3149 -1.0667
 8574SOL     OW26262   2.615   5.895   6.685 -0.2307 -0.5785 -0.6339
 8574SOL    HW126263   2.539   5.875   6.630 -0.3126 -1.5860 -0.1801
 8574SOL    HW226264   2.608   5.833   6.758  1.7190 -1.5766 -1.2356
 8575SOL     OW26265   0.846   6.168   3.376 -0.4541  0.2584 -0.0683
 8575SOL    HW126266   0.800   6.177   3.293 -0.1211 -1.7937 -0.5329
 8575SOL    HW226267   0.778   6.147   3.440 -0.6874  1.6775  0.2009
 8576SOL     OW26268   3.693   2.541   0.106  0.0507 -0.3248  0.1057
 8576SOL    HW126269   3.710   2.544   0.200 -0.9985 -2.6596  0.4531
 8576SOL    HW226270   3.604   2.508   0.098  0.2597 -0.5997 -1.7049
 8577SOL     OW26271   3.216   1.402   7.576 -0.3343 -0.5973 -0.0243
 8577SOL    HW126272   3.253   1.474   7.626 -1.9913 -1.1661  2.1469
 8577SOL    HW226273   3.143   1.440   7.528  0.0299 -0.4514 -0.4710
 8578SOL     OW26274   5.848   4.341   4.335  0.1246  0.0810 -0.3212
 8578SOL    HW126275   5.798   4.290   4.398  1.1172 -0.4203  0.0827
 8578SOL    HW226276   5.835   4.432   4.362  0.7100 -0.1348  0.7449
 8579SOL     OW26277   6.817   5.484   7.165  0.9061  0.2880  0.5670
 8579SOL    HW126278   6.894   5.533   7.194  0.6083  0.9212  0.3157
 8579SOL    HW226279   6.743   5.538   7.192  0.5861  0.2455 -0.1885
 8580SOL     OW26280   5.639   5.355   7.243  0.1480  0.0012 -0.2664
 8580SOL    HW126281   5.667   5.293   7.311 -3.0447 -1.0239  0.2885
 8580SOL    HW226282   5.688   5.330   7.165  1.5229 -0.8865  0.8413
 8581SOL     OW26283   2.995   6.054   4.989 -0.1851  0.3579 -0.2677
 8581SOL    HW126284   3.084   6.060   5.022  0.4308 -0.2122 -1.7530
 8581SOL    HW226285   2.941   6.090   5.060  1.2254  0.9628  0.5458
 8582SOL     OW26286   7.071   7.450   2.857 -0.2104  0.4917 -0.0750
 8582SOL    HW126287   7.057   7.425   2.948  0.0331 -0.0197 -0.1711
 8582SOL    HW226288   7.071   7.545   2.857  0.2698  0.4964  0.5372
 8583SOL     OW26289   4.220   3.596   3.070  0.2287  0.2432  0.4490
 8583SOL    HW126290   4.281   3.662   3.037  0.0314  1.2501  1.9923
 8583SOL    HW226291   4.221   3.527   3.004  2.4049  0.6097  0.0339
 8584SOL     OW26292   0.241   4.007   2.549 -0.3511 -0.1681 -0.1499
 8584SOL    HW126293   0.254   4.000   2.644 -1.2845  0.3221  0.0263
 8584SOL    HW226294   0.324   4.039   2.515  0.4982 -1.7669  0.3089
 8585SOL     OW26295   1.177   3.184   5.125 -0.0708  0.0132 -0.5510
 8585SOL    HW126296   1.119   3.253   5.094  0.8488  0.7724 -0.6012
 8585SOL    HW226297   1.156   3.174   5.217 -1.8815 -1.3258 -1.0551
 8586SOL     OW26298   3.454   0.412   1.969 -0.1497  0.5859 -0.5467
 8586SOL    HW126299   3.503   0.465   2.032  0.3567  0.2101 -0.6181
 8586SOL    HW226300   3.396   0.358   2.022 -0.7859  1.3115 -0.4780
 8587SOL     OW26301   1.616   1.843   0.327 -0.0190 -0.3895 -0.1569
 8587SOL    HW126302   1.682   1.784   0.290 -1.3542 -2.0063 -0.1088
 8587SOL    HW226303   1.535   1.818   0.283 -1.4864 -1.6524  2.9314
 8588SOL     OW26304   3.328   7.027   0.178 -0.1016  0.3359  0.2732
 8588SOL    HW126305   3.404   6.976   0.207  0.4292  1.3155  0.6477
 8588SOL    HW226306   3.363   7.113   0.158 -1.0346  0.6480 -0.0740
 8589SOL     OW26307   0.901   2.120   1.001  0.2450 -0.4392  0.0132
 8589SOL    HW126308   0.906   2.101   0.908 -1.1536  2.0910 -0.6819
 8589SOL    HW226309   0.984   2.162   1.022  0.6507 -1.2113 -0.0177
 8590SOL     OW26310   7.572   0.361   4.612 -0.2054 -0.3050  0.3849
 8590SOL    HW126311   7.524   0.391   4.689  0.0045  0.5344  0.1950
 8590SOL    HW226312   7.611   0.440   4.576  1.0799 -0.9184  0.3638
 8591SOL     OW26313   2.230   3.660   2.300  0.6128 -0.1111 -0.0795
 8591SOL    HW126314   2.200   3.742   2.260  0.3788 -0.4515 -0.6015
 8591SOL    HW226315   2.274   3.688   2.381 -0.8330  0.4145  0.5500
 8592SOL     OW26316   6.324   0.894   1.778 -0.3260 -0.1957  0.0998
 8592SOL    HW126317   6.336   0.866   1.869 -1.4246 -2.1261 -0.2896
 8592SOL    HW226318   6.354   0.820   1.726 -0.8446  0.3961 -1.0918
 8593SOL     OW26319   6.113   7.541   4.702 -0.0820  0.1119 -0.1286
 8593SOL    HW126320   6.049   7.513   4.767 -0.2754 -1.4463 -0.9468
 8593SOL    HW226321   6.198   7.517   4.740 -0.2221 -1.2902 -0.6331
 8594SOL     OW26322   2.948   2.017   2.447 -0.0980 -0.0228 -0.0650
 8594SOL    HW126323   2.865   2.064   2.450 -0.3506 -0.3827 -0.9302
 8594SOL    HW226324   2.986   2.027   2.534 -0.1160  1.8424 -0.2314
 8595SOL     OW26325   1.862   0.690   0.673  0.1721 -0.1482  0.4185
 8595SOL    HW126326   1.937   0.633   0.689  0.9549  0.2978 -1.3578
 8595SOL    HW226327   1.786   0.636   0.693  0.8968 -1.6685 -0.6565
 8596SOL     OW26328   4.939   4.860   4.920  0.3721 -0.3024  0.3737
 8596SOL    HW126329   4.846   4.848   4.940 -0.1631  3.0334  0.3470
 8596SOL    HW226330   4.939   4.905   4.835  2.1520 -1.9423 -0.5770
 8597SOL     OW26331   1.770   7.255   4.687  0.0713  0.1034  0.3156
 8597SOL    HW126332   1.764   7.184   4.623  0.0915  0.1848  0.2219
 8597SOL    HW226333   1.807   7.215   4.765  0.5378  0.1160  0.1028
 8598SOL     OW26334   7.315   6.289   1.982  0.4552  0.5245  0.3847
 8598SOL    HW126335   7.317   6.310   1.889  0.7502  0.5566  0.3997
 8598SOL    HW226336   7.384   6.341   2.021  0.3403  0.5026  0.6223
 8599SOL     OW26337   3.626   3.659   0.076  0.1795 -0.1779 -0.4795
 8599SOL    HW126338   3.548   3.616   0.112  0.1662 -0.8318 -1.2564
 8599SOL    HW226339   3.653   3.721   0.143 -0.5653 -0.4967  0.1221
 8600SOL     OW26340   4.147   1.365   7.602 -0.0317 -0.3252  0.0709
 8600SOL    HW126341   4.085   1.298   7.571  0.1621 -1.3339  1.7330
 8600SOL    HW226342   4.226   1.315   7.622  0.4684  0.5827  0.3533
 8601SOL     OW26343   1.075   5.507   0.033 -1.0267  0.7360 -0.7363
 8601SOL    HW126344   1.068   5.590   0.081  0.2657  0.6308 -0.3342
 8601SOL    HW226345   1.122   5.449   0.092  1.8356  1.0007 -2.5728
 8602SOL     OW26346   2.214   4.782   2.861  0.3386 -0.1568 -0.0416
 8602SOL    HW126347   2.138   4.756   2.809  0.1306  1.2894 -0.5139
 8602SOL    HW226348   2.205   4.732   2.942 -1.0576 -0.1384 -0.1473
 8603SOL     OW26349   0.748   5.564   3.181 -0.3810 -0.2321 -0.1009
 8603SOL    HW126350   0.718   5.655   3.183 -0.1378 -0.0946 -1.4955
 8603SOL    HW226351   0.813   5.558   3.251 -0.1920  0.7554 -0.1811
 8604SOL     OW26352   2.356   2.682   2.833  0.3345  0.6047 -0.1785
 8604SOL    HW126353   2.376   2.773   2.853 -0.7976  0.6111  1.0809
 8604SOL    HW226354   2.276   2.664   2.882 -0.1844 -0.6936 -1.4308
 8605SOL     OW26355   3.078   5.359   4.577  0.3391  0.1134  0.0698
 8605SOL    HW126356   3.056   5.289   4.638  0.2807 -1.7396 -1.9785
 8605SOL    HW226357   3.163   5.333   4.540 -1.2239 -0.7959 -3.2352
 8606SOL     OW26358   1.823   6.021   1.209 -0.2406  0.4992 -0.2869
 8606SOL    HW126359   1.904   5.992   1.168 -0.4857  0.4861 -0.7606
 8606SOL    HW226360   1.761   5.949   1.195  0.1454 -0.2801  1.6064
 8607SOL     OW26361   0.456   7.537   7.205 -0.6861 -0.7580 -0.4219
 8607SOL    HW126362   0.480   7.616   7.254  0.0094  0.5831 -2.7532
 8607SOL    HW226363   0.470   7.465   7.267 -2.8561  0.9753  2.3068
 8608SOL     OW26364   5.866   4.397   1.176  0.5054  0.3774 -0.0592
 8608SOL    HW126365   5.928   4.468   1.193  1.0511 -0.2288  0.5147
 8608SOL    HW226366   5.810   4.396   1.254  0.4322  0.2482 -0.1139
 8609SOL     OW26367   4.002   1.517   5.650 -0.4239  0.0096  0.2744
 8609SOL    HW126368   4.077   1.490   5.703 -0.3033 -2.8824 -1.2044
 8609SOL    HW226369   4.035   1.519   5.560 -1.6087  0.8495 -0.1649
 8610SOL     OW26370   6.914   5.878   4.254 -0.6190  0.2584 -0.1961
 8610SOL    HW126371   6.831   5.890   4.207 -1.2067 -0.2516  0.6976
 8610SOL    HW226372   6.935   5.965   4.287 -0.5878  0.4707 -0.7632
 8611SOL     OW26373   4.411   2.081   6.841 -0.0572 -0.1473  0.0216
 8611SOL    HW126374   4.484   2.026   6.870  0.0271 -0.6562 -1.1114
 8611SOL    HW226375   4.373   2.115   6.922  2.8487  2.0376  0.6223
 8612SOL     OW26376   6.328   3.852   1.918 -0.4327 -0.0041 -0.1228
 8612SOL    HW126377   6.330   3.789   1.847  0.3993 -0.3193  0.1664
 8612SOL    HW226378   6.318   3.937   1.875 -0.1187 -0.2092 -0.6100
 8613SOL     OW26379   7.281   6.926   4.277 -0.5073 -0.2388  0.4523
 8613SOL    HW126380   7.348   6.939   4.344 -0.5786  1.1018  0.2920
 8613SOL    HW226381   7.249   7.015   4.258 -0.4881 -0.5983 -1.3547
 8614SOL     OW26382   1.402   6.764   7.600  0.3357 -0.5092  0.1174
 8614SOL    HW126383   1.351   6.823   7.546  4.0422  3.9126  0.8488
 8614SOL    HW226384   1.376   6.785   7.690  2.3072  0.8381  0.4272
 8615SOL     OW26385   0.976   0.406   0.817  0.1539  0.4507  0.2129
 8615SOL    HW126386   1.042   0.476   0.822 -0.8556  1.6113 -1.7538
 8615SOL    HW226387   0.926   0.425   0.738 -0.2716 -2.4363 -0.3413
 8616SOL     OW26388   6.758   0.971   0.117  0.1251 -0.0867 -0.2001
 8616SOL    HW126389   6.752   1.012   0.030 -0.6239  0.6323  0.1742
 8616SOL    HW226390   6.757   0.877   0.099 -1.1759  0.0340 -0.9287
 8617SOL     OW26391   2.790   5.951   2.590 -0.0042 -0.0605  0.3703
 8617SOL    HW126392   2.831   5.979   2.508  3.2403 -1.5767  1.3154
 8617SOL    HW226393   2.781   6.032   2.641  2.6988  0.3248  0.3883
 8618SOL     OW26394   0.587   0.166   6.671  0.0294 -0.4576 -0.7608
 8618SOL    HW126395   0.516   0.197   6.727  0.4421  1.1107 -1.0582
 8618SOL    HW226396   0.544   0.125   6.597 -0.5483 -0.1023 -0.6232
 8619SOL     OW26397   6.300   5.082   6.037  0.5461 -0.1850  0.0242
 8619SOL    HW126398   6.299   5.039   6.122 -0.7722  1.4260  0.8742
 8619SOL    HW226399   6.242   5.029   5.982 -0.8257  0.3235  0.9618
 8620SOL     OW26400   2.335   4.996   2.552 -0.1238  0.2908 -0.2926
 8620SOL    HW126401   2.338   5.065   2.618  1.5401 -0.1238  0.1112
 8620SOL    HW226402   2.426   4.964   2.546 -0.3498 -0.1163 -2.3135
 8621SOL     OW26403   1.015   5.721   0.770  0.0025 -0.3256 -0.7514
 8621SOL    HW126404   0.928   5.714   0.810 -0.4234 -0.1539 -1.6076
 8621SOL    HW226405   1.040   5.812   0.784 -0.7695  0.1211 -2.0671
 8622SOL     OW26406   4.335   7.523   5.170  0.5711  0.3009 -0.0318
 8622SOL    HW126407   4.413   7.537   5.224  0.9700 -0.2702 -0.4540
 8622SOL    HW226408   4.363   7.461   5.103  0.0756  0.9700 -0.8853
 8623SOL     OW26409   4.989   3.428   1.620  0.0457 -0.0366  0.6383
 8623SOL    HW126410   5.037   3.510   1.627  0.8166 -0.3132 -0.8494
 8623SOL    HW226411   4.947   3.417   1.704  1.5787  0.8759  1.5718
 8624SOL     OW26412   3.908   3.247   5.980  0.0275 -0.0440 -0.5640
 8624SOL    HW126413   3.993   3.252   6.024  0.1389  0.5310 -0.8462
 8624SOL    HW226414   3.859   3.322   6.013 -0.4473 -0.4827 -0.2529
 8625SOL     OW26415   1.563   4.692   5.675  0.3695  0.0933  0.2449
 8625SOL    HW126416   1.627   4.760   5.698  0.2767  0.3378 -0.2199
 8625SOL    HW226417   1.568   4.630   5.748  0.3250  0.6854  0.7647
 8626SOL     OW26418   0.728   0.530   4.856  0.4886 -0.3304 -0.3202
 8626SOL    HW126419   0.746   0.594   4.786  0.0336  1.2642  0.9488
 8626SOL    HW226420   0.812   0.521   4.902 -0.1907  2.1692  1.6565
 8627SOL     OW26421   6.431   4.298   0.349  0.3226 -0.2933  0.2095
 8627SOL    HW126422   6.509   4.255   0.384  1.3448  2.3830  1.4192
 8627SOL    HW226423   6.416   4.373   0.407 -1.5717  0.8102 -1.5762
 8628SOL     OW26424   4.913   1.770   0.901 -0.1955 -0.4310 -0.2437
 8628SOL    HW126425   4.939   1.703   0.839 -1.2855 -2.0693  0.9986
 8628SOL    HW226426   4.899   1.848   0.847  2.6957 -0.6498 -1.5285
 8629SOL     OW26427   7.123   4.575   5.104  0.1967 -0.4677 -0.1377
 8629SOL    HW126428   7.100   4.511   5.171 -2.3365 -0.8203 -1.2271
 8629SOL    HW226429   7.090   4.658   5.137  1.1662 -0.1758  0.1225
 8630SOL     OW26430   5.348   2.674   6.224  0.3999  0.0364 -0.0167
 8630SOL    HW126431   5.332   2.632   6.308  0.0575 -0.8276 -0.5093
 8630SOL    HW226432   5.424   2.628   6.188  1.0670  0.9451  0.1661
 8631SOL     OW26433   0.383   1.737   0.259  0.2214  0.0705  0.5831
 8631SOL    HW126434   0.386   1.672   0.188 -0.4871  1.8292 -1.1668
 8631SOL    HW226435   0.370   1.685   0.338 -1.0119 -1.8974 -0.8008
 8632SOL     OW26436   0.424   0.301   0.895 -0.0683  0.8536 -0.2713
 8632SOL    HW126437   0.451   0.317   0.805  0.3440  0.3757 -0.2421
 8632SOL    HW226438   0.400   0.208   0.897  3.2234 -0.1217  0.8559
 8633SOL     OW26439   3.433   2.742   4.164 -0.6138 -0.4285 -0.2182
 8633SOL    HW126440   3.395   2.727   4.251 -0.8582  0.4404 -0.1731
 8633SOL    HW226441   3.390   2.821   4.132  3.8820  3.1085  1.4669
 8634SOL     OW26442   1.022   3.981   6.233  0.2308 -0.3146 -0.2661
 8634SOL    HW126443   1.055   3.892   6.225  0.5157 -0.1976 -0.4300
 8634SOL    HW226444   1.010   4.010   6.142 -1.1020 -0.6350 -0.2023
 8635SOL     OW26445   0.753   4.241   3.037 -0.1586 -0.0199  0.3469
 8635SOL    HW126446   0.823   4.290   2.993 -0.5452  0.9458  0.7716
 8635SOL    HW226447   0.792   4.157   3.058  0.3921 -0.0763 -0.8025
 8636SOL     OW26448   1.933   5.543   1.112 -0.0394 -0.2022  0.3596
 8636SOL    HW126449   1.900   5.530   1.201 -0.4931 -0.1618  0.1966
 8636SOL    HW226450   1.898   5.627   1.085  0.7887  0.1797  0.4514
 8637SOL     OW26451   3.964   4.033   0.659 -0.6239  0.5669  0.2527
 8637SOL    HW126452   3.954   3.982   0.578  0.2365 -1.9133  1.5843
 8637SOL    HW226453   4.058   4.028   0.678 -0.9994 -0.2391  2.1579
 8638SOL     OW26454   2.043   0.010   4.276 -0.4283 -0.4852 -0.0499
 8638SOL    HW126455   2.025   0.099   4.307  1.0548  0.1368 -0.8473
 8638SOL    HW226456   2.074   0.021   4.186  1.6331 -1.5724  0.4408
 8639SOL     OW26457   6.433   5.031   0.365  0.3491  0.6044 -0.2901
 8639SOL    HW126458   6.381   5.028   0.284 -0.5771 -2.0885  0.2945
 8639SOL    HW226459   6.505   4.971   0.350  1.4793  1.8238  0.1072
 8640SOL     OW26460   6.374   3.630   6.589  0.0883 -0.4591 -0.6888
 8640SOL    HW126461   6.411   3.653   6.674 -2.4109  1.5493 -0.0200
 8640SOL    HW226462   6.341   3.713   6.554  0.7170 -1.2654 -3.5305
 8641SOL     OW26463   3.606   3.165   4.418 -0.1853  0.6755 -0.0408
 8641SOL    HW126464   3.576   3.237   4.474 -2.1900 -1.2671  1.5760
 8641SOL    HW226465   3.632   3.097   4.480  0.1160 -0.5859 -1.5045
 8642SOL     OW26466   1.614   1.094   1.875  0.1521 -0.2347  0.2146
 8642SOL    HW126467   1.585   1.169   1.927  1.7259  2.0262 -1.9057
 8642SOL    HW226468   1.568   1.102   1.792  1.3857 -0.7796 -0.5612
 8643SOL     OW26469   1.273   5.912   3.914  0.3923  0.0451 -0.4657
 8643SOL    HW126470   1.239   5.953   3.993  2.8201 -0.8871  1.1799
 8643SOL    HW226471   1.254   5.976   3.844  0.7952  2.2941  1.3502
 8644SOL     OW26472   6.732   2.269   2.419  0.1343  0.2919  0.7263
 8644SOL    HW126473   6.784   2.334   2.370  0.7609 -0.0643  0.9096
 8644SOL    HW226474   6.683   2.222   2.351  1.3009 -0.4712  0.3773
 8645SOL     OW26475   3.437   6.745   2.178  0.6388 -0.5851 -0.2931
 8645SOL    HW126476   3.505   6.812   2.187 -0.2643  0.3432 -0.2011
 8645SOL    HW226477   3.444   6.693   2.258  0.1628  0.5381  0.4993
 8646SOL     OW26478   2.784   2.236   2.218  0.5231 -0.3054  0.7113
 8646SOL    HW126479   2.756   2.217   2.307 -2.8124  0.0208 -0.1259
 8646SOL    HW226480   2.763   2.157   2.169  0.1411  0.3094 -0.1508
 8647SOL     OW26481   4.662   6.304   6.381  0.2198 -0.1150 -0.0756
 8647SOL    HW126482   4.591   6.309   6.444  1.1469  0.7286  0.9384
 8647SOL    HW226483   4.710   6.386   6.392  0.7981 -0.2427 -1.4173
 8648SOL     OW26484   7.485   5.837   2.502  0.1444  0.1214 -0.2468
 8648SOL    HW126485   7.512   5.896   2.433 -1.2065  0.7146 -0.2951
 8648SOL    HW226486   7.389   5.837   2.499  0.0733 -0.7086  0.8925
 8649SOL     OW26487   1.231   4.542   6.314 -0.3486  0.2423  0.8090
 8649SOL    HW126488   1.193   4.588   6.389  0.5540 -0.8658  1.9859
 8649SOL    HW226489   1.187   4.581   6.238 -2.2192  0.5362  1.9608
 8650SOL     OW26490   4.857   5.032   7.410  0.0081  0.0960 -0.0174
 8650SOL    HW126491   4.883   4.957   7.356  0.7459 -1.3689  2.2337
 8650SOL    HW226492   4.940   5.077   7.429 -0.2486  0.6206 -0.1250
 8651SOL     OW26493   2.582   5.642   6.366  0.2952 -0.1695  0.7385
 8651SOL    HW126494   2.522   5.623   6.438 -1.3453  0.7592 -0.3226
 8651SOL    HW226495   2.596   5.737   6.371  2.1109 -0.4185  1.2417
 8652SOL     OW26496   1.099   3.766   0.738  0.1807  0.3899 -0.2609
 8652SOL    HW126497   1.187   3.782   0.773  0.6635  0.1568 -1.3088
 8652SOL    HW226498   1.093   3.671   0.731 -0.0964  0.4128 -0.3431
 8653SOL     OW26499   5.894   4.944   2.801 -0.8885  0.6793 -0.9266
 8653SOL    HW126500   5.851   4.960   2.885 -0.0131 -3.3258  0.4892
 8653SOL    HW226501   5.834   4.886   2.755  0.4291 -0.4537 -1.2841
 8654SOL     OW26502   2.586   2.628   4.077 -0.0967 -0.2432 -0.1449
 8654SOL    HW126503   2.531   2.554   4.050  0.1245 -0.8908  1.0883
 8654SOL    HW226504   2.649   2.638   4.006 -0.7497 -0.5887 -0.7878
 8655SOL     OW26505   6.148   6.100   7.552  0.3118  0.0147  0.5197
 8655SOL    HW126506   6.160   6.161   7.479  0.0513 -2.0817 -1.3760
 8655SOL    HW226507   6.237   6.072   7.575  0.2966 -0.7498 -0.3081
 8656SOL     OW26508   2.090   1.259   2.309 -0.4293 -0.1895  0.3941
 8656SOL    HW126509   2.074   1.337   2.361  0.0341 -0.4776  0.9766
 8656SOL    HW226510   2.156   1.287   2.245 -1.4934  0.3509 -0.5032
 8657SOL     OW26511   1.214   2.630   5.354 -0.0879  0.5236  0.1826
 8657SOL    HW126512   1.211   2.667   5.442  0.9715  1.5122 -0.1841
 8657SOL    HW226513   1.222   2.535   5.368  1.6202  0.7811  1.1820
 8658SOL     OW26514   0.734   5.476   2.404  0.2518 -0.4274 -0.0431
 8658SOL    HW126515   0.667   5.409   2.417 -0.0790  0.0621  0.9299
 8658SOL    HW226516   0.817   5.431   2.421  0.0338 -0.5986  0.5916
 8659SOL     OW26517   4.442   0.771   1.439  0.1112  0.2034 -0.5588
 8659SOL    HW126518   4.383   0.821   1.495  0.8088 -0.4779  0.8222
 8659SOL    HW226519   4.417   0.796   1.350  0.5227  3.1230  0.0369
 8660SOL     OW26520   2.646   4.884   6.852  0.1470  0.1169  0.3274
 8660SOL    HW126521   2.733   4.909   6.824 -0.2942  1.1751 -0.1452
 8660SOL    HW226522   2.634   4.925   6.937 -0.5671  1.5769 -0.4376
 8661SOL     OW26523   5.674   3.387   4.351  0.5578  0.0216  0.3259
 8661SOL    HW126524   5.645   3.472   4.319 -1.5612 -0.4445  0.8489
 8661SOL    HW226525   5.640   3.381   4.440  0.3367 -1.4958  0.1769
 8662SOL     OW26526   4.421   4.259   3.824  0.2898 -1.1488  0.2261
 8662SOL    HW126527   4.423   4.288   3.916  0.1757 -2.1570  0.5626
 8662SOL    HW226528   4.415   4.340   3.774  2.4964 -0.4159  1.0110
 8663SOL     OW26529   6.595   1.712   0.286 -0.5956  0.3065  0.7149
 8663SOL    HW126530   6.657   1.735   0.355 -0.9215  1.6793  0.5777
 8663SOL    HW226531   6.509   1.712   0.329 -0.5565 -1.5531  0.8961
 8664SOL     OW26532   4.111   1.086   5.430  0.3668  0.0275  0.1204
 8664SOL    HW126533   4.079   1.142   5.359 -0.4459 -0.2463  0.2552
 8664SOL    HW226534   4.050   1.012   5.431 -0.0243  0.3352  1.5088
 8665SOL     OW26535   2.825   1.717   6.621 -0.2286  0.1261  0.0458
 8665SOL    HW126536   2.786   1.804   6.619  1.7023  1.0921  1.6857
 8665SOL    HW226537   2.835   1.696   6.714  0.6445 -1.2340 -0.3146
 8666SOL     OW26538   1.088   7.044   1.942  0.1366 -0.2676 -0.0807
 8666SOL    HW126539   1.160   7.106   1.932 -0.4645  0.2638 -1.2822
 8666SOL    HW226540   1.011   7.099   1.957 -0.3400 -0.7381 -0.7699
 8667SOL     OW26541   6.081   1.112   3.763  0.3177  0.0510  0.5758
 8667SOL    HW126542   6.050   1.128   3.674  0.7389 -0.0810  0.3999
 8667SOL    HW226543   6.018   1.157   3.819  1.4664  2.4020  0.1144
 8668SOL     OW26544   1.686   0.750   6.551  0.2922 -0.6733 -0.0250
 8668SOL    HW126545   1.699   0.667   6.506 -1.0906 -1.2427  0.5560
 8668SOL    HW226546   1.772   0.791   6.552  0.6940 -1.4006 -1.6563
 8669SOL     OW26547   2.045   2.703   0.155  0.1184  0.8681 -0.0959
 8669SOL    HW126548   2.099   2.780   0.136 -0.1886  0.7262 -1.7408
 8669SOL    HW226549   1.962   2.720   0.110 -0.7737  0.5355  1.3641
 8670SOL     OW26550   2.419   4.463   1.016  0.1847 -0.3450 -0.5182
 8670SOL    HW126551   2.381   4.539   1.062 -0.1909  0.8385 -2.6331
 8670SOL    HW226552   2.361   4.391   1.040 -1.7541  0.8326 -1.3707
 8671SOL     OW26553   7.035   6.528   2.484  0.1107 -0.5828  0.6181
 8671SOL    HW126554   7.125   6.500   2.466  0.1491  0.5491 -1.1897
 8671SOL    HW226555   6.981   6.456   2.452  0.3356 -0.6585  0.4073
 8672SOL     OW26556   0.231   3.844   5.116  0.1789  0.3760 -0.0896
 8672SOL    HW126557   0.313   3.797   5.099  0.8437 -0.1685  3.7654
 8672SOL    HW226558   0.164   3.775   5.120 -0.0349  0.5387 -0.7007
 8673SOL     OW26559   5.887   1.955   1.523  0.2505  0.2336  0.0801
 8673SOL    HW126560   5.957   1.919   1.577  0.8205  0.4074 -0.5423
 8673SOL    HW226561   5.907   1.927   1.434  0.4080  1.5912 -0.3410
 8674SOL     OW26562   6.130   6.776   5.121 -0.4862  0.1561  0.4783
 8674SOL    HW126563   6.122   6.680   5.128  1.2874 -0.1311 -0.8537
 8674SOL    HW226564   6.132   6.806   5.212 -0.8160 -1.0972  0.9244
 8675SOL     OW26565   3.772   4.069   6.494 -0.1465  0.0667  0.1012
 8675SOL    HW126566   3.793   3.991   6.546 -2.7831 -0.4075  0.6236
 8675SOL    HW226567   3.796   4.143   6.550  0.0325 -0.4011  0.6522
 8676SOL     OW26568   4.896   0.256   2.570 -0.5840  0.5464 -0.2319
 8676SOL    HW126569   4.906   0.209   2.653 -0.0697  0.3812 -0.3851
 8676SOL    HW226570   4.804   0.244   2.547 -0.2174 -1.4249 -0.8810
 8677SOL     OW26571   2.357   0.874   7.614  0.1254  0.4812 -0.0200
 8677SOL    HW126572   2.425   0.915   7.667  0.9753 -0.4338 -0.3697
 8677SOL    HW226573   2.371   0.780   7.625  0.2624  0.2649 -1.7600
 8678SOL     OW26574   0.839   3.736   1.477 -0.0647  0.1225 -0.3595
 8678SOL    HW126575   0.867   3.772   1.393 -0.1018 -0.8463 -0.8019
 8678SOL    HW226576   0.866   3.801   1.542 -1.8155  1.8527 -1.2755
 8679SOL     OW26577   3.094   5.721   1.705  0.6162 -0.7100  0.2202
 8679SOL    HW126578   3.167   5.661   1.719 -1.1939 -2.9388  0.6400
 8679SOL    HW226579   3.089   5.732   1.610  1.6548 -0.2602  0.2017
 8680SOL     OW26580   0.869   4.128   3.602 -0.4955 -0.2133 -0.1204
 8680SOL    HW126581   0.786   4.102   3.562  0.2720 -2.7245 -0.2539
 8680SOL    HW226582   0.863   4.096   3.692  0.3183 -0.4000 -0.1288
 8681SOL     OW26583   7.257   0.668   7.557  0.0654 -1.1026 -0.4343
 8681SOL    HW126584   7.302   0.747   7.585 -1.8917  0.0546 -0.3570
 8681SOL    HW226585   7.321   0.598   7.570  1.1747  0.1616  1.4340
 8682SOL     OW26586   5.488   0.122   0.869  0.3462  0.3157 -0.4744
 8682SOL    HW126587   5.469   0.201   0.819 -0.7802  0.7219  0.5456
 8682SOL    HW226588   5.488   0.151   0.961 -0.9602 -0.9994 -0.0270
 8683SOL     OW26589   0.310   0.432   6.508  0.4473  0.7255 -0.1732
 8683SOL    HW126590   0.404   0.418   6.513  0.4567  0.8199 -0.0775
 8683SOL    HW226591   0.281   0.432   6.600  0.5646  2.1126 -0.1114
 8684SOL     OW26592   6.842   2.124   1.066  0.2492 -0.5963 -0.1866
 8684SOL    HW126593   6.785   2.189   1.024  0.9137 -0.1076 -0.3521
 8684SOL    HW226594   6.926   2.168   1.075  0.4875 -1.1603  0.4551
 8685SOL     OW26595   6.821   1.171   4.193 -0.1345 -0.2630 -0.3243
 8685SOL    HW126596   6.823   1.164   4.289 -1.9073 -1.1638 -0.2995
 8685SOL    HW226597   6.904   1.132   4.165  1.0620  1.3085  0.8609
 8686SOL     OW26598   7.099   2.437   4.072  0.1630  0.3525  0.2589
 8686SOL    HW126599   7.060   2.511   4.118 -1.9652  0.1280 -1.0670
 8686SOL    HW226600   7.076   2.361   4.126  0.9359  0.4600  0.7586
 8687SOL     OW26601   4.925   7.569   4.786 -0.6972  0.2106 -0.1102
 8687SOL    HW126602   5.000   7.592   4.841  0.2321  0.1000 -1.2814
 8687SOL    HW226603   4.940   7.478   4.763 -1.1202  0.2302 -0.4653
 8688SOL     OW26604   2.849   6.326   3.924 -0.1576 -0.5229  0.2508
 8688SOL    HW126605   2.795   6.402   3.902 -0.6638 -0.8757  0.2396
 8688SOL    HW226606   2.797   6.251   3.895  0.5307 -0.8584 -0.1472
 8689SOL     OW26607   0.100   3.957   7.218 -0.3357 -0.2870  0.5590
 8689SOL    HW126608   0.082   3.987   7.307  1.7361  0.2898  0.8197
 8689SOL    HW226609   0.022   3.984   7.168 -0.5996  1.2994  1.7505
 8690SOL     OW26610   4.898   7.366   2.847  0.6494 -0.0516 -0.6451
 8690SOL    HW126611   4.947   7.390   2.926 -1.0957  0.7264  0.2553
 8690SOL    HW226612   4.909   7.272   2.839  1.4890 -0.0222  0.0721
 8691SOL     OW26613   2.622   6.147   4.994  0.3588 -0.2133 -0.6897
 8691SOL    HW126614   2.658   6.059   4.979 -0.0157 -0.1971 -1.7518
 8691SOL    HW226615   2.546   6.152   4.936  0.8612  1.1128 -1.2751
 8692SOL     OW26616   4.101   0.707   5.378 -0.3323 -0.1538 -0.4593
 8692SOL    HW126617   4.177   0.763   5.361  0.3297 -0.6799  0.6261
 8692SOL    HW226618   4.111   0.681   5.470 -1.6617 -0.4902 -0.3968
 8693SOL     OW26619   5.302   2.746   3.967  0.1056  0.0158  0.3276
 8693SOL    HW126620   5.292   2.656   3.935  0.5822  0.0176  0.1715
 8693SOL    HW226621   5.326   2.796   3.889 -1.3516  0.5069  0.1627
 8694SOL     OW26622   0.371   3.397   3.867 -0.2268  0.1880  0.1785
 8694SOL    HW126623   0.425   3.474   3.884  1.0281 -0.6375  0.0160
 8694SOL    HW226624   0.310   3.426   3.799  1.1943  0.6541 -0.9634
 8695SOL     OW26625   3.665   4.326   7.431 -0.4224  0.2689 -0.5905
 8695SOL    HW126626   3.700   4.315   7.343 -1.8882  1.1607 -1.3320
 8695SOL    HW226627   3.690   4.415   7.456 -0.8543  0.3693 -0.5118
 8696SOL     OW26628   3.957   2.451   0.592 -0.4719 -0.2524 -0.2563
 8696SOL    HW126629   3.968   2.494   0.677 -0.5588  1.4966 -1.0960
 8696SOL    HW226630   3.897   2.508   0.544 -2.0390 -2.2565 -0.8105
 8697SOL     OW26631   3.440   4.593   3.727  0.0333  0.4775 -0.0367
 8697SOL    HW126632   3.351   4.609   3.757 -0.2458  2.4477 -1.6627
 8697SOL    HW226633   3.452   4.498   3.735 -1.6080  0.3656  1.7007
 8698SOL     OW26634   7.135   1.107   7.033  0.6003  0.7356 -0.2236
 8698SOL    HW126635   7.083   1.075   6.959 -0.5585 -1.0014  1.2560
 8698SOL    HW226636   7.226   1.098   7.004  0.2016 -0.6235 -1.1847
 8699SOL     OW26637   7.388   2.269   6.813  0.1601  0.7092 -1.1006
 8699SOL    HW126638   7.397   2.363   6.824  0.9426  0.5655 -0.4206
 8699SOL    HW226639   7.294   2.252   6.827  0.3005  1.1673  0.6076
 8700SOL     OW26640   3.108   5.140   6.402  0.2387 -0.0251 -0.3152
 8700SOL    HW126641   3.160   5.072   6.358  0.5307 -1.1547  1.6858
 8700SOL    HW226642   3.134   5.221   6.359  2.1283 -0.8135 -0.7631
 8701SOL     OW26643   7.413   4.372   1.345 -0.6373 -0.1941  0.6473
 8701SOL    HW126644   7.470   4.370   1.422 -0.3409 -2.5481  0.4420
 8701SOL    HW226645   7.327   4.346   1.379 -0.5535 -1.0262  0.2615
 8702SOL     OW26646   2.155   3.441   1.249 -0.1969  0.1769  0.0329
 8702SOL    HW126647   2.074   3.406   1.213 -0.1367 -0.3720  0.4226
 8702SOL    HW226648   2.219   3.371   1.236  0.7182  1.2787 -2.0042
 8703SOL     OW26649   6.753   0.680   3.542  0.0781  0.3032 -0.0153
 8703SOL    HW126650   6.782   0.767   3.513  0.9331 -0.8558 -3.0510
 8703SOL    HW226651   6.674   0.663   3.490 -0.4398 -0.4879  1.0139
 8704SOL     OW26652   5.821   1.760   1.114  0.4441 -0.2991  0.0392
 8704SOL    HW126653   5.852   1.670   1.124 -0.0878 -0.3730  1.3020
 8704SOL    HW226654   5.731   1.758   1.148 -0.4591  0.2164 -2.1518
 8705SOL     OW26655   5.505   4.477   1.506 -0.0256  0.0301  0.2653
 8705SOL    HW126656   5.454   4.464   1.426  1.2857  0.6604 -0.7209
 8705SOL    HW226657   5.486   4.568   1.532  1.0746  0.5043 -0.5023
 8706SOL     OW26658   0.390   7.006   2.872 -0.1625  0.2193 -0.3134
 8706SOL    HW126659   0.358   7.081   2.823  0.6454  0.4480 -0.4998
 8706SOL    HW226660   0.485   7.018   2.875 -0.1743  0.0849  1.0938
 8707SOL     OW26661   5.709   5.808   5.367 -0.5487 -0.4508 -0.5629
 8707SOL    HW126662   5.769   5.846   5.431  0.3209 -0.1473 -1.5405
 8707SOL    HW226663   5.637   5.871   5.360 -0.6062 -0.4457  0.0337
 8708SOL     OW26664   4.914   1.024   3.186  0.2081 -0.2077  0.0536
 8708SOL    HW126665   4.873   0.997   3.269 -0.7823  0.6542 -0.1305
 8708SOL    HW226666   4.911   0.945   3.131 -0.8181 -0.2997  0.2147
 8709SOL     OW26667   5.300   4.045   5.271 -0.1089  0.1482 -0.0185
 8709SOL    HW126668   5.289   4.040   5.176 -1.8452 -0.4477  0.1746
 8709SOL    HW226669   5.339   4.131   5.286  0.5801  0.0928 -1.2852
 8710SOL     OW26670   4.871   0.799   3.007  0.1526  0.2426 -0.2360
 8710SOL    HW126671   4.862   0.703   3.007 -0.9979  0.3005 -1.6296
 8710SOL    HW226672   4.781   0.831   2.998  0.6358  1.4004 -1.2400
 8711SOL     OW26673   6.544   2.776   6.331 -0.6990  0.6505 -0.1325
 8711SOL    HW126674   6.455   2.804   6.349  0.1841  3.6086  0.1150
 8711SOL    HW226675   6.589   2.778   6.416 -0.0817  0.4073 -0.4396
 8712SOL     OW26676   1.977   6.918   0.426  0.0273  0.4464 -0.3205
 8712SOL    HW126677   1.977   6.847   0.490  0.9942 -1.4689 -2.3306
 8712SOL    HW226678   1.901   6.900   0.370  2.1958 -1.1742 -2.9705
 8713SOL     OW26679   2.840   2.705   3.210 -0.2949  0.4536  0.6217
 8713SOL    HW126680   2.787   2.738   3.138  0.6809 -0.4869 -0.5761
 8713SOL    HW226681   2.782   2.708   3.286 -1.2973  1.6301 -0.1524
 8714SOL     OW26682   4.073   4.710   6.927  0.2988 -0.9463  0.4976
 8714SOL    HW126683   4.115   4.651   6.865  2.1996 -1.0797  1.8334
 8714SOL    HW226684   4.145   4.748   6.976 -0.8872  2.2081 -0.0110
 8715SOL     OW26685   0.870   2.543   3.528  0.0258  0.4098 -0.5443
 8715SOL    HW126686   0.905   2.471   3.475  0.1178  0.1610 -0.1540
 8715SOL    HW226687   0.916   2.535   3.612 -1.9972 -0.8467  0.5463
 8716SOL     OW26688   6.345   0.919   4.778 -0.1836 -0.1022  0.1051
 8716SOL    HW126689   6.311   0.933   4.866 -2.0277 -0.5922 -0.4858
 8716SOL    HW226690   6.360   0.825   4.772  0.8800  0.0510  0.2003
 8717SOL     OW26691   3.165   5.857   1.243 -0.3343 -0.4883  0.0923
 8717SOL    HW126692   3.149   5.915   1.168  0.3026  0.1923  0.4699
 8717SOL    HW226693   3.209   5.781   1.204  1.7362  0.6747 -0.0371
 8718SOL     OW26694   6.896   4.345   6.006 -0.0828  0.2731 -0.0848
 8718SOL    HW126695   6.878   4.252   5.991 -0.0516  0.1102  0.8609
 8718SOL    HW226696   6.965   4.346   6.073  0.3682  0.9698 -0.5449
 8719SOL     OW26697   7.362   1.879   5.968 -0.1042 -0.0378 -0.8724
 8719SOL    HW126698   7.321   1.793   5.956  0.9181 -0.4954 -1.2045
 8719SOL    HW226699   7.427   1.866   6.037 -1.2683  0.9614  0.4771
 8720SOL     OW26700   6.523   3.829   4.510 -0.2749 -0.4041 -0.9279
 8720SOL    HW126701   6.554   3.885   4.439  1.6199  0.1582  0.2493
 8720SOL    HW226702   6.448   3.782   4.474  0.9163 -0.5004 -3.4480
 8721SOL     OW26703   3.621   3.905   2.729 -0.3362  0.5447  0.0906
 8721SOL    HW126704   3.699   3.888   2.676 -1.6975  0.9846 -2.2219
 8721SOL    HW226705   3.648   3.885   2.818  2.6601  1.4946 -0.4720
 8722SOL     OW26706   1.057   7.196   1.254 -0.3010 -0.1571 -0.2902
 8722SOL    HW126707   1.036   7.102   1.248  1.4303 -0.6714  0.8943
 8722SOL    HW226708   1.153   7.199   1.252 -0.3394  1.6548 -0.8814
 8723SOL     OW26709   1.652   2.961   4.723 -0.1382 -0.2032  0.8279
 8723SOL    HW126710   1.627   2.900   4.792 -2.2566  1.2445  1.4683
 8723SOL    HW226711   1.610   3.044   4.749  1.1405  1.0501 -0.8965
 8724SOL     OW26712   6.287   2.218   2.380 -0.0324  0.4182 -0.6677
 8724SOL    HW126713   6.274   2.219   2.475 -1.0059 -0.1538 -0.7817
 8724SOL    HW226714   6.342   2.142   2.364  2.6510  2.1442 -0.3089
 8725SOL     OW26715   5.034   5.078   2.639  0.6907 -0.5198  0.0536
 8725SOL    HW126716   5.026   5.101   2.731  0.4022 -1.5760  0.2983
 8725SOL    HW226717   5.128   5.065   2.625  0.5827 -2.3130  0.7092
 8726SOL     OW26718   6.240   3.577   6.121 -0.0272  0.1715  0.6909
 8726SOL    HW126719   6.168   3.600   6.062  0.3364 -0.1287  0.1207
 8726SOL    HW226720   6.247   3.482   6.114  0.7826  0.2494  0.3078
 8727SOL     OW26721   0.874   0.500   4.332  0.2970 -0.1709  0.1988
 8727SOL    HW126722   0.871   0.404   4.337 -2.2865 -0.1856 -0.2619
 8727SOL    HW226723   0.862   0.530   4.422 -0.9663 -0.3284  0.1052
 8728SOL     OW26724   1.871   5.139   4.092 -0.4972  0.1086  0.2110
 8728SOL    HW126725   1.832   5.121   4.007 -0.4530 -2.2076  0.6322
 8728SOL    HW226726   1.959   5.102   4.087 -0.6463 -0.4578  1.3875
 8729SOL     OW26727   2.803   7.179   2.248  0.1180  0.1883 -0.2393
 8729SOL    HW126728   2.888   7.197   2.207  0.9938 -1.7478  0.6063
 8729SOL    HW226729   2.820   7.105   2.306 -1.7010  1.0928  1.5383
 8730SOL     OW26730   7.557   0.308   6.091 -0.4950 -0.1265 -0.2262
 8730SOL    HW126731   7.497   0.265   6.153  0.3527 -0.1239  0.6157
 8730SOL    HW226732   7.530   0.275   6.005 -1.2497 -0.6623  0.2022
 8731SOL     OW26733   1.021   7.103   0.425  0.1146 -0.0272 -0.2860
 8731SOL    HW126734   0.955   7.035   0.442  0.7340 -0.5167  0.1874
 8731SOL    HW226735   0.990   7.179   0.475 -1.2142  0.4493 -1.7669
 8732SOL     OW26736   4.996   6.714   5.054  0.2374  0.5767  0.6611
 8732SOL    HW126737   5.075   6.684   5.008 -0.6920 -0.2143 -0.4801
 8732SOL    HW226738   4.946   6.634   5.069 -1.5958  1.3403 -1.0430
 8733SOL     OW26739   6.094   7.370   0.978 -0.1769 -0.1130  0.2525
 8733SOL    HW126740   6.187   7.346   0.967 -0.2239 -0.1545 -0.0586
 8733SOL    HW226741   6.074   7.347   1.069  0.6832  1.7872  0.9816
 8734SOL     OW26742   0.549   7.111   0.047 -0.2938 -0.0716  0.4430
 8734SOL    HW126743   0.483   7.049   0.080 -0.3607 -0.4957 -0.4549
 8734SOL    HW226744   0.520   7.131  -0.042  0.1920  0.6070  0.4345
 8735SOL     OW26745   3.192   5.941   1.891 -0.4776  0.2247 -0.0636
 8735SOL    HW126746   3.222   5.916   1.803 -2.5708 -0.3227 -0.6655
 8735SOL    HW226747   3.135   6.016   1.877  0.4047  1.1272  1.0281
 8736SOL     OW26748   0.920   3.839   1.230  0.2898 -0.0455  0.2435
 8736SOL    HW126749   0.954   3.928   1.221  3.0871 -0.9564  0.7120
 8736SOL    HW226750   0.944   3.796   1.149  1.6210 -1.1053  1.1580
 8737SOL     OW26751   1.261   6.405   1.561  0.3832  0.0300 -0.8394
 8737SOL    HW126752   1.290   6.461   1.488  2.1093 -0.4101 -0.5480
 8737SOL    HW226753   1.334   6.345   1.574  0.0350 -0.0198  1.1447
 8738SOL     OW26754   7.557   6.840   3.964  0.0304 -0.4914  0.1354
 8738SOL    HW126755   7.537   6.933   3.956  1.8492 -0.2165 -2.9386
 8738SOL    HW226756   7.645   6.838   4.002  0.3854 -0.8642 -0.6786
 8739SOL     OW26757   0.438   4.685   3.958  0.3330  0.3815 -0.1969
 8739SOL    HW126758   0.458   4.691   3.865  3.0034  1.6569  0.3718
 8739SOL    HW226759   0.475   4.601   3.986  2.0595  1.2362  0.2009
 8740SOL     OW26760   4.389   0.086   5.588  0.2243  0.4692  0.0186
 8740SOL    HW126761   4.346   0.100   5.672 -0.3318  0.0557 -0.1936
 8740SOL    HW226762   4.477   0.057   5.611  0.1441  0.5625  0.4586
 8741SOL     OW26763   3.240   5.459   2.169  0.1076 -0.0722 -0.0395
 8741SOL    HW126764   3.210   5.508   2.245  0.4702  0.0596  0.0208
 8741SOL    HW226765   3.295   5.520   2.121  0.2803 -0.3081 -0.1455
 8742SOL     OW26766   0.426   0.893   5.357  0.3596 -0.1623 -0.4924
 8742SOL    HW126767   0.519   0.914   5.364  0.1588  1.1285 -1.4092
 8742SOL    HW226768   0.386   0.940   5.431  0.4205 -0.7339 -0.0860
 8743SOL     OW26769   7.007   6.542   5.830  0.3922 -0.2339 -0.4963
 8743SOL    HW126770   7.022   6.604   5.758 -2.4968  1.9455  0.5701
 8743SOL    HW226771   6.946   6.478   5.794  0.1906 -0.0687 -0.4514
 8744SOL     OW26772   0.910   7.008   6.980 -0.3130 -0.6429  0.1203
 8744SOL    HW126773   0.838   6.966   6.933 -2.3377  1.0531  1.4762
 8744SOL    HW226774   0.931   7.085   6.928 -0.7512 -0.1724  0.6256
 8745SOL     OW26775   1.854   4.090   0.317 -0.0365  0.3212  0.1344
 8745SOL    HW126776   1.896   4.099   0.231 -1.8289 -1.3642 -0.9944
 8745SOL    HW226777   1.928   4.083   0.378  1.2988  0.3440 -1.3940
 8746SOL     OW26778   3.515   6.634   7.304  0.4333 -0.0877  0.0829
 8746SOL    HW126779   3.465   6.682   7.239  0.6069  0.8722  0.6491
 8746SOL    HW226780   3.581   6.586   7.253 -0.0939 -0.1788 -0.5267
 8747SOL     OW26781   7.197   6.668   5.980 -0.1074  0.2620  0.2591
 8747SOL    HW126782   7.130   6.616   5.935  2.2272 -1.8076 -1.0861
 8747SOL    HW226783   7.210   6.623   6.064  0.8054 -0.4254 -0.2368
 8748SOL     OW26784   2.295   2.500   5.645 -0.0541 -0.6142  0.6933
 8748SOL    HW126785   2.363   2.513   5.711  0.4404 -2.4189  0.6015
 8748SOL    HW226786   2.244   2.426   5.678 -0.7631 -0.5424 -0.1950
 8749SOL     OW26787   0.385   7.011   3.260  0.2579 -0.0084 -0.6136
 8749SOL    HW126788   0.458   7.072   3.252  0.8528 -0.5615  0.3685
 8749SOL    HW226789   0.338   7.040   3.337  1.1821 -1.4079  0.5200
 8750SOL     OW26790   2.437   5.826   4.436 -0.3729  0.4667 -0.1377
 8750SOL    HW126791   2.412   5.841   4.527  0.1640  1.0306 -0.0793
 8750SOL    HW226792   2.428   5.731   4.424  0.3073  0.2878  0.7275
 8751SOL     OW26793   2.360   7.321   1.622 -0.0727  0.5965 -0.2077
 8751SOL    HW126794   2.371   7.352   1.713  1.0084  1.9496 -0.7550
 8751SOL    HW226795   2.355   7.402   1.570 -1.1938 -0.1540 -1.3215
 8752SOL     OW26796   4.013   5.871   6.334 -0.2362  0.3332 -0.0951
 8752SOL    HW126797   4.045   5.941   6.277  0.7123 -1.2542 -1.6205
 8752SOL    HW226798   4.081   5.862   6.401  0.5773 -0.3064 -0.9705
 8753SOL     OW26799   2.430   0.967   3.498 -0.2913  0.0206 -0.1507
 8753SOL    HW126800   2.518   0.932   3.494 -0.4269 -0.1938 -3.1569
 8753SOL    HW226801   2.430   1.040   3.436 -1.7352  1.3261  1.2647
 8754SOL     OW26802   5.726   4.384   7.367  0.2158 -0.1432  0.0641
 8754SOL    HW126803   5.692   4.376   7.278 -1.7357 -0.7707  0.7916
 8754SOL    HW226804   5.706   4.474   7.392 -1.3963 -0.6121  0.6163
 8755SOL     OW26805   7.062   6.737   2.018  0.6118 -0.4336  0.8675
 8755SOL    HW126806   6.992   6.796   2.047  0.6426  0.6717 -1.1361
 8755SOL    HW226807   7.140   6.768   2.063  0.3095 -0.0266  1.1185
 8756SOL     OW26808   2.235   4.629   3.081  0.2399 -0.1369 -0.2116
 8756SOL    HW126809   2.209   4.648   3.171  0.2443  1.2846 -0.4931
 8756SOL    HW226810   2.157   4.589   3.042 -0.5974  1.4298 -0.2300
 8757SOL     OW26811   1.104   5.331   7.264 -0.0099  0.3157 -0.2819
 8757SOL    HW126812   1.049   5.333   7.342  0.0799  1.3251 -0.2221
 8757SOL    HW226813   1.188   5.368   7.292 -0.3522  1.8094 -1.0945
 8758SOL     OW26814   5.475   1.290   1.024  0.1615  0.4229  0.2062
 8758SOL    HW126815   5.552   1.335   1.061  0.3988  0.0631  0.1555
 8758SOL    HW226816   5.438   1.354   0.963  1.6092 -0.1169 -1.3333
 8759SOL     OW26817   1.849   1.740   4.744  0.3375 -0.3937 -0.3238
 8759SOL    HW126818   1.853   1.835   4.732  0.6180 -0.3761 -0.0986
 8759SOL    HW226819   1.766   1.714   4.704 -0.8520  0.2396  1.5775
 8760SOL     OW26820   3.355   2.107   0.938  0.1500  0.1328 -0.0793
 8760SOL    HW126821   3.426   2.164   0.966  0.3170 -0.7657  1.4077
 8760SOL    HW226822   3.398   2.036   0.892  0.1833 -0.1906  0.4475
 8761SOL     OW26823   3.424   1.741   1.046 -0.0165 -0.0544 -0.2699
 8761SOL    HW126824   3.507   1.748   0.999  0.6483 -2.8320  0.2907
 8761SOL    HW226825   3.424   1.816   1.105  1.7877  0.3764 -0.7490
 8762SOL     OW26826   3.188   2.205   3.256  0.5141 -0.1663 -0.5444
 8762SOL    HW126827   3.107   2.165   3.290  0.3978 -0.0204 -0.6486
 8762SOL    HW226828   3.163   2.241   3.171  0.6614 -0.0214 -0.5267
 8763SOL     OW26829   6.601   6.621   3.954  0.2149 -0.0437  0.1677
 8763SOL    HW126830   6.607   6.716   3.962 -0.2395 -0.0810  1.0731
 8763SOL    HW226831   6.528   6.607   3.894  2.2265  0.2063 -2.4954
 8764SOL     OW26832   6.905   5.057   1.391  0.4672  0.0997 -0.0542
 8764SOL    HW126833   6.964   4.997   1.346  0.5941 -0.3377  0.6806
 8764SOL    HW226834   6.856   5.099   1.320  0.8973 -0.3207 -0.6177
 8765SOL     OW26835   7.354   1.740   6.289 -0.1186 -0.5532 -0.5114
 8765SOL    HW126836   7.424   1.786   6.242 -0.3485  0.9117  0.5348
 8765SOL    HW226837   7.334   1.796   6.363 -0.5177 -2.2938  0.7486
 8766SOL     OW26838   5.834   5.118   6.815 -0.2905  0.1402  0.1258
 8766SOL    HW126839   5.920   5.101   6.853 -0.9951 -0.1637  1.6643
 8766SOL    HW226840   5.851   5.125   6.721  1.2755 -0.8401  0.2879
 8767SOL     OW26841   2.501   6.008   0.898  0.1570 -0.4903  0.3216
 8767SOL    HW126842   2.536   5.931   0.944 -2.0451 -2.2944 -0.8331
 8767SOL    HW226843   2.487   5.978   0.808  0.9183  1.8559 -0.6688
 8768SOL     OW26844   1.069   0.310   1.345 -0.6016  0.7275  0.8572
 8768SOL    HW126845   1.138   0.370   1.373 -0.6182  0.1976  2.0732
 8768SOL    HW226846   1.099   0.223   1.371 -0.8614  0.2658 -0.3327
 8769SOL     OW26847   6.907   3.105   3.077 -0.3787  0.1874 -0.2968
 8769SOL    HW126848   6.960   3.057   3.013 -0.6053 -0.1734 -0.2173
 8769SOL    HW226849   6.914   3.054   3.157  2.4326  2.2192  0.9313
 8770SOL     OW26850   5.273   3.141   0.307  0.8827  0.0396  0.0531
 8770SOL    HW126851   5.259   3.197   0.384 -1.1776 -0.3087  0.0032
 8770SOL    HW226852   5.205   3.074   0.314  1.8545 -1.1232 -1.0976
 8771SOL     OW26853   6.989   4.764   6.657 -0.1952 -0.1251  0.4529
 8771SOL    HW126854   6.981   4.670   6.671 -2.0774  0.3330  3.4290
 8771SOL    HW226855   6.957   4.778   6.568 -4.3221 -1.9437  1.4188
 8772SOL     OW26856   6.234   5.337   2.174 -0.5801 -0.3377  0.0553
 8772SOL    HW126857   6.190   5.411   2.216  1.3735  1.1516 -0.4089
 8772SOL    HW226858   6.309   5.318   2.229 -0.0656 -0.7948 -0.7793
 8773SOL     OW26859   5.405   1.044   0.521  0.4243  0.6820  0.1363
 8773SOL    HW126860   5.340   1.112   0.537 -1.3704 -0.9260  0.0779
 8773SOL    HW226861   5.470   1.056   0.590 -1.4947  0.5480  2.0855
 8774SOL     OW26862   1.271   7.387   0.678  0.1410 -0.2103 -0.3825
 8774SOL    HW126863   1.266   7.344   0.763 -0.0108 -0.9802 -0.7754
 8774SOL    HW226864   1.190   7.439   0.672 -0.8703 -1.7870 -0.9190
 8775SOL     OW26865   0.169   6.052   6.561 -0.6591  0.1712 -0.1263
 8775SOL    HW126866   0.151   6.079   6.652 -1.1967 -1.1199  0.1711
 8775SOL    HW226867   0.100   6.094   6.510 -1.6561 -0.8027  0.3693
 8776SOL     OW26868   1.347   6.344   6.859 -0.0392  0.2604 -0.1475
 8776SOL    HW126869   1.279   6.337   6.792  0.2619  1.1955 -0.5685
 8776SOL    HW226870   1.375   6.254   6.874  0.6765  0.1050 -2.1077
 8777SOL     OW26871   7.287   0.802   6.853  0.4860  0.5216  0.0862
 8777SOL    HW126872   7.347   0.807   6.779  0.4667 -2.0137 -0.2014
 8777SOL    HW226873   7.305   0.881   6.904 -0.0355  2.7594 -2.9352
 8778SOL     OW26874   3.990   6.744   7.090  0.3204 -0.1115 -0.6985
 8778SOL    HW126875   4.063   6.796   7.123  1.2471 -2.3122  0.9420
 8778SOL    HW226876   3.912   6.795   7.114  1.1733  0.4976  0.9763
 8779SOL     OW26877   2.355   5.470   3.029 -0.7271 -0.2703  0.3088
 8779SOL    HW126878   2.315   5.533   2.969  0.1772  1.5867  1.5628
 8779SOL    HW226879   2.293   5.463   3.101  0.4919  1.5899  1.6182
 8780SOL     OW26880   5.236   0.901   2.159 -0.4355 -0.2361 -0.5214
 8780SOL    HW126881   5.221   0.979   2.106 -1.4581 -0.3103 -0.3634
 8780SOL    HW226882   5.159   0.847   2.144 -0.5203 -0.4710  0.6559
 8781SOL     OW26883   3.099   6.909   6.872  0.0049  0.4554  0.4998
 8781SOL    HW126884   3.181   6.914   6.823 -0.8482 -0.1358 -1.0834
 8781SOL    HW226885   3.125   6.905   6.964  1.7106  0.8636  0.0547
 8782SOL     OW26886   5.404   2.508   0.664 -0.2050 -0.0650  0.1217
 8782SOL    HW126887   5.331   2.564   0.639  0.6798  1.4609  0.8055
 8782SOL    HW226888   5.459   2.563   0.720  1.8497 -0.8918 -0.9391
 8783SOL     OW26889   6.693   6.228   7.242  0.5324  0.1684 -0.3339
 8783SOL    HW126890   6.710   6.320   7.261 -2.1225  0.8185 -0.7540
 8783SOL    HW226891   6.770   6.200   7.193  0.8993  2.5184 -1.2698
 8784SOL     OW26892   6.649   1.492   5.503  0.3921  0.4718 -0.0616
 8784SOL    HW126893   6.620   1.578   5.535 -0.5949 -0.0935  0.5940
 8784SOL    HW226894   6.583   1.431   5.533  1.5863 -0.6838  0.3269
 8785SOL     OW26895   3.403   0.601   1.045  0.0644 -0.0408  0.0119
 8785SOL    HW126896   3.445   0.686   1.058  1.2246 -0.6899  0.6196
 8785SOL    HW226897   3.473   0.537   1.060 -0.6064 -1.0909 -1.1361
 8786SOL     OW26898   3.707   2.682   2.212 -0.1609 -0.0027 -0.7476
 8786SOL    HW126899   3.747   2.595   2.215  0.4975  0.1480 -3.2211
 8786SOL    HW226900   3.618   2.668   2.246  0.9601 -0.8784  2.2099
 8787SOL     OW26901   0.221   3.504   2.310 -0.3628  0.4043 -0.1622
 8787SOL    HW126902   0.147   3.507   2.249  0.3619  0.6815 -1.0552
 8787SOL    HW226903   0.281   3.441   2.272 -0.5565 -0.5559  1.0760
 8788SOL     OW26904   2.011   3.015   3.241  0.9189 -0.5886 -0.1806
 8788SOL    HW126905   1.951   2.958   3.291 -0.4389  0.2602 -0.7854
 8788SOL    HW226906   1.978   3.010   3.151  1.4301  0.3220 -0.4261
 8789SOL     OW26907   1.805   3.298   4.965 -0.0998 -0.0946 -0.3004
 8789SOL    HW126908   1.881   3.349   4.994 -0.3956  0.2086 -0.0392
 8789SOL    HW226909   1.787   3.238   5.037  0.1074 -0.4131 -0.5122
 8790SOL     OW26910   4.870   4.728   1.118 -0.4536 -0.0905  0.1185
 8790SOL    HW126911   4.884   4.634   1.107  3.1900  0.1356  1.5176
 8790SOL    HW226912   4.879   4.765   1.030  0.5765 -0.8467 -0.1079
 8791SOL     OW26913   0.214   6.821   1.792  0.3842  0.4644  0.0268
 8791SOL    HW126914   0.141   6.796   1.849  1.3003 -1.3263  0.5118
 8791SOL    HW226915   0.173   6.849   1.711 -0.8689 -0.4054  0.3253
 8792SOL     OW26916   3.453   7.078   2.505  0.1217  0.0291  0.5654
 8792SOL    HW126917   3.390   7.023   2.552  0.2363 -0.2236  0.4259
 8792SOL    HW226918   3.473   7.029   2.426  0.8607 -0.1223  0.8362
 8793SOL     OW26919   1.664   7.167   5.475  0.2108 -0.0957  0.7260
 8793SOL    HW126920   1.700   7.136   5.392 -2.9320 -1.5688 -0.2159
 8793SOL    HW226921   1.674   7.093   5.535  0.0985  0.0286  0.9005
 8794SOL     OW26922   1.233   6.615   6.386  0.3382 -0.4330  0.3770
 8794SOL    HW126923   1.156   6.598   6.331  0.3303  1.7611 -0.3831
 8794SOL    HW226924   1.228   6.708   6.407  2.5696 -0.3151  0.6530
 8795SOL     OW26925   6.181   1.696   6.469  0.7304 -0.4973  0.1870
 8795SOL    HW126926   6.105   1.646   6.439 -1.8989  2.4685  1.3581
 8795SOL    HW226927   6.236   1.632   6.515 -1.1216 -2.7287 -0.5447
 8796SOL     OW26928   0.815   4.135   6.970 -0.0599 -0.4294 -0.2485
 8796SOL    HW126929   0.794   4.046   6.943  0.0347 -0.1405 -1.3000
 8796SOL    HW226930   0.887   4.162   6.913 -0.2600  0.4150 -0.1192
 8797SOL     OW26931   5.401   5.352   1.774 -0.1753 -0.3433 -0.2406
 8797SOL    HW126932   5.336   5.346   1.845 -0.4747 -1.1333 -0.5704
 8797SOL    HW226933   5.353   5.394   1.702  0.1120  0.4062  0.0038
 8798SOL     OW26934   6.251   3.095   3.991  0.7481 -0.0733  0.9051
 8798SOL    HW126935   6.311   3.059   4.057  1.5920  0.3286  0.3648
 8798SOL    HW226936   6.181   3.136   4.043  1.4593  0.3423  1.5652
 8799SOL     OW26937   1.780   7.172   2.547 -0.0845  0.1880 -0.2716
 8799SOL    HW126938   1.716   7.184   2.476  0.6886  0.1612 -0.9947
 8799SOL    HW226939   1.858   7.219   2.517  0.4109 -0.2165  0.3547
 8800SOL     OW26940   0.430   4.573   4.691 -0.4211 -0.3289  0.5354
 8800SOL    HW126941   0.391   4.604   4.610 -3.1352 -2.6617  0.8241
 8800SOL    HW226942   0.369   4.601   4.760  1.0601  0.3106  1.6570
 8801SOL     OW26943   2.434   6.438   1.358 -0.7238  0.3198 -0.1840
 8801SOL    HW126944   2.424   6.349   1.323 -1.0654 -0.2284  1.2059
 8801SOL    HW226945   2.351   6.455   1.402 -0.1757  0.7960  0.6861
 8802SOL     OW26946   2.180   3.918   4.500  0.1876 -0.1051  0.0586
 8802SOL    HW126947   2.275   3.905   4.502  0.2347  0.2919  1.5566
 8802SOL    HW226948   2.148   3.852   4.438  1.5479  0.6736 -1.5517
 8803SOL     OW26949   5.737   5.252   7.021 -0.1280 -0.2987 -0.2435
 8803SOL    HW126950   5.794   5.213   6.955  1.8213  4.1168 -1.5930
 8803SOL    HW226951   5.662   5.285   6.971 -1.7383 -2.1698  0.8348
 8804SOL     OW26952   3.261   3.436   3.550  0.3377  0.4559 -0.2581
 8804SOL    HW126953   3.302   3.416   3.635 -0.2411 -0.4688 -0.1892
 8804SOL    HW226954   3.326   3.489   3.505  1.2255 -0.1790  0.2345
 8805SOL     OW26955   4.355   6.669   4.434  0.2699 -0.1810  0.5613
 8805SOL    HW126956   4.312   6.584   4.439  0.3499 -0.2124  0.7465
 8805SOL    HW226957   4.316   6.712   4.358  1.8377 -1.2740 -0.9178
 8806SOL     OW26958   3.773   1.738   7.615  1.0097 -0.2014  0.0401
 8806SOL    HW126959   3.718   1.702   7.546 -0.1853 -1.1846  1.4494
 8806SOL    HW226960   3.861   1.705   7.596  0.5919 -0.9430 -0.6522
 8807SOL     OW26961   0.048   1.830   2.691  0.0634  0.4620  0.2191
 8807SOL    HW126962   0.012   1.801   2.775  0.7945  0.2225  0.4547
 8807SOL    HW226963  -0.003   1.783   2.625 -2.0764  2.3249  0.4107
 8808SOL     OW26964   6.873   4.217   5.665 -0.6186  0.2655  0.2004
 8808SOL    HW126965   6.961   4.252   5.681 -0.0497 -0.1738 -1.7469
 8808SOL    HW226966   6.817   4.295   5.662 -0.0146  0.6952 -0.1964
 8809SOL     OW26967   4.240   6.817   5.036  0.0629  0.3889 -0.1378
 8809SOL    HW126968   4.308   6.854   4.979  0.1273  0.5098  0.0145
 8809SOL    HW226969   4.218   6.889   5.095 -0.2049  0.3518 -0.1928
 8810SOL     OW26970   2.629   1.307   3.707  0.3149  0.0905  0.0482
 8810SOL    HW126971   2.692   1.247   3.667 -0.3394  0.2375 -1.2561
 8810SOL    HW226972   2.676   1.391   3.712  0.0951  0.3302 -1.3826
 8811SOL     OW26973   6.307   4.093   5.364  0.1255  0.3048  0.0248
 8811SOL    HW126974   6.282   4.002   5.383  0.5497  0.0175 -0.7431
 8811SOL    HW226975   6.400   4.098   5.387 -0.2853  1.0441  1.7304
 8812SOL     OW26976   3.114   6.716   5.749  0.2015 -0.0500  0.1788
 8812SOL    HW126977   3.126   6.668   5.831 -0.3830 -1.9366 -0.7809
 8812SOL    HW226978   3.025   6.751   5.753 -0.8893 -2.5168 -0.7483
 8813SOL     OW26979   4.214   4.930   2.893  0.0205 -0.4906  0.3021
 8813SOL    HW126980   4.213   5.026   2.898 -0.4200 -0.4675 -0.1698
 8813SOL    HW226981   4.195   4.902   2.983 -0.5256 -0.1235  0.3104
 8814SOL     OW26982   6.542   1.527   4.837 -0.1305 -0.1777  0.1719
 8814SOL    HW126983   6.572   1.542   4.926  1.7411 -1.4284 -0.2001
 8814SOL    HW226984   6.503   1.440   4.838  1.0343 -0.7253 -0.4748
 8815SOL     OW26985   6.144   2.879   0.095 -0.1849 -0.2583  0.1722
 8815SOL    HW126986   6.109   2.911   0.013 -2.3995 -0.6223  0.9044
 8815SOL    HW226987   6.106   2.792   0.105  0.8150 -0.6095  1.1316
 8816SOL     OW26988   5.543   2.309   6.118  0.2726  0.2700 -0.2027
 8816SOL    HW126989   5.592   2.295   6.199  0.1056 -1.0488 -0.2953
 8816SOL    HW226990   5.584   2.249   6.055 -2.0913 -1.7721  0.0131
 8817SOL     OW26991   5.223   2.587   7.333  0.6146 -0.0079  0.4439
 8817SOL    HW126992   5.246   2.679   7.330  0.8264 -0.0530  0.7152
 8817SOL    HW226993   5.303   2.542   7.360  0.4196 -0.2358  0.6553
 8818SOL     OW26994   3.846   5.837   3.170 -0.1720 -0.3621 -0.5120
 8818SOL    HW126995   3.882   5.783   3.099 -0.9482 -2.3698  0.5554
 8818SOL    HW226996   3.900   5.816   3.246 -0.0857  0.8967 -0.1950
 8819SOL     OW26997   1.452   5.852   0.055 -0.0408  0.1072 -0.0938
 8819SOL    HW126998   1.499   5.830   0.136  0.4539  0.2983 -0.3280
 8819SOL    HW226999   1.412   5.769   0.027  0.0767 -0.0357  0.1570
 8820SOL     OW27000   3.930   4.524   3.035 -0.1840  0.6698  0.1697
 8820SOL    HW127001   3.999   4.458   3.032  0.0138  0.8955 -0.5088
 8820SOL    HW227002   3.885   4.508   3.118  0.3157  0.1497  0.3504
 8821SOL     OW27003   2.399   0.631   0.137  0.2418 -0.0027 -0.0873
 8821SOL    HW127004   2.486   0.633   0.178 -0.1947  0.6241  0.8352
 8821SOL    HW227005   2.342   0.590   0.202 -0.2267 -0.1218 -0.5600
 8822SOL     OW27006   1.229   2.919   2.699 -0.2356 -0.2930  0.1262
 8822SOL    HW127007   1.286   2.976   2.648  1.1661 -1.1226  0.6958
 8822SOL    HW227008   1.173   2.979   2.749  3.0244  0.8190  2.8228
 8823SOL     OW27009   1.552   0.102   3.912  1.0051  0.0314  0.8327
 8823SOL    HW127010   1.577   0.088   3.821 -1.3560  1.0854 -0.0620
 8823SOL    HW227011   1.591   0.029   3.959  0.3242 -1.9296 -1.4166
 8824SOL     OW27012   2.245   6.356   2.369  0.1623  0.1155  0.4842
 8824SOL    HW127013   2.165   6.404   2.348  0.2947  0.7742  1.4002
 8824SOL    HW227014   2.246   6.282   2.309 -1.5330 -0.3385  0.9854
 8825SOL     OW27015   2.303   0.577   6.498 -0.2807 -0.0954  0.3682
 8825SOL    HW127016   2.324   0.534   6.581  0.5887  3.4644  2.1556
 8825SOL    HW227017   2.228   0.528   6.465  0.8545 -3.1935  1.9147
 8826SOL     OW27018   5.907   3.933   4.515  0.0063  0.3894  0.5173
 8826SOL    HW127019   5.888   3.938   4.609  2.2858  1.5473  0.9774
 8826SOL    HW227020   5.961   3.855   4.505 -1.2548 -0.4492 -0.0874
 8827SOL     OW27021   5.714   3.343   1.016 -0.3636  0.1209  0.8790
 8827SOL    HW127022   5.717   3.400   0.940 -1.9284  0.4803  1.0521
 8827SOL    HW227023   5.806   3.326   1.038  0.1790  2.9451  1.1023
 8828SOL     OW27024   1.847   0.830   0.147 -0.0958 -0.2475  0.4632
 8828SOL    HW127025   1.911   0.839   0.218 -0.0286  2.6680  0.1603
 8828SOL    HW227026   1.897   0.796   0.074  0.3989 -0.8625  1.0719
 8829SOL     OW27027   2.688   0.023   5.809  0.2767 -0.3036 -0.3428
 8829SOL    HW127028   2.778  -0.006   5.798  0.3045  0.1602 -1.4187
 8829SOL    HW227029   2.635  -0.051   5.778  0.2656 -0.7724  0.7602
 8830SOL     OW27030   0.502   6.750   4.603  0.2412 -0.0536  0.3006
 8830SOL    HW127031   0.571   6.740   4.669  0.9055 -0.7273 -0.4804
 8830SOL    HW227032   0.447   6.821   4.637  0.7631 -0.1580  1.4089
 8831SOL     OW27033   2.536   6.100   2.499  0.0086  0.1891  0.4128
 8831SOL    HW127034   2.594   6.045   2.551  0.7046  1.0100  0.5249
 8831SOL    HW227035   2.534   6.058   2.413  1.0554  0.3385  0.3008
 8832SOL     OW27036   1.784   1.400   1.807  0.0752 -0.3790 -0.5239
 8832SOL    HW127037   1.757   1.451   1.883 -2.0001  0.9393 -2.0449
 8832SOL    HW227038   1.720   1.423   1.739  0.6011 -3.0809 -2.0580
 8833SOL     OW27039   6.372   0.216   4.790 -0.1349 -0.8468 -0.2647
 8833SOL    HW127040   6.298   0.269   4.821 -0.6609 -1.3283 -0.6652
 8833SOL    HW227041   6.408   0.266   4.717  0.9147  0.1406  0.8884
 8834SOL     OW27042   4.612   0.954   3.949  0.0759 -0.6491 -0.4458
 8834SOL    HW127043   4.697   0.922   3.918  0.8071  0.8101 -0.0191
 8834SOL    HW227044   4.613   0.935   4.043  0.0379 -0.3796 -0.3926
 8835SOL     OW27045   4.079   7.357   6.563 -0.1074  0.4640  0.5756
 8835SOL    HW127046   4.126   7.427   6.518  0.9384 -0.9399 -0.5993
 8835SOL    HW227047   3.995   7.396   6.586  0.5170  2.1612  0.1615
 8836SOL     OW27048   0.150   2.998   4.306  0.8196 -0.0855 -0.0105
 8836SOL    HW127049   0.134   2.932   4.373 -1.3129  0.7724  0.4083
 8836SOL    HW227050   0.106   3.077   4.338  3.4367  1.6783 -0.4013
 8837SOL     OW27051   0.656   5.962   5.656  0.6087  0.3728  0.0642
 8837SOL    HW127052   0.719   6.017   5.703 -0.8872  0.8625  1.5635
 8837SOL    HW227053   0.583   5.951   5.716  0.5448 -2.7791 -0.3830
 8838SOL     OW27054   3.617   1.755   0.253  0.9461  0.2272  0.0335
 8838SOL    HW127055   3.653   1.744   0.165  0.1372 -0.8325 -0.1774
 8838SOL    HW227056   3.523   1.747   0.242  0.9294 -2.0970  1.2778
 8839SOL     OW27057   5.044   7.136   4.037 -0.3087 -0.8854 -0.1336
 8839SOL    HW127058   5.070   7.211   4.091  0.8941 -1.1455 -0.3303
 8839SOL    HW227059   4.972   7.170   3.984 -0.4449 -0.1601  0.4885
 8840SOL     OW27060   0.783   3.729   4.380  0.0320  0.0500 -0.4508
 8840SOL    HW127061   0.741   3.705   4.463  1.1951  0.3033  0.2382
 8840SOL    HW227062   0.767   3.823   4.371 -1.9941 -0.3646 -1.6614
 8841SOL     OW27063   3.507   6.757   2.554  0.3485  0.5596  0.1538
 8841SOL    HW127064   3.415   6.779   2.572  0.2566  0.2352  0.0974
 8841SOL    HW227065   3.502   6.684   2.492  0.6477  0.6407  0.0338
 8842SOL     OW27066   2.430   0.818   4.948  0.1331 -0.1105 -0.7087
 8842SOL    HW127067   2.418   0.753   4.879 -0.8028 -0.6284 -0.0761
 8842SOL    HW227068   2.376   0.893   4.921  1.2476  0.4537 -1.4607
 8843SOL     OW27069   7.149   3.916   0.423 -0.0224 -0.0153 -0.8945
 8843SOL    HW127070   7.202   3.992   0.399  1.3318 -0.2729  1.0291
 8843SOL    HW227071   7.072   3.952   0.467 -0.0842  0.2765 -1.2435
 8844SOL     OW27072   1.921   3.250   1.570 -0.0479  0.2825 -0.2828
 8844SOL    HW127073   1.954   3.189   1.635  0.0403 -0.5808 -1.1227
 8844SOL    HW227074   1.914   3.333   1.617 -3.2241 -0.9994  1.8153
 8845SOL     OW27075   6.030   5.039   4.865  0.0445  0.0752 -0.0704
 8845SOL    HW127076   6.015   5.133   4.876  0.5016  0.2429 -0.7769
 8845SOL    HW227077   6.093   5.017   4.934  1.1097  0.6214 -0.8318
 8846SOL     OW27078   2.868   5.710   5.843 -0.2129  0.2207  0.3026
 8846SOL    HW127079   2.839   5.786   5.793  0.1433  0.5782  0.6416
 8846SOL    HW227080   2.788   5.675   5.883 -0.1751  1.2801  1.3497
 8847SOL     OW27081   1.516   3.994   6.762  0.1807  0.6513  0.3733
 8847SOL    HW127082   1.523   4.072   6.707  0.6897  1.1324  1.0823
 8847SOL    HW227083   1.433   4.004   6.808 -0.3377  0.1502 -0.4353
 8848SOL     OW27084   0.098   3.479   3.969 -0.4864 -0.4995  0.1907
 8848SOL    HW127085   0.080   3.493   3.876 -0.1225 -1.2467  0.0027
 8848SOL    HW227086   0.163   3.409   3.971  1.6941  1.4401  0.8972
 8849SOL     OW27087   3.664   7.107   3.674 -0.1753  0.2429  0.0983
 8849SOL    HW127088   3.596   7.083   3.611  0.3170 -0.0721 -0.3194
 8849SOL    HW227089   3.716   7.174   3.630 -0.9258  1.3688  0.8734
 8850SOL     OW27090   0.996   7.082   4.795  0.6866  0.1918 -0.5401
 8850SOL    HW127091   0.999   7.014   4.863 -2.1304  1.6081  1.1814
 8850SOL    HW227092   1.058   7.148   4.825  1.8845 -0.6446 -1.1199
 8851SOL     OW27093   0.591   3.643   2.701  0.0298  0.5350 -0.8205
 8851SOL    HW127094   0.539   3.592   2.763  1.0192 -0.4714 -0.7778
 8851SOL    HW227095   0.546   3.727   2.695  0.6021  1.1830  2.2818
 8852SOL     OW27096   6.491   4.646   1.501 -0.3163  0.7133  0.3134
 8852SOL    HW127097   6.442   4.721   1.534 -0.0070  0.8145  0.5455
 8852SOL    HW227098   6.516   4.671   1.412 -0.8456  0.5826  0.1197
 8853SOL     OW27099   2.141   3.969   6.683  0.6181  0.2155 -0.0215
 8853SOL    HW127100   2.134   4.029   6.609  0.1678 -0.6316 -0.6816
 8853SOL    HW227101   2.129   4.025   6.760  0.0443  0.9481 -0.6235
 8854SOL     OW27102   1.579   4.002   5.755  0.2282  0.2705  0.1301
 8854SOL    HW127103   1.652   3.943   5.738  0.6389  0.8001  0.0225
 8854SOL    HW227104   1.579   4.014   5.850 -0.9900 -1.3188  0.3788
 8855SOL     OW27105   6.059   6.585   0.288 -0.0554  0.4952 -0.2256
 8855SOL    HW127106   6.029   6.494   0.295 -0.2124  0.5064 -0.7712
 8855SOL    HW227107   6.124   6.593   0.358  0.2875 -0.1674 -0.4609
 8856SOL     OW27108   3.013   1.908   0.880 -0.6119  0.4375 -0.3301
 8856SOL    HW127109   3.013   1.859   0.798  1.7246  0.8809 -0.6652
 8856SOL    HW227110   3.016   1.841   0.949  1.1999  0.0286 -0.7479
 8857SOL     OW27111   0.324   1.105   3.051  0.0431 -0.0131  0.1753
 8857SOL    HW127112   0.296   1.196   3.059  1.0655  0.3048  0.3770
 8857SOL    HW227113   0.410   1.110   3.009 -0.1196 -0.9217 -0.2916
 8858SOL     OW27114   6.551   5.005   6.698 -0.5319  0.3115 -0.3175
 8858SOL    HW127115   6.539   5.014   6.793 -1.5759  1.1624 -0.5078
 8858SOL    HW227116   6.645   5.020   6.684  0.0905 -2.0707  0.7908
 8859SOL     OW27117   6.917   7.322   2.634  0.3153  0.2745  0.6274
 8859SOL    HW127118   6.947   7.347   2.546  2.3699  0.0375  1.2065
 8859SOL    HW227119   6.939   7.398   2.688  0.0064  0.0062  1.1302
 8860SOL     OW27120   3.512   0.425   2.657  0.0536 -0.4842  0.1049
 8860SOL    HW127121   3.452   0.498   2.645  1.3183  0.8561  1.4924
 8860SOL    HW227122   3.472   0.372   2.725  0.6639  0.7227  1.4548
 8861SOL     OW27123   1.381   7.578   5.154  0.1871 -0.0663  0.7254
 8861SOL    HW127124   1.361   7.632   5.230 -1.5955 -0.8747  0.8889
 8861SOL    HW227125   1.301   7.580   5.101  0.7493 -1.0034 -0.1945
 8862SOL     OW27126   4.069   6.026   5.029  0.4931 -0.2062 -0.4585
 8862SOL    HW127127   4.039   6.114   5.050  2.4585  0.4754 -0.2650
 8862SOL    HW227128   4.104   6.034   4.940  2.0351 -0.3638  0.0909
 8863SOL     OW27129   2.273   1.458   3.227  0.1280  0.5166 -0.1630
 8863SOL    HW127130   2.289   1.481   3.318  0.1920 -1.1002  0.2607
 8863SOL    HW227131   2.189   1.412   3.228 -0.9021  2.2462 -1.2434
 8864SOL     OW27132   3.996   5.270   5.034 -0.2865 -0.0258 -0.4376
 8864SOL    HW127133   4.042   5.211   5.094  0.8467  0.7975 -0.4568
 8864SOL    HW227134   3.987   5.352   5.083  1.4668  0.9574 -1.6516
 8865SOL     OW27135   0.478   0.350   5.282 -0.1183  0.0501 -0.0902
 8865SOL    HW127136   0.563   0.389   5.260 -0.0363 -0.3833 -0.5422
 8865SOL    HW227137   0.482   0.335   5.377  1.5056 -2.7723 -0.4969
 8866SOL     OW27138   2.605   5.565   2.621 -0.0841 -0.4770 -0.3489
 8866SOL    HW127139   2.676   5.574   2.557 -0.1047 -0.4923 -0.3737
 8866SOL    HW227140   2.649   5.570   2.706  0.0304 -1.0844 -0.3636
 8867SOL     OW27141   5.736   4.782   1.031 -0.2355  0.1448 -0.0563
 8867SOL    HW127142   5.790   4.860   1.042 -1.1082  0.5638  1.5396
 8867SOL    HW227143   5.714   4.754   1.120 -0.6309 -1.4450 -0.6091
 8868SOL     OW27144   5.192   0.165   2.761 -0.1034  0.4101  0.7922
 8868SOL    HW127145   5.163   0.222   2.690  0.1573 -0.5734 -0.1264
 8868SOL    HW227146   5.177   0.216   2.841 -1.1875  1.2116  0.0980
 8869SOL     OW27147   5.538   6.084   6.160 -0.2048 -0.3249  0.0318
 8869SOL    HW127148   5.522   6.075   6.066 -0.7856 -0.0711  0.1033
 8869SOL    HW227149   5.625   6.124   6.166  0.5038 -1.7562 -0.3627
 8870SOL     OW27150   4.518   1.547   3.364 -0.0850 -0.5453  0.9269
 8870SOL    HW127151   4.552   1.520   3.449 -0.8306 -1.0571  1.0731
 8870SOL    HW227152   4.460   1.621   3.384 -0.0211 -0.4690  0.8281
 8871SOL     OW27153   5.177   5.714   1.438  0.0828 -0.0716 -0.0094
 8871SOL    HW127154   5.216   5.782   1.384  0.4070 -0.4871 -0.3084
 8871SOL    HW227155   5.183   5.634   1.385 -0.0474 -0.3844  0.4345
 8872SOL     OW27156   5.263   4.352   2.962  0.2038  0.1173 -0.9485
 8872SOL    HW127157   5.287   4.387   2.877  0.5262  0.5467 -0.6894
 8872SOL    HW227158   5.320   4.276   2.974 -0.4953 -0.5081 -1.5125
 8873SOL     OW27159   0.764   2.606   0.168  1.2190 -0.2590  0.5069
 8873SOL    HW127160   0.717   2.529   0.135  1.1248 -0.0723  0.2021
 8873SOL    HW227161   0.853   2.594   0.136  1.2062 -0.2439  0.4657
 8874SOL     OW27162   0.080   4.790   1.652 -0.1666  0.1372  0.3855
 8874SOL    HW127163  -0.007   4.751   1.648  0.4289 -1.1459 -0.9225
 8874SOL    HW227164   0.076   4.863   1.590 -0.5240  0.5372  0.8786
 8875SOL     OW27165   5.237   3.361   5.134  0.3790 -0.2624 -0.4422
 8875SOL    HW127166   5.170   3.331   5.073 -1.3708 -0.5283  1.4892
 8875SOL    HW227167   5.189   3.414   5.198  2.0974 -0.0427  0.7392
 8876SOL     OW27168   4.840   3.642   7.008  0.2364 -0.2629 -0.0547
 8876SOL    HW127169   4.885   3.559   6.991 -0.2634 -0.5009 -0.2468
 8876SOL    HW227170   4.805   3.668   6.923  0.8067  0.3987 -0.0905
 8877SOL     OW27171   5.908   5.723   5.785 -0.4707  0.4164  0.0119
 8877SOL    HW127172   5.966   5.763   5.721  0.5503  1.2285  1.3702
 8877SOL    HW227173   5.820   5.738   5.751  0.0404  0.8917 -1.1452
 8878SOL     OW27174   0.633   1.384   3.500  0.4437  0.1548 -0.0139
 8878SOL    HW127175   0.726   1.362   3.495  0.6047  0.7457  0.3095
 8878SOL    HW227176   0.589   1.301   3.518  0.8971 -0.1439 -0.2658
 8879SOL     OW27177   5.513   3.331   3.593 -0.4133 -0.5109 -0.1793
 8879SOL    HW127178   5.567   3.289   3.660  1.5387  0.6285 -0.9395
 8879SOL    HW227179   5.440   3.370   3.642 -0.2740 -1.6228  0.9672
 8880SOL     OW27180   6.405   1.824   4.300 -0.3556 -0.0043 -0.1639
 8880SOL    HW127181   6.409   1.787   4.212 -0.8462 -1.0088  0.2187
 8880SOL    HW227182   6.413   1.918   4.287 -1.9969  0.0038 -1.4232
 8881SOL     OW27183   0.388   1.146   2.700 -0.0099 -0.2714 -0.0034
 8881SOL    HW127184   0.442   1.109   2.770 -0.6460  0.6766  1.0263
 8881SOL    HW227185   0.431   1.229   2.678 -0.3936 -0.0649  0.0143
 8882SOL     OW27186   2.107   4.875   1.363 -0.0216 -0.1481 -0.3337
 8882SOL    HW127187   2.049   4.917   1.427  0.7054  1.1569 -0.4965
 8882SOL    HW227188   2.186   4.853   1.414  0.6465  1.0898 -0.7916
 8883SOL     OW27189   6.622   5.353   6.007 -0.3009 -0.0411  0.4665
 8883SOL    HW127190   6.598   5.305   5.927  1.4187  1.0113 -0.7387
 8883SOL    HW227191   6.588   5.442   5.993  1.5271  0.6313  0.0847
 8884SOL     OW27192   3.546   4.703   7.133  0.1986  0.2019 -0.3800
 8884SOL    HW127193   3.621   4.762   7.138  1.3241 -1.2732  1.5448
 8884SOL    HW227194   3.583   4.619   7.105 -0.3727 -0.9642  2.0509
 8885SOL     OW27195   2.016   6.812   2.040 -0.0629 -0.2349  0.5773
 8885SOL    HW127196   2.065   6.734   2.066  1.1969  0.4762  0.3817
 8885SOL    HW227197   2.075   6.885   2.058 -1.2962  0.6979  0.9180
 8886SOL     OW27198   6.821   1.555   5.286 -0.0478 -0.1227  0.0657
 8886SOL    HW127199   6.865   1.476   5.253 -0.1524 -0.3084  0.3669
 8886SOL    HW227200   6.745   1.522   5.334  0.8873  0.0526  1.7269
 8887SOL     OW27201   3.891   1.375   3.104 -0.2887  0.5492  1.1124
 8887SOL    HW127202   3.961   1.348   3.045 -0.0283  0.6126  1.3875
 8887SOL    HW227203   3.928   1.447   3.154 -0.8585  1.1941  0.6274
 8888SOL     OW27204   3.646   0.169   6.678  0.6574 -0.1147  0.4154
 8888SOL    HW127205   3.679   0.121   6.602 -1.1844 -0.5483 -0.1517
 8888SOL    HW227206   3.573   0.221   6.645 -0.6727 -0.8860  1.9987
 8889SOL     OW27207   2.389   0.303   5.925 -0.2007  0.5113 -0.3365
 8889SOL    HW127208   2.424   0.389   5.949 -0.5189  0.3538  0.7414
 8889SOL    HW227209   2.457   0.241   5.954 -0.4291  0.3368 -0.1772
 8890SOL     OW27210   0.387   5.537   1.668 -0.3906  0.2907 -0.0740
 8890SOL    HW127211   0.374   5.620   1.715  0.8599  0.9000 -0.7562
 8890SOL    HW227212   0.444   5.486   1.724 -0.9798 -0.0364  0.2411
 8891SOL     OW27213   2.987   3.519   0.500 -0.0745 -0.4880 -0.4294
 8891SOL    HW127214   3.072   3.517   0.455  0.3222  0.0066  0.2831
 8891SOL    HW227215   2.973   3.611   0.520 -0.5155 -0.6418 -0.0349
 8892SOL     OW27216   5.914   1.504   2.774  0.0568 -0.0507 -0.4885
 8892SOL    HW127217   5.929   1.430   2.716  1.2617 -0.3492  0.1680
 8892SOL    HW227218   5.822   1.527   2.762 -0.0612 -1.0066 -1.4454
 8893SOL     OW27219   1.266   2.775   6.375  0.5361 -0.1159  0.5560
 8893SOL    HW127220   1.207   2.850   6.369  1.3873  0.6171  1.1063
 8893SOL    HW227221   1.212   2.700   6.347 -0.9281  0.3736  1.8930
 8894SOL     OW27222   7.201   6.615   0.923 -0.3930  0.6086  0.4562
 8894SOL    HW127223   7.293   6.597   0.905 -0.2286  0.2851  1.5729
 8894SOL    HW227224   7.160   6.619   0.836  0.7798  1.4229 -0.0923
 8895SOL     OW27225   7.505   2.109   2.836  0.2243  0.0223 -0.2836
 8895SOL    HW127226   7.527   2.186   2.889  0.8543  0.3838 -1.0671
 8895SOL    HW227227   7.432   2.138   2.781 -0.0681 -0.1918 -0.0172
 8896SOL     OW27228   1.580   7.386   5.110 -0.3507 -0.7067 -0.1269
 8896SOL    HW127229   1.663   7.425   5.084  0.2518 -1.0253  1.2379
 8896SOL    HW227230   1.517   7.458   5.105  0.5592  0.2438  1.4536
 8897SOL     OW27231   4.418   3.406   5.349  0.2226 -0.0059 -0.1247
 8897SOL    HW127232   4.445   3.406   5.441 -1.1004 -0.3688  0.2849
 8897SOL    HW227233   4.496   3.380   5.301  0.8293 -0.1919  0.9380
 8898SOL     OW27234   0.008   0.645   4.528  0.7375 -0.0784 -0.1913
 8898SOL    HW127235   0.071   0.715   4.510  0.4863  0.3654  0.5779
 8898SOL    HW227236  -0.058   0.653   4.460  1.3102 -0.3126 -0.7898
 8899SOL     OW27237   2.347   2.954   0.367  0.1886  0.2329  0.0879
 8899SOL    HW127238   2.274   3.011   0.389  0.2023 -0.1983  1.3231
 8899SOL    HW227239   2.395   2.943   0.449 -0.3203 -2.2844  0.1300
 8900SOL     OW27240   3.714   5.015   2.705  0.0146 -0.0735  0.1978
 8900SOL    HW127241   3.733   5.035   2.613  0.7072 -1.0457  0.1214
 8900SOL    HW227242   3.794   5.038   2.752 -0.5967  1.1371  0.6825
 8901SOL     OW27243   1.799   3.984   3.728  0.0630  0.2535  0.2319
 8901SOL    HW127244   1.825   4.046   3.660 -1.3498 -0.3097 -0.8695
 8901SOL    HW227245   1.707   3.964   3.709 -0.1338 -0.5393  1.8338
 8902SOL     OW27246   5.369   1.079   7.119 -0.1849  0.0906  0.0812
 8902SOL    HW127247   5.406   1.166   7.130  0.6318 -0.0855 -1.1006
 8902SOL    HW227248   5.398   1.051   7.032 -2.3653 -0.4232 -0.5399
 8903SOL     OW27249   3.476   4.975   7.512  0.1108 -0.1990  0.7789
 8903SOL    HW127250   3.403   4.959   7.573 -1.1655  0.2555 -0.5707
 8903SOL    HW227251   3.466   5.067   7.487  2.0576  0.3060  1.6836
 8904SOL     OW27252   4.029   2.536   0.247  0.3145  0.2033 -0.0409
 8904SOL    HW127253   3.950   2.559   0.296  1.3619  1.4214  1.1363
 8904SOL    HW227254   3.995   2.500   0.165 -1.4659  0.1015  0.6728
 8905SOL     OW27255   4.992   1.222   4.597  0.0604  0.2016 -0.2335
 8905SOL    HW127256   5.078   1.253   4.627 -0.7825  2.6209 -0.1034
 8905SOL    HW227257   5.012   1.153   4.535  2.0043 -1.2185  1.8228
 8906SOL     OW27258   2.012   5.472   7.299  0.0782 -0.3597  0.4252
 8906SOL    HW127259   2.037   5.428   7.218  2.8967  2.2022 -0.2822
 8906SOL    HW227260   2.057   5.423   7.368 -1.7966 -2.1392  0.5084
 8907SOL     OW27261   3.577   1.820   3.876  0.5717  0.1645  0.0725
 8907SOL    HW127262   3.573   1.797   3.969  3.4482 -1.1412 -0.0106
 8907SOL    HW227263   3.548   1.911   3.872 -1.7392 -0.3885  1.8735
 8908SOL     OW27264   3.785   4.232   4.689 -0.4041 -0.4984 -0.2026
 8908SOL    HW127265   3.689   4.232   4.695 -0.3129 -0.0059  2.6116
 8908SOL    HW227266   3.811   4.143   4.714 -0.1159  0.0319  1.5653
 8909SOL     OW27267   4.580   3.564   2.326  0.5416  0.0939 -0.0789
 8909SOL    HW127268   4.648   3.613   2.372  0.8393  1.0557 -1.4965
 8909SOL    HW227269   4.502   3.619   2.336  0.3833 -0.1513  0.0466
 8910SOL     OW27270   5.766   2.557   0.880  0.3765 -0.2858 -0.2913
 8910SOL    HW127271   5.762   2.477   0.827  0.7545 -0.0617 -0.6609
 8910SOL    HW227272   5.705   2.540   0.952  0.7107 -1.0504 -0.1717
 8911SOL     OW27273   0.310   7.386   2.946 -0.4544 -0.6423  0.2951
 8911SOL    HW127274   0.243   7.320   2.966 -0.4558 -0.3860  1.1358
 8911SOL    HW227275   0.366   7.388   3.023 -0.5488  0.4573  0.3456
 8912SOL     OW27276   5.908   7.284   3.260 -0.0027 -0.3544  0.0616
 8912SOL    HW127277   5.855   7.356   3.225 -0.0807  1.6657  3.7482
 8912SOL    HW227278   5.849   7.240   3.322  0.9416 -1.7231  0.0056
 8913SOL     OW27279   0.652   2.664   6.786  0.3550  0.1363  0.0881
 8913SOL    HW127280   0.745   2.672   6.765  0.5807 -1.0171  0.6004
 8913SOL    HW227281   0.638   2.727   6.857  1.1389 -0.8591  1.1639
 8914SOL     OW27282   2.858   3.552   2.584 -0.2797 -0.4670 -0.1237
 8914SOL    HW127283   2.875   3.629   2.638 -3.0867 -1.0129  1.7542
 8914SOL    HW227284   2.831   3.588   2.500 -2.3028  0.7175  0.9502
 8915SOL     OW27285   1.242   1.428   4.816  0.4011 -0.4930  0.4757
 8915SOL    HW127286   1.234   1.459   4.726  0.4811 -2.1443 -0.1485
 8915SOL    HW227287   1.174   1.361   4.825  0.9067 -0.9125  1.3773
 8916SOL     OW27288   3.353   5.347   6.533  0.5203  0.5678 -0.2376
 8916SOL    HW127289   3.302   5.428   6.532 -0.6989 -0.1079  1.9650
 8916SOL    HW227290   3.363   5.324   6.440 -1.3492  1.8685 -0.8231
 8917SOL     OW27291   6.120   1.428   3.910 -0.1727 -0.1957  0.0476
 8917SOL    HW127292   6.099   1.521   3.896 -0.8461 -0.2367  0.7010
 8917SOL    HW227293   6.148   1.397   3.824  0.3190  0.6735 -0.1217
 8918SOL     OW27294   4.938   6.353   5.061 -0.3574  0.2641 -0.5497
 8918SOL    HW127295   4.887   6.408   5.001 -0.7451  0.6446  0.1214
 8918SOL    HW227296   4.882   6.344   5.138  0.9230  1.3343  0.5332
 8919SOL     OW27297   6.835   7.479   0.971  0.1211  0.0519  0.4761
 8919SOL    HW127298   6.882   7.559   0.946  2.9955 -1.5279  0.3842
 8919SOL    HW227299   6.822   7.432   0.889 -1.5523  0.3661  0.5293
 8920SOL     OW27300   4.675   2.425   0.878  0.4598 -0.0019  0.0098
 8920SOL    HW127301   4.757   2.462   0.911  1.2224 -0.8319 -0.8737
 8920SOL    HW227302   4.699   2.388   0.793 -0.5384 -1.4662  0.3439
 8921SOL     OW27303   0.037   2.803   3.970 -0.3498  0.6862 -0.1300
 8921SOL    HW127304   0.030   2.758   4.054 -1.3522  1.2433  0.1029
 8921SOL    HW227305   0.066   2.736   3.908 -0.3275  0.0982  0.5107
 8922SOL     OW27306   1.429   6.184   1.517 -0.0018 -0.1024  0.2800
 8922SOL    HW127307   1.362   6.131   1.475 -0.7143  0.3021  0.8876
 8922SOL    HW227308   1.451   6.136   1.597 -3.1450  2.1002  2.6686
 8923SOL     OW27309   3.559   6.840   0.375 -0.6115  0.1228 -0.6426
 8923SOL    HW127310   3.472   6.808   0.400 -0.0550 -0.9545 -0.0033
 8923SOL    HW227311   3.619   6.789   0.429  0.3919  1.4540 -0.4546
 8924SOL     OW27312   4.401   3.612   6.122  0.2577  0.4729  0.5366
 8924SOL    HW127313   4.468   3.573   6.066 -0.4181 -1.1582  0.8089
 8924SOL    HW227314   4.403   3.706   6.100  0.1251 -0.0638 -2.0944
 8925SOL     OW27315   6.674   0.450   4.346 -0.2603  0.0634 -0.0270
 8925SOL    HW127316   6.744   0.485   4.402  0.4369 -2.3175  0.6884
 8925SOL    HW227317   6.713   0.375   4.302 -2.3533 -1.3401  0.3691
 8926SOL     OW27318   6.395   3.412   2.294  0.0081  0.1109 -0.1039
 8926SOL    HW127319   6.388   3.441   2.385 -1.4708  0.2552 -0.2296
 8926SOL    HW227320   6.340   3.333   2.291  0.1285  0.0536 -0.8492
 8927SOL     OW27321   3.040   7.072   5.305  0.6029 -0.3628 -0.1302
 8927SOL    HW127322   2.979   6.999   5.292 -2.0162  0.9659  3.1383
 8927SOL    HW227323   3.015   7.135   5.237  0.5661 -1.1048 -0.8296
 8928SOL     OW27324   3.931   4.981   4.962 -0.2213  0.1679 -0.3215
 8928SOL    HW127325   3.859   4.937   4.916  1.2208 -1.4647 -1.1344
 8928SOL    HW227326   3.990   5.009   4.893  0.2474  0.9229  0.3656
 8929SOL     OW27327   0.321   4.034   0.187  0.3059 -0.6642 -0.2944
 8929SOL    HW127328   0.341   4.105   0.247  0.9344 -1.1858  0.1262
 8929SOL    HW227329   0.376   4.051   0.110  1.1633 -1.1856  0.1831
 8930SOL     OW27330   3.406   2.026   3.256 -0.5891  0.0855 -0.5316
 8930SOL    HW127331   3.316   2.054   3.274 -2.2824 -4.0370 -1.3121
 8930SOL    HW227332   3.419   2.045   3.163  0.9414  4.0486  0.3130
 8931SOL     OW27333   4.417   1.924   4.968 -0.0493  0.7846  0.8655
 8931SOL    HW127334   4.354   1.955   5.033 -0.5756  1.4201  0.0772
 8931SOL    HW227335   4.486   1.990   4.967  2.0247 -1.1348  3.5394
 8932SOL     OW27336   4.577   0.895   2.171  0.6212  0.2159  0.1776
 8932SOL    HW127337   4.617   0.836   2.108 -1.0684 -2.2585  1.2570
 8932SOL    HW227338   4.602   0.859   2.256  0.5373  1.8022  0.9008
 8933SOL     OW27339   5.613   0.146   1.667 -0.4960 -0.0745 -0.3546
 8933SOL    HW127340   5.680   0.176   1.606  0.2214 -3.1375 -1.2546
 8933SOL    HW227341   5.657   0.145   1.752 -0.3357  0.7429 -0.4261
 8934SOL     OW27342   3.456   0.340   4.324 -0.2605  0.5149  0.9004
 8934SOL    HW127343   3.433   0.425   4.285 -1.9928 -0.2350  0.1773
 8934SOL    HW227344   3.473   0.360   4.416 -0.8737  1.6305  0.7903
 8935SOL     OW27345   7.434   2.978   0.866 -0.6525  0.1648 -0.3893
 8935SOL    HW127346   7.489   2.901   0.853  0.6685  1.0946 -0.5684
 8935SOL    HW227347   7.478   3.027   0.937 -1.5608  0.6628 -0.1516
 8936SOL     OW27348   7.488   5.688   0.558 -0.1204 -0.3559 -0.3847
 8936SOL    HW127349   7.431   5.750   0.512 -0.9241 -0.1830  0.7878
 8936SOL    HW227350   7.547   5.742   0.609 -0.4829 -0.5321  0.2383
 8937SOL     OW27351   5.079   0.921   3.699 -0.2997 -0.7981  0.4252
 8937SOL    HW127352   5.155   0.870   3.671 -0.4019 -1.5808  1.4913
 8937SOL    HW227353   5.076   0.995   3.639  1.4381 -0.6339  0.4913
 8938SOL     OW27354   6.435   1.732   0.047  0.2777  0.5110 -0.1787
 8938SOL    HW127355   6.471   1.802   0.100 -0.4852  1.3872 -0.7901
 8938SOL    HW227356   6.410   1.774  -0.035 -0.7232 -0.3405 -0.3399
 8939SOL     OW27357   4.300   1.388   4.973  0.1137 -0.5673  0.3849
 8939SOL    HW127358   4.249   1.440   5.035  0.9855  0.6393  0.1302
 8939SOL    HW227359   4.321   1.449   4.902 -1.6097 -2.1297 -1.5983
 8940SOL     OW27360   4.762   1.254   3.941  0.0399 -0.4760  0.2042
 8940SOL    HW127361   4.753   1.343   3.906 -0.8609 -0.8975 -0.6939
 8940SOL    HW227362   4.790   1.202   3.866  0.5573 -0.9672  0.7279
 8941SOL     OW27363   2.804   2.547   2.508 -0.1464  0.4359 -0.1231
 8941SOL    HW127364   2.713   2.555   2.481 -0.0579  0.2190 -0.4951
 8941SOL    HW227365   2.807   2.585   2.596 -0.2871  1.8715 -0.7066
 8942SOL     OW27366   6.373   0.983   6.182 -0.4466  0.4493 -0.7589
 8942SOL    HW127367   6.338   0.979   6.093 -0.6449  3.4410 -0.9228
 8942SOL    HW227368   6.442   1.049   6.178  0.5772 -0.4322  1.0258
 8943SOL     OW27369   0.202   1.131   5.388 -0.2638 -0.1439  0.3717
 8943SOL    HW127370   0.235   1.096   5.471 -0.8130  2.2443  1.6842
 8943SOL    HW227371   0.108   1.141   5.403 -0.5573 -0.7188 -0.9685
 8944SOL     OW27372   1.343   2.883   0.465  0.0863  0.4498 -0.2790
 8944SOL    HW127373   1.423   2.919   0.426 -0.8825  2.0946 -0.8452
 8944SOL    HW227374   1.288   2.960   0.481 -1.4734 -0.6623 -0.1119
 8945SOL     OW27375   4.998   3.331   2.789  0.1668 -0.4760 -0.6602
 8945SOL    HW127376   4.989   3.363   2.699  0.6866  0.1143 -0.5072
 8945SOL    HW227377   5.059   3.257   2.782 -0.2414 -0.8034 -0.8648
 8946SOL     OW27378   2.464   1.136   5.389 -0.2079  0.5701 -0.3379
 8946SOL    HW127379   2.372   1.116   5.406 -0.4879  1.7873 -0.3012
 8946SOL    HW227380   2.493   1.069   5.328  0.0513 -2.3309  2.7062
 8947SOL     OW27381   4.409   7.288   3.389 -0.1460 -0.0155  0.6309
 8947SOL    HW127382   4.394   7.369   3.340 -2.3613 -1.4915 -1.3379
 8947SOL    HW227383   4.453   7.230   3.327 -0.5104 -1.0210  1.2910
 8948SOL     OW27384   1.013   3.206   3.906 -0.0777  0.0085  0.2047
 8948SOL    HW127385   0.959   3.222   3.983  0.1134 -0.5202  0.4482
 8948SOL    HW227386   1.081   3.146   3.935  0.7679  0.8221 -0.0476
 8949SOL     OW27387   2.525   0.757   1.862  0.9177  0.1806 -0.3661
 8949SOL    HW127388   2.472   0.766   1.941  1.2372  1.4511 -0.2721
 8949SOL    HW227389   2.601   0.704   1.889  0.4835 -0.3198 -0.1143
 8950SOL     OW27390   4.283   0.910   3.317  0.1546 -0.5225 -0.0739
 8950SOL    HW127391   4.334   0.897   3.396  1.5888  0.4707 -0.7932
 8950SOL    HW227392   4.327   0.982   3.271 -1.5953  0.0297 -0.9820
 8951SOL     OW27393   5.975   5.505   1.882  0.1602 -0.6177 -1.0877
 8951SOL    HW127394   5.952   5.413   1.896 -2.0415 -0.2958 -2.0462
 8951SOL    HW227395   5.917   5.553   1.941  1.4833  0.1692 -0.3991
 8952SOL     OW27396   5.385   1.836   0.422 -0.0932  0.0295  0.0171
 8952SOL    HW127397   5.380   1.753   0.375 -0.1684 -0.2384  0.4960
 8952SOL    HW227398   5.370   1.903   0.355 -3.3207 -0.4417  0.1513
 8953SOL     OW27399   6.313   5.100   6.787 -0.6064 -0.0005 -0.0381
 8953SOL    HW127400   6.327   5.080   6.879 -0.0872 -1.9651 -0.4888
 8953SOL    HW227401   6.391   5.066   6.743 -1.1373  0.3102 -1.2713
 8954SOL     OW27402   0.611   4.997   4.751 -0.3293 -0.1560 -0.1257
 8954SOL    HW127403   0.637   5.054   4.824  1.4233 -0.4832 -0.4440
 8954SOL    HW227404   0.674   4.925   4.754  0.7764  0.5626 -2.8318
 8955SOL     OW27405   5.465   2.135   0.504  0.1011 -0.0525  0.4356
 8955SOL    HW127406   5.433   2.045   0.511 -0.4632  0.1844  0.9066
 8955SOL    HW227407   5.393   2.184   0.464 -0.8066  0.8069  2.9047
 8956SOL     OW27408   4.892   2.502   1.267 -0.1007  0.0964  0.1999
 8956SOL    HW127409   4.891   2.504   1.363 -0.7715 -0.7031  0.2214
 8956SOL    HW227410   4.826   2.436   1.244 -0.8243  1.1576 -0.8484
 8957SOL     OW27411   5.484   3.888   3.829  0.0375 -0.5048  0.0896
 8957SOL    HW127412   5.503   3.860   3.739  0.8295 -0.2388  0.1642
 8957SOL    HW227413   5.407   3.944   3.821 -0.1459 -0.8199 -0.3696
 8958SOL     OW27414   3.964   2.219   0.482  0.0333 -0.5436 -0.4078
 8958SOL    HW127415   3.956   2.158   0.555  1.2244  1.2464  1.3302
 8958SOL    HW227416   3.960   2.305   0.522 -0.4535  0.5572 -2.6351
 8959SOL     OW27417   0.895   3.336   3.238 -0.1419  0.0228 -0.3653
 8959SOL    HW127418   0.801   3.336   3.220 -0.5808 -0.6984  1.6467
 8959SOL    HW227419   0.901   3.350   3.333  1.6711 -1.8310 -0.1348
 8960SOL     OW27420   2.143   3.937   3.511  0.1205 -0.6651  0.0934
 8960SOL    HW127421   2.194   3.983   3.444 -1.1279  0.7631  0.0477
 8960SOL    HW227422   2.195   3.946   3.591  0.1648  0.4132 -0.0318
 8961SOL     OW27423   2.021   4.069   5.524 -0.0278  0.1202  0.3929
 8961SOL    HW127424   1.970   4.006   5.473 -0.8849  2.1015 -1.3640
 8961SOL    HW227425   2.112   4.052   5.500 -0.3073 -0.0171 -0.6243
 8962SOL     OW27426   6.285   6.028   2.065  0.1148  0.4214  0.0266
 8962SOL    HW127427   6.222   5.971   2.109  0.4381  1.5099  2.0070
 8962SOL    HW227428   6.370   5.985   2.079  0.2157  0.7566  0.4482
 8963SOL     OW27429   5.176   0.738   4.146 -0.5271  0.6309 -0.3782
 8963SOL    HW127430   5.159   0.829   4.169  0.8637  0.2140  2.7360
 8963SOL    HW227431   5.271   0.729   4.151 -0.7474 -1.4771  1.7058
 8964SOL     OW27432   5.462   5.567   5.817  0.3505 -0.5896  0.7196
 8964SOL    HW127433   5.535   5.612   5.861 -0.3452  1.4093 -0.0643
 8964SOL    HW227434   5.498   5.538   5.734  0.3494  0.0818  0.4830
 8965SOL     OW27435   6.415   4.636   4.970 -0.2115  0.1181 -0.0719
 8965SOL    HW127436   6.386   4.573   5.035 -0.3207  1.0763  0.8240
 8965SOL    HW227437   6.458   4.583   4.903  1.4621 -0.7390  1.6051
 8966SOL     OW27438   4.841   4.676   2.175 -0.3278 -0.3399 -0.1594
 8966SOL    HW127439   4.760   4.718   2.204  0.4223 -0.5664  2.4730
 8966SOL    HW227440   4.856   4.605   2.237  2.7337  0.7204  0.5161
 8967SOL     OW27441   4.528   5.083   2.054 -0.1121  0.7244 -0.8626
 8967SOL    HW127442   4.479   5.073   1.973 -0.9310  0.4081 -0.3440
 8967SOL    HW227443   4.583   5.160   2.040  2.0237 -1.0522 -2.8197
 8968SOL     OW27444   5.022   4.497   6.852  0.7287  0.7281  0.0072
 8968SOL    HW127445   4.993   4.434   6.786  1.2325  1.4702 -0.9748
 8968SOL    HW227446   4.942   4.540   6.882  0.1337 -1.6936  2.1735
 8969SOL     OW27447   6.880   2.771   3.080 -0.0628  0.4173  0.2898
 8969SOL    HW127448   6.790   2.776   3.048 -0.1058 -1.3787  0.0484
 8969SOL    HW227449   6.885   2.840   3.147 -0.8336  2.2596 -1.4393
 8970SOL     OW27450   6.877   6.994   3.818 -0.8322 -0.1487 -0.9468
 8970SOL    HW127451   6.966   6.968   3.842 -0.2579  0.6698 -2.0901
 8970SOL    HW227452   6.848   6.926   3.757 -1.0615 -0.4904 -0.4677
 8971SOL     OW27453   5.529   7.180   4.792 -0.5630 -0.2664  0.3904
 8971SOL    HW127454   5.619   7.150   4.787 -0.6439 -0.5086  0.3886
 8971SOL    HW227455   5.535   7.276   4.791 -0.4333 -0.2244 -2.3851
 8972SOL     OW27456   1.490   1.919   4.515  0.9024  0.1001  0.5643
 8972SOL    HW127457   1.405   1.897   4.553  0.7685 -1.0187 -0.3440
 8972SOL    HW227458   1.532   1.972   4.582  1.3305 -3.0687  3.0561
 8973SOL     OW27459   1.523   0.382   7.463  0.0625  0.3220  0.5562
 8973SOL    HW127460   1.483   0.446   7.522 -0.1002 -0.3814  1.2234
 8973SOL    HW227461   1.513   0.298   7.508 -0.4754 -0.3048 -0.6781
 8974SOL     OW27462   2.943   0.044   3.913 -0.2451  0.2153 -0.1053
 8974SOL    HW127463   2.936   0.139   3.917  1.2599  0.3700 -0.6234
 8974SOL    HW227464   2.855   0.013   3.934 -0.7941  1.7148 -0.0579
 8975SOL     OW27465   5.485   2.100   6.993 -0.0249  0.1304  0.2098
 8975SOL    HW127466   5.572   2.132   6.966  0.2174 -0.1490  0.6540
 8975SOL    HW227467   5.494   2.004   6.992 -0.3233  0.1025  0.2817
 8976SOL     OW27468   7.202   2.923   2.474 -0.1812  0.2923 -0.1348
 8976SOL    HW127469   7.166   2.836   2.491  1.6258 -0.7151 -1.2392
 8976SOL    HW227470   7.205   2.964   2.561  1.2594 -1.6910  0.8253
 8977SOL     OW27471   4.454   5.269   2.668 -0.1612  0.1733 -0.1095
 8977SOL    HW127472   4.522   5.315   2.618  0.7941 -0.3473  0.6871
 8977SOL    HW227473   4.453   5.180   2.633 -1.8211  0.6574 -1.4598
 8978SOL     OW27474   7.479   6.094   5.016 -0.7061 -0.5617 -0.3115
 8978SOL    HW127475   7.383   6.090   5.013 -0.7293 -3.1168  0.9998
 8978SOL    HW227476   7.502   6.043   5.094  1.7428 -0.3299 -0.8249
 8979SOL     OW27477   0.811   3.460   0.757  0.4241 -0.4086  0.1593
 8979SOL    HW127478   0.773   3.372   0.750  1.0141 -0.5501 -3.5724
 8979SOL    HW227479   0.837   3.482   0.667  2.1237  2.8080  1.2668
 8980SOL     OW27480   0.956   6.748   4.489  0.0872 -0.2579 -0.2992
 8980SOL    HW127481   0.973   6.689   4.561 -0.5248  0.4438  0.4369
 8980SOL    HW227482   0.862   6.741   4.473  0.0814  0.1883 -0.4894
 8981SOL     OW27483   4.493   6.812   7.139 -0.0315  0.2020  0.7279
 8981SOL    HW127484   4.541   6.881   7.184 -2.2490  1.6391  1.0689
 8981SOL    HW227485   4.401   6.831   7.157 -0.8050 -1.8478 -0.6375
 8982SOL     OW27486   1.360   0.788   0.955 -0.1734 -0.2809  0.3700
 8982SOL    HW127487   1.429   0.753   1.012 -0.8083 -1.4295  0.4758
 8982SOL    HW227488   1.308   0.844   1.012  0.8262  0.8285  0.2191
 8983SOL     OW27489   6.415   4.077   6.535 -0.0038 -0.0039 -0.3996
 8983SOL    HW127490   6.488   4.067   6.596  0.9629  0.2379 -1.4644
 8983SOL    HW227491   6.425   4.166   6.501 -1.2172  0.2721 -0.0453
 8984SOL     OW27492   2.107   5.495   3.156 -0.0462  0.3263 -0.3139
 8984SOL    HW127493   2.132   5.459   3.242 -1.0955 -0.9659 -0.5130
 8984SOL    HW227494   2.063   5.577   3.177  2.6327  1.7747  0.1429
 8985SOL     OW27495   1.144   0.766   5.670  0.5173 -0.0431  0.2462
 8985SOL    HW127496   1.217   0.806   5.623  0.1794 -0.1203 -0.3439
 8985SOL    HW227497   1.163   0.672   5.669 -0.6151 -0.3055 -1.7367
 8986SOL     OW27498   0.430   3.013   3.148  0.7716  0.2682  0.3798
 8986SOL    HW127499   0.380   2.937   3.118  0.6657  1.4940 -3.0227
 8986SOL    HW227500   0.518   2.978   3.166  0.2717 -0.9225  0.5882
 8987SOL     OW27501   6.074   5.572   2.242  0.5549 -0.5167  0.1261
 8987SOL    HW127502   5.990   5.571   2.196 -0.4462 -0.1181  1.8625
 8987SOL    HW227503   6.065   5.505   2.310  1.2312  0.2633  1.0219
 8988SOL     OW27504   0.008   1.172   2.412  0.5331 -0.6252  0.1190
 8988SOL    HW127505  -0.025   1.182   2.323 -0.9763 -0.4060  0.6681
 8988SOL    HW227506  -0.052   1.110   2.453 -0.6074  1.4466  1.8004
 8989SOL     OW27507   3.606   3.677   1.438  0.0060  0.1536 -0.3512
 8989SOL    HW127508   3.540   3.676   1.507  1.4186  0.8214  1.0588
 8989SOL    HW227509   3.672   3.615   1.467  1.2191  1.3434 -0.4797
 8990SOL     OW27510   1.231   6.679   0.622  0.2889  0.0057 -0.2142
 8990SOL    HW127511   1.243   6.761   0.574  0.6280  0.8187  1.2009
 8990SOL    HW227512   1.272   6.695   0.706 -1.5528 -0.8586  0.9057
 8991SOL     OW27513   1.181   0.275   6.086 -0.2999  0.0576 -0.3112
 8991SOL    HW127514   1.226   0.359   6.084 -2.0606  1.0334 -0.5677
 8991SOL    HW227515   1.212   0.233   6.166 -1.0668  1.9354  1.0307
 8992SOL     OW27516   4.390   6.168   2.046  0.1571  0.0198 -0.6055
 8992SOL    HW127517   4.455   6.191   1.980  0.7573 -2.6109 -1.0465
 8992SOL    HW227518   4.318   6.130   1.995  0.6182 -2.0271  0.1749
 8993SOL     OW27519   1.255   2.943   4.996 -0.8240 -0.2746  0.3228
 8993SOL    HW127520   1.257   3.008   5.067  1.2467 -1.0536  1.0625
 8993SOL    HW227521   1.236   2.994   4.917 -1.3073  0.9020  1.1762
 8994SOL     OW27522   0.438   1.135   1.130 -0.1044 -1.1133 -0.3442
 8994SOL    HW127523   0.473   1.046   1.142 -0.1836 -1.0740  0.2003
 8994SOL    HW227524   0.413   1.163   1.218 -1.4126 -1.0914 -0.7066
 8995SOL     OW27525   2.622   5.293   3.466  0.0994 -0.5556  0.1178
 8995SOL    HW127526   2.677   5.220   3.440 -0.0652 -0.8505  0.5718
 8995SOL    HW227527   2.682   5.359   3.501  0.3420 -0.0597 -1.1997
 8996SOL     OW27528   4.004   2.313   4.093  0.1064  0.1642  0.3041
 8996SOL    HW127529   4.048   2.231   4.118 -0.3687 -0.0540  0.4354
 8996SOL    HW227530   4.009   2.367   4.172 -0.2363 -0.0243  0.4560
 8997SOL     OW27531   2.428   7.602   6.974  0.9240  0.5569  0.1590
 8997SOL    HW127532   2.515   7.641   6.983  0.7620  0.8203  0.6422
 8997SOL    HW227533   2.387   7.650   6.902  0.5230  1.6912  1.1055
 8998SOL     OW27534   1.132   0.375   5.362 -0.3724 -0.2364  0.7452
 8998SOL    HW127535   1.193   0.329   5.304 -1.6421 -2.0649  0.7880
 8998SOL    HW227536   1.045   0.349   5.331 -1.1220  1.0024  1.7152
 8999SOL     OW27537   0.944   5.357   0.321 -0.6185  0.2748 -0.1168
 8999SOL    HW127538   0.939   5.379   0.414  2.4587  0.3401  0.1233
 8999SOL    HW227539   1.036   5.337   0.305 -1.2473 -0.9437 -2.9178
 9000SOL     OW27540   4.348   3.607   5.698 -0.0677 -0.3251 -0.0444
 9000SOL    HW127541   4.386   3.673   5.756  1.4553 -0.5691 -0.6987
 9000SOL    HW227542   4.288   3.656   5.642  1.2811  0.6159 -0.7370
 9001SOL     OW27543   1.750   6.808   4.551 -0.3206 -0.3914  0.2408
 9001SOL    HW127544   1.773   6.779   4.639  0.1619  2.0265  0.9876
 9001SOL    HW227545   1.655   6.823   4.555  0.0223  1.8002  1.0622
 9002SOL     OW27546   3.920   4.511   5.313  0.9420 -0.8286  0.2110
 9002SOL    HW127547   3.983   4.582   5.306 -0.0477 -0.0122 -0.7712
 9002SOL    HW227548   3.860   4.524   5.239  0.8993 -2.8577 -0.1837
 9003SOL     OW27549   7.390   1.607   6.790 -0.1483  0.0591  0.3808
 9003SOL    HW127550   7.347   1.589   6.873  1.0711  3.8180  2.0729
 9003SOL    HW227551   7.469   1.553   6.791  0.1689  0.5188  2.0180
 9004SOL     OW27552   3.409   5.695   4.175  0.6501 -0.2048  0.2652
 9004SOL    HW127553   3.384   5.608   4.142 -0.5351  0.2394 -0.0470
 9004SOL    HW227554   3.326   5.739   4.192  1.2030  0.0483  2.6778
 9005SOL     OW27555   1.384   2.734   3.703 -0.7152 -1.3053  0.4292
 9005SOL    HW127556   1.366   2.776   3.787  0.6771 -2.0579  1.1263
 9005SOL    HW227557   1.478   2.720   3.702 -0.6206 -0.8609 -1.4951
 9006SOL     OW27558   4.214   0.576   4.434 -0.2005 -0.1117 -0.0565
 9006SOL    HW127559   4.269   0.580   4.355 -1.1592 -1.4534 -0.8242
 9006SOL    HW227560   4.220   0.665   4.471  0.3160  0.5366 -1.5953
 9007SOL     OW27561   2.329   1.372   1.869  0.1573  0.0379 -0.0905
 9007SOL    HW127562   2.271   1.445   1.891  0.9330  1.1942 -1.7180
 9007SOL    HW227563   2.322   1.313   1.944 -1.0618  1.4180  0.9408
 9008SOL     OW27564   7.426   0.037   5.321 -0.3381 -0.3163  0.0874
 9008SOL    HW127565   7.406   0.131   5.329 -0.4454 -0.2779 -0.5340
 9008SOL    HW227566   7.498   0.022   5.381 -0.6207  0.0738  0.5266
 9009SOL     OW27567   5.781   2.136   6.604  0.0826 -0.4326  0.0669
 9009SOL    HW127568   5.828   2.074   6.548  0.1680 -0.9244  0.6736
 9009SOL    HW227569   5.696   2.095   6.619 -1.1167  1.0527 -2.1098
 9010SOL     OW27570   0.992   1.825   6.902 -0.1419  0.5014 -0.4706
 9010SOL    HW127571   0.903   1.842   6.873 -0.0665  0.4810 -0.7127
 9010SOL    HW227572   0.981   1.774   6.983 -0.3480 -1.1479 -1.4959
 9011SOL     OW27573   0.475   6.658   1.167  0.0379 -0.2336  0.1047
 9011SOL    HW127574   0.505   6.743   1.134 -0.7836  0.7201  1.6395
 9011SOL    HW227575   0.555   6.613   1.195  0.4528  0.2082 -0.3546
 9012SOL     OW27576   1.495   7.282   2.523 -0.1423  0.3557  0.1389
 9012SOL    HW127577   1.463   7.193   2.511  1.0926 -0.2062  0.7573
 9012SOL    HW227578   1.537   7.304   2.440  0.0261  0.1341  0.1615
 9013SOL     OW27579   7.279   6.752   2.966 -0.1170  0.7196 -0.0814
 9013SOL    HW127580   7.356   6.756   3.023 -0.5263  0.0882  0.5327
 9013SOL    HW227581   7.219   6.692   3.011  0.1286 -0.9785 -1.8996
 9014SOL     OW27582   3.197   6.978   3.320  0.5695 -0.2313  0.2711
 9014SOL    HW127583   3.195   6.965   3.415  1.6644  0.9471  0.4757
 9014SOL    HW227584   3.202   7.073   3.309  2.4598 -0.4235 -0.9126
 9015SOL     OW27585   1.086   3.734   3.841 -0.3015 -0.9269 -0.3442
 9015SOL    HW127586   1.045   3.651   3.814 -0.2728 -0.6873 -1.1448
 9015SOL    HW227587   1.165   3.740   3.787  0.1596 -0.7978  0.3362
 9016SOL     OW27588   6.292   7.307   6.559  0.5335  0.2383 -0.1643
 9016SOL    HW127589   6.326   7.363   6.630  0.0063 -0.2195  0.4573
 9016SOL    HW227590   6.211   7.271   6.594  0.2623  0.0141 -1.0168
 9017SOL     OW27591   3.677   4.476   7.039  0.1920  0.3167  0.0970
 9017SOL    HW127592   3.747   4.447   7.098 -0.3400  1.2049  1.2109
 9017SOL    HW227593   3.724   4.518   6.967  0.8439  0.4476  0.5760
 9018SOL     OW27594   6.892   6.499   6.270 -0.2048  0.4350 -0.8259
 9018SOL    HW127595   6.901   6.469   6.361  0.2084  2.3294 -0.1984
 9018SOL    HW227596   6.808   6.463   6.242 -1.4840  1.7118  1.1204
 9019SOL     OW27597   4.056   2.796   4.835  0.3791 -0.6938 -0.6626
 9019SOL    HW127598   4.101   2.878   4.814  0.3482 -1.1652 -2.7150
 9019SOL    HW227599   3.971   2.824   4.868  1.5175  0.1525  1.8121
 9020SOL     OW27600   6.849   6.310   1.672  0.2232 -0.2853 -0.0684
 9020SOL    HW127601   6.829   6.383   1.732 -1.7605 -1.7270  1.1529
 9020SOL    HW227602   6.808   6.335   1.589 -1.7160 -0.5854  0.7548
 9021SOL     OW27603   6.290   5.232   3.474 -0.2540  0.3069  0.2202
 9021SOL    HW127604   6.218   5.179   3.440  0.3145  0.0812 -0.6598
 9021SOL    HW227605   6.369   5.187   3.444  0.2965 -0.2982  2.4417
 9022SOL     OW27606   1.331   6.552   5.859 -0.6726  0.0766  0.4252
 9022SOL    HW127607   1.409   6.526   5.908 -0.9022 -0.1248  0.6939
 9022SOL    HW227608   1.300   6.631   5.903  1.3334  2.2609 -1.7921
 9023SOL     OW27609   4.370   5.189   7.155 -0.0215 -0.1406  0.3529
 9023SOL    HW127610   4.366   5.119   7.221 -0.7024 -0.6629 -0.2359
 9023SOL    HW227611   4.351   5.269   7.205  0.4181 -0.4049  0.9659
 9024SOL     OW27612   1.854   2.633   3.108  0.2494  0.0075  0.6215
 9024SOL    HW127613   1.923   2.577   3.143  1.1512  0.7166  0.0215
 9024SOL    HW227614   1.859   2.621   3.013  0.3463  0.9548  0.4966
 9025SOL     OW27615   3.027   2.655   1.257 -0.5962 -0.0448  0.2244
 9025SOL    HW127616   3.022   2.751   1.248 -2.6138 -0.1818 -0.5103
 9025SOL    HW227617   3.121   2.636   1.253 -0.2301  1.7179 -1.9095
 9026SOL     OW27618   3.628   4.204   3.948 -0.5155  0.4791  0.2384
 9026SOL    HW127619   3.613   4.285   3.996 -1.9920  0.3189  0.0863
 9026SOL    HW227620   3.714   4.216   3.907 -1.0028  2.2346 -0.3322
 9027SOL     OW27621   4.702   3.131   0.455 -0.3298 -0.1811 -0.1393
 9027SOL    HW127622   4.663   3.137   0.542 -0.8334  0.2798 -0.3899
 9027SOL    HW227623   4.731   3.220   0.436 -0.5603 -0.2039 -0.5956
 9028SOL     OW27624   1.477   5.323   7.036 -0.2913 -0.8598  0.0027
 9028SOL    HW127625   1.412   5.365   6.980 -0.2774 -0.4062  0.3297
 9028SOL    HW227626   1.560   5.338   6.991 -0.5824 -3.1653 -1.4902
 9029SOL     OW27627   5.584   6.676   4.380 -0.2423 -0.8619  0.1440
 9029SOL    HW127628   5.622   6.739   4.441  1.6395  0.3133 -2.0599
 9029SOL    HW227629   5.511   6.636   4.428 -1.8886  3.3136  1.5213
 9030SOL     OW27630   3.498   2.760   0.297 -0.0578 -0.2033 -0.1869
 9030SOL    HW127631   3.562   2.700   0.336  0.1589 -0.0567 -0.3107
 9030SOL    HW227632   3.551   2.831   0.261 -0.3389  0.2618  0.3048
 9031SOL     OW27633   2.108   7.188   4.634 -0.6623  0.2812 -0.7828
 9031SOL    HW127634   2.062   7.123   4.686  0.4767 -0.8126 -1.0942
 9031SOL    HW227635   2.150   7.138   4.564 -0.3314  1.4421 -1.4428
 9032SOL     OW27636   7.003   1.274   6.277  0.7675 -0.1118 -0.5198
 9032SOL    HW127637   6.948   1.326   6.219 -0.9032  0.3893  1.4023
 9032SOL    HW227638   7.005   1.323   6.359 -0.0588 -2.4956  1.0551
 9033SOL     OW27639   6.470   0.790   6.795  0.0178  0.1061 -0.2007
 9033SOL    HW127640   6.419   0.736   6.855 -1.4532  0.8678 -0.7241
 9033SOL    HW227641   6.545   0.820   6.847 -0.3712 -0.5448  0.7618
 9034SOL     OW27642   4.714   5.644   3.402 -0.0818  0.2323 -0.5905
 9034SOL    HW127643   4.733   5.635   3.495  0.9372 -0.5771 -0.8672
 9034SOL    HW227644   4.640   5.585   3.387 -0.0808  0.1694 -0.3502
 9035SOL     OW27645   0.448   0.379   5.587 -0.0287  0.2306 -0.3003
 9035SOL    HW127646   0.372   0.422   5.547  0.7628  1.7096 -0.2952
 9035SOL    HW227647   0.429   0.379   5.681 -0.0292  0.6031 -0.2991
 9036SOL     OW27648   3.526   2.400   1.754  0.0293  0.4973 -0.2410
 9036SOL    HW127649   3.551   2.470   1.694  0.5447  0.4393 -0.1003
 9036SOL    HW227650   3.545   2.319   1.705 -3.4915  0.3495 -1.6835
 9037SOL     OW27651   6.421   1.844   6.834 -0.4542  0.1592 -0.7240
 9037SOL    HW127652   6.498   1.900   6.827  0.2263 -0.8986 -2.0969
 9037SOL    HW227653   6.391   1.832   6.744 -1.7139 -0.1730 -0.2875
 9038SOL     OW27654   6.324   6.985   2.460  0.1125 -0.3247 -0.1425
 9038SOL    HW127655   6.266   7.022   2.394 -0.2840 -1.5851 -0.5185
 9038SOL    HW227656   6.272   6.916   2.502  0.3668  0.4045  1.4715
 9039SOL     OW27657   2.955   1.175   3.482  0.1009 -0.2398  0.1277
 9039SOL    HW127658   3.023   1.235   3.515 -2.1074  2.5922 -0.0491
 9039SOL    HW227659   2.953   1.192   3.387 -0.5317 -0.6237  0.0705
 9040SOL     OW27660   2.842   6.045   2.337  0.2427  0.2764  0.3126
 9040SOL    HW127661   2.878   6.129   2.308  1.2499 -0.6886 -1.3927
 9040SOL    HW227662   2.749   6.049   2.314 -0.0997  1.5281  1.7608
 9041SOL     OW27663   3.078   0.459   5.868  0.6855  0.5508  0.2104
 9041SOL    HW127664   3.059   0.369   5.894 -0.2068  0.6615 -0.0290
 9041SOL    HW227665   2.993   0.496   5.847  1.0878  1.3447 -0.0457
 9042SOL     OW27666   4.095   4.281   3.579  0.2110 -0.1968  0.0589
 9042SOL    HW127667   4.103   4.269   3.674  1.0843  0.0750  0.0333
 9042SOL    HW227668   4.181   4.313   3.552 -0.7147  1.9662 -0.4950
 9043SOL     OW27669   0.206   6.968   6.575  0.2070  0.0852 -0.0846
 9043SOL    HW127670   0.193   7.061   6.556 -1.9537 -0.2075 -0.3093
 9043SOL    HW227671   0.285   6.945   6.527 -1.1139  1.0448 -2.9451
 9044SOL     OW27672   2.271   2.539   3.780  0.7800  0.0409  0.1782
 9044SOL    HW127673   2.323   2.512   3.855  0.0772 -1.2182  0.2464
 9044SOL    HW227674   2.217   2.462   3.759  0.0580  0.7872 -0.8255
 9045SOL     OW27675   3.430   6.318   5.316  1.1315  0.4916  0.8302
 9045SOL    HW127676   3.447   6.259   5.389  1.9063  0.2808  0.4900
 9045SOL    HW227677   3.335   6.315   5.304  1.1868 -0.8795  0.6578
 9046SOL     OW27678   4.203   2.555   5.037  0.3369 -0.1568  0.6994
 9046SOL    HW127679   4.185   2.642   5.072 -2.0190 -0.4473  0.3439
 9046SOL    HW227680   4.293   2.560   5.005  0.2011  2.1731  0.5643
 9047SOL     OW27681   1.409   1.782   1.565 -0.0688 -0.3540  0.1517
 9047SOL    HW127682   1.388   1.853   1.504 -1.0323 -0.3635  0.4563
 9047SOL    HW227683   1.387   1.702   1.517  2.1048 -0.5645 -0.6377
 9048SOL     OW27684   4.175   0.217   4.257  0.1675  0.3166 -0.2253
 9048SOL    HW127685   4.131   0.239   4.339  0.4291 -0.0396  0.0153
 9048SOL    HW227686   4.263   0.193   4.283  0.0715 -0.4069 -0.5411
 9049SOL     OW27687   1.172   7.299   3.747  0.1990  0.1901 -0.2126
 9049SOL    HW127688   1.245   7.361   3.748  0.1262  0.3174 -1.4784
 9049SOL    HW227689   1.144   7.294   3.839  2.3094 -0.5044  0.4627
 9050SOL     OW27690   0.843   7.209   7.285  0.3231 -0.0590  0.1362
 9050SOL    HW127691   0.833   7.116   7.265  1.8368 -0.6966  2.0312
 9050SOL    HW227692   0.791   7.254   7.218 -0.7275 -2.2644 -0.6204
 9051SOL     OW27693   0.683   2.937   4.949  0.1517 -0.0299  0.0037
 9051SOL    HW127694   0.757   2.956   4.891  1.4783  0.9604  1.9077
 9051SOL    HW227695   0.679   2.842   4.954 -0.0030 -0.1354 -1.6721
 9052SOL     OW27696   5.656   4.712   4.178 -0.4732  0.5365 -0.6097
 9052SOL    HW127697   5.587   4.730   4.242  1.5449  0.4879  1.7486
 9052SOL    HW227698   5.723   4.665   4.227  0.0117 -2.1149 -3.5127
 9053SOL     OW27699   1.936   2.747   6.375  0.6224  0.1931 -0.1770
 9053SOL    HW127700   1.950   2.659   6.410  1.4106 -0.0430 -1.0431
 9053SOL    HW227701   1.854   2.776   6.415  0.9576 -0.4607  1.0393
 9054SOL     OW27702   7.190   5.921   1.116 -0.5729  0.2087 -0.7199
 9054SOL    HW127703   7.136   5.942   1.191  1.5239 -0.3611  1.0561
 9054SOL    HW227704   7.279   5.946   1.143  0.5930 -2.1476 -2.0942
 9055SOL     OW27705   1.293   5.836   5.296  0.0198  0.4534  0.0549
 9055SOL    HW127706   1.208   5.867   5.264 -0.4928  0.5368  1.4450
 9055SOL    HW227707   1.341   5.812   5.216 -1.6472 -0.4890 -0.7260
 9056SOL     OW27708   2.061   6.564   0.469  0.3280  0.1403  0.0245
 9056SOL    HW127709   1.971   6.535   0.454  0.5199  0.2466 -1.4258
 9056SOL    HW227710   2.060   6.597   0.559 -0.9087 -0.4680  0.2652
 9057SOL     OW27711   7.545   3.260   1.838 -0.2872  0.2398 -0.0423
 9057SOL    HW127712   7.457   3.224   1.836  1.2206 -4.0622 -1.5416
 9057SOL    HW227713   7.560   3.290   1.748  0.0401  0.1311 -0.0256
 9058SOL     OW27714   6.832   6.719   6.132 -0.2978 -0.2729  0.6026
 9058SOL    HW127715   6.870   6.641   6.172  0.3565  0.1269  0.7806
 9058SOL    HW227716   6.761   6.686   6.077  1.3602 -1.2503 -1.0961
 9059SOL     OW27717   3.579   0.518   4.042 -0.3815 -0.0723 -0.0990
 9059SOL    HW127718   3.497   0.540   4.085 -0.9301  0.2369 -1.2702
 9059SOL    HW227719   3.588   0.424   4.053 -1.0627 -0.1584 -0.2318
 9060SOL     OW27720   6.188   2.740   3.562  0.6237  0.1633  0.4248
 9060SOL    HW127721   6.264   2.759   3.508  1.7140 -0.7697  1.5673
 9060SOL    HW227722   6.134   2.682   3.509  0.4055  1.2568 -0.6028
 9061SOL     OW27723   2.453   7.541   3.135  0.2965 -0.9278  0.0742
 9061SOL    HW127724   2.492   7.610   3.189  0.6674 -0.9955 -0.1024
 9061SOL    HW227725   2.490   7.554   3.048 -0.4150 -0.7309 -0.2050
 9062SOL     OW27726   1.745   6.898   3.572 -0.1019 -0.2169 -0.2060
 9062SOL    HW127727   1.729   6.931   3.661 -1.5154  0.7488 -0.7935
 9062SOL    HW227728   1.658   6.885   3.535  0.4635 -1.3828 -1.1886
 9063SOL     OW27729   6.103   4.456   0.673  0.2090 -0.0939  0.1139
 9063SOL    HW127730   6.009   4.475   0.674  0.4327  1.1729  2.0337
 9063SOL    HW227731   6.115   4.389   0.741  0.9425  1.4639  1.6123
 9064SOL     OW27732   7.165   0.838   4.686 -0.1238 -0.2849 -0.8153
 9064SOL    HW127733   7.177   0.780   4.612 -2.0845 -1.7992 -0.0296
 9064SOL    HW227734   7.233   0.812   4.749 -0.6808 -1.4315 -0.6710
 9065SOL     OW27735   6.496   6.153   4.421  0.0740  0.0449 -0.0036
 9065SOL    HW127736   6.418   6.205   4.437  0.5453  0.3562  1.4209
 9065SOL    HW227737   6.469   6.062   4.437  0.5486  0.3471  2.9042
 9066SOL     OW27738   2.305   3.612   0.907  0.0930 -0.1387  0.1888
 9066SOL    HW127739   2.218   3.592   0.941  0.2190  0.0186  0.6119
 9066SOL    HW227740   2.309   3.708   0.906  0.0435 -0.1410 -0.3973
 9067SOL     OW27741   2.165   7.535   7.480 -0.0712 -0.0085 -0.3336
 9067SOL    HW127742   2.133   7.507   7.566 -1.3664  0.3595 -0.6756
 9067SOL    HW227743   2.254   7.501   7.476 -0.3541 -0.9524  0.7247
 9068SOL     OW27744   7.072   4.918   3.924  0.1487  0.1640  0.0731
 9068SOL    HW127745   7.089   4.988   3.986  2.1100  0.0044 -0.2191
 9068SOL    HW227746   7.141   4.926   3.858 -0.8538 -0.7234 -1.1569
 9069SOL     OW27747   6.236   7.563   6.855 -1.1223 -0.0151  0.0406
 9069SOL    HW127748   6.194   7.647   6.838 -2.0983 -0.4016  0.4460
 9069SOL    HW227749   6.198   7.504   6.789  1.3865  0.3708 -1.9109
 9070SOL     OW27750   7.510   5.905   4.758  0.1499 -0.4023 -0.1197
 9070SOL    HW127751   7.577   5.953   4.807 -0.3010 -1.2674  1.4330
 9070SOL    HW227752   7.448   5.972   4.730 -0.9026 -0.0562  2.6855
 9071SOL     OW27753   3.793   2.484   5.108  0.4528  0.3715  0.0751
 9071SOL    HW127754   3.770   2.395   5.080 -0.1439  0.5899 -0.1534
 9071SOL    HW227755   3.772   2.539   5.032  0.9989  0.6811  0.1473
 9072SOL     OW27756   1.907   3.404   3.021 -0.2163  0.1378 -0.1708
 9072SOL    HW127757   1.951   3.423   2.938 -1.0114 -1.2157 -0.9327
 9072SOL    HW227758   1.975   3.414   3.088  0.4213  1.3111 -0.9515
 9073SOL     OW27759   2.956   5.384   6.955 -0.5166  0.0043  0.7261
 9073SOL    HW127760   3.026   5.424   7.006  1.2625 -3.8819  1.7332
 9073SOL    HW227761   2.969   5.418   6.866  1.4409  0.8470  1.2669
 9074SOL     OW27762   2.506   2.594   7.139 -0.4784  0.3502  0.3562
 9074SOL    HW127763   2.566   2.554   7.076 -0.2277 -2.0930  2.0169
 9074SOL    HW227764   2.561   2.650   7.193  0.1079 -0.7623  0.9548
 9075SOL     OW27765   6.712   6.283   4.522 -0.4006 -0.2768 -0.0506
 9075SOL    HW127766   6.736   6.217   4.588 -2.1256 -0.5174  0.3847
 9075SOL    HW227767   6.640   6.243   4.473 -0.7027  0.8377 -0.5537
 9076SOL     OW27768   6.601   5.957   3.793  0.4723 -0.3221  0.4497
 9076SOL    HW127769   6.669   5.950   3.859 -0.0118 -0.0317  0.9872
 9076SOL    HW227770   6.626   6.034   3.741  1.0311 -0.7470  0.0723
 9077SOL     OW27771   7.133   0.216   3.456 -0.6898 -0.0511  0.2782
 9077SOL    HW127772   7.226   0.210   3.474 -0.3611 -1.2998 -1.6424
 9077SOL    HW227773   7.115   0.310   3.450  0.8458  0.1831 -1.1764
 9078SOL     OW27774   1.629   0.634   0.174 -0.6611  0.7356 -0.0107
 9078SOL    HW127775   1.715   0.673   0.162  0.3545 -1.4818 -0.4186
 9078SOL    HW227776   1.580   0.657   0.095  0.1491  0.5711 -0.5638
 9079SOL     OW27777   4.267   2.320   3.836 -0.0631 -0.1296  0.2773
 9079SOL    HW127778   4.278   2.357   3.748 -2.0810 -0.3591 -0.1347
 9079SOL    HW227779   4.173   2.330   3.854  0.5068  1.0705  2.9525
 9080SOL     OW27780   4.340   2.854   4.250 -0.4139 -0.4816  0.0852
 9080SOL    HW127781   4.335   2.779   4.191 -0.0747  0.6263 -1.4113
 9080SOL    HW227782   4.431   2.884   4.246 -1.1891  1.9771 -1.9940
 9081SOL     OW27783   5.143   6.129   7.069 -0.0163  0.3631 -0.0859
 9081SOL    HW127784   5.089   6.098   6.996 -1.0842  1.2032  0.3100
 9081SOL    HW227785   5.105   6.214   7.092  0.7665  0.4449  0.9620
 9082SOL     OW27786   3.750   4.131   2.480  0.2368  0.2374 -0.4049
 9082SOL    HW127787   3.806   4.152   2.555 -0.3106  1.6072 -0.3625
 9082SOL    HW227788   3.707   4.049   2.505 -0.1508  0.8199  0.9122
 9083SOL     OW27789   0.723   1.459   1.152 -0.1185 -0.3012  0.3112
 9083SOL    HW127790   0.791   1.404   1.191  0.6522 -1.0729 -1.9477
 9083SOL    HW227791   0.672   1.399   1.098 -0.4312  0.8654 -0.7398
 9084SOL     OW27792   6.677   6.127   1.851  0.3493 -0.5432  0.3758
 9084SOL    HW127793   6.711   6.090   1.769 -1.4882  0.1015 -0.7473
 9084SOL    HW227794   6.711   6.216   1.853 -2.0078  0.5088 -1.3493
 9085SOL     OW27795   2.602   0.874   1.405 -0.0505  0.2355  0.1980
 9085SOL    HW127796   2.694   0.851   1.417 -0.1461 -0.7707 -0.7599
 9085SOL    HW227797   2.603   0.947   1.343  0.1422  1.0308  1.1234
 9086SOL     OW27798   0.443   5.320   6.738 -0.6339  0.6138 -0.3566
 9086SOL    HW127799   0.499   5.393   6.712 -0.2145 -0.0081 -1.2577
 9086SOL    HW227800   0.365   5.362   6.773  0.3159  1.5050  0.8147
 9087SOL     OW27801   0.708   7.112   3.525 -0.4132  0.4847 -0.2314
 9087SOL    HW127802   0.663   7.183   3.570  0.9320  0.6168  1.0165
 9087SOL    HW227803   0.773   7.082   3.589 -0.2944 -1.2098 -1.0958
 9088SOL     OW27804   4.633   3.708   6.334  0.3586  0.1665  0.5079
 9088SOL    HW127805   4.714   3.722   6.285 -1.1174  1.2966 -1.7674
 9088SOL    HW227806   4.596   3.796   6.344 -1.9772 -0.5380 -1.1282
 9089SOL     OW27807   2.723   5.062   3.723  0.1274 -0.3774  0.5555
 9089SOL    HW127808   2.735   5.156   3.707  0.5277 -0.7539 -1.7277
 9089SOL    HW227809   2.759   5.048   3.811  2.6015  1.1614 -0.1042
 9090SOL     OW27810   4.791   6.292   4.093 -0.3927  0.0432  0.0167
 9090SOL    HW127811   4.867   6.326   4.046 -0.3400  0.3992  0.3560
 9090SOL    HW227812   4.736   6.254   4.025 -0.1355  0.2105 -0.2873
 9091SOL     OW27813   4.518   2.442   1.499  0.4673  0.5889 -0.1185
 9091SOL    HW127814   4.463   2.419   1.424  0.4709  1.5912 -0.4452
 9091SOL    HW227815   4.483   2.526   1.529  1.8602  1.2839 -0.3801
 9092SOL     OW27816   2.220   6.767   6.781 -0.1790 -0.4075  0.3071
 9092SOL    HW127817   2.170   6.843   6.811  1.6693  0.6491  0.8192
 9092SOL    HW227818   2.281   6.803   6.717  0.9483 -1.4058  0.8014
 9093SOL     OW27819   2.900   0.111   6.124  0.2790 -0.3358  1.1640
 9093SOL    HW127820   2.909   0.114   6.219 -0.9974 -1.0433  1.3323
 9093SOL    HW227821   2.965   0.047   6.096  0.1682 -0.6618  1.6354
 9094SOL     OW27822   2.611   3.872   6.171  0.4697  0.0938  0.6692
 9094SOL    HW127823   2.672   3.903   6.104  0.4193 -0.8945  0.1426
 9094SOL    HW227824   2.666   3.838   6.241  0.6011 -2.1491 -0.4328
 9095SOL     OW27825   0.192   3.232   3.000  0.0339  0.2137 -0.3123
 9095SOL    HW127826   0.264   3.237   2.937  1.4772  1.2358  1.3259
 9095SOL    HW227827   0.165   3.323   3.013 -0.0885  0.0486  0.6825
 9096SOL     OW27828   4.043   0.397   2.303  0.1521  0.0991 -0.6247
 9096SOL    HW127829   4.026   0.459   2.233  1.3800  0.1367 -0.9121
 9096SOL    HW227830   4.035   0.311   2.262 -0.2399  0.0933 -0.5396
 9097SOL     OW27831   3.857   2.269   6.674 -0.5006 -0.3798 -0.5851
 9097SOL    HW127832   3.817   2.259   6.587 -0.5020 -1.4536 -0.4762
 9097SOL    HW227833   3.785   2.254   6.735 -0.3919 -0.1385 -0.3982
 9098SOL     OW27834   2.277   2.121   4.834  0.3715 -0.0572  0.1512
 9098SOL    HW127835   2.303   2.091   4.921  1.8022  1.5311  0.3150
 9098SOL    HW227836   2.352   2.100   4.778 -0.3308 -0.5948 -0.6277
 9099SOL     OW27837   2.059   4.478   7.115  0.5951  0.3883  0.2976
 9099SOL    HW127838   2.010   4.557   7.135 -0.6799 -0.7045  1.7012
 9099SOL    HW227839   2.109   4.460   7.194  0.2143 -0.6593  0.3183
 9100SOL     OW27840   2.028   1.667   0.771  0.5486  0.1347  1.0279
 9100SOL    HW127841   1.984   1.750   0.791  1.0805  1.1640 -1.5582
 9100SOL    HW227842   1.961   1.616   0.724  1.1500  0.4589 -0.2206
 9101SOL     OW27843   1.967   4.666   7.297  0.1999  0.4968 -0.1998
 9101SOL    HW127844   1.974   4.759   7.321  1.7842  1.0831 -2.5727
 9101SOL    HW227845   2.010   4.619   7.368  0.5210  1.6857  0.4129
 9102SOL     OW27846   6.844   7.022   4.755  0.0757 -0.2476 -0.6177
 9102SOL    HW127847   6.767   6.967   4.741  0.3378 -0.5798 -0.7786
 9102SOL    HW227848   6.848   7.034   4.850 -1.2569  1.3561 -0.7455
 9103SOL     OW27849   2.981   3.074   2.925  0.3525 -0.2724 -0.0935
 9103SOL    HW127850   3.065   3.069   2.879 -0.7415 -1.0813 -2.1478
 9103SOL    HW227851   2.991   3.015   3.000  1.4531 -0.7344 -0.5829
 9104SOL     OW27852   7.311   7.321   1.983  0.3006  0.0355 -0.0620
 9104SOL    HW127853   7.300   7.273   1.901 -0.9704 -0.3336  0.3033
 9104SOL    HW227854   7.403   7.306   2.007  0.5895 -0.1657 -1.2100
 9105SOL     OW27855   1.921   5.934   0.578  0.3922  0.0033  0.2159
 9105SOL    HW127856   1.867   5.858   0.599  0.5914 -0.5493 -1.1542
 9105SOL    HW227857   2.009   5.909   0.607  0.0915  0.6028  1.7496
 9106SOL     OW27858   5.891   1.574   3.251  0.0352  0.0917  0.0423
 9106SOL    HW127859   5.964   1.551   3.194 -2.6300 -0.0447 -3.7718
 9106SOL    HW227860   5.813   1.549   3.200 -2.7180  1.9627  2.9617
 9107SOL     OW27861   1.367   3.991   0.756  0.2342  0.1758  0.3730
 9107SOL    HW127862   1.325   4.051   0.818  0.9819  1.7878 -0.6284
 9107SOL    HW227863   1.443   4.039   0.723  0.3303 -0.9639 -1.1637
 9108SOL     OW27864   2.129   2.344   2.976 -0.7243  0.6736 -0.0235
 9108SOL    HW127865   2.088   2.355   3.062 -1.0201 -0.1299 -0.0483
 9108SOL    HW227866   2.061   2.305   2.921  0.1875 -1.2560  0.1004
 9109SOL     OW27867   6.970   2.598   5.852 -0.2748  0.5382 -0.3440
 9109SOL    HW127868   6.927   2.677   5.886 -0.1206  1.0415 -1.2728
 9109SOL    HW227869   7.035   2.632   5.790  0.1617 -0.3034 -0.3616
 9110SOL     OW27870   5.123   0.471   3.585 -0.3054 -0.1543 -0.1561
 9110SOL    HW127871   5.071   0.391   3.588 -3.4304  1.6924 -0.7547
 9110SOL    HW227872   5.134   0.496   3.677 -1.0945 -0.2083 -0.0416
 9111SOL     OW27873   1.450   1.477   0.722 -0.0438 -0.8402 -0.0525
 9111SOL    HW127874   1.389   1.532   0.673 -0.9888 -0.5515  1.3916
 9111SOL    HW227875   1.394   1.419   0.773  0.7302  0.7134  2.8170
 9112SOL     OW27876   0.021   6.564   4.347  0.2663  0.1493  0.6714
 9112SOL    HW127877   0.092   6.628   4.356  1.6408 -1.3395  0.7606
 9112SOL    HW227878  -0.045   6.610   4.295  1.5170  1.3910  0.1007
 9113SOL     OW27879   3.269   7.298   6.838  0.1911 -0.1966 -0.7859
 9113SOL    HW127880   3.221   7.345   6.906 -0.0348  0.8662 -1.6500
 9113SOL    HW227881   3.322   7.234   6.886  0.9051  1.2645  0.4817
 9114SOL     OW27882   1.937   4.575   2.991 -0.1722 -0.6887  0.1445
 9114SOL    HW127883   1.868   4.526   3.036 -0.5427 -0.3093 -0.0172
 9114SOL    HW227884   1.955   4.524   2.912 -1.1494 -0.1167 -0.4507
 9115SOL     OW27885   0.770   7.002   6.737 -0.6156 -0.2533 -0.5674
 9115SOL    HW127886   0.681   6.994   6.770 -0.6159 -0.3384 -0.5879
 9115SOL    HW227887   0.762   7.049   6.655 -0.3743  2.1431  0.7086
 9116SOL     OW27888   4.216   1.861   6.005  0.0042 -0.1409  0.3263
 9116SOL    HW127889   4.156   1.802   6.051 -0.9132  0.1072 -0.5104
 9116SOL    HW227890   4.302   1.820   6.014 -0.6483 -1.7545 -0.4591
 9117SOL     OW27891   4.237   1.982   5.747  0.2263  0.3331  0.2805
 9117SOL    HW127892   4.243   1.964   5.840  0.8660 -1.2531 -0.0432
 9117SOL    HW227893   4.143   1.984   5.729  0.0909  0.9907  0.9978
 9118SOL     OW27894   2.328   0.780   0.656  0.0817  0.2866 -1.3165
 9118SOL    HW127895   2.330   0.691   0.621  0.6496 -0.2965  0.1602
 9118SOL    HW227896   2.386   0.829   0.598  1.7163 -0.8666 -0.7312
 9119SOL     OW27897   5.188   5.942   2.803  0.3804 -0.6617 -0.5896
 9119SOL    HW127898   5.146   6.023   2.833 -1.0549 -1.3950 -0.5679
 9119SOL    HW227899   5.270   5.972   2.763 -0.0621  0.7922 -0.4724
 9120SOL     OW27900   1.859   4.141   4.560 -1.0986  0.0754  0.4827
 9120SOL    HW127901   1.848   4.149   4.465  0.9709  0.9221  0.2623
 9120SOL    HW227902   1.807   4.213   4.596 -1.9824 -0.3158  0.0116
 9121SOL     OW27903   0.148   7.170   4.058  0.2937  0.1799 -0.3206
 9121SOL    HW127904   0.166   7.190   3.966  2.1026 -2.2383 -0.6100
 9121SOL    HW227905   0.234   7.175   4.100 -0.5229  1.3528  1.3104
 9122SOL     OW27906   7.379   5.276   2.030  0.5084 -0.0431 -0.0877
 9122SOL    HW127907   7.382   5.330   2.109 -1.9806  0.2799 -0.1463
 9122SOL    HW227908   7.294   5.233   2.033  0.0466  0.4748 -2.8985
 9123SOL     OW27909   5.551   5.119   5.561  0.1470 -0.1245 -0.3755
 9123SOL    HW127910   5.537   5.083   5.473 -1.0116 -0.4435 -0.0863
 9123SOL    HW227911   5.646   5.127   5.569  0.2656  0.2500 -1.7884
 9124SOL     OW27912   3.243   3.948   6.433 -0.6102 -0.0282  0.3913
 9124SOL    HW127913   3.209   3.976   6.347 -2.7735  0.1066  1.2171
 9124SOL    HW227914   3.251   4.029   6.483 -1.0799 -0.2655  0.8628
 9125SOL     OW27915   1.133   6.307   7.569  0.2989  0.2457  0.0703
 9125SOL    HW127916   1.206   6.262   7.611  0.3044  1.2874  1.2166
 9125SOL    HW227917   1.170   6.389   7.537 -0.3396  0.7920  0.6818
 9126SOL     OW27918   1.830   7.274   3.352  0.1304  0.0722 -0.1383
 9126SOL    HW127919   1.840   7.258   3.258  0.5552 -0.3643 -0.0215
 9126SOL    HW227920   1.740   7.246   3.371  0.8654 -2.4568  0.0818
 9127SOL     OW27921   1.452   5.550   0.055 -0.2565  0.4613 -0.0410
 9127SOL    HW127922   1.449   5.549   0.150  0.2957  0.4478 -0.0230
 9127SOL    HW227923   1.438   5.459   0.029  3.4228 -0.2968  0.1661
 9128SOL     OW27924   7.383   2.114   4.237 -0.0205  0.2306 -0.0975
 9128SOL    HW127925   7.396   2.196   4.191 -1.5105  0.0458 -0.9130
 9128SOL    HW227926   7.295   2.085   4.212  0.4749 -1.6413  0.1197
 9129SOL     OW27927   1.368   7.038   5.647  0.4367  0.1546 -0.9913
 9129SOL    HW127928   1.342   7.123   5.681  0.5697 -0.1721 -0.0410
 9129SOL    HW227929   1.322   6.975   5.702 -0.4858 -0.4014 -2.3481
 9130SOL     OW27930   6.185   3.344   2.082  0.1313  0.2112  0.9629
 9130SOL    HW127931   6.143   3.262   2.056  0.5532 -0.6833  2.9724
 9130SOL    HW227932   6.120   3.388   2.137 -0.2190  1.4420 -0.3419
 9131SOL     OW27933   4.874   4.008   4.923 -0.1670 -0.1084 -0.7237
 9131SOL    HW127934   4.904   4.099   4.922  0.9469 -0.3825  1.6358
 9131SOL    HW227935   4.799   4.008   4.983  0.9656 -1.0046  0.7590
 9132SOL     OW27936   2.282   1.003   2.255 -0.2806  0.0404  0.2501
 9132SOL    HW127937   2.231   1.049   2.323 -0.0819 -1.4004  1.4290
 9132SOL    HW227938   2.250   1.040   2.173  0.6423  3.0489  1.1215
 9133SOL     OW27939   0.671   5.687   3.755  0.4792  0.0271  0.3708
 9133SOL    HW127940   0.610   5.756   3.731 -0.4087 -0.2109  1.8273
 9133SOL    HW227941   0.702   5.711   3.843  3.7457  0.9695 -0.8749
 9134SOL     OW27942   5.611   4.780   1.468 -0.9297  0.2468  0.3081
 9134SOL    HW127943   5.626   4.735   1.385 -1.6550  1.2589 -0.3957
 9134SOL    HW227944   5.521   4.812   1.462 -0.8555  0.6859  1.3168
 9135SOL     OW27945   6.329   2.221   2.638 -0.1685  0.0407 -0.2319
 9135SOL    HW127946   6.278   2.169   2.700 -1.3939 -0.2746 -1.4535
 9135SOL    HW227947   6.417   2.223   2.675 -0.7811 -0.4256  1.3228
 9136SOL     OW27948   5.040   5.229   1.545 -0.0257 -0.0953 -0.0238
 9136SOL    HW127949   5.043   5.192   1.634 -1.9604  0.7222  0.4472
 9136SOL    HW227950   5.096   5.306   1.550 -0.7658  0.4208  0.7679
 9137SOL     OW27951   2.417   7.220   3.837  0.3510  0.0270  0.4127
 9137SOL    HW127952   2.322   7.219   3.824  0.4816 -3.5949 -1.2812
 9137SOL    HW227953   2.428   7.214   3.932 -1.2252 -1.9166  0.5398
 9138SOL     OW27954   3.633   6.773   3.838 -0.0473 -0.2793  0.1935
 9138SOL    HW127955   3.718   6.731   3.856 -0.2461 -1.2547 -1.0735
 9138SOL    HW227956   3.573   6.730   3.899 -0.0174 -1.0189 -0.2855
 9139SOL     OW27957   5.990   4.319   5.051  0.2912  0.0898  0.2734
 9139SOL    HW127958   6.010   4.226   5.062 -0.6783 -0.0697  0.7852
 9139SOL    HW227959   6.029   4.342   4.966  0.0906 -0.9051 -0.1013
 9140SOL     OW27960   1.543   0.302   3.495 -0.7569  0.3636 -0.8412
 9140SOL    HW127961   1.453   0.318   3.522 -0.1439  2.7974 -0.0055
 9140SOL    HW227962   1.583   0.257   3.569 -0.8688  0.7278 -0.5604
 9141SOL     OW27963   1.908   0.079   2.013  0.2665  0.4748 -0.5031
 9141SOL    HW127964   1.952   0.083   2.097 -1.0347  0.9687  0.1758
 9141SOL    HW227965   1.859  -0.002   2.015 -2.1432  1.8678  0.4793
 9142SOL     OW27966   7.543   2.634   3.182  0.1653 -0.4402 -0.7664
 9142SOL    HW127967   7.563   2.728   3.181 -0.4665 -0.3058 -1.1708
 9142SOL    HW227968   7.602   2.598   3.249 -0.0964  0.3545 -0.0887
 9143SOL     OW27969   0.274   4.464   6.046  0.1009 -0.1084  0.0168
 9143SOL    HW127970   0.202   4.510   6.003  0.0544  0.4305  0.6598
 9143SOL    HW227971   0.347   4.525   6.042  2.3230 -2.4750 -5.4199
 9144SOL     OW27972   4.784   5.042   5.350 -0.0757  0.4679  0.1027
 9144SOL    HW127973   4.802   5.111   5.287  0.1063  0.3453  0.0196
 9144SOL    HW227974   4.798   5.082   5.436 -0.4065  0.6592  0.0680
 9145SOL     OW27975   3.920   4.415   5.810  0.1176 -0.3541  0.2354
 9145SOL    HW127976   3.901   4.467   5.732  0.4734  1.8942  1.5755
 9145SOL    HW227977   3.902   4.324   5.783  1.3647  0.1787 -2.8125
 9146SOL     OW27978   5.377   2.278   6.715  0.0882  0.0744 -0.0993
 9146SOL    HW127979   5.319   2.330   6.659  0.5057 -0.7247 -1.3190
 9146SOL    HW227980   5.332   2.275   6.799 -2.4114 -1.7210 -1.3647
 9147SOL     OW27981   2.286   2.768   4.819 -0.3245  0.7093  0.2673
 9147SOL    HW127982   2.226   2.715   4.871  0.1703  0.5133  0.6374
 9147SOL    HW227983   2.290   2.724   4.734  0.0100  0.2071  0.5414
 9148SOL     OW27984   2.084   2.612   5.500  0.3203 -0.8284  0.0956
 9148SOL    HW127985   2.025   2.665   5.553  1.2313  0.2578  0.0639
 9148SOL    HW227986   2.143   2.571   5.564  0.3139 -0.9183  0.0436
 9149SOL     OW27987   1.853   3.946   1.871  0.9064 -0.2380 -0.1298
 9149SOL    HW127988   1.838   4.035   1.904 -0.4423  0.9644 -3.5888
 9149SOL    HW227989   1.767   3.904   1.876  0.8199 -0.2357 -1.4382
 9150SOL     OW27990   4.862   7.268   4.987  0.2361  0.9650  0.2397
 9150SOL    HW127991   4.899   7.189   4.948  0.1024  0.4249  1.1878
 9150SOL    HW227992   4.784   7.285   4.935  0.3263  0.5428 -0.0456
 9151SOL     OW27993   5.828   5.358   2.115  0.3996 -0.0458 -0.5515
 9151SOL    HW127994   5.768   5.426   2.087  0.5364  1.3198  2.1294
 9151SOL    HW227995   5.772   5.290   2.152  0.3772  0.2874  0.0488
 9152SOL     OW27996   4.053   1.404   1.121  0.3626  0.2521 -0.3152
 9152SOL    HW127997   4.086   1.483   1.077 -1.1193  0.3388 -1.3456
 9152SOL    HW227998   4.039   1.341   1.050  1.7730 -1.0870  0.5185
 9153SOL     OW27999   0.454   1.558   0.982 -0.2254  0.0346  0.3851
 9153SOL    HW128000   0.507   1.486   1.016 -0.3829  0.4492  1.5404
 9153SOL    HW228001   0.379   1.563   1.040  0.3255  1.8439  1.0162
 9154SOL     OW28002   1.636   1.370   0.505  0.1802  0.1360  0.1166
 9154SOL    HW128003   1.549   1.370   0.546 -0.6164  1.3104 -1.4790
 9154SOL    HW228004   1.674   1.286   0.531 -1.6819 -0.6806  0.3642
 9155SOL     OW28005   0.363   5.213   1.602  0.3220 -0.1038  0.1023
 9155SOL    HW128006   0.352   5.192   1.695  1.0286 -1.0123 -0.0018
 9155SOL    HW228007   0.457   5.207   1.588  0.0550 -1.9883 -1.1157
 9156SOL     OW28008   3.198   4.204   0.317 -0.5121 -0.9061 -0.5194
 9156SOL    HW128009   3.203   4.110   0.332 -2.4858 -0.7150  2.2083
 9156SOL    HW228010   3.285   4.237   0.340 -0.2337 -1.9250 -0.0796
 9157SOL     OW28011   2.594   0.665   0.377  0.4696 -0.2180  0.5317
 9157SOL    HW128012   2.619   0.756   0.392 -1.1378  0.3673 -0.0981
 9157SOL    HW228013   2.676   0.617   0.380  1.2543  1.1230  1.7464
 9158SOL     OW28014   4.911   7.215   5.573 -1.0253  0.1033 -0.0516
 9158SOL    HW128015   4.840   7.159   5.603  0.2763 -1.7593 -0.2567
 9158SOL    HW228016   4.917   7.198   5.479  0.7982 -1.1931  0.2439
 9159SOL     OW28017   5.454   4.120   7.325  0.1149 -0.3414 -0.2488
 9159SOL    HW128018   5.409   4.198   7.293 -1.7055 -1.5946 -0.9266
 9159SOL    HW228019   5.451   4.128   7.420 -0.4796  0.1840 -0.3040
 9160SOL     OW28020   6.175   0.277   4.580  0.1619  0.0253 -0.0640
 9160SOL    HW128021   6.180   0.339   4.652 -1.3103  0.7763 -0.5755
 9160SOL    HW228022   6.179   0.330   4.501  1.2670 -0.7483 -0.5589
 9161SOL     OW28023   3.982   3.446   2.705  0.6991 -0.2159  0.2645
 9161SOL    HW128024   3.929   3.470   2.781  0.9755 -1.0603  0.7384
 9161SOL    HW228025   3.919   3.421   2.638  0.3969  1.6041 -0.2031
 9162SOL     OW28026   5.863   1.331   1.689  0.2250 -0.1170 -0.1947
 9162SOL    HW128027   5.790   1.383   1.653  0.0751 -0.0183  0.2490
 9162SOL    HW228028   5.941   1.370   1.651  0.0703  0.0051 -0.3930
 9163SOL     OW28029   5.785   7.500   3.162  0.4310  0.4985 -0.2732
 9163SOL    HW128030   5.726   7.512   3.237 -0.3432  1.8778 -1.0670
 9163SOL    HW228031   5.751   7.560   3.095  0.5033 -1.3813 -2.0986
 9164SOL     OW28032   3.149   2.275   4.188  0.6050  0.8966 -0.2684
 9164SOL    HW128033   3.180   2.329   4.260  0.6337 -0.8677  1.1320
 9164SOL    HW228034   3.055   2.293   4.182 -0.0219 -0.9633  2.2073
 9165SOL     OW28035   6.487   6.417   0.386  0.4303  0.0789  0.2499
 9165SOL    HW128036   6.553   6.455   0.329  1.9805  0.2490  2.0852
 9165SOL    HW228037   6.488   6.471   0.465 -3.5422  1.5102 -0.4341
 9166SOL     OW28038   5.323   0.469   5.146 -0.1668  0.1346 -0.1838
 9166SOL    HW128039   5.401   0.488   5.093 -0.8371  0.2343 -1.1661
 9166SOL    HW228040   5.258   0.440   5.082 -0.6406 -0.8824  0.7378
 9167SOL     OW28041   6.887   3.889   2.706  0.5504  0.5382 -0.0903
 9167SOL    HW128042   6.880   3.862   2.798 -4.2038  1.1134 -0.0262
 9167SOL    HW228043   6.826   3.963   2.698 -0.1206 -0.2204 -3.9108
 9168SOL     OW28044   4.426   6.134   1.216  0.4843 -0.1518  0.2071
 9168SOL    HW128045   4.498   6.195   1.227  0.1730  0.5228 -1.2890
 9168SOL    HW228046   4.462   6.063   1.163  0.4485 -0.5452  0.7071
 9169SOL     OW28047   3.917   0.148   7.051 -0.8473 -0.1220 -0.5017
 9169SOL    HW128048   3.904   0.125   7.143 -1.0541  0.5726 -0.3505
 9169SOL    HW228049   4.010   0.134   7.036 -0.4878  1.3098  0.2621
 9170SOL     OW28050   5.789   4.139   7.310  0.8350 -0.4954  0.6063
 9170SOL    HW128051   5.761   4.217   7.359 -0.9001 -0.2374 -0.6938
 9170SOL    HW228052   5.756   4.154   7.221 -0.3594 -3.1161  0.5363
 9171SOL     OW28053   2.292   6.973   4.540  0.4393  0.2269  0.0037
 9171SOL    HW128054   2.237   6.899   4.516  0.5595 -0.2529  1.1302
 9171SOL    HW228055   2.341   6.942   4.617  0.9483  1.2617  0.1112
 9172SOL     OW28056   4.983   5.159   4.898 -0.0299  0.2437  0.6855
 9172SOL    HW128057   5.026   5.185   4.980 -1.4422  0.6701  1.3208
 9172SOL    HW228058   4.985   5.238   4.844  1.7102 -0.2822 -0.0958
 9173SOL     OW28059   0.689   7.306   2.697  0.0207  0.2502  0.4626
 9173SOL    HW128060   0.686   7.259   2.613  1.1656 -1.4689  1.3458
 9173SOL    HW228061   0.781   7.327   2.710 -0.2971  1.5394  0.7712
 9174SOL     OW28062   2.094   7.340   3.448  0.2093  0.5566  0.2948
 9174SOL    HW128063   2.005   7.318   3.420  0.5521  1.6510 -1.9287
 9174SOL    HW228064   2.150   7.285   3.394  0.9088  0.1108  1.4507
 9175SOL     OW28065   6.685   1.899   3.248 -0.1377  0.5373  0.6995
 9175SOL    HW128066   6.717   1.965   3.187  1.0246 -0.4943  0.1577
 9175SOL    HW228067   6.707   1.815   3.207 -2.0426 -0.2317  1.1091
 9176SOL     OW28068   5.751   2.753   0.115 -0.1408  0.3315  0.0064
 9176SOL    HW128069   5.824   2.761   0.177  0.2670 -0.0348 -0.4267
 9176SOL    HW228070   5.774   2.679   0.060 -1.1668 -0.2168  0.2951
 9177SOL     OW28071   4.307   1.565   2.708  0.1999 -0.5209 -0.5585
 9177SOL    HW128072   4.309   1.534   2.799  1.1236  1.2617  0.0870
 9177SOL    HW228073   4.214   1.575   2.688 -0.0352  1.8791  1.2806
 9178SOL     OW28074   2.432   6.251   6.541 -0.0981  0.2253  0.3220
 9178SOL    HW128075   2.430   6.343   6.564 -0.2870 -0.4471  3.3669
 9178SOL    HW228076   2.342   6.231   6.514 -0.0920  0.8506 -0.1942
 9179SOL     OW28077   2.982   4.557   2.418  0.5613 -0.0855  0.4324
 9179SOL    HW128078   2.952   4.466   2.426 -0.6580  0.4332  2.1291
 9179SOL    HW228079   3.076   4.553   2.438  0.3770 -0.8741  1.1917
 9180SOL     OW28080   6.002   4.725   2.228  0.5732 -0.7747 -0.7709
 9180SOL    HW128081   6.031   4.651   2.282  0.0191  0.8081  1.9030
 9180SOL    HW228082   5.908   4.731   2.245  0.4946  0.1627 -1.4649
 9181SOL     OW28083   3.830   7.173   3.398 -0.3304  0.6757  0.1146
 9181SOL    HW128084   3.887   7.137   3.466  0.1572 -0.4536 -0.8526
 9181SOL    HW228085   3.847   7.267   3.399  1.2189  0.4180  0.1489
 9182SOL     OW28086   3.433   5.516   5.475  0.3247 -0.4071  0.0061
 9182SOL    HW128087   3.440   5.609   5.453 -1.8960 -0.0522  0.5257
 9182SOL    HW228088   3.477   5.471   5.403  1.5250  1.0173 -0.2146
 9183SOL     OW28089   3.884   4.185   1.844  0.3365 -0.3600 -0.4122
 9183SOL    HW128090   3.806   4.146   1.806  0.0239  1.7271 -2.0877
 9183SOL    HW228091   3.860   4.202   1.936 -0.6271 -1.1129 -0.5135
 9184SOL     OW28092   0.681   1.410   5.724  0.0583  0.0407  0.1793
 9184SOL    HW128093   0.744   1.429   5.794  0.5365 -0.2600 -0.1672
 9184SOL    HW228094   0.727   1.433   5.643 -0.8357  1.3532  0.0002
 9185SOL     OW28095   3.624   3.930   2.175  0.3813 -0.4853  0.5156
 9185SOL    HW128096   3.550   3.943   2.115  0.3712  0.3702  0.7101
 9185SOL    HW228097   3.653   4.018   2.197  1.3707 -0.8142  0.5644
 9186SOL     OW28098   6.995   4.704   0.841 -0.1932 -0.7367  0.5300
 9186SOL    HW128099   7.074   4.735   0.797 -0.5495 -1.5017 -0.6705
 9186SOL    HW228100   6.928   4.701   0.773 -1.5449  0.7796  1.7062
 9187SOL     OW28101   5.768   0.879   7.599  0.1465 -0.1921  0.2839
 9187SOL    HW128102   5.787   0.934   7.675 -0.2632  2.6018 -1.5326
 9187SOL    HW228103   5.679   0.904   7.573  0.5880 -0.4583 -1.6148
 9188SOL     OW28104   4.591   3.973   6.418  0.0532 -0.2605  0.4173
 9188SOL    HW128105   4.609   4.005   6.506  0.4654 -0.7390  0.5123
 9188SOL    HW228106   4.624   4.042   6.360 -1.2080  0.5551  0.6345
 9189SOL     OW28107   6.350   6.545   5.228 -0.4423  0.3298 -0.1823
 9189SOL    HW128108   6.338   6.548   5.323 -0.0646  0.1794 -0.1272
 9189SOL    HW228109   6.271   6.503   5.195 -0.9493  1.1216 -0.0104
 9190SOL     OW28110   3.744   6.779   1.790  0.5000  0.1541 -0.0263
 9190SOL    HW128111   3.716   6.869   1.774  0.3721 -0.3442 -3.1708
 9190SOL    HW228112   3.839   6.782   1.786  0.5614  0.3279  1.2224
 9191SOL     OW28113   1.121   2.005   4.863  0.2322  0.1353 -0.5175
 9191SOL    HW128114   1.195   2.021   4.921 -1.4000 -0.5586  1.9259
 9191SOL    HW228115   1.046   2.041   4.910 -1.0446  0.7069 -2.8342
 9192SOL     OW28116   5.134   4.930   0.864  0.1032 -0.0225  0.5022
 9192SOL    HW128117   5.044   4.908   0.891 -0.9310 -0.6102 -2.9292
 9192SOL    HW228118   5.164   4.852   0.818 -0.5529  2.4221 -4.8501
 9193SOL     OW28119   7.170   4.998   1.265 -0.0205 -0.1952 -0.4767
 9193SOL    HW128120   7.166   4.928   1.200  1.7536 -0.8621  0.0632
 9193SOL    HW228121   7.249   4.979   1.316  0.3725  2.0324 -0.1220
 9194SOL     OW28122   2.470   2.416   4.956  0.2632 -0.0563  0.0296
 9194SOL    HW128123   2.529   2.341   4.949 -0.1212 -0.4208  0.6506
 9194SOL    HW228124   2.441   2.433   4.866  0.1462 -0.8198 -0.0796
 9195SOL     OW28125   7.568   5.948   5.282 -0.1172  0.1373  0.3647
 9195SOL    HW128126   7.498   5.984   5.337  0.2086 -2.3688  2.6040
 9195SOL    HW228127   7.649   5.973   5.327  0.2375 -0.4641  0.0756
 9196SOL     OW28128   2.176   3.270   4.036  0.1662 -0.3021  0.0469
 9196SOL    HW128129   2.082   3.284   4.049 -0.4275 -0.4755 -3.2228
 9196SOL    HW228130   2.193   3.186   4.077 -1.0627 -0.2438  0.7576
 9197SOL     OW28131   2.897   7.590   5.431 -0.2006 -0.7370 -0.2459
 9197SOL    HW128132   2.903   7.511   5.484 -0.3031 -0.2121  0.5607
 9197SOL    HW228133   2.976   7.589   5.376  0.9432 -0.2809  1.3340
 9198SOL     OW28134   1.189   5.110   0.958  0.2554  0.6906  0.6379
 9198SOL    HW128135   1.281   5.085   0.954  0.3497  1.0973  0.1312
 9198SOL    HW228136   1.183   5.189   0.903 -0.8217 -0.6440 -1.2826
 9199SOL     OW28137   3.791   1.365   5.699 -0.2051  0.0928 -0.0796
 9199SOL    HW128138   3.746   1.383   5.617 -2.5408  0.9866  1.2947
 9199SOL    HW228139   3.872   1.416   5.694 -0.3723  0.2512 -1.7348
 9200SOL     OW28140   1.720   0.986   2.542  0.4794 -0.0344  0.3829
 9200SOL    HW128141   1.660   1.009   2.613  0.9494 -0.2052  0.8401
 9200SOL    HW228142   1.796   1.043   2.555  1.1334 -0.9831  0.8059
 9201SOL     OW28143   7.459   4.470   1.821  0.1081 -0.3167  0.6516
 9201SOL    HW128144   7.433   4.423   1.901  0.5677  0.4074  1.2414
 9201SOL    HW228145   7.537   4.519   1.847  0.7125 -0.6740 -0.4633
 9202SOL     OW28146   1.403   1.799   0.842  0.0377  0.2106  0.3487
 9202SOL    HW128147   1.333   1.854   0.807  1.5997  1.5944 -0.8077
 9202SOL    HW228148   1.359   1.720   0.872 -1.9141  0.6472 -1.1226
 9203SOL     OW28149   0.229   3.122   0.715  0.2395 -0.4424  0.0112
 9203SOL    HW128150   0.259   3.043   0.671 -0.2328 -0.4393 -0.3245
 9203SOL    HW228151   0.192   3.091   0.798 -2.4758 -0.9474 -1.2572
 9204SOL     OW28152   0.397   1.573   2.420  0.3529  0.0002  0.3008
 9204SOL    HW128153   0.465   1.577   2.487  1.5369 -0.2028 -0.8602
 9204SOL    HW228154   0.331   1.513   2.456  0.9270 -0.0579  1.2988
 9205SOL     OW28155   4.648   4.232   0.314 -0.3580 -0.0567  0.0361
 9205SOL    HW128156   4.578   4.277   0.363 -0.3689 -0.8530  0.7820
 9205SOL    HW228157   4.705   4.197   0.382  0.0107 -0.5974 -0.5520
 9206SOL     OW28158   0.016   4.826   3.545 -0.0214 -0.1087  0.0848
 9206SOL    HW128159   0.068   4.892   3.499 -0.2239  0.6808  0.9629
 9206SOL    HW228160   0.055   4.743   3.519  0.7547  0.3969 -0.4104
 9207SOL     OW28161   4.038   4.045   2.500  0.1424 -0.1329  0.3871
 9207SOL    HW128162   4.042   4.137   2.528 -0.2982  0.0551 -0.1434
 9207SOL    HW228163   4.124   4.028   2.461 -0.3792  0.6117 -1.1559
 9208SOL     OW28164   0.867   3.155   5.450 -0.9234 -0.1883 -0.0796
 9208SOL    HW128165   0.868   3.155   5.546 -0.0749 -0.9834 -0.0791
 9208SOL    HW228166   0.869   3.062   5.426  1.7753 -0.0234 -0.8587
 9209SOL     OW28167   3.299   3.146   1.657  0.0027  0.2796 -0.8070
 9209SOL    HW128168   3.270   3.113   1.572 -0.9312 -0.9692 -0.0564
 9209SOL    HW228169   3.381   3.100   1.674 -1.1448 -1.5591  0.1013
 9210SOL     OW28170   6.613   2.019   6.798  0.4240  0.1557 -0.2424
 9210SOL    HW128171   6.694   2.068   6.811  0.5799 -0.1957  0.1041
 9210SOL    HW228172   6.587   2.040   6.708  1.1928 -0.1680 -0.5460
 9211SOL     OW28173   5.879   4.826   4.975  0.4382  0.5526  0.0603
 9211SOL    HW128174   5.932   4.878   4.913 -0.8136  1.2921 -0.4210
 9211SOL    HW228175   5.863   4.744   4.929  0.5389  0.6228 -0.1010
 9212SOL     OW28176   3.999   1.027   2.256  0.3679 -0.3053 -0.1933
 9212SOL    HW128177   4.044   1.061   2.333  0.2536 -0.1826 -0.1807
 9212SOL    HW228178   4.003   1.098   2.192  1.2817 -0.7313 -0.6354
 9213SOL     OW28179   7.148   5.419   3.313 -0.2588 -0.0365  0.1459
 9213SOL    HW128180   7.126   5.441   3.223 -1.1819  0.0856  0.3914
 9213SOL    HW228181   7.241   5.441   3.321 -0.2771  0.3657 -0.6417
 9214SOL     OW28182   6.067   5.065   6.915 -0.0729  0.2550 -0.3998
 9214SOL    HW128183   6.065   5.140   6.974  1.0570 -0.5012  0.6602
 9214SOL    HW228184   6.160   5.046   6.904 -0.2385  0.5984 -2.7589
 9215SOL     OW28185   6.864   0.756   2.125 -0.3029  0.3368 -0.7370
 9215SOL    HW128186   6.874   0.661   2.125 -0.8901  0.2555  0.5619
 9215SOL    HW228187   6.801   0.774   2.055  2.7806  0.1877 -3.7936
 9216SOL     OW28188   6.492   3.880   1.039 -0.0396  0.5527  0.3278
 9216SOL    HW128189   6.574   3.834   1.056  0.3295  1.2081  0.3832
 9216SOL    HW228190   6.423   3.818   1.064  0.4526  0.4628  1.5081
 9217SOL     OW28191   6.554   1.490   5.110 -0.1789 -0.9167 -0.1755
 9217SOL    HW128192   6.468   1.449   5.103  0.1256 -1.8758  1.3118
 9217SOL    HW228193   6.547   1.549   5.184 -0.2654  0.9478 -1.5987
 9218SOL     OW28194   2.421   5.845   5.104 -0.0901 -0.3717 -0.1239
 9218SOL    HW128195   2.394   5.934   5.084  0.5549  0.1396  1.1606
 9218SOL    HW228196   2.348   5.808   5.154  0.5085  0.1921  1.2246
 9219SOL     OW28197   6.800   6.347   5.795  0.1515  0.2924 -0.2344
 9219SOL    HW128198   6.785   6.276   5.733 -0.4465  0.9875 -0.9077
 9219SOL    HW228199   6.716   6.357   5.840  0.5433 -0.1190  0.6033
 9220SOL     OW28200   5.522   0.354   6.924 -0.4327  0.1422 -0.0795
 9220SOL    HW128201   5.587   0.423   6.940 -1.0770  0.8655 -0.5258
 9220SOL    HW228202   5.572   0.282   6.887  0.0199  0.9347 -1.0407
 9221SOL     OW28203   1.068   3.024   0.818  0.3079 -0.0672 -0.1785
 9221SOL    HW128204   1.041   2.951   0.874  1.0443 -1.0100 -1.0131
 9221SOL    HW228205   1.033   3.001   0.731 -1.1781  1.5659 -0.0726
 9222SOL     OW28206   6.821   5.116   0.193  1.0222 -0.1922  0.0087
 9222SOL    HW128207   6.848   5.111   0.285 -0.1144  0.9329  0.4346
 9222SOL    HW228208   6.725   5.118   0.196  0.9714 -0.2145 -1.2037
 9223SOL     OW28209   2.087   0.363   7.329  0.4213  0.3520  0.4599
 9223SOL    HW128210   2.163   0.344   7.383 -0.2699 -1.4464  0.8759
 9223SOL    HW228211   2.014   0.318   7.372 -0.7553  1.4548 -0.2928
 9224SOL     OW28212   6.278   3.709   1.063 -0.4283  0.5396  0.0253
 9224SOL    HW128213   6.296   3.706   1.157  1.5461 -2.4926 -0.3088
 9224SOL    HW228214   6.223   3.632   1.047 -1.5292  1.5310 -1.2289
 9225SOL     OW28215   7.246   5.575   3.728  0.0972  0.1959  0.2438
 9225SOL    HW128216   7.334   5.602   3.700 -0.1780 -0.0691 -0.9477
 9225SOL    HW228217   7.259   5.538   3.815  0.5823  3.5508  1.7595
 9226SOL     OW28218   1.001   1.076   0.586 -0.1844  0.6857  0.6011
 9226SOL    HW128219   0.934   1.014   0.555  0.5851 -0.1729  0.6011
 9226SOL    HW228220   0.953   1.157   0.602 -1.1288  0.2486  0.0776
 9227SOL     OW28221   2.136   1.224   0.303 -0.6155  0.4437  0.4214
 9227SOL    HW128222   2.070   1.260   0.363 -1.1044 -1.8269  1.3447
 9227SOL    HW228223   2.191   1.169   0.359  1.1166  1.0225 -0.6330
 9228SOL     OW28224   2.236   0.395   1.566 -0.4705  0.0403  0.8495
 9228SOL    HW128225   2.255   0.301   1.564 -2.2410 -0.4386 -3.3099
 9228SOL    HW228226   2.310   0.435   1.520 -0.7591  0.3964  0.6899
 9229SOL     OW28227   1.118   4.909   7.063 -0.7871 -0.5742 -0.1368
 9229SOL    HW128228   1.179   4.949   7.125 -0.5776 -0.6673 -0.2840
 9229SOL    HW228229   1.120   4.967   6.987  0.4121 -1.4805 -0.8330
 9230SOL     OW28230   5.118   6.538   1.337 -0.1522 -0.0716 -0.2630
 9230SOL    HW128231   5.118   6.628   1.371  0.6095 -0.1462 -0.0232
 9230SOL    HW228232   5.100   6.484   1.414  1.7343 -0.2516  0.1174
 9231SOL     OW28233   2.423   6.839   1.117 -0.2509  0.9127 -0.5781
 9231SOL    HW128234   2.372   6.911   1.156 -0.9011 -0.2324  0.7474
 9231SOL    HW228235   2.360   6.767   1.109  1.0543 -0.4484  0.8249
 9232SOL     OW28236   6.288   6.636   5.557 -0.3936  0.7856 -0.2945
 9232SOL    HW128237   6.361   6.575   5.547 -1.8338 -0.8979 -1.1271
 9232SOL    HW228238   6.293   6.666   5.647 -0.4854 -1.7916  0.6388
 9233SOL     OW28239   4.950   6.297   4.676 -0.1823 -0.2832 -0.2054
 9233SOL    HW128240   4.874   6.242   4.696 -1.1312  1.0938  0.1129
 9233SOL    HW228241   4.914   6.386   4.671  1.8403  0.9095  3.0632
 9234SOL     OW28242   6.710   4.558   3.255 -0.7750  0.1756 -0.4471
 9234SOL    HW128243   6.661   4.537   3.335 -1.1751 -0.2603 -0.8053
 9234SOL    HW228244   6.644   4.558   3.186 -0.2949 -0.2362 -0.9062
 9235SOL     OW28245   7.423   5.143   4.890  0.3436  0.2312 -0.1674
 9235SOL    HW128246   7.446   5.153   4.798  0.8528  2.2999  0.1325
 9235SOL    HW228247   7.453   5.055   4.913 -0.0384 -0.4267 -2.0160
 9236SOL     OW28248   3.006   1.746   1.736 -0.0208  0.0113 -0.3538
 9236SOL    HW128249   3.046   1.677   1.788  0.6022  0.8821  0.3583
 9236SOL    HW228250   3.079   1.801   1.708 -0.5984  1.0147  0.0594
 9237SOL     OW28251   1.840   6.778   7.359  0.0019  0.0088 -0.0841
 9237SOL    HW128252   1.843   6.683   7.366 -2.4667 -0.1134  0.1826
 9237SOL    HW228253   1.812   6.808   7.446 -0.0851  0.9149 -0.4069
 9238SOL     OW28254   1.907   2.716   1.521 -0.1696  0.4017 -0.5756
 9238SOL    HW128255   1.933   2.629   1.552 -1.1842 -0.1283 -1.1755
 9238SOL    HW228256   1.990   2.761   1.504  0.4807  0.6709  2.6449
 9239SOL     OW28257   6.302   2.780   5.685 -0.8202 -0.1130 -0.4297
 9239SOL    HW128258   6.293   2.854   5.745  1.6990 -1.1008  1.3800
 9239SOL    HW228259   6.262   2.706   5.732  0.3464 -0.7038 -0.3225
 9240SOL     OW28260   3.794   0.599   5.600  0.6443  0.1650 -0.4269
 9240SOL    HW128261   3.839   0.515   5.585 -1.2039 -1.1646  0.9497
 9240SOL    HW228262   3.850   0.644   5.663  1.3903 -0.2652 -0.7570
 9241SOL     OW28263   2.293   6.053   5.030 -0.6098  0.0896 -0.4123
 9241SOL    HW128264   2.322   6.087   4.946  1.8038  0.3543  0.4550
 9241SOL    HW228265   2.200   6.077   5.035 -0.6241  0.7079 -2.6359
 9242SOL     OW28266   2.809   4.682   6.075 -0.2475 -0.1992  0.2601
 9242SOL    HW128267   2.884   4.628   6.049  0.9166  1.6868 -0.5395
 9242SOL    HW228268   2.771   4.636   6.150  1.5768 -1.3436  0.5497
 9243SOL     OW28269   5.045   4.532   0.610 -0.0598  0.0212 -0.1885
 9243SOL    HW128270   5.067   4.591   0.683  1.8418  0.3707 -0.9816
 9243SOL    HW228271   5.063   4.584   0.532 -0.6438 -0.8448 -0.9094
 9244SOL     OW28272   6.538   0.877   5.847  0.1267 -0.0830  0.2698
 9244SOL    HW128273   6.574   0.965   5.839 -0.1929 -0.1368 -2.8482
 9244SOL    HW228274   6.607   0.820   5.814 -0.9901 -0.5954 -1.3316
 9245SOL     OW28275   6.694   3.065   4.055 -0.1916  0.3549  0.0263
 9245SOL    HW128276   6.673   2.976   4.026 -0.1645  0.9014 -1.8438
 9245SOL    HW228277   6.783   3.080   4.024 -0.4919  1.2968 -0.4222
 9246SOL     OW28278   2.179   2.456   6.789  0.0101  0.4376  0.5507
 9246SOL    HW128279   2.153   2.542   6.755 -1.8414  0.0309  0.7977
 9246SOL    HW228280   2.240   2.422   6.724  0.7457  1.9101  0.4279
 9247SOL     OW28281   2.975   4.449   2.723 -0.2801  0.5077  0.3523
 9247SOL    HW128282   2.967   4.535   2.764  0.1440 -0.5612  2.8436
 9247SOL    HW228283   2.904   4.397   2.760 -0.3971 -0.3214 -0.9480
 9248SOL     OW28284   2.464   5.574   7.352  0.1146 -0.2268 -0.0287
 9248SOL    HW128285   2.493   5.567   7.443 -1.1377  0.1156  0.4252
 9248SOL    HW228286   2.458   5.483   7.323  0.3205 -0.3498  0.2978
 9249SOL     OW28287   5.886   5.419   6.517  0.1169  0.4007  0.3920
 9249SOL    HW128288   5.914   5.511   6.512  0.2258  0.3231 -0.4738
 9249SOL    HW228289   5.810   5.413   6.459 -1.6724  0.5605  2.5782
 9250SOL     OW28290   2.469   1.009   6.925 -0.1344  0.2257 -0.0984
 9250SOL    HW128291   2.438   0.919   6.924 -0.2705  0.2406  0.9409
 9250SOL    HW228292   2.395   1.061   6.893  0.0119 -0.0420 -0.8862
 9251SOL     OW28293   1.107   0.998   2.617 -0.1166 -0.3364  0.0993
 9251SOL    HW128294   1.072   1.035   2.536 -0.7606  1.1087  0.9937
 9251SOL    HW228295   1.126   1.075   2.672 -1.9388 -1.2902  2.2415
 9252SOL     OW28296   1.129   4.105   2.699  0.0576 -0.9325  0.3141
 9252SOL    HW128297   1.058   4.096   2.636 -0.0736  0.2049  0.2662
 9252SOL    HW228298   1.119   4.194   2.733  1.8014 -0.5151 -0.1407
 9253SOL     OW28299   7.532   5.060   3.257 -0.0116  0.0409  0.0863
 9253SOL    HW128300   7.451   5.094   3.294  0.2696  0.2353  0.5296
 9253SOL    HW228301   7.515   5.054   3.163 -0.6887 -0.3380  0.2269
 9254SOL     OW28302   3.058   4.393   0.554 -0.4478 -0.6038 -0.0517
 9254SOL    HW128303   3.072   4.406   0.460 -0.5202  1.7560  0.2060
 9254SOL    HW228304   2.971   4.353   0.560 -0.5054 -0.6310 -0.9694
 9255SOL     OW28305   0.528   0.810   6.390  0.3394  0.3524 -0.1398
 9255SOL    HW128306   0.595   0.743   6.404  0.3943  0.1572 -1.2363
 9255SOL    HW228307   0.537   0.834   6.298 -2.0809 -0.8233 -0.7667
 9256SOL     OW28308   6.144   6.659   0.791 -0.7608 -0.4657  0.1405
 9256SOL    HW128309   6.057   6.682   0.822  0.4783  2.8587  1.6325
 9256SOL    HW228310   6.191   6.629   0.869  0.2930  0.8774  0.0705
 9257SOL     OW28311   5.019   0.941   0.895  0.5741 -0.2438  0.1280
 9257SOL    HW128312   5.039   0.931   0.988  1.6433  0.9606  0.0574
 9257SOL    HW228313   4.955   1.012   0.891 -0.6668 -1.3386  0.0389
 9258SOL     OW28314   0.181   6.574   4.919  0.1557 -0.0583 -0.6895
 9258SOL    HW128315   0.246   6.562   4.987 -0.0221  0.3109 -0.4485
 9258SOL    HW228316   0.166   6.487   4.883 -0.6689 -0.4706  0.5914
 9259SOL     OW28317   2.789   4.169   6.800 -0.0071  0.0167  0.3339
 9259SOL    HW128318   2.715   4.179   6.740  1.3159  1.6554 -1.1198
 9259SOL    HW228319   2.821   4.258   6.815  1.7340 -0.6430  0.8237
 9260SOL     OW28320   5.598   6.916   6.392 -0.1671 -0.5866  0.0959
 9260SOL    HW128321   5.664   6.847   6.393  0.8965  0.3994  0.1917
 9260SOL    HW228322   5.526   6.881   6.444  0.7772 -1.2229  1.0266
 9261SOL     OW28323   6.159   0.124   5.638 -0.1294 -0.3148 -0.6243
 9261SOL    HW128324   6.138   0.145   5.547  0.1775  2.7937 -0.0738
 9261SOL    HW228325   6.205   0.040   5.633 -1.1435 -0.8115 -3.1738
 9262SOL     OW28326   4.391   1.811   4.374  0.1487  0.6574  0.6949
 9262SOL    HW128327   4.318   1.853   4.329  0.3870  1.3640  0.9377
 9262SOL    HW228328   4.371   1.824   4.467 -0.5269 -1.1036  0.8308
 9263SOL     OW28329   5.708   3.530   2.577  0.2242  0.6790 -0.0545
 9263SOL    HW128330   5.642   3.551   2.643  0.9756  0.9623  0.6287
 9263SOL    HW228331   5.730   3.439   2.593 -0.9178  0.1892 -1.1244
 9264SOL     OW28332   1.327   6.299   1.188  0.0334  0.5181 -0.3598
 9264SOL    HW128333   1.315   6.377   1.242 -0.7879 -0.0682  0.3253
 9264SOL    HW228334   1.255   6.241   1.213  1.0319 -0.7494 -0.3417
 9265SOL     OW28335   2.509   2.916   5.984 -0.4540 -0.2813  0.0582
 9265SOL    HW128336   2.603   2.925   5.972 -0.5172 -0.0499 -0.2710
 9265SOL    HW228337   2.470   2.967   5.913 -0.8325 -0.0670  0.4106
 9266SOL     OW28338   0.475   1.686   7.045  0.4186  0.1937 -0.3819
 9266SOL    HW128339   0.524   1.688   7.127 -0.0127 -0.0164 -0.1145
 9266SOL    HW228340   0.541   1.670   6.978  0.5998 -1.2036  0.0831
 9267SOL     OW28341   4.069   2.890   2.308 -0.0606  0.3450  0.1799
 9267SOL    HW128342   3.998   2.902   2.244  0.1100 -0.3884 -0.1620
 9267SOL    HW228343   4.075   2.974   2.353 -0.2613  0.8446 -0.6963
 9268SOL     OW28344   1.316   6.072   2.298  0.1866  0.1834 -0.4577
 9268SOL    HW128345   1.358   5.997   2.340 -1.1349  0.3608  1.2981
 9268SOL    HW228346   1.275   6.120   2.370 -0.8803  1.3783 -1.8023
 9269SOL     OW28347   0.082   4.532   5.764 -0.5237  0.3065 -0.2000
 9269SOL    HW128348   0.168   4.571   5.779 -0.1358 -0.9999  1.0881
 9269SOL    HW228349   0.021   4.604   5.780  0.2865  1.3220 -1.3727
 9270SOL     OW28350   3.728   4.519   2.560  0.6282 -0.1095  0.4151
 9270SOL    HW128351   3.805   4.576   2.562  0.9519 -0.4730 -0.7380
 9270SOL    HW228352   3.736   4.466   2.639  1.3260  0.1681  0.5417
 9271SOL     OW28353   2.732   1.290   2.231 -0.0824  0.1293 -0.3991
 9271SOL    HW128354   2.648   1.244   2.234 -0.3406  0.6179  0.0858
 9271SOL    HW228355   2.797   1.221   2.217 -0.5747 -0.2346 -0.9509
 9272SOL     OW28356   1.288   6.079   3.069  0.2874 -0.2327 -0.2788
 9272SOL    HW128357   1.295   6.004   3.128  1.6434 -0.3970 -0.5944
 9272SOL    HW228358   1.341   6.054   2.992 -0.4808  0.4391 -1.0483
 9273SOL     OW28359   6.809   4.873   1.883  0.3746 -0.5918 -0.3745
 9273SOL    HW128360   6.861   4.848   1.959  0.2668 -2.4807 -0.8837
 9273SOL    HW228361   6.726   4.903   1.920  0.8838  0.0022  0.3119
 9274SOL     OW28362   1.197   2.938   1.909  0.6807 -0.1286  0.0240
 9274SOL    HW128363   1.233   2.956   1.823  0.6255 -2.5618 -0.5596
 9274SOL    HW228364   1.178   2.844   1.909 -1.5132  0.2138  1.8549
 9275SOL     OW28365   0.239   0.313   3.281  0.2584  0.2281  0.1533
 9275SOL    HW128366   0.289   0.233   3.261 -0.6766 -0.3167 -0.1029
 9275SOL    HW228367   0.233   0.315   3.376 -0.9210 -0.8165  0.1386
 9276SOL     OW28368   3.640   2.173   1.648  0.0799  0.0098 -0.3482
 9276SOL    HW128369   3.597   2.102   1.696 -1.0268  1.0795  0.3255
 9276SOL    HW228370   3.733   2.159   1.662 -0.1488 -0.8289  0.4751
 9277SOL     OW28371   3.601   7.561   1.915  0.6950 -0.0868  0.1488
 9277SOL    HW128372   3.649   7.571   1.833  0.2093  1.5301  0.0327
 9277SOL    HW228373   3.515   7.529   1.889  0.5547  0.3841  0.0352
 9278SOL     OW28374   1.039   7.357   5.545 -0.1884 -0.3914  0.3811
 9278SOL    HW128375   0.960   7.368   5.599 -0.2784  0.6800  0.0508
 9278SOL    HW228376   1.032   7.425   5.478  1.2023 -0.0401  0.5690
 9279SOL     OW28377   4.586   6.044   6.049 -0.7346  0.0078 -0.0988
 9279SOL    HW128378   4.616   6.134   6.037  1.1361 -0.4384  0.9004
 9279SOL    HW228379   4.514   6.051   6.112  1.1555  0.6161  2.1195
 9280SOL     OW28380   7.315   1.105   2.037 -0.2113  0.4792  0.5599
 9280SOL    HW128381   7.340   1.013   2.046  1.5328  0.8297 -0.2351
 9280SOL    HW228382   7.250   1.106   1.967  0.7220 -0.0111 -0.3288
 9281SOL     OW28383   2.953   3.026   0.282 -0.8312 -0.3886 -0.0160
 9281SOL    HW128384   3.013   3.090   0.320  0.6808  0.9267 -4.0321
 9281SOL    HW228385   2.889   3.078   0.235 -0.8104 -1.7652 -1.6847
 9282SOL     OW28386   7.310   5.264   6.544 -0.3563 -0.2811  0.1665
 9282SOL    HW128387   7.251   5.233   6.475  0.4539  1.4122 -1.3903
 9282SOL    HW228388   7.252   5.311   6.605 -1.0269 -1.4011  0.4155
 9283SOL     OW28389   3.065   6.192   5.569 -0.0862 -0.1706  0.1280
 9283SOL    HW128390   3.007   6.260   5.535 -0.6929 -0.7786 -0.0866
 9283SOL    HW228391   3.138   6.189   5.507 -0.1835  0.0977 -0.0004
 9284SOL     OW28392   0.412   3.413   3.406  0.6034  0.4562  0.2451
 9284SOL    HW128393   0.337   3.452   3.452  1.5887  0.9912  1.4416
 9284SOL    HW228394   0.475   3.393   3.475  2.2627  1.5559 -0.8680
 9285SOL     OW28395   5.717   6.856   6.109  0.6563 -0.6305  0.0821
 9285SOL    HW128396   5.744   6.948   6.110  1.5972 -0.8881  1.3701
 9285SOL    HW228397   5.684   6.840   6.197 -2.2389 -0.8123 -0.9415
 9286SOL     OW28398   0.317   3.286   6.407  0.1001  0.4300  0.6707
 9286SOL    HW128399   0.384   3.353   6.405 -1.3168  1.9072  0.3199
 9286SOL    HW228400   0.327   3.243   6.492  2.5714 -0.6103 -0.0749
 9287SOL     OW28401   5.539   2.996   6.823 -0.6234  0.0872 -0.5316
 9287SOL    HW128402   5.561   3.070   6.880  1.8279 -0.1190 -1.0984
 9287SOL    HW228403   5.515   3.037   6.739  1.7080  0.2810 -1.1540
 9288SOL     OW28404   2.578   5.648   1.361 -0.1581  0.1069 -0.3630
 9288SOL    HW128405   2.644   5.710   1.392  0.3410 -1.3714  1.7498
 9288SOL    HW228406   2.612   5.614   1.279  1.7345 -0.5841  0.6570
 9289SOL     OW28407   5.981   1.622   6.746 -0.4780 -0.1825 -0.0935
 9289SOL    HW128408   5.908   1.669   6.704 -0.9953 -0.5122  0.4175
 9289SOL    HW228409   6.023   1.687   6.802 -0.1816  0.0931 -0.6355
 9290SOL     OW28410   7.112   3.216   3.760 -0.6230 -0.7208  0.1487
 9290SOL    HW128411   7.122   3.265   3.678  0.1777 -1.6112 -0.3052
 9290SOL    HW228412   7.118   3.124   3.734 -0.2974 -1.0117  1.2164
 9291SOL     OW28413   3.369   1.186   1.602 -0.4694 -0.0475  0.1483
 9291SOL    HW128414   3.393   1.115   1.543 -0.3964  0.2282 -0.1556
 9291SOL    HW228415   3.442   1.247   1.597 -1.2904  0.8954 -0.9449
 9292SOL     OW28416   7.345   6.011   2.046 -0.0243 -0.5493 -0.2911
 9292SOL    HW128417   7.433   6.015   2.084  0.1734  0.4161 -0.8184
 9292SOL    HW228418   7.337   6.091   1.995 -1.1492 -0.7112 -0.4057
 9293SOL     OW28419   1.019   3.077   1.154 -0.0446 -0.1147  0.1253
 9293SOL    HW128420   0.926   3.088   1.175 -0.4147  2.1272 -2.1255
 9293SOL    HW228421   1.024   2.988   1.119 -1.0150 -0.8118  1.6582
 9294SOL     OW28422   2.076   4.164   3.792 -0.1385  0.1250 -0.2280
 9294SOL    HW128423   2.029   4.172   3.709  1.7458 -0.3961 -1.4028
 9294SOL    HW228424   2.076   4.253   3.828 -2.7615 -0.0205  0.2834
 9295SOL     OW28425   6.699   2.209   7.532  0.6509  0.1253  0.2068
 9295SOL    HW128426   6.774   2.250   7.489  1.4887  0.3982  1.8361
 9295SOL    HW228427   6.665   2.148   7.468  3.4490 -1.4436  0.0430
 9296SOL     OW28428   3.010   0.221   1.960 -0.1977  0.2530  0.0796
 9296SOL    HW128429   2.970   0.139   1.989 -0.7006  0.5274  0.1665
 9296SOL    HW228430   2.960   0.245   1.882  1.4235 -0.7228 -1.3471
 9297SOL     OW28431   0.177   2.013   6.701 -0.0296  0.4355  0.0476
 9297SOL    HW128432   0.086   1.985   6.705 -0.5484  1.9769 -0.1880
 9297SOL    HW228433   0.207   2.009   6.792  0.5568 -2.6542 -0.1788
 9298SOL     OW28434   2.134   6.046   0.838  0.6339 -0.0793  0.0109
 9298SOL    HW128435   2.162   5.955   0.842 -1.7754 -1.0315 -1.7786
 9298SOL    HW228436   2.199   6.090   0.783  0.8598 -1.1775 -0.6136
 9299SOL     OW28437   7.283   1.225   5.309 -0.1180  0.3251  1.0948
 9299SOL    HW128438   7.194   1.203   5.280 -0.2645  0.8790  1.1095
 9299SOL    HW228439   7.272   1.250   5.400  0.1847 -0.4013  1.3386
 9300SOL     OW28440   5.453   7.296   1.009  0.4541 -0.3323  0.3414
 9300SOL    HW128441   5.406   7.298   0.925  0.5416 -1.8435  0.2202
 9300SOL    HW228442   5.536   7.339   0.991 -0.1078  0.6802  0.0583
 9301SOL     OW28443   2.998   3.745   4.276 -0.2921  0.1403 -0.1099
 9301SOL    HW128444   3.036   3.748   4.363 -3.1226  1.2477  1.2282
 9301SOL    HW228445   3.064   3.785   4.219  0.3446  2.5051  2.1072
 9302SOL     OW28446   7.028   1.194   5.197 -0.4288  0.1264  0.0141
 9302SOL    HW128447   7.053   1.155   5.113 -0.7216  1.7588 -0.8731
 9302SOL    HW228448   6.938   1.222   5.184 -0.3164  0.8365  0.6940
 9303SOL     OW28449   6.289   7.582   0.260 -0.2167  0.4096  1.4351
 9303SOL    HW128450   6.311   7.674   0.248 -0.7897  0.4405  0.5758
 9303SOL    HW228451   6.333   7.558   0.342  1.5778  0.9073  0.6760
 9304SOL     OW28452   6.268   2.741   7.347  0.3055  0.5935  0.1259
 9304SOL    HW128453   6.178   2.766   7.369  0.0744  3.5512 -3.1788
 9304SOL    HW228454   6.302   2.701   7.426 -3.7883 -0.3925  1.6289
 9305SOL     OW28455   7.344   0.480   5.857 -0.3258  0.5637 -0.5893
 9305SOL    HW128456   7.314   0.535   5.785  2.1667  2.1654 -0.5463
 9305SOL    HW228457   7.437   0.466   5.838 -0.5156 -2.4136  0.2412
 9306SOL     OW28458   5.379   7.390   3.471 -0.4709 -0.2587 -0.4414
 9306SOL    HW128459   5.411   7.303   3.446 -2.5796 -0.8997 -1.2313
 9306SOL    HW228460   5.431   7.415   3.547 -0.6544 -2.8019  0.6160
 9307SOL     OW28461   1.903   2.405   1.780 -0.8540 -0.2113 -0.4200
 9307SOL    HW128462   1.847   2.334   1.750  0.1970 -1.3048  0.1549
 9307SOL    HW228463   1.965   2.420   1.708 -1.8067  0.9669 -1.0375
 9308SOL     OW28464   6.237   4.373   5.606  0.7254 -0.3041 -0.4342
 9308SOL    HW128465   6.206   4.460   5.631  2.7156  0.0497  1.0843
 9308SOL    HW228466   6.301   4.350   5.673 -0.0437 -3.1649 -0.5300
 9309SOL     OW28467   2.733   3.531   0.758  0.1758 -0.2622  0.0638
 9309SOL    HW128468   2.824   3.526   0.786 -0.1052 -1.2259  0.8870
 9309SOL    HW228469   2.690   3.459   0.805 -1.1282  0.5438  0.1614
 9310SOL     OW28470   0.317   1.566   4.910  0.1708 -0.3841  0.1345
 9310SOL    HW128471   0.383   1.621   4.869  1.3859 -2.5334 -0.9347
 9310SOL    HW228472   0.273   1.624   4.972  2.5608  1.3130  0.3705
 9311SOL     OW28473   0.076   5.762   1.907  0.3116 -0.0275  0.0769
 9311SOL    HW128474   0.091   5.700   1.836 -1.4728 -1.1538  0.6182
 9311SOL    HW228475   0.062   5.846   1.863  0.0566 -0.5485 -0.8560
 9312SOL     OW28476   0.849   6.305   1.914 -0.0135 -0.8010  0.5366
 9312SOL    HW128477   0.761   6.270   1.928  0.2595 -1.3754  0.8741
 9312SOL    HW228478   0.907   6.234   1.941  0.5864 -1.5515 -2.4020
 9313SOL     OW28479   6.310   4.484   6.454 -0.1904  0.1460  0.0124
 9313SOL    HW128480   6.340   4.563   6.408  2.4734  0.4357  2.0095
 9313SOL    HW228481   6.375   4.417   6.431 -1.0411 -0.8025  0.2906
 9314SOL     OW28482   3.377   5.236   3.312 -0.5857  0.0302 -0.0133
 9314SOL    HW128483   3.308   5.209   3.252  1.6732 -0.8616 -2.3964
 9314SOL    HW228484   3.432   5.159   3.323  0.5432  0.9392  1.0983
 9315SOL     OW28485   3.617   1.550   2.544  0.0742  0.3475 -0.4696
 9315SOL    HW128486   3.623   1.461   2.579 -1.6836 -0.1661 -1.3418
 9315SOL    HW228487   3.622   1.607   2.621 -0.9804 -0.6216  0.3592
 9316SOL     OW28488   2.694   0.929   3.452 -0.2466 -0.0270 -0.2878
 9316SOL    HW128489   2.785   0.924   3.425 -0.1545  0.6846 -0.1228
 9316SOL    HW228490   2.671   0.839   3.477  1.2712  0.2321  2.4584
 9317SOL     OW28491   1.306   7.483   4.129 -0.1503  0.5648  0.4382
 9317SOL    HW128492   1.220   7.443   4.114  0.2102 -0.3885  0.8137
 9317SOL    HW228493   1.367   7.426   4.082  0.3323  0.9576  0.5819
 9318SOL     OW28494   4.383   3.998   7.011  0.2325 -0.5037 -0.1909
 9318SOL    HW128495   4.309   4.014   6.952  0.7097  0.0547 -0.6496
 9318SOL    HW228496   4.363   4.051   7.088 -0.7172 -1.7419  0.4591
 9319SOL     OW28497   4.896   7.145   1.334 -0.3219 -0.0356  0.4003
 9319SOL    HW128498   4.943   7.113   1.412 -1.1559  1.2688  1.4899
 9319SOL    HW228499   4.918   7.238   1.329  2.1027 -0.6246 -2.7380
 9320SOL     OW28500   5.477   1.353   1.737 -0.2008 -0.1996 -0.3250
 9320SOL    HW128501   5.428   1.425   1.778  0.8696  0.5333 -0.2989
 9320SOL    HW228502   5.472   1.282   1.801  0.1801  0.4289  0.4264
 9321SOL     OW28503   6.396   1.224   1.925 -0.2443 -0.1148 -0.1176
 9321SOL    HW128504   6.313   1.271   1.920  0.2299  1.1572  2.2697
 9321SOL    HW228505   6.442   1.248   1.845 -0.9251  1.7843 -0.0042
 9322SOL     OW28506   5.714   4.051   0.429  0.3675  0.1543 -0.0170
 9322SOL    HW128507   5.675   4.025   0.513  1.9175 -1.6424  0.2051
 9322SOL    HW228508   5.702   4.146   0.426 -1.1494  0.0729  1.4706
 9323SOL     OW28509   0.248   6.338   2.801  0.1335 -0.4281 -0.0753
 9323SOL    HW128510   0.330   6.386   2.797  1.7423 -2.6017  3.0470
 9323SOL    HW228511   0.267   6.254   2.759  1.0265 -2.5673  4.0859
 9324SOL     OW28512   0.456   0.295   1.606  0.5968 -0.7817 -0.9180
 9324SOL    HW128513   0.382   0.345   1.570  0.4035  0.3604  0.9224
 9324SOL    HW228514   0.534   0.342   1.576  0.4840 -0.6218 -0.9624
 9325SOL     OW28515   3.051   3.541   5.364  0.1414  0.5061 -0.2805
 9325SOL    HW128516   3.115   3.562   5.432  0.0702 -0.5437  0.1311
 9325SOL    HW228517   3.028   3.449   5.380 -0.5480  0.5065 -1.1762
 9326SOL     OW28518   7.556   1.384   5.002  0.4567  0.3877 -0.3693
 9326SOL    HW128519   7.634   1.341   5.035  0.3844 -0.2022 -0.9472
 9326SOL    HW228520   7.581   1.418   4.917  0.6574  1.9449  0.2790
 9327SOL     OW28521   2.778   6.071   0.481  0.3278 -0.2663 -0.3768
 9327SOL    HW128522   2.866   6.059   0.447  0.5143  0.7143 -0.2759
 9327SOL    HW228523   2.722   6.020   0.423  0.9830 -1.0730 -0.3125
 9328SOL     OW28524   5.717   0.668   1.106 -0.4841 -0.0069 -0.2655
 9328SOL    HW128525   5.676   0.706   1.184 -0.5236  0.6949 -0.6168
 9328SOL    HW228526   5.791   0.727   1.088  0.1539 -0.7546 -0.1548
 9329SOL     OW28527   0.575   5.566   7.003  0.2802  0.4556 -0.3506
 9329SOL    HW128528   0.632   5.510   6.951 -0.9456 -1.4981  0.2917
 9329SOL    HW228529   0.518   5.505   7.051 -1.1460  2.2580  0.3963
 9330SOL     OW28530   7.192   5.408   0.087 -0.2225  0.5136  0.2959
 9330SOL    HW128531   7.268   5.412   0.029 -1.0804  1.1716 -0.8176
 9330SOL    HW228532   7.143   5.331   0.058 -0.5082  0.6804  0.3337
 9331SOL     OW28533   6.068   1.262   4.341 -0.4266 -0.1007 -0.1259
 9331SOL    HW128534   6.134   1.329   4.323 -0.4520  0.1161  0.5543
 9331SOL    HW228535   6.100   1.184   4.297 -0.4952  0.4080 -1.1047
 9332SOL     OW28536   3.012   7.329   5.849  0.1338 -0.2136  0.0164
 9332SOL    HW128537   2.941   7.309   5.789  0.4437 -2.0371  0.1804
 9332SOL    HW228538   3.052   7.243   5.868  0.5305  0.3874  2.1927
 9333SOL     OW28539   1.286   0.785   3.100 -0.1617  0.0511  0.2894
 9333SOL    HW128540   1.329   0.850   3.044  1.2154 -0.7268  0.3829
 9333SOL    HW228541   1.232   0.734   3.040  0.4535 -0.0889 -0.1532
 9334SOL     OW28542   0.675   4.565   4.815 -0.2801 -0.2443  0.3786
 9334SOL    HW128543   0.733   4.511   4.762 -0.1368 -1.3060  1.6022
 9334SOL    HW228544   0.591   4.561   4.770 -0.0978 -0.9320  0.0984
 9335SOL     OW28545   2.059   1.281   5.507 -0.1467  0.3908  0.6501
 9335SOL    HW128546   2.134   1.317   5.554  0.7312  2.3294 -2.0038
 9335SOL    HW228547   1.986   1.339   5.530 -0.0184  0.5600  0.6311
 9336SOL     OW28548   6.078   2.689   4.741 -0.2194  0.1971  0.1712
 9336SOL    HW128549   6.126   2.721   4.817 -0.1590 -2.1746  1.1855
 9336SOL    HW228550   6.018   2.760   4.719  0.3267  1.2445  1.9089
 9337SOL     OW28551   2.481   4.969   7.133 -0.6070  0.2603  0.6555
 9337SOL    HW128552   2.573   4.994   7.121 -0.1645 -0.7849  1.6314
 9337SOL    HW228553   2.484   4.904   7.202 -1.8375 -1.4786 -0.8431
 9338SOL     OW28554   1.739   6.326   0.926  0.1569 -0.3540 -0.2045
 9338SOL    HW128555   1.755   6.402   0.870  0.5621  0.3630  0.8678
 9338SOL    HW228556   1.805   6.262   0.900  1.8045  0.8113  0.9605
 9339SOL     OW28557   1.179   0.644   6.575  0.2194  0.2048 -0.1854
 9339SOL    HW128558   1.171   0.632   6.670 -0.0201 -2.1746 -0.4463
 9339SOL    HW228559   1.271   0.665   6.561  0.5097 -0.5571  0.4973
 9340SOL     OW28560   4.680   1.189   4.458  0.1943  0.1784  0.0729
 9340SOL    HW128561   4.682   1.223   4.548  0.3398  1.2624 -0.3206
 9340SOL    HW228562   4.758   1.134   4.451 -0.0346 -0.2485  0.7232
 9341SOL     OW28563   5.116   3.551   1.931 -0.0949  0.6228  0.7673
 9341SOL    HW128564   5.072   3.619   1.881  3.1868  1.9684 -0.5631
 9341SOL    HW228565   5.167   3.503   1.866 -0.8379 -1.9651  1.9536
 9342SOL     OW28566   5.313   1.928   7.222 -0.3429  0.2114 -0.0221
 9342SOL    HW128567   5.373   1.872   7.172 -0.1817 -0.5530  1.0073
 9342SOL    HW228568   5.321   1.898   7.312 -0.7503  1.4680  0.4576
 9343SOL     OW28569   2.531   5.767   7.604  0.4527 -0.5847 -0.0732
 9343SOL    HW128570   2.439   5.789   7.611  0.7541  0.6171  0.2918
 9343SOL    HW228571   2.562   5.815   7.527  1.1692  0.4814  0.8585
 9344SOL     OW28572   7.259   6.915   5.904  0.2151  0.4941  0.2298
 9344SOL    HW128573   7.348   6.918   5.868  0.4553  0.1156  0.7760
 9344SOL    HW228574   7.244   6.822   5.923 -1.2094  0.1661 -2.0577
 9345SOL     OW28575   4.172   2.405   4.611 -0.0074 -0.1385 -0.7113
 9345SOL    HW128576   4.131   2.325   4.579  0.7148 -1.2920  1.0434
 9345SOL    HW228577   4.180   2.461   4.534 -0.6600 -1.7052 -1.9763
 9346SOL     OW28578   2.775   5.370   1.284  0.5070  0.0977 -0.1393
 9346SOL    HW128579   2.717   5.346   1.357  1.9592 -0.2085  0.9542
 9346SOL    HW228580   2.863   5.358   1.318  1.2390  0.1123 -1.9191
 9347SOL     OW28581   1.549   1.114   2.363 -0.5846  0.7362  0.0667
 9347SOL    HW128582   1.596   1.182   2.315 -1.4856 -0.2376 -2.3564
 9347SOL    HW228583   1.617   1.062   2.405  0.2910  1.4269 -0.4698
 9348SOL     OW28584   2.081   6.956   6.505  0.0211  0.0572 -0.0892
 9348SOL    HW128585   1.993   6.991   6.493  0.5349  1.4135 -0.0838
 9348SOL    HW228586   2.122   7.016   6.567  0.4220 -1.5261  1.2377
 9349SOL     OW28587   0.561   2.261   4.821 -0.0482  0.2918 -0.3633
 9349SOL    HW128588   0.498   2.327   4.794 -0.1792 -0.0505 -0.9159
 9349SOL    HW228589   0.564   2.269   4.916 -0.2543  0.9134 -0.4025
 9350SOL     OW28590   1.363   0.076   0.632 -0.6483  0.0493 -0.2181
 9350SOL    HW128591   1.433   0.082   0.698 -1.9048  0.0612  1.1705
 9350SOL    HW228592   1.346  -0.018   0.623 -0.3121  0.0324 -0.7325
 9351SOL     OW28593   2.672   3.273   2.645  0.8679  0.0714  0.2697
 9351SOL    HW128594   2.587   3.259   2.687  0.6297  2.0700  0.5422
 9351SOL    HW228595   2.733   3.282   2.718  1.5115 -2.1110  0.0761
 9352SOL     OW28596   0.721   4.823   3.777  0.1980  0.0234 -0.1325
 9352SOL    HW128597   0.774   4.832   3.698  0.5956 -0.5763  0.0566
 9352SOL    HW228598   0.658   4.755   3.755  0.2571 -0.0864  0.0403
 9353SOL     OW28599   5.725   5.006   7.181 -0.3851 -0.2055  0.5340
 9353SOL    HW128600   5.639   4.965   7.186 -0.6423  0.4532  2.2572
 9353SOL    HW228601   5.715   5.075   7.115 -0.7884 -0.9706 -0.2228
 9354SOL     OW28602   1.755   7.512   6.421 -0.2449 -0.5348  0.0990
 9354SOL    HW128603   1.750   7.604   6.395 -1.4865 -0.6440 -0.1237
 9354SOL    HW228604   1.801   7.470   6.349  0.4015 -0.0838  0.2371
 9355SOL     OW28605   0.819   5.220   4.290 -0.2436 -0.2097  0.0017
 9355SOL    HW128606   0.865   5.289   4.338 -0.1746 -0.4740  0.3232
 9355SOL    HW228607   0.792   5.261   4.208 -0.6084  0.3278  0.3855
 9356SOL     OW28608   1.618   3.048   0.875 -0.6153  0.4819  0.3748
 9356SOL    HW128609   1.529   3.045   0.840 -0.4642 -0.8900  0.0576
 9356SOL    HW228610   1.610   3.016   0.965 -0.1847 -1.6234 -0.2884
 9357SOL     OW28611   6.924   5.086   5.902  0.2849  0.1177  0.5310
 9357SOL    HW128612   6.832   5.082   5.878  0.8606 -0.0356 -1.9451
 9357SOL    HW228613   6.927   5.144   5.978 -2.0229 -1.5403  1.9994
 9358SOL     OW28614   2.643   0.501   6.536  0.1479 -0.3064 -0.1216
 9358SOL    HW128615   2.655   0.428   6.598 -0.2175 -0.8452 -0.6773
 9358SOL    HW228616   2.684   0.576   6.580 -0.6128 -0.5414  1.0307
 9359SOL     OW28617   2.458   2.249   0.366 -0.0005 -0.2737 -0.5865
 9359SOL    HW128618   2.403   2.328   0.362 -0.6114 -0.7049 -0.9710
 9359SOL    HW228619   2.413   2.192   0.427  0.0046 -0.6413 -0.9222
 9360SOL     OW28620   0.302   6.748   3.394  0.1416  0.1493  0.5729
 9360SOL    HW128621   0.314   6.773   3.485  0.3736  0.1744  0.5357
 9360SOL    HW228622   0.326   6.826   3.344 -0.0918  0.1711  0.4943
 9361SOL     OW28623   5.355   1.206   6.655 -0.4196  0.2337 -0.3116
 9361SOL    HW128624   5.339   1.123   6.610  0.8716 -0.9744  1.3267
 9361SOL    HW228625   5.279   1.260   6.634 -1.4225 -1.4523 -1.2080
 9362SOL     OW28626   1.303   4.756   5.723 -0.0244  0.2032 -0.0841
 9362SOL    HW128627   1.283   4.744   5.816 -1.9233  2.4901 -0.1012
 9362SOL    HW228628   1.397   4.776   5.722 -0.2276  1.5551  1.5671
 9363SOL     OW28629   3.641   5.676   3.912 -0.6356 -0.4988  0.7054
 9363SOL    HW128630   3.570   5.716   3.962 -0.0502  1.4460  0.0826
 9363SOL    HW228631   3.626   5.704   3.822  0.4329 -0.7572  0.4358
 9364SOL     OW28632   4.352   5.851   3.644 -0.5876  0.2150 -0.8233
 9364SOL    HW128633   4.377   5.797   3.719  0.5824  1.0834 -0.5639
 9364SOL    HW228634   4.300   5.793   3.589  0.7524 -1.2286 -0.6291
 9365SOL     OW28635   6.570   5.415   5.607  0.3198  0.0100  0.5924
 9365SOL    HW128636   6.653   5.415   5.561 -0.6529  0.9826 -1.2641
 9365SOL    HW228637   6.554   5.323   5.628  0.9077 -0.4484 -0.8387
 9366SOL     OW28638   2.195   7.164   7.048  0.3358 -0.5642 -0.3902
 9366SOL    HW128639   2.177   7.249   7.087 -0.3166 -0.6245 -0.5456
 9366SOL    HW228640   2.268   7.129   7.099  1.6295  0.7206 -1.2691
 9367SOL     OW28641   3.731   5.792   6.373  0.3311  0.4483  0.7473
 9367SOL    HW128642   3.721   5.716   6.316 -0.1383  0.9028  0.2130
 9367SOL    HW228643   3.818   5.826   6.352  0.4972  0.1277  0.9076
 9368SOL     OW28644   1.511   6.017   6.554  0.1173 -0.6353  0.1329
 9368SOL    HW128645   1.468   5.991   6.473 -0.6387 -1.5468  0.7936
 9368SOL    HW228646   1.529   6.110   6.543 -3.2538  0.1836  0.2849
 9369SOL     OW28647   0.794   4.677   2.113  0.0903 -0.3372 -0.5292
 9369SOL    HW128648   0.884   4.706   2.120  1.2673 -3.3984 -1.1626
 9369SOL    HW228649   0.781   4.621   2.190 -1.5376  0.6228 -0.0635
 9370SOL     OW28650   2.823   1.650   1.980 -0.1759 -0.5822  0.1075
 9370SOL    HW128651   2.769   1.597   2.039  1.3689 -0.6187  1.5651
 9370SOL    HW228652   2.763   1.719   1.949 -1.0472 -0.5306  1.7717
 9371SOL     OW28653   2.435   5.611   0.718  0.2256 -0.0501 -0.0758
 9371SOL    HW128654   2.363   5.566   0.762  0.5854 -0.8453 -0.2751
 9371SOL    HW228655   2.500   5.542   0.702  0.5369  0.4298 -0.9376
 9372SOL     OW28656   3.199   4.927   3.313 -0.2647 -0.0317  0.2107
 9372SOL    HW128657   3.294   4.937   3.323 -0.3866  0.4903  0.8739
 9372SOL    HW228658   3.186   4.918   3.218  0.4365 -0.0585  0.1090
 9373SOL     OW28659   2.118   2.770   0.917  0.1242 -0.0780  0.6277
 9373SOL    HW128660   2.045   2.767   0.856  1.1240 -0.2078 -0.6162
 9373SOL    HW228661   2.179   2.703   0.884  1.9265  1.7145  0.1049
 9374SOL     OW28662   2.254   0.137   3.527 -0.0306 -0.2382 -0.5216
 9374SOL    HW128663   2.265   0.148   3.621  1.3163 -0.7488 -0.6019
 9374SOL    HW228664   2.183   0.074   3.519 -0.9164  0.6388  0.1098
 9375SOL     OW28665   0.282   4.662   4.215 -0.1404 -0.9182  0.2059
 9375SOL    HW128666   0.197   4.643   4.175 -1.2900 -0.2154  2.1286
 9375SOL    HW228667   0.322   4.726   4.156 -1.0024 -1.1564 -0.6749
 9376SOL     OW28668   6.603   5.950   4.859  0.0580  0.5168  0.1588
 9376SOL    HW128669   6.608   5.969   4.766 -0.9477  0.4553  0.0832
 9376SOL    HW228670   6.652   5.868   4.870 -2.0061 -0.9040 -0.7542
 9377SOL     OW28671   3.505   2.986   1.606 -0.3230 -0.2215  0.0342
 9377SOL    HW128672   3.578   2.987   1.667  0.1144 -0.0744 -0.4853
 9377SOL    HW228673   3.545   2.996   1.519 -0.9604 -0.0526 -0.2517
 9378SOL     OW28674   1.324   2.437   2.787  0.2302 -0.1629 -0.3286
 9378SOL    HW128675   1.296   2.348   2.808  1.9588 -1.0199 -1.3618
 9378SOL    HW228676   1.244   2.489   2.789 -1.1036 -2.0596 -1.3053
 9379SOL     OW28677   1.313   3.466   2.037  0.0122 -0.8393 -0.2405
 9379SOL    HW128678   1.297   3.560   2.036  1.4945 -0.5106  1.7992
 9379SOL    HW228679   1.293   3.438   1.947  1.2414  1.7139 -1.4212
 9380SOL     OW28680   2.559   0.171   2.004 -0.1308 -0.2860 -0.1421
 9380SOL    HW128681   2.490   0.106   2.014 -0.9295  0.6417  0.6268
 9380SOL    HW228682   2.588   0.189   2.093  1.7507 -1.2976 -0.5059
 9381SOL     OW28683   2.537   3.817   6.761 -0.3697 -0.5570  0.1361
 9381SOL    HW128684   2.548   3.910   6.737 -1.1679 -0.3752  0.4599
 9381SOL    HW228685   2.503   3.777   6.681  0.6028 -0.7155 -0.2167
 9382SOL     OW28686   4.264   1.362   0.808  0.3397 -0.4417  0.3279
 9382SOL    HW128687   4.314   1.328   0.882  2.1575 -0.8774 -1.0637
 9382SOL    HW228688   4.318   1.433   0.772 -0.7212  0.0608 -0.3343
 9383SOL     OW28689   2.647   1.142   5.717 -0.2184 -0.7419 -0.0655
 9383SOL    HW128690   2.570   1.196   5.697 -0.7334 -1.5760 -0.3853
 9383SOL    HW228691   2.649   1.138   5.813 -0.8894 -1.1548 -0.0637
 9384SOL     OW28692   2.408   6.388   7.324  0.3608  0.0667 -0.6008
 9384SOL    HW128693   2.352   6.446   7.376  0.5923 -0.0093 -0.2613
 9384SOL    HW228694   2.440   6.443   7.253  1.2127  0.5850  0.1629
 9385SOL     OW28695   0.063   2.969   2.638 -0.0113  0.2903  0.0685
 9385SOL    HW128696  -0.017   2.917   2.628 -0.8614  1.3038  1.3152
 9385SOL    HW228697   0.082   2.965   2.732  2.0693 -0.8390 -0.3379
 9386SOL     OW28698   1.634   3.852   7.462 -0.3190 -0.7027  0.2154
 9386SOL    HW128699   1.729   3.846   7.466 -0.0779  1.1026 -1.2085
 9386SOL    HW228700   1.603   3.803   7.538  1.7370 -1.3312  0.7034
 9387SOL     OW28701   6.333   4.428   0.120  0.4579 -0.2740  0.4695
 9387SOL    HW128702   6.323   4.389   0.207  0.2476 -0.2323  0.4646
 9387SOL    HW228703   6.243   4.440   0.089  0.5458 -0.8303  0.0004
 9388SOL     OW28704   1.564   7.517   3.478 -0.6799  0.6710  0.4391
 9388SOL    HW128705   1.591   7.437   3.433 -0.9670  0.2016  1.0791
 9388SOL    HW228706   1.489   7.549   3.428  0.1057  1.1511 -0.4623
 9389SOL     OW28707   7.252   6.385   4.184  0.1342 -0.4138  0.3132
 9389SOL    HW128708   7.234   6.445   4.256 -0.0841  1.0925 -0.9627
 9389SOL    HW228709   7.339   6.350   4.203  1.4477  2.3172 -0.2069
 9390SOL     OW28710   1.870   4.521   6.687  0.1678 -0.1264 -0.0221
 9390SOL    HW128711   1.805   4.496   6.622  0.8438  0.0296 -0.7705
 9390SOL    HW228712   1.841   4.607   6.718 -0.4762 -0.4571  0.3271
 9391SOL     OW28713   7.521   2.367   5.793  0.0498 -0.3476  0.2070
 9391SOL    HW128714   7.541   2.353   5.885 -1.7006 -0.5510  0.5790
 9391SOL    HW228715   7.433   2.403   5.792  0.1303 -0.1214 -1.3790
 9392SOL     OW28716   1.240   1.245   2.280 -0.0747  0.1337  0.4189
 9392SOL    HW128717   1.168   1.211   2.333 -0.6145  0.8799  0.1797
 9392SOL    HW228718   1.317   1.194   2.308 -0.6584 -0.5666  0.7825
 9393SOL     OW28719   1.143   6.358   2.196 -0.8958  0.2780  0.3638
 9393SOL    HW128720   1.161   6.277   2.147  0.3269  1.2331 -0.8227
 9393SOL    HW228721   1.105   6.417   2.131  0.9768  1.6588  0.4481
 9394SOL     OW28722   4.970   3.211   3.718 -0.2612  0.1623 -0.5533
 9394SOL    HW128723   4.948   3.119   3.704 -1.2658  0.3387 -0.1877
 9394SOL    HW228724   5.066   3.213   3.713 -0.0994 -1.1843  0.9526
 9395SOL     OW28725   2.515   3.615   1.490  0.0642 -0.1107  0.4640
 9395SOL    HW128726   2.601   3.646   1.521  0.3522  0.9383 -1.2198
 9395SOL    HW228727   2.457   3.690   1.504 -0.6911 -0.8998  1.8257
 9396SOL     OW28728   7.377   4.382   5.670  0.4353  0.0588  0.1504
 9396SOL    HW128729   7.407   4.469   5.646 -0.3368  0.1134 -0.6598
 9396SOL    HW228730   7.431   4.358   5.746  0.5852  1.2664  0.4425
 9397SOL     OW28731   4.314   6.598   1.889 -0.4673  0.5630 -0.2237
 9397SOL    HW128732   4.311   6.551   1.972 -0.0625  1.0267  0.0619
 9397SOL    HW228733   4.403   6.586   1.858 -0.4587  0.8545 -0.3163
 9398SOL     OW28734   6.531   6.051   4.137 -0.0461 -0.0011  0.5784
 9398SOL    HW128735   6.520   6.103   4.216 -1.7307 -0.1245  0.4541
 9398SOL    HW228736   6.460   5.987   4.140 -0.3612  0.2036 -1.1813
 9399SOL     OW28737   3.442   5.244   5.900  0.3032 -0.0068  0.3693
 9399SOL    HW128738   3.429   5.163   5.851 -2.3182  0.4732  0.1616
 9399SOL    HW228739   3.480   5.305   5.836  1.0890 -0.6788  0.1829
 9400SOL     OW28740   5.651   0.718   6.557  0.0441 -0.3007 -0.9080
 9400SOL    HW128741   5.669   0.805   6.592 -0.8032 -0.0070 -1.1701
 9400SOL    HW228742   5.700   0.715   6.475 -1.4560  0.6899 -1.8882
 9401SOL     OW28743   4.081   7.101   4.996 -0.1387  0.1757  0.4468
 9401SOL    HW128744   3.997   7.061   4.974  0.4941 -1.2829  0.5338
 9401SOL    HW228745   4.096   7.078   5.088 -0.0059  1.1107  0.6687
 9402SOL     OW28746   5.347   7.029   0.337  0.5992 -0.1267 -0.0786
 9402SOL    HW128747   5.420   7.056   0.281  0.0507  0.9575 -0.2963
 9402SOL    HW228748   5.335   6.936   0.319  1.3573 -0.1123 -0.6918
 9403SOL     OW28749   3.156   6.126   3.645  0.1462 -0.2673 -0.1588
 9403SOL    HW128750   3.105   6.185   3.591 -0.7930 -1.1556 -0.2723
 9403SOL    HW228751   3.097   6.100   3.715  1.5263  1.3525  1.7218
 9404SOL     OW28752   3.641   1.029   0.667 -0.0597  0.2713 -0.7918
 9404SOL    HW128753   3.713   1.070   0.620  0.9293  1.3157  1.4676
 9404SOL    HW228754   3.664   0.936   0.669  1.5942  0.6589  0.3708
 9405SOL     OW28755   4.740   3.334   7.562  0.0376 -0.2681  0.3630
 9405SOL    HW128756   4.683   3.363   7.491  1.2944  0.7424 -0.2654
 9405SOL    HW228757   4.811   3.286   7.520 -0.4564 -1.7804  1.1633
 9406SOL     OW28758   1.733   4.310   4.702 -0.3677  0.4629 -0.4320
 9406SOL    HW128759   1.748   4.403   4.714 -0.0151  0.2704  0.7662
 9406SOL    HW228760   1.744   4.272   4.789 -0.6207 -0.6845 -0.8721
 9407SOL     OW28761   3.729   5.075   4.131 -0.3474 -0.3272 -0.0774
 9407SOL    HW128762   3.803   5.133   4.117  0.1053 -0.4967  1.3782
 9407SOL    HW228763   3.693   5.102   4.216 -1.5939 -0.6286 -0.4911
 9408SOL     OW28764   6.273   5.349   7.611 -0.4508 -0.9597  0.5224
 9408SOL    HW128765   6.356   5.317   7.577 -1.3081 -1.5248 -1.1669
 9408SOL    HW228766   6.228   5.385   7.535 -1.5122 -0.1234  1.5079
 9409SOL     OW28767   3.167   4.513   6.316  0.3558  0.1171 -0.5378
 9409SOL    HW128768   3.219   4.486   6.241  3.5566  1.3527  1.0660
 9409SOL    HW228769   3.132   4.598   6.292  1.9439  0.8285 -0.4521
 9410SOL     OW28770   1.373   4.799   1.889 -0.1625  0.0337  0.2817
 9410SOL    HW128771   1.371   4.891   1.864  0.5614 -0.4830 -1.9090
 9410SOL    HW228772   1.427   4.797   1.968 -1.5072  1.6396  1.3098
 9411SOL     OW28773   6.348   0.805   1.124 -0.5492 -0.8050 -0.5149
 9411SOL    HW128774   6.394   0.803   1.208 -1.2998  0.3351 -0.0578
 9411SOL    HW228775   6.404   0.859   1.067 -0.4802 -0.8425 -0.4824
 9412SOL     OW28776   0.583   1.882   3.484 -0.0059  0.1448  0.0863
 9412SOL    HW128777   0.609   1.944   3.552 -0.8976 -1.0133  1.5421
 9412SOL    HW228778   0.593   1.796   3.525  0.4378 -0.6610 -1.6197
 9413SOL     OW28779   7.028   5.076   1.669  0.4649  0.3017  0.0122
 9413SOL    HW128780   6.957   5.125   1.710  0.0674 -0.4557  0.2332
 9413SOL    HW228781   7.006   5.076   1.576 -1.3122 -2.2355  0.3323
 9414SOL     OW28782   1.930   3.619   4.871 -0.0677 -0.2472  0.2453
 9414SOL    HW128783   1.997   3.682   4.896 -1.1521  0.6801  0.8783
 9414SOL    HW228784   1.970   3.534   4.890  0.7463  0.3002  1.0788
 9415SOL     OW28785   6.949   5.633   5.370 -0.0344  0.0019  0.1014
 9415SOL    HW128786   6.957   5.645   5.275  0.2475  0.3024  0.1630
 9415SOL    HW228787   7.014   5.692   5.407 -0.8287  0.6205  0.5229
 9416SOL     OW28788   2.097   1.785   4.120 -0.7096 -0.2913 -0.2832
 9416SOL    HW128789   2.186   1.762   4.147 -0.2679 -0.5231 -1.8167
 9416SOL    HW228790   2.049   1.702   4.122  0.0009 -0.8187 -2.5866
 9417SOL     OW28791   1.237   2.257   0.572  0.1602 -0.0791 -0.0957
 9417SOL    HW128792   1.296   2.294   0.506  1.0697 -1.2753  0.0118
 9417SOL    HW228793   1.154   2.304   0.559  0.2402 -0.4152 -2.2126
 9418SOL     OW28794   0.957   1.635   2.097 -0.5494  0.4600  0.2662
 9418SOL    HW128795   1.006   1.656   2.018  0.1021 -3.1589 -0.5083
 9418SOL    HW228796   1.023   1.598   2.156 -1.5380  0.1000  1.1864
 9419SOL     OW28797   0.974   0.080   5.127  0.3146 -0.2483  0.2496
 9419SOL    HW128798   1.059   0.120   5.109  0.1802  0.1645  0.5174
 9419SOL    HW228799   0.942   0.052   5.041  1.2756 -1.5630  0.2838
 9420SOL     OW28800   0.404   4.629   2.282  0.0845 -0.3496 -0.2423
 9420SOL    HW128801   0.488   4.583   2.292 -0.3716 -2.3709 -4.0116
 9420SOL    HW228802   0.351   4.596   2.355  1.3437 -2.0696 -0.0316
 9421SOL     OW28803   6.304   2.456   6.722  0.0790  0.2411 -0.0009
 9421SOL    HW128804   6.399   2.462   6.716  0.2509  0.9636  2.4635
 9421SOL    HW228805   6.285   2.363   6.710  1.2133 -0.0908  0.6539
 9422SOL     OW28806   2.205   5.021   1.002 -0.4256 -0.2595  0.5148
 9422SOL    HW128807   2.176   5.106   0.967 -0.4437 -0.3138  0.3988
 9422SOL    HW228808   2.297   5.015   0.978  0.0655  0.5291  2.0521
 9423SOL     OW28809   6.696   2.663   3.606  0.0353 -0.2836 -0.2183
 9423SOL    HW128810   6.650   2.733   3.653 -0.4013 -1.5322  1.3000
 9423SOL    HW228811   6.777   2.649   3.656 -1.0148 -2.4923  1.0460
 9424SOL     OW28812   5.544   1.340   5.063 -0.1558  0.1550 -0.2333
 9424SOL    HW128813   5.451   1.344   5.041  0.2955  1.1037 -2.2284
 9424SOL    HW228814   5.565   1.429   5.092  0.2130  0.0694 -0.2295
 9425SOL     OW28815   1.272   6.597   4.689  0.0852  0.1651 -0.4012
 9425SOL    HW128816   1.296   6.689   4.691 -1.2128  0.5117  0.3300
 9425SOL    HW228817   1.342   6.555   4.638 -0.1499  1.7942 -2.1953
 9426SOL     OW28818   2.328   5.888   7.025  0.3601 -0.0060  0.1308
 9426SOL    HW128819   2.370   5.893   7.111  2.1284 -0.2545 -0.6629
 9426SOL    HW228820   2.335   5.976   6.989  1.4496 -0.3234 -0.5166
 9427SOL     OW28821   0.286   5.117   0.674 -0.8961  0.8309 -0.0724
 9427SOL    HW128822   0.219   5.117   0.743 -0.6623 -0.1530  0.1616
 9427SOL    HW228823   0.331   5.033   0.683  1.3001  2.0152  0.6563
 9428SOL     OW28824   5.142   4.746   2.164 -0.0683  0.0360 -0.2328
 9428SOL    HW128825   5.053   4.712   2.155  0.0173 -0.8733  1.7467
 9428SOL    HW228826   5.185   4.684   2.223  1.2279  1.6038  0.5482
 9429SOL     OW28827   2.530   6.221   7.539 -0.3199 -0.3318  0.5792
 9429SOL    HW128828   2.460   6.241   7.476  1.2055 -0.3011 -1.1893
 9429SOL    HW228829   2.602   6.189   7.485  0.6341 -1.5433  2.4584
 9430SOL     OW28830   6.021   4.417   6.156  0.0118 -0.2474 -0.3559
 9430SOL    HW128831   6.024   4.505   6.195  0.4315 -0.7877  0.8599
 9430SOL    HW228832   5.967   4.366   6.217 -0.9329 -0.6406 -1.4859
 9431SOL     OW28833   0.822   5.890   1.148 -0.1301 -0.3815 -0.0191
 9431SOL    HW128834   0.802   5.946   1.073 -0.7335 -0.1070  0.3386
 9431SOL    HW228835   0.746   5.832   1.156  0.0048 -0.5198  0.2805
 9432SOL     OW28836   2.676   4.273   4.843  0.3359  0.4213 -0.0780
 9432SOL    HW128837   2.626   4.350   4.869  0.3647  0.1032  0.9706
 9432SOL    HW228838   2.654   4.259   4.751 -1.9017 -0.0129  0.4645
 9433SOL     OW28839   3.375   7.462   1.807 -0.1970  0.1819  0.0017
 9433SOL    HW128840   3.325   7.398   1.755  1.1504 -1.0059  0.1000
 9433SOL    HW228841   3.321   7.477   1.884 -0.3871 -1.1608  0.1653
 9434SOL     OW28842   0.241   5.414   7.485 -0.1424 -0.1725 -0.7017
 9434SOL    HW128843   0.333   5.442   7.481 -0.4317  0.8203 -0.6334
 9434SOL    HW228844   0.209   5.450   7.568 -0.7152 -0.1331 -0.9386
 9435SOL     OW28845   1.854   5.664   1.641 -0.5075  0.0573 -0.8068
 9435SOL    HW128846   1.857   5.572   1.666 -0.0761  0.8208  2.4093
 9435SOL    HW228847   1.771   5.696   1.675  0.5774  1.4154  0.7571
 9436SOL     OW28848   7.224   6.065   7.088  0.3170 -0.2131 -0.2402
 9436SOL    HW128849   7.279   6.053   7.166 -0.8151  0.4904  0.7113
 9436SOL    HW228850   7.170   5.987   7.085 -0.7071  0.4285  0.6156
 9437SOL     OW28851   1.708   1.046   4.047  0.6979 -0.0054  0.4064
 9437SOL    HW128852   1.616   1.034   4.071  0.5485  0.2156 -0.0461
 9437SOL    HW228853   1.719   0.994   3.968  0.4555  1.4938 -0.6541
 9438SOL     OW28854   2.384   6.384   5.607 -0.1664  0.0453 -0.3178
 9438SOL    HW128855   2.475   6.358   5.624 -0.6194 -0.7668  0.9437
 9438SOL    HW228856   2.387   6.480   5.605  0.3270  0.1547  2.3172
 9439SOL     OW28857   1.911   5.971   3.096  0.2705  0.5018 -0.3331
 9439SOL    HW128858   1.970   5.988   3.023  0.5227  1.3891  0.0752
 9439SOL    HW228859   1.828   5.947   3.054  0.6286  0.2348 -0.9039
 9440SOL     OW28860   7.407   0.697   3.437  0.3224  0.2205  0.4271
 9440SOL    HW128861   7.441   0.738   3.517  1.3786  0.0615  0.0646
 9440SOL    HW228862   7.478   0.705   3.374  0.2619 -1.4775  0.1188
 9441SOL     OW28863   1.788   4.438   2.767  0.3589 -0.3031 -0.5403
 9441SOL    HW128864   1.704   4.406   2.733  0.2354  0.0934 -0.6153
 9441SOL    HW228865   1.777   4.533   2.773  0.8050 -0.2465 -0.5610
 9442SOL     OW28866   6.939   5.191   0.461  0.1868 -0.0570  0.1321
 9442SOL    HW128867   6.945   5.276   0.418 -2.2435 -0.2537 -0.7411
 9442SOL    HW228868   6.935   5.211   0.555  2.4830  0.5587  0.1518
 9443SOL     OW28869   2.962   4.490   3.145  0.3645  0.0001  0.3888
 9443SOL    HW128870   2.970   4.521   3.236 -0.5481 -0.8601  0.7815
 9443SOL    HW228871   3.036   4.531   3.099  1.2614 -0.1173  1.6743
 9444SOL     OW28872   3.437   1.291   2.372 -0.4235  0.1736  0.4828
 9444SOL    HW128873   3.349   1.251   2.378 -0.1155 -0.5882  0.1076
 9444SOL    HW228874   3.485   1.232   2.315  0.9364 -0.5241  2.2530
 9445SOL     OW28875   3.387   6.208   2.339  0.3565 -0.2169  0.2957
 9445SOL    HW128876   3.369   6.280   2.400  0.1060  0.0857 -0.1293
 9445SOL    HW228877   3.301   6.169   2.322 -0.4914  2.6836 -3.5546
 9446SOL     OW28878   6.845   0.587   6.833  0.1060  0.1508  0.3682
 9446SOL    HW128879   6.939   0.601   6.841 -0.1015  0.7139  2.2534
 9446SOL    HW228880   6.832   0.560   6.741  1.8055  2.3591 -0.6062
 9447SOL     OW28881   2.722   0.855   4.505  0.3995  0.1370 -0.6759
 9447SOL    HW128882   2.716   0.760   4.497  0.7050  0.1444 -1.0215
 9447SOL    HW228883   2.732   0.871   4.599 -0.2236 -0.1356 -0.5613
 9448SOL     OW28884   3.766   0.710   1.171  0.4691 -0.3571 -0.3137
 9448SOL    HW128885   3.682   0.735   1.210  0.2345  1.3716 -1.7993
 9448SOL    HW228886   3.831   0.738   1.235 -0.0463 -0.9988  0.5055
 9449SOL     OW28887   0.750   0.114   5.498 -0.3304  0.7797  0.6188
 9449SOL    HW128888   0.795   0.113   5.582  1.8081  0.3499 -0.4614
 9449SOL    HW228889   0.664   0.075   5.516 -0.0451  1.0053  2.6430
 9450SOL     OW28890   0.694   6.588   1.856  0.2627  0.0547  0.3949
 9450SOL    HW128891   0.765   6.549   1.805 -0.5868 -0.3959 -0.4891
 9450SOL    HW228892   0.617   6.535   1.833 -0.9589  2.2579 -0.9179
 9451SOL     OW28893   6.699   2.959   4.715 -0.0769 -0.2889 -0.1924
 9451SOL    HW128894   6.675   3.050   4.698  3.4390  1.2063  1.6026
 9451SOL    HW228895   6.662   2.940   4.801 -0.4760 -0.4282 -0.3930
 9452SOL     OW28896   4.542   6.430   6.734  0.2365 -0.0572 -0.2799
 9452SOL    HW128897   4.627   6.388   6.751 -0.6024 -2.4163 -1.4555
 9452SOL    HW228898   4.565   6.518   6.703  2.1339  0.1650  1.5215
 9453SOL     OW28899   0.915   6.754   6.661 -0.3270  0.6835  0.3186
 9453SOL    HW128900   0.885   6.798   6.741 -0.1432 -0.7085  1.1969
 9453SOL    HW228901   0.983   6.811   6.626 -0.9237  1.6805  0.7544
 9454SOL     OW28902   4.240   2.073   5.303  0.0587  0.6346  0.3430
 9454SOL    HW128903   4.333   2.063   5.287 -0.1554 -0.0040 -0.6145
 9454SOL    HW228904   4.211   2.139   5.240 -0.5513 -0.9202 -1.0836
 9455SOL     OW28905   7.605   0.269   2.961  0.5739 -0.1137 -0.6137
 9455SOL    HW128906   7.621   0.261   2.867  3.0998  0.5722 -0.3285
 9455SOL    HW228907   7.684   0.232   3.001 -0.3081 -0.0731  1.2413
 9456SOL     OW28908   7.002   3.150   7.283 -0.3133  0.6543  0.0780
 9456SOL    HW128909   6.991   3.058   7.262  2.2731  0.5426 -1.2016
 9456SOL    HW228910   7.085   3.154   7.331 -0.8639  2.2310  0.9994
 9457SOL     OW28911   0.850   6.893   0.848  0.3612  0.2687  1.0547
 9457SOL    HW128912   0.915   6.964   0.854 -0.1381  0.7113  1.2616
 9457SOL    HW228913   0.838   6.880   0.754 -0.3273  1.1914  1.0019
 9458SOL     OW28914   0.690   0.616   6.462 -0.1641 -0.2123  0.5693
 9458SOL    HW128915   0.651   0.540   6.419 -1.8814  0.6510  0.5172
 9458SOL    HW228916   0.647   0.620   6.548 -0.3598  0.8864  0.4334
 9459SOL     OW28917   4.381   7.389   4.662 -0.0172  0.4120 -0.2474
 9459SOL    HW128918   4.296   7.358   4.693  0.4450  0.7936  1.4873
 9459SOL    HW228919   4.396   7.341   4.581 -1.6488 -0.0325 -0.3123
 9460SOL     OW28920   0.386   4.711   6.429  0.1027 -0.1221 -0.1961
 9460SOL    HW128921   0.339   4.690   6.509  0.3790 -0.4840 -0.1241
 9460SOL    HW228922   0.429   4.795   6.447 -0.3595  0.1146 -0.1962
 9461SOL     OW28923   7.372   0.435   0.614 -0.1429 -0.0597  0.3101
 9461SOL    HW128924   7.400   0.525   0.599 -0.2135  0.0255  0.6610
 9461SOL    HW228925   7.372   0.426   0.710  1.8086 -1.0446  0.2691
 9462SOL     OW28926   7.565   1.856   1.300  0.5099 -0.2595 -0.0082
 9462SOL    HW128927   7.520   1.819   1.225  0.1023  1.2378 -0.5375
 9462SOL    HW228928   7.499   1.910   1.344  0.9803 -0.4170  0.9364
 9463SOL     OW28929   5.442   4.241   1.936 -0.0482  0.1850 -0.2922
 9463SOL    HW128930   5.467   4.309   1.998  0.1662 -0.1606  0.0045
 9463SOL    HW228931   5.470   4.274   1.851 -0.6953  0.8397 -0.2622
 9464SOL     OW28932   7.107   4.316   0.290  0.2486 -0.5466 -0.6540
 9464SOL    HW128933   7.173   4.248   0.299 -0.7092 -1.5829 -1.2602
 9464SOL    HW228934   7.077   4.309   0.200  0.8658  1.4018 -1.0795
 9465SOL     OW28935   6.039   1.579   6.207  0.1555  0.3804  0.3227
 9465SOL    HW128936   5.943   1.580   6.209 -0.0283  1.3777 -3.0426
 9465SOL    HW228937   6.061   1.509   6.145  1.5562  1.0674  0.0044
 9466SOL     OW28938   6.236   6.735   6.209 -0.3420  0.1079 -0.1106
 9466SOL    HW128939   6.175   6.685   6.263 -0.8022  0.1411 -0.5907
 9466SOL    HW228940   6.187   6.815   6.185 -0.6199 -0.4810 -1.6081
 9467SOL     OW28941   4.033   0.378   6.214  0.1721  0.0211 -0.1969
 9467SOL    HW128942   3.945   0.418   6.216  0.1213 -0.1011  0.0698
 9467SOL    HW228943   4.091   0.450   6.189  0.1647  0.4388  0.8949
 9468SOL     OW28944   6.297   1.955   2.230  0.1855  0.0172  0.4125
 9468SOL    HW128945   6.286   1.995   2.144  1.2344 -1.1177 -0.2927
 9468SOL    HW228946   6.373   1.898   2.220  1.3266  1.0578  2.5567
 9469SOL     OW28947   6.541   4.267   6.185  0.1520 -1.0221  0.0031
 9469SOL    HW128948   6.550   4.258   6.279  1.3696 -0.6869 -0.0506
 9469SOL    HW228949   6.449   4.251   6.167 -0.6024  1.1906  1.5115
 9470SOL     OW28950   1.892   6.869   1.074  0.1402 -0.2370 -0.1519
 9470SOL    HW128951   1.917   6.950   1.030 -0.7457  0.1131 -0.0379
 9470SOL    HW228952   1.885   6.893   1.166  1.1581 -0.7648  0.0702
 9471SOL     OW28953   0.547   6.875   0.514  0.5932 -0.2828  0.4331
 9471SOL    HW128954   0.549   6.792   0.466 -0.4404 -0.5401  0.7893
 9471SOL    HW228955   0.458   6.908   0.500  1.2030  1.1293 -0.2886
 9472SOL     OW28956   6.461   7.379   2.011  0.6302 -0.6507  0.3574
 9472SOL    HW128957   6.384   7.430   1.987 -0.2214 -1.6996  0.7497
 9472SOL    HW228958   6.481   7.327   1.933 -0.4482 -2.0130  0.9393
 9473SOL     OW28959   3.643   2.735   5.701 -0.6016 -0.4207 -0.5811
 9473SOL    HW128960   3.610   2.662   5.649 -0.5286 -0.4912 -0.5288
 9473SOL    HW228961   3.637   2.811   5.642  1.8190 -0.9203 -1.6135
 9474SOL     OW28962   4.317   2.849   4.547 -0.1039  0.0185  0.0749
 9474SOL    HW128963   4.388   2.797   4.585  0.5219  0.0588 -1.0072
 9474SOL    HW228964   4.333   2.847   4.453 -1.6597 -0.1274 -0.2090
 9475SOL     OW28965   1.404   3.752   6.313  0.2124 -0.2489  0.0508
 9475SOL    HW128966   1.470   3.797   6.261  0.5812  0.1248  0.8196
 9475SOL    HW228967   1.452   3.683   6.358 -0.3072 -1.2773 -0.9271
 9476SOL     OW28968   5.412   7.402   4.226  0.5477 -0.6903  0.3554
 9476SOL    HW128969   5.431   7.429   4.136 -1.1132  0.0063  0.1817
 9476SOL    HW228970   5.481   7.443   4.279  0.6994  0.1013 -0.4379
 9477SOL     OW28971   4.090   1.123   4.117 -0.4293  0.6907  0.2494
 9477SOL    HW128972   4.119   1.086   4.200 -0.2674 -2.1224 -0.9570
 9477SOL    HW228973   4.011   1.075   4.094 -0.2366  1.0864 -1.4201
 9478SOL     OW28974   0.829   3.585   6.952 -0.4133 -0.5385  0.0923
 9478SOL    HW128975   0.910   3.614   6.909 -0.3022 -1.1123 -0.0951
 9478SOL    HW228976   0.777   3.546   6.881 -0.3338 -1.2685  0.4248
 9479SOL     OW28977   4.564   1.451   6.150 -0.2806 -0.1547 -0.4465
 9479SOL    HW128978   4.655   1.431   6.125  0.3004  1.8146 -0.0594
 9479SOL    HW228979   4.525   1.487   6.070 -0.8656 -1.3211 -0.7140
 9480SOL     OW28980   3.796   7.385   6.236  0.2802 -0.4327 -0.1335
 9480SOL    HW128981   3.891   7.388   6.242  0.5631 -2.8416 -2.2213
 9480SOL    HW228982   3.768   7.350   6.320  1.1923  0.2450  0.4803
 9481SOL     OW28983   0.266   7.569   5.506  0.0443 -0.6664  0.0809
 9481SOL    HW128984   0.304   7.506   5.445 -0.1239  0.5297 -1.3210
 9481SOL    HW228985   0.340   7.618   5.540 -0.0360  0.2473 -1.0173
 9482SOL     OW28986   1.177   0.323   1.018 -0.5048  0.2235  0.6639
 9482SOL    HW128987   1.195   0.378   0.943  0.5302 -0.2497  0.5484
 9482SOL    HW228988   1.191   0.379   1.094  0.1637  0.2258  0.5399
 9483SOL     OW28989   5.474   4.576   2.648 -0.2346  0.6856 -0.1371
 9483SOL    HW128990   5.421   4.640   2.601  0.5535  0.4742 -1.3815
 9483SOL    HW228991   5.417   4.500   2.660 -1.0071  1.4068  0.8840
 9484SOL     OW28992   4.666   1.948   1.613 -0.1612  0.2596 -0.2164
 9484SOL    HW128993   4.724   1.960   1.538  0.1841 -1.0927 -0.1878
 9484SOL    HW228994   4.599   2.016   1.602  0.0942  0.3261 -1.5330
 9485SOL     OW28995   0.969   5.963   1.855  0.1528 -0.6826  0.3620
 9485SOL    HW128996   0.937   5.972   1.765  2.1642  0.2383 -0.3243
 9485SOL    HW228997   0.893   5.982   1.910 -0.5392  1.2350 -1.1554
 9486SOL     OW28998   3.738   2.200   5.153  0.7684 -0.0516  0.6011
 9486SOL    HW128999   3.757   2.171   5.064 -0.2448  3.7060 -1.0594
 9486SOL    HW229000   3.643   2.195   5.161  0.8255 -0.1023  1.3708
 9487SOL     OW29001   3.945   3.780   6.023  0.6332  0.0545 -0.2099
 9487SOL    HW129002   3.881   3.788   6.095  0.6393  1.0722 -0.2941
 9487SOL    HW229003   3.994   3.701   6.042  2.0741  1.3863  2.1096
 9488SOL     OW29004   3.165   5.984   4.008 -0.6014  0.3535 -0.0047
 9488SOL    HW129005   3.192   6.076   4.003  0.5859  0.1317  1.4583
 9488SOL    HW229006   3.191   5.957   4.096 -0.4367 -1.5429 -0.5978
 9489SOL     OW29007   2.706   2.196   3.198 -0.1680  0.5698 -0.0639
 9489SOL    HW129008   2.777   2.143   3.233 -2.7628 -2.0609  1.6326
 9489SOL    HW229009   2.741   2.286   3.199  2.9391 -0.5189  0.9629
 9490SOL     OW29010   5.567   6.543   7.459 -0.8907 -0.2444 -0.7958
 9490SOL    HW129011   5.529   6.506   7.379 -0.7734  0.3051 -1.1069
 9490SOL    HW229012   5.550   6.637   7.454 -0.4965 -0.1437 -0.3904
 9491SOL     OW29013   5.402   3.416   0.525 -0.1317  0.4447  0.2121
 9491SOL    HW129014   5.396   3.390   0.434  0.5188 -0.9025  0.5302
 9491SOL    HW229015   5.493   3.445   0.537  0.0648 -0.3310  0.6574
 9492SOL     OW29016   5.851   2.329   5.002  0.0462 -0.2688 -0.0672
 9492SOL    HW129017   5.872   2.422   5.003  0.8222 -0.3691  3.4424
 9492SOL    HW229018   5.897   2.296   4.924  2.9730  1.6489  0.6855
 9493SOL     OW29019   2.335   1.025   2.799 -0.9155  0.1535  0.0006
 9493SOL    HW129020   2.364   1.106   2.840 -0.9904  0.9588 -1.4556
 9493SOL    HW229021   2.296   0.975   2.870  1.1140  0.4119  1.3762
 9494SOL     OW29022   4.921   6.616   2.858 -0.3148  0.0181 -0.0712
 9494SOL    HW129023   4.996   6.587   2.805  0.0661  0.6139  0.1278
 9494SOL    HW229024   4.906   6.545   2.919 -0.9492 -0.8142 -1.1600
 9495SOL     OW29025   5.982   7.610   0.920  0.1146 -0.2504  0.9803
 9495SOL    HW129026   6.029   7.529   0.938 -1.1937 -1.1249  0.5714
 9495SOL    HW229027   6.033   7.651   0.850 -0.4215 -1.8441 -0.4188
 9496SOL     OW29028   4.871   4.553   7.555 -0.1063 -0.1059 -0.5883
 9496SOL    HW129029   4.804   4.488   7.534 -1.0908  1.1341 -1.3739
 9496SOL    HW229030   4.906   4.580   7.470  1.3448 -0.6617 -0.1979
 9497SOL     OW29031   5.504   1.787   2.614 -0.3191 -0.4509  0.5276
 9497SOL    HW129032   5.479   1.857   2.675 -1.0583  1.0142 -1.3876
 9497SOL    HW229033   5.567   1.735   2.664  1.1122  2.1892  1.7116
 9498SOL     OW29034   4.793   4.234   7.052  0.2053 -0.6506  0.3326
 9498SOL    HW129035   4.874   4.250   7.004 -0.2352  2.0084  0.3472
 9498SOL    HW229036   4.820   4.209   7.140  1.0535  0.8600  0.5290
 9499SOL     OW29037   5.644   1.388   4.832 -0.0446  0.0544  0.7995
 9499SOL    HW129038   5.621   1.351   4.917  3.0546 -0.6438  1.4373
 9499SOL    HW229039   5.710   1.455   4.850 -1.2708  1.8433 -0.8773
 9500SOL     OW29040   5.141   2.027   1.872 -0.0953  0.0892  0.0725
 9500SOL    HW129041   5.069   2.086   1.848  0.9839  1.3463 -0.1200
 9500SOL    HW229042   5.164   2.053   1.961 -0.4516 -0.9264  0.4808
 9501SOL     OW29043   4.333   7.202   4.185  0.6078 -0.0067 -0.4459
 9501SOL    HW129044   4.341   7.144   4.109 -0.7361 -0.6795 -0.0870
 9501SOL    HW229045   4.241   7.198   4.210  0.2808  2.8190 -0.8184
 9502SOL     OW29046   4.655   7.464   2.806  0.5014  0.0835 -0.8572
 9502SOL    HW129047   4.664   7.535   2.870 -0.5269 -0.5799  0.0508
 9502SOL    HW229048   4.742   7.425   2.803  0.9633  1.0892 -1.0283
 9503SOL     OW29049   6.427   4.793   3.459  0.3692  0.1529  0.2161
 9503SOL    HW129050   6.443   4.854   3.530 -0.0676  1.2602 -0.6109
 9503SOL    HW229051   6.487   4.821   3.389 -0.6254  0.3482 -0.5784
 9504SOL     OW29052   4.089   2.612   3.489 -0.3645 -0.4071 -0.4082
 9504SOL    HW129053   4.054   2.658   3.566 -0.8687 -2.8841  0.9692
 9504SOL    HW229054   4.037   2.531   3.485  1.2394 -1.4204 -1.9594
 9505SOL     OW29055   6.614   3.561   3.891  0.1008 -0.4381 -0.6159
 9505SOL    HW129056   6.534   3.610   3.905 -1.6841 -2.5761 -2.4720
 9505SOL    HW229057   6.649   3.545   3.978 -0.9873  1.2682  0.1777
 9506SOL     OW29058   2.672   4.835   0.514  1.3201 -0.1580  0.1959
 9506SOL    HW129059   2.694   4.786   0.593  1.0456 -1.0304 -0.2569
 9506SOL    HW229060   2.619   4.774   0.462 -0.4382  1.1674  0.3371
 9507SOL     OW29061   3.331   6.129   6.960  0.1762 -0.2945  0.3439
 9507SOL    HW129062   3.292   6.212   6.933 -0.3568 -0.0002  1.9213
 9507SOL    HW229063   3.381   6.100   6.884 -1.7120  0.1698 -1.1554
 9508SOL     OW29064   5.486   2.592   1.404 -0.3274 -0.5559  0.2253
 9508SOL    HW129065   5.581   2.583   1.409 -0.3181 -0.7468 -0.2117
 9508SOL    HW229066   5.463   2.643   1.482  0.0214 -1.3158  0.8415
 9509SOL     OW29067   3.370   3.683   0.243 -0.3129  0.0186  0.2350
 9509SOL    HW129068   3.294   3.700   0.187 -0.0010 -3.2764 -1.4440
 9509SOL    HW229069   3.425   3.761   0.232 -1.7188  0.8413 -1.5365
 9510SOL     OW29070   6.870   3.817   3.262  0.2301 -0.4311 -0.1492
 9510SOL    HW129071   6.892   3.741   3.318  0.6217 -1.2461 -1.3760
 9510SOL    HW229072   6.803   3.784   3.203 -1.3454  0.8743  0.8164
 9511SOL     OW29073   2.643   6.531   1.026  0.4488  0.3780 -0.4555
 9511SOL    HW129074   2.654   6.436   1.014 -0.1435  0.3024 -0.4236
 9511SOL    HW229075   2.732   6.566   1.021  0.7476 -0.2551  0.2407
 9512SOL     OW29076   1.665   3.318   6.332 -0.1955  0.4612 -0.5661
 9512SOL    HW129077   1.643   3.276   6.248 -0.2192  0.6284 -0.6438
 9512SOL    HW229078   1.719   3.393   6.307  0.0295  0.3517 -0.4104
 9513SOL     OW29079   7.445   1.065   4.284  0.1385  0.2534  0.2949
 9513SOL    HW129080   7.351   1.050   4.282  0.0415  0.8663 -0.7506
 9513SOL    HW229081   7.472   1.062   4.192  1.2650 -0.6031  0.6275
 9514SOL     OW29082   3.128   1.146   1.471  0.2658  0.5430  0.2559
 9514SOL    HW129083   3.216   1.164   1.504  0.2465  2.1715 -0.4768
 9514SOL    HW229084   3.134   1.164   1.377 -0.9608  1.1537  0.2732
 9515SOL     OW29085   1.065   6.652   3.274 -0.3532  0.5605  0.1658
 9515SOL    HW129086   1.055   6.560   3.298  1.4728 -0.5875 -2.8931
 9515SOL    HW229087   0.982   6.675   3.232 -0.9328  0.4661  1.2243
 9516SOL     OW29088   6.212   2.718   2.621  0.2313  0.4094  0.3676
 9516SOL    HW129089   6.215   2.622   2.610 -1.7649  0.1728  1.5163
 9516SOL    HW229090   6.214   2.731   2.716  1.7524  1.6089  0.2059
 9517SOL     OW29091   2.438   6.179   5.303 -0.0476  0.5192  0.4180
 9517SOL    HW129092   2.403   6.159   5.217  0.5751 -1.0709  0.4923
 9517SOL    HW229093   2.368   6.226   5.348  0.0355  2.4086 -1.3039
 9518SOL     OW29094   5.388   3.604   2.245 -1.1122  0.4834 -0.1886
 9518SOL    HW129095   5.484   3.605   2.236 -1.1018 -0.9593 -0.4242
 9518SOL    HW229096   5.373   3.577   2.336 -1.2986  0.6680 -0.1642
 9519SOL     OW29097   2.835   5.867   5.235 -0.1770  0.4135 -0.7076
 9519SOL    HW129098   2.779   5.857   5.157 -1.1172 -0.9837  0.1093
 9519SOL    HW229099   2.823   5.958   5.261 -0.8491  0.5517 -1.4476
 9520SOL     OW29100   1.028   7.099   5.446 -0.2077  0.3616  0.3038
 9520SOL    HW129101   1.046   7.175   5.501  0.3154 -0.6691  1.6362
 9520SOL    HW229102   0.954   7.125   5.392  1.7561  2.8374 -1.4173
 9521SOL     OW29103   1.287   0.385   3.122 -0.3938  0.7502 -0.1586
 9521SOL    HW129104   1.209   0.363   3.173 -1.9074  0.3168 -2.5076
 9521SOL    HW229105   1.339   0.440   3.181 -1.2702 -0.8953  2.3454
 9522SOL     OW29106   3.987   0.504   4.555 -0.1442  0.1033 -0.3414
 9522SOL    HW129107   3.920   0.510   4.487 -0.0093  2.6596 -0.3538
 9522SOL    HW229108   4.070   0.511   4.507  0.0077  0.2969 -0.0532
 9523SOL     OW29109   2.149   3.803   4.909  0.3260  0.0686  0.1572
 9523SOL    HW129110   2.198   3.745   4.967 -0.3337  1.2550  2.0035
 9523SOL    HW229111   2.214   3.834   4.846  1.9809  1.4153  2.3719
 9524SOL     OW29112   4.120   5.689   3.394  0.7269 -0.5917  0.2654
 9524SOL    HW129113   4.171   5.663   3.318  1.2356 -2.7961  1.2707
 9524SOL    HW229114   4.120   5.784   3.392  1.2768 -0.5828 -2.0977
 9525SOL     OW29115   5.762   7.191   5.109 -0.0636 -0.1595  0.2054
 9525SOL    HW129116   5.719   7.164   5.029 -0.3531 -0.4872  0.4667
 9525SOL    HW229117   5.786   7.282   5.095  1.0872 -0.5795 -0.7721
 9526SOL     OW29118   1.210   0.350   7.115 -0.6297 -0.6392 -0.6862
 9526SOL    HW129119   1.137   0.326   7.172 -0.8009 -0.2233 -0.7265
 9526SOL    HW229120   1.212   0.280   7.049  0.0962 -1.5714  0.2859
 9527SOL     OW29121   3.809   2.899   4.923  0.2074  0.4167 -0.2238
 9527SOL    HW129122   3.731   2.955   4.921 -0.5200 -0.5846 -0.5187
 9527SOL    HW229123   3.775   2.810   4.922  1.3455 -0.0523  0.6499
 9528SOL     OW29124   3.272   4.839   0.050  0.0968 -0.8560  0.0519
 9528SOL    HW129125   3.259   4.780   0.124 -0.3319 -0.0328  0.6573
 9528SOL    HW229126   3.295   4.782  -0.023 -0.4849 -1.7824  0.5737
 9529SOL     OW29127   6.321   3.004   4.383  0.0086 -0.0936 -0.4743
 9529SOL    HW129128   6.359   2.945   4.318  0.8918 -1.2807  1.0578
 9529SOL    HW229129   6.349   3.091   4.354  2.2160 -0.7581 -0.5602
 9530SOL     OW29130   5.340   3.486   4.056  0.1608 -0.4346 -0.2437
 9530SOL    HW129131   5.382   3.413   4.102  2.0297  0.6517 -0.1294
 9530SOL    HW229132   5.340   3.558   4.119 -1.3180 -0.2097 -0.4758
 9531SOL     OW29133   4.330   4.491   0.038 -0.2009  0.1780  0.4048
 9531SOL    HW129134   4.405   4.432   0.037  0.7163  1.2741 -1.2820
 9531SOL    HW229135   4.254   4.435   0.024  0.7146 -0.5874 -1.9912
 9532SOL     OW29136   5.435   4.718   2.997  0.0420  0.3396  0.0202
 9532SOL    HW129137   5.462   4.710   2.905 -0.5861  0.4010 -0.1734
 9532SOL    HW229138   5.503   4.773   3.036  0.5139  0.0064 -0.3199
 9533SOL     OW29139   6.576   1.448   4.247  0.0143  0.1816 -0.0571
 9533SOL    HW129140   6.563   1.490   4.161  0.4150  0.5328  0.0478
 9533SOL    HW229141   6.671   1.434   4.252 -0.1258 -0.8195 -0.1213
 9534SOL     OW29142   3.878   7.435   3.447  0.1422  0.8178  0.2439
 9534SOL    HW129143   3.821   7.494   3.496  1.6823  1.8058  0.9110
 9534SOL    HW229144   3.939   7.493   3.401  0.7395 -0.2111 -0.2939
 9535SOL     OW29145   0.983   2.968   6.703  0.1092 -0.7259  0.1599
 9535SOL    HW129146   0.941   2.918   6.773  1.4737 -2.2751 -0.0760
 9535SOL    HW229147   0.915   3.029   6.673 -0.3607  0.3949  3.1759
 9536SOL     OW29148   1.805   4.363   7.105  0.3218  0.0744 -0.2527
 9536SOL    HW129149   1.896   4.378   7.079  0.6028  0.4828  0.9069
 9536SOL    HW229150   1.811   4.306   7.182 -0.2853  1.6822  1.0360
 9537SOL     OW29151   2.528   7.451   6.665  0.1863 -0.2999  0.2787
 9537SOL    HW129152   2.470   7.527   6.672  0.7355  0.1691 -0.1133
 9537SOL    HW229153   2.474   7.383   6.623 -0.4668 -0.3067  1.1110
 9538SOL     OW29154   3.205   7.042   4.870  0.1149 -0.1721 -0.0741
 9538SOL    HW129155   3.295   7.070   4.888  0.3134  0.3031 -1.6322
 9538SOL    HW229156   3.213   6.950   4.846  0.2634  0.0055 -0.7189
 9539SOL     OW29157   0.548   6.158   3.906  0.0135  0.0408 -0.3493
 9539SOL    HW129158   0.494   6.235   3.925 -0.7182 -0.7481  0.9232
 9539SOL    HW229159   0.490   6.084   3.922  1.7124 -0.8913  2.2668
 9540SOL     OW29160   2.539   7.396   5.773  0.5086  0.2282 -1.2060
 9540SOL    HW129161   2.478   7.361   5.838  3.6250 -1.6835  0.9628
 9540SOL    HW229162   2.490   7.395   5.691 -2.6389 -0.2109  0.5258
 9541SOL     OW29163   4.111   3.227   5.117  0.2566  1.2591 -0.2671
 9541SOL    HW129164   4.030   3.181   5.093  0.5173  0.9376 -0.5375
 9541SOL    HW229165   4.111   3.305   5.061  0.5646  0.8154 -0.8988
 9542SOL     OW29166   4.051   6.510   5.281  0.0077  0.4582  0.6400
 9542SOL    HW129167   4.012   6.570   5.345  1.6777  0.9297  1.2587
 9542SOL    HW229168   4.128   6.557   5.248 -0.3513 -0.1282 -1.1130
 9543SOL     OW29169   0.875   0.258   1.126 -0.4557 -0.2048  0.0461
 9543SOL    HW129170   0.939   0.259   1.056 -0.5778 -0.2961 -0.0662
 9543SOL    HW229171   0.927   0.259   1.207 -0.3170  0.8382 -0.0381
 9544SOL     OW29172   6.568   5.090   0.815  0.0611  0.1749 -0.0472
 9544SOL    HW129173   6.522   5.048   0.887  1.0519  0.9991  1.1134
 9544SOL    HW229174   6.653   5.046   0.812 -0.7469 -1.4365 -2.2562
 9545SOL     OW29175   7.533   7.048   6.117  0.0694  0.4075  0.2985
 9545SOL    HW129176   7.578   6.980   6.167  0.6253  0.0062 -0.7049
 9545SOL    HW229177   7.554   7.028   6.025  1.2582  2.6274  0.0159
 9546SOL     OW29178   0.559   2.419   0.555  0.1915  0.2155 -0.3070
 9546SOL    HW129179   0.504   2.348   0.588  0.9030  0.8263  2.4962
 9546SOL    HW229180   0.622   2.377   0.498 -0.6989 -1.0882 -0.3598
 9547SOL     OW29181   3.342   3.525   2.330 -0.2465 -0.4828  0.1528
 9547SOL    HW129182   3.329   3.431   2.317  0.3717 -0.6062  0.4269
 9547SOL    HW229183   3.436   3.537   2.325 -0.3302  0.1424  0.0216
 9548SOL     OW29184   3.834   1.637   0.943 -0.0203  0.2927  0.2477
 9548SOL    HW129185   3.775   1.711   0.933 -0.4428 -0.0138  0.4576
 9548SOL    HW229186   3.916   1.666   0.903 -0.7312  0.2189 -1.3316
 9549SOL     OW29187   6.175   5.593   3.972  0.6332 -0.2622  0.4456
 9549SOL    HW129188   6.125   5.521   3.934  0.0808 -0.5958  1.7580
 9549SOL    HW229189   6.211   5.640   3.896 -0.8434 -0.5934 -0.5077
 9550SOL     OW29190   3.284   1.566   7.289  0.0807  0.3257 -0.0140
 9550SOL    HW129191   3.282   1.595   7.380  0.2621  0.2419  0.0170
 9550SOL    HW229192   3.322   1.640   7.241  0.8263  0.0327  0.1084
 9551SOL     OW29193   2.699   1.039   5.981 -0.3219 -0.6289  0.5141
 9551SOL    HW129194   2.639   1.025   6.055  0.0047 -1.4192  0.6380
 9551SOL    HW229195   2.738   0.954   5.965 -0.2554 -0.4251 -0.4719
 9552SOL     OW29196   2.553   4.483   2.815 -0.1571 -0.0488  0.2853
 9552SOL    HW129197   2.558   4.473   2.910 -0.3113 -0.5350  0.2454
 9552SOL    HW229198   2.509   4.567   2.802  0.9485  0.6015  0.6398
 9553SOL     OW29199   7.515   4.940   1.419 -0.2640 -0.9864 -0.3100
 9553SOL    HW129200   7.466   4.907   1.344  0.0112 -0.1840 -0.8547
 9553SOL    HW229201   7.491   4.882   1.491 -1.3426 -1.1254 -0.7693
 9554SOL     OW29202   1.337   3.584   3.051  0.0425  0.1247 -0.1765
 9554SOL    HW129203   1.383   3.661   3.084  2.8041 -0.1834 -2.8485
 9554SOL    HW229204   1.401   3.513   3.056 -0.7899 -0.8553 -2.1650
 9555SOL     OW29205   3.378   6.502   6.249 -0.7395 -0.1362  0.7784
 9555SOL    HW129206   3.336   6.426   6.290  0.1974 -1.1247 -0.0469
 9555SOL    HW229207   3.467   6.473   6.229 -1.0946  0.3231 -1.8002
 9556SOL     OW29208   4.888   4.760   3.502 -0.1517 -0.4742  0.1399
 9556SOL    HW129209   4.872   4.724   3.415  0.7221  1.0595 -0.7168
 9556SOL    HW229210   4.940   4.839   3.486  1.5515 -1.0756  2.1741
 9557SOL     OW29211   4.483   2.790   4.875 -0.0104  0.0915  0.7155
 9557SOL    HW129212   4.466   2.789   4.969 -0.7918 -0.6990  0.5871
 9557SOL    HW229213   4.432   2.716   4.841 -1.2360  1.4622 -0.5833
 9558SOL     OW29214   3.226   1.800   5.364  0.0289 -0.2101 -0.0877
 9558SOL    HW129215   3.164   1.727   5.356 -0.9315  0.3146  1.9396
 9558SOL    HW229216   3.298   1.764   5.415 -0.4554  0.2144  0.9327
 9559SOL     OW29217   0.920   5.895   4.684  0.2480 -0.4892  0.1187
 9559SOL    HW129218   0.983   5.841   4.731  0.4265 -0.5588 -0.1962
 9559SOL    HW229219   0.937   5.876   4.591  1.7157  1.6254 -0.1147
 9560SOL     OW29220   0.688   1.199   4.745  0.1209  0.4532 -0.4358
 9560SOL    HW129221   0.592   1.201   4.738  0.0083 -1.5615 -0.0552
 9560SOL    HW229222   0.711   1.283   4.784 -1.5541  0.7558 -0.0310
 9561SOL     OW29223   2.665   6.516   5.239  0.6097  0.3815 -0.2198
 9561SOL    HW129224   2.673   6.465   5.320 -1.7321  1.2751  0.6886
 9561SOL    HW229225   2.605   6.464   5.185  3.6099 -1.1612 -2.3150
 9562SOL     OW29226   3.524   6.902   2.860 -0.1484 -0.3217 -0.0694
 9562SOL    HW129227   3.562   6.856   2.935  1.5422  1.7706  0.4361
 9562SOL    HW229228   3.598   6.917   2.801 -0.2203  3.0369  0.5089
 9563SOL     OW29229   4.359   3.946   2.695 -0.1143  0.6487  0.3533
 9563SOL    HW129230   4.451   3.943   2.718 -0.2922  0.1957  1.0299
 9563SOL    HW229231   4.358   3.938   2.599  0.5477  0.7049  0.3423
 9564SOL     OW29232   6.457   7.603   5.151  0.1501  0.1879  0.5841
 9564SOL    HW129233   6.511   7.679   5.172 -2.3546  2.1906  0.1655
 9564SOL    HW229234   6.517   7.544   5.104  2.2009  1.7978  1.0193
 9565SOL     OW29235   6.934   4.969   6.847 -0.2585  0.1805  0.1817
 9565SOL    HW129236   6.931   4.881   6.811  1.9258 -0.6938  1.9083
 9565SOL    HW229237   6.921   5.026   6.772  0.8132 -1.5932 -1.4432
 9566SOL     OW29238   3.753   5.062   1.303 -0.1684  0.0587 -0.0376
 9566SOL    HW129239   3.736   4.996   1.371  0.6446 -1.1614 -0.9788
 9566SOL    HW229240   3.669   5.105   1.290  0.0211  1.7478  3.1154
 9567SOL     OW29241   2.574   3.025   1.675  0.1078 -0.1544  0.0199
 9567SOL    HW129242   2.590   3.058   1.763  0.4075  0.7695 -0.3717
 9567SOL    HW229243   2.657   3.038   1.629  0.7794 -2.9227  0.2654
 9568SOL     OW29244   4.731   4.110   0.886 -0.7562 -0.0661 -0.0592
 9568SOL    HW129245   4.782   4.048   0.938 -1.4112 -0.5587 -0.0007
 9568SOL    HW229246   4.697   4.059   0.814  2.4311  1.1396 -2.6746
 9569SOL     OW29247   1.005   5.251   0.621  0.0835 -0.2392 -0.1292
 9569SOL    HW129248   0.992   5.163   0.657 -0.9108  0.5038  1.4357
 9569SOL    HW229249   1.010   5.308   0.698 -1.1603  1.3178 -1.1284
 9570SOL     OW29250   0.042   5.211   2.164 -0.0905 -0.2694  0.3014
 9570SOL    HW129251   0.073   5.267   2.093 -0.7374  0.0885  0.2973
 9570SOL    HW229252   0.020   5.272   2.235 -0.2652 -0.5567  0.4962
 9571SOL     OW29253   6.839   6.174   3.423  0.1399 -0.5447 -0.1619
 9571SOL    HW129254   6.929   6.152   3.399  0.6398  0.5004  0.6858
 9571SOL    HW229255   6.801   6.090   3.450  1.9884 -0.5537  2.9049
 9572SOL     OW29256   5.698   4.709   5.651  0.0656  0.0734 -1.0720
 9572SOL    HW129257   5.606   4.728   5.634 -0.3537 -1.8338 -1.1849
 9572SOL    HW229258   5.730   4.671   5.570  0.8777  0.4597 -0.9355
 9573SOL     OW29259   2.591   0.486   2.630 -0.0960  0.8205 -0.1297
 9573SOL    HW129260   2.652   0.423   2.592  1.5773  1.6117  1.0867
 9573SOL    HW229261   2.517   0.433   2.660  0.7834 -0.4233 -0.0842
 9574SOL     OW29262   7.367   7.471   0.241 -0.2324 -0.6096  0.0061
 9574SOL    HW129263   7.390   7.528   0.314 -1.6030  0.6613 -0.5082
 9574SOL    HW229264   7.365   7.383   0.279  1.1082 -0.2546  1.0035
 9575SOL     OW29265   1.356   5.088   7.064  0.1459  0.5391  0.6207
 9575SOL    HW129266   1.322   5.067   6.977  0.7341 -2.0480  0.9544
 9575SOL    HW229267   1.410   5.166   7.051 -0.1642  0.4768 -1.2186
 9576SOL     OW29268   2.367   2.093   1.323 -0.4460 -0.1363  1.3447
 9576SOL    HW129269   2.432   2.086   1.253  0.0476 -1.0956  1.8752
 9576SOL    HW229270   2.318   2.011   1.318 -2.9639  1.3488 -0.2988
 9577SOL     OW29271   1.081   7.214   6.438  0.1753 -0.0592  0.4656
 9577SOL    HW129272   1.142   7.233   6.367 -0.3756  1.8857  0.4489
 9577SOL    HW229273   1.012   7.161   6.398  0.2281  0.4286 -0.2759
 9578SOL     OW29274   7.003   5.381   2.396 -0.3124 -0.3178 -0.7538
 9578SOL    HW129275   7.050   5.405   2.476  1.0409 -3.1545 -0.5841
 9578SOL    HW229276   6.911   5.383   2.422  0.1071 -1.6792  1.1243
 9579SOL     OW29277   1.262   2.892   1.647  0.7172 -0.3069 -0.6040
 9579SOL    HW129278   1.285   2.806   1.612  2.1056  0.2582 -1.1584
 9579SOL    HW229279   1.303   2.954   1.586 -1.4835  0.7862 -1.0573
 9580SOL     OW29280   0.428   3.735   0.364  0.2782 -0.1021  0.2353
 9580SOL    HW129281   0.381   3.802   0.413  1.0232 -0.3140  1.2803
 9580SOL    HW229282   0.510   3.777   0.338  0.3619 -0.3303  0.1290
 9581SOL     OW29283   0.107   5.765   5.128 -0.2068  0.1546  0.3716
 9581SOL    HW129284   0.078   5.674   5.131 -1.1177  0.4538  2.3690
 9581SOL    HW229285   0.043   5.812   5.181  0.2429  1.9764 -0.6349
 9582SOL     OW29286   2.041   4.746   5.128 -0.3871 -0.0948  0.1622
 9582SOL    HW129287   2.089   4.665   5.111 -0.2319  0.0644 -0.1688
 9582SOL    HW229288   1.966   4.720   5.181 -0.3208 -0.4504  0.0788
 9583SOL     OW29289   4.324   2.846   1.861  0.6572 -0.2884 -0.0001
 9583SOL    HW129290   4.242   2.843   1.910 -0.3091 -1.3296 -1.5912
 9583SOL    HW229291   4.344   2.939   1.851  0.1165 -0.0410  1.1065
 9584SOL     OW29292   1.077   3.499   0.691  0.3269  0.1864 -0.1056
 9584SOL    HW129293   1.134   3.471   0.619  0.4872 -1.6090  0.6642
 9584SOL    HW229294   1.064   3.420   0.743 -0.6827  1.1928  1.2401
 9585SOL     OW29295   2.024   1.600   0.207 -0.3296  0.0990 -0.2669
 9585SOL    HW129296   2.033   1.676   0.264 -1.6123  1.3028 -1.5927
 9585SOL    HW229297   1.933   1.572   0.217  0.2295 -1.5961  0.5404
 9586SOL     OW29298   5.885   4.856   4.537  0.4658 -0.0830  0.7510
 9586SOL    HW129299   5.974   4.864   4.571  2.3748 -1.7673 -3.1618
 9586SOL    HW229300   5.865   4.944   4.502  1.2358 -0.0289  0.4152
 9587SOL     OW29301   5.943   2.192   0.687 -0.4226 -0.2228  0.0577
 9587SOL    HW129302   5.916   2.193   0.595 -0.6279 -0.4981  0.1150
 9587SOL    HW229303   5.895   2.120   0.726 -1.3823  0.7422  0.7093
 9588SOL     OW29304   0.885   0.265   5.323 -0.1586  0.2117 -0.0551
 9588SOL    HW129305   0.838   0.223   5.395 -0.5476  1.6834  0.5867
 9588SOL    HW229306   0.901   0.194   5.260 -0.5466 -0.9304  1.0906
 9589SOL     OW29307   7.257   0.472   3.845  0.4884  0.4075  0.8729
 9589SOL    HW129308   7.259   0.559   3.885 -0.4284  1.0314 -0.3731
 9589SOL    HW229309   7.267   0.489   3.751 -0.4999 -0.7737  0.5364
 9590SOL     OW29310   4.526   3.269   1.338  0.0204  0.2174 -0.4346
 9590SOL    HW129311   4.538   3.275   1.243  0.8689 -0.4839 -0.3797
 9590SOL    HW229312   4.615   3.265   1.373 -0.1951  2.5249  0.5539
 9591SOL     OW29313   1.828   0.139   4.710 -0.1521 -0.3911 -0.5614
 9591SOL    HW129314   1.791   0.062   4.667  1.0314 -0.8885 -0.7535
 9591SOL    HW229315   1.846   0.110   4.799 -0.0956 -0.2127 -0.5140
 9592SOL     OW29316   0.089   3.139   2.287 -0.0997  0.7713  0.1927
 9592SOL    HW129317   0.025   3.106   2.223  0.1044  0.4787  0.1370
 9592SOL    HW229318   0.043   3.210   2.332 -1.2659 -0.8885  1.7127
 9593SOL     OW29319   1.495   5.961   7.414 -0.2809  0.2588  0.4768
 9593SOL    HW129320   1.521   5.878   7.375 -0.4226  0.9408 -1.1182
 9593SOL    HW229321   1.451   5.936   7.496 -0.3315 -1.2283  0.0167
 9594SOL     OW29322   1.403   0.348   6.254 -0.4737  0.0148  0.4639
 9594SOL    HW129323   1.491   0.321   6.280 -1.8725 -3.5903  2.1497
 9594SOL    HW229324   1.391   0.434   6.295  1.9941  0.3304  0.6840
 9595SOL     OW29325   7.153   7.023   3.255  0.1078  0.3457  0.3696
 9595SOL    HW129326   7.152   7.025   3.159  1.6669 -3.7198  0.0587
 9595SOL    HW229327   7.061   7.015   3.279 -0.2439  0.3652 -0.8682
 9596SOL     OW29328   7.246   2.867   7.568  0.1229 -0.1461  0.6870
 9596SOL    HW129329   7.254   2.771   7.570  2.2242 -0.0405 -0.0142
 9596SOL    HW229330   7.153   2.883   7.585 -0.0349 -2.2307  2.3352
 9597SOL     OW29331   6.310   2.959   0.580 -0.0400  0.0865  0.3037
 9597SOL    HW129332   6.327   2.865   0.586 -0.5643  0.0722  2.0471
 9597SOL    HW229333   6.217   2.966   0.559  0.4036  0.2454 -1.8999
 9598SOL     OW29334   1.484   1.473   0.141  0.4895 -0.0369 -0.1259
 9598SOL    HW129335   1.450   1.390   0.173  1.2650 -0.4753 -0.4125
 9598SOL    HW229336   1.461   1.536   0.209  0.0367 -0.5105  0.1689
 9599SOL     OW29337   4.471   6.030   4.866 -0.1751 -0.3707 -0.6397
 9599SOL    HW129338   4.469   6.126   4.864  0.7439 -0.3404 -0.4805
 9599SOL    HW229339   4.539   6.009   4.930 -1.6162 -1.1416  0.7129
 9600SOL     OW29340   6.584   4.495   0.047 -0.3126  0.2052 -0.1281
 9600SOL    HW129341   6.506   4.456   0.086  1.0762 -1.5134  1.1583
 9600SOL    HW229342   6.644   4.505   0.121  1.4422 -0.5496 -1.3895
 9601SOL     OW29343   0.387   0.816   4.726 -0.4117 -0.1206 -0.3480
 9601SOL    HW129344   0.449   0.882   4.755  2.3556 -1.9193 -1.6671
 9601SOL    HW229345   0.356   0.774   4.807  2.4575 -1.0755  0.3893
 9602SOL     OW29346   2.124   2.865   5.787 -0.1802  0.1462 -0.0816
 9602SOL    HW129347   2.089   2.954   5.797  0.3439  0.3905 -0.4021
 9602SOL    HW229348   2.083   2.815   5.858 -0.8696  0.5215 -0.2059
 9603SOL     OW29349   7.080   5.969   0.608 -0.1911 -0.0788  0.7203
 9603SOL    HW129350   7.038   5.989   0.525 -1.3096  0.6561  1.4351
 9603SOL    HW229351   7.145   5.902   0.587  1.2599  1.7909 -1.1517
 9604SOL     OW29352   6.316   4.505   4.263  0.0993  0.2684  0.1024
 9604SOL    HW129353   6.376   4.537   4.196 -1.2483  2.0471 -0.3345
 9604SOL    HW229354   6.229   4.511   4.222 -0.4005 -2.9262  0.4404
 9605SOL     OW29355   2.452   3.850   3.775 -0.3764 -0.1798  0.4026
 9605SOL    HW129356   2.497   3.889   3.851 -0.9300 -0.2840  0.7868
 9605SOL    HW229357   2.423   3.925   3.723  0.1506 -0.1095  0.1994
 9606SOL     OW29358   1.422   0.494   3.933  0.3431  0.1649 -0.4088
 9606SOL    HW129359   1.403   0.415   3.883 -0.2272 -0.8208  1.2553
 9606SOL    HW229360   1.352   0.555   3.910  0.4777 -0.0186 -1.3091
 9607SOL     OW29361   6.433   4.986   3.684  0.0870  0.3348  0.1943
 9607SOL    HW129362   6.360   5.019   3.737  0.2001  1.0088 -0.0688
 9607SOL    HW229363   6.461   5.061   3.632 -0.5048 -0.5030 -1.3892
 9608SOL     OW29364   5.092   5.239   3.562 -0.3798 -0.1411  0.0239
 9608SOL    HW129365   5.133   5.316   3.522 -0.1682 -0.2614  0.0143
 9608SOL    HW229366   5.114   5.246   3.655 -0.2120 -0.2860 -0.0050
 9609SOL     OW29367   6.834   2.800   6.854  0.0600  0.1599  0.1227
 9609SOL    HW129368   6.883   2.729   6.897  0.3079 -0.6558 -1.4479
 9609SOL    HW229369   6.753   2.807   6.905 -1.2974 -3.2238 -1.2525
 9610SOL     OW29370   4.250   1.048   2.975  0.5261  0.0839  0.5494
 9610SOL    HW129371   4.316   1.059   3.043  0.6594 -0.4167  0.5088
 9610SOL    HW229372   4.266   0.960   2.940  1.8482  1.1155 -1.6314
 9611SOL     OW29373   5.336   7.385   6.974  0.0985 -0.9735  0.2072
 9611SOL    HW129374   5.322   7.454   7.040 -0.2874 -0.9041  0.0583
 9611SOL    HW229375   5.367   7.432   6.897  1.2255 -1.1358  0.5552
 9612SOL     OW29376   6.506   0.227   2.724 -0.1965 -0.2299  0.1327
 9612SOL    HW129377   6.498   0.269   2.638  0.0429 -1.1753 -0.3622
 9612SOL    HW229378   6.417   0.201   2.747 -0.5530  1.6339  1.0245
 9613SOL     OW29379   4.391   2.776   7.579  0.4931  0.1145 -0.4209
 9613SOL    HW129380   4.295   2.771   7.578  0.3934  1.6327 -0.1849
 9613SOL    HW229381   4.413   2.844   7.516  1.2365  1.7723  1.5155
 9614SOL     OW29382   3.885   4.124   3.152  0.5957 -0.0199 -0.2431
 9614SOL    HW129383   3.916   4.088   3.236  0.1681  1.2061  0.4646
 9614SOL    HW229384   3.900   4.218   3.160  1.7780 -0.0079 -2.0948
 9615SOL     OW29385   1.850   0.941   5.212  0.1030  0.5439 -0.3750
 9615SOL    HW129386   1.891   0.981   5.289  0.0960 -0.1253 -0.0201
 9615SOL    HW229387   1.915   0.952   5.143  0.0114  1.3683 -0.3437
 9616SOL     OW29388   1.702   2.347   5.041 -0.0511 -0.0787  0.5380
 9616SOL    HW129389   1.641   2.277   5.018 -0.9672  0.7115  0.5300
 9616SOL    HW229390   1.655   2.400   5.104  1.0950 -0.1474  1.4831
 9617SOL     OW29391   2.627   3.414   4.803 -0.7184  0.0999 -0.0619
 9617SOL    HW129392   2.566   3.363   4.750 -1.8750  0.7610  0.5917
 9617SOL    HW229393   2.618   3.503   4.771  0.3566  0.1101 -0.3508
 9618SOL     OW29394   7.379   2.550   1.402  0.7272  0.4192 -0.4608
 9618SOL    HW129395   7.360   2.473   1.456  1.3517  2.1384  2.4240
 9618SOL    HW229396   7.304   2.608   1.416  1.0363  1.0174 -1.2336
 9619SOL     OW29397   4.047   3.060   3.110  0.6336 -0.1332 -0.2534
 9619SOL    HW129398   3.988   3.039   3.038  0.5535 -0.8904  0.0322
 9619SOL    HW229399   3.990   3.080   3.184  0.7175 -1.4703  0.1973
 9620SOL     OW29400   2.674   5.356   3.859 -0.1494 -0.0937  0.0582
 9620SOL    HW129401   2.683   5.449   3.837  0.9019 -0.1941  0.0392
 9620SOL    HW229402   2.719   5.347   3.943 -0.0426 -0.6337 -0.0539
 9621SOL     OW29403   0.759   0.927   3.123  0.3843 -0.0413 -0.1619
 9621SOL    HW129404   0.814   1.005   3.116  2.3879 -1.4154 -0.5670
 9621SOL    HW229405   0.801   0.874   3.191 -1.5585 -0.3129  0.8796
 9622SOL     OW29406   5.808   5.954   2.839  0.2374  0.6590  0.4570
 9622SOL    HW129407   5.813   6.013   2.764  2.2793  0.1477  0.1246
 9622SOL    HW229408   5.781   5.870   2.802 -0.6720  0.8708  0.6181
 9623SOL     OW29409   5.500   0.945   1.683 -0.2202 -0.2516 -0.1014
 9623SOL    HW129410   5.549   1.022   1.655  1.8902 -0.5774  2.3850
 9623SOL    HW229411   5.455   0.973   1.763 -2.5011 -0.6083 -1.1516
 9624SOL     OW29412   0.489   0.111   5.587 -0.9073 -0.5880  1.2498
 9624SOL    HW129413   0.524   0.097   5.675  0.6944  1.2665  0.9701
 9624SOL    HW229414   0.475   0.205   5.581 -3.5199 -0.9418  0.3713
 9625SOL     OW29415   3.768   6.130   2.586 -0.1214 -0.0969  0.0768
 9625SOL    HW129416   3.857   6.114   2.618 -0.6205  0.2116  1.7011
 9625SOL    HW229417   3.744   6.215   2.623 -1.2864 -0.4294  0.1189
 9626SOL     OW29418   3.314   6.741   3.233 -0.1790  0.3200 -0.1026
 9626SOL    HW129419   3.272   6.826   3.225 -0.8536 -0.0948 -1.2252
 9626SOL    HW229420   3.408   6.760   3.230 -0.3087  0.8928 -2.4461
 9627SOL     OW29421   4.084   0.186   1.139  0.0953  0.1136 -0.3310
 9627SOL    HW129422   4.041   0.176   1.054  0.9910 -0.1257 -0.7602
 9627SOL    HW229423   4.107   0.097   1.165 -2.9669 -0.2469  1.6749
 9628SOL     OW29424   4.098   6.492   3.359  0.1533  0.7260 -0.0123
 9628SOL    HW129425   4.146   6.511   3.278 -0.5963  1.2270 -0.3600
 9628SOL    HW229426   4.027   6.556   3.359  1.0734  1.8325  1.8779
 9629SOL     OW29427   2.265   4.087   6.066  0.3626 -0.2656  0.2109
 9629SOL    HW129428   2.259   4.000   6.026 -0.2219 -0.2732  0.3041
 9629SOL    HW229429   2.335   4.131   6.018  0.0320 -0.4631 -0.4609
 9630SOL     OW29430   0.358   6.049   5.828  0.3006  0.1583  0.1950
 9630SOL    HW129431   0.416   5.983   5.868  1.1619  1.2018  0.7492
 9630SOL    HW229432   0.416   6.124   5.812 -0.4710  0.4682 -1.2271
 9631SOL     OW29433   3.271   2.853   7.590  0.0323  0.4235 -0.4750
 9631SOL    HW129434   3.326   2.775   7.594  0.7368  0.8855 -0.8547
 9631SOL    HW229435   3.184   2.820   7.570  0.3291 -0.2618 -0.6766
 9632SOL     OW29436   2.503   3.836   7.505  0.1307  0.4704 -0.8123
 9632SOL    HW129437   2.568   3.774   7.472 -0.4173  0.1055 -1.2094
 9632SOL    HW229438   2.556   3.908   7.540  0.8067 -0.7196  0.7164
 9633SOL     OW29439   3.988   6.869   7.553  0.2849  0.3394 -0.2338
 9633SOL    HW129440   4.072   6.892   7.593  1.3785 -1.0556 -1.6039
 9633SOL    HW229441   3.999   6.778   7.525 -1.6398  0.1818 -0.6067
 9634SOL     OW29442   6.562   5.202   3.861  1.1492  0.4344  0.3379
 9634SOL    HW129443   6.647   5.183   3.822  1.5881  0.4723  1.2462
 9634SOL    HW229444   6.583   5.245   3.944  0.2584 -0.4489  1.0447
 9635SOL     OW29445   6.494   5.643   3.395  0.0120  0.4975  0.6997
 9635SOL    HW129446   6.466   5.704   3.328 -0.1916  1.5513  1.7129
 9635SOL    HW229447   6.413   5.622   3.443  0.5896  2.0724  2.4491
 9636SOL     OW29448   5.869   3.095   5.244 -0.2490  0.8817 -0.5802
 9636SOL    HW129449   5.808   3.083   5.316  0.1192  0.4669 -0.3384
 9636SOL    HW229450   5.832   3.167   5.193 -0.6485  0.9939 -0.1296
 9637SOL     OW29451   2.536   4.330   6.574  0.4726  0.2515  0.1431
 9637SOL    HW129452   2.591   4.404   6.599  0.7139  0.5739 -1.2368
 9637SOL    HW229453   2.493   4.358   6.493 -1.8183  0.0338  1.1993
 9638SOL     OW29454   3.303   4.824   4.321 -0.0302  0.2835  0.4139
 9638SOL    HW129455   3.260   4.910   4.315  0.5664  0.5642  0.0586
 9638SOL    HW229456   3.355   4.818   4.241  0.4802 -0.1114  0.7722
 9639SOL     OW29457   5.193   7.333   3.267 -0.3082 -0.2923 -0.3681
 9639SOL    HW129458   5.128   7.271   3.300 -1.8294  1.7010  0.5742
 9639SOL    HW229459   5.222   7.381   3.344 -1.7526  2.4701 -1.4198
 9640SOL     OW29460   3.247   3.541   4.844 -0.0818  0.1125 -0.3657
 9640SOL    HW129461   3.291   3.615   4.886 -0.2560 -0.0543  0.1304
 9640SOL    HW229462   3.186   3.510   4.911  1.9683 -2.2541  0.5856
 9641SOL     OW29463   5.686   2.372   1.894 -0.1949 -0.2082  0.6798
 9641SOL    HW129464   5.705   2.420   1.975  1.1191  1.9977 -0.8046
 9641SOL    HW229465   5.593   2.352   1.898 -0.5441  1.4686  1.9618
 9642SOL     OW29466   5.170   0.571   3.835 -0.2412  0.3547 -0.2307
 9642SOL    HW129467   5.248   0.601   3.790 -0.7139  1.5776 -0.2816
 9642SOL    HW229468   5.135   0.649   3.878 -1.9279  0.0565 -0.9493
 9643SOL     OW29469   3.529   7.480   5.529 -0.4360  0.2074 -0.1281
 9643SOL    HW129470   3.470   7.555   5.537 -1.4486 -0.5337 -0.4448
 9643SOL    HW229471   3.482   7.418   5.473  0.5850 -0.4700 -0.2615
 9644SOL     OW29472   4.201   6.522   6.473  0.6255  0.2863 -0.0126
 9644SOL    HW129473   4.270   6.574   6.513 -0.6539  2.2842 -0.2841
 9644SOL    HW229474   4.158   6.582   6.411 -2.4954 -0.2667  1.4339
 9645SOL     OW29475   5.913   6.401   3.334 -0.0665  0.0583  0.1824
 9645SOL    HW129476   5.833   6.395   3.385 -0.3218 -1.9236 -0.3640
 9645SOL    HW229477   5.980   6.426   3.398 -0.9672  1.0136  0.7861
 9646SOL     OW29478   4.569   2.703   1.361 -0.2187  0.1190 -0.0077
 9646SOL    HW129479   4.606   2.706   1.450  0.2271 -0.6376 -0.1573
 9646SOL    HW229480   4.624   2.763   1.311  0.6226 -0.7588 -0.1546
 9647SOL     OW29481   2.668   4.499   4.219 -0.4064 -0.0717  0.0031
 9647SOL    HW129482   2.756   4.490   4.183 -0.8861 -1.1780 -0.9396
 9647SOL    HW229483   2.613   4.527   4.146 -0.9526  0.0464  0.4422
 9648SOL     OW29484   6.598   4.819   6.218 -0.2779  0.4175  0.2505
 9648SOL    HW129485   6.678   4.786   6.177 -0.2331 -0.7961  1.2634
 9648SOL    HW229486   6.600   4.913   6.201  1.5650  0.4872  0.5698
 9649SOL     OW29487   6.505   0.859   1.333 -0.1861 -0.0496  0.0062
 9649SOL    HW129488   6.525   0.915   1.408 -1.8874  0.3563  0.1814
 9649SOL    HW229489   6.589   0.849   1.288  0.7497  0.2053  1.5994
 9650SOL     OW29490   4.798   3.641   1.010  0.0230 -0.7313  0.1262
 9650SOL    HW129491   4.841   3.589   1.078  1.0035 -0.8049 -0.5329
 9650SOL    HW229492   4.815   3.594   0.928  2.3371  1.4055 -0.7385
 9651SOL     OW29493   6.287   7.097   7.497  0.8913  0.2832 -0.2377
 9651SOL    HW129494   6.269   7.166   7.561  0.2405 -0.7044  0.6794
 9651SOL    HW229495   6.311   7.144   7.417 -1.1883  1.6241 -0.1450
 9652SOL     OW29496   6.295   4.015   3.261  0.4899  0.1430 -0.1983
 9652SOL    HW129497   6.231   4.049   3.324  1.6125  0.7573  0.6425
 9652SOL    HW229498   6.242   3.966   3.198 -0.5934 -1.5688  1.8794
 9653SOL     OW29499   1.741   5.084   3.857  0.0770 -0.0719 -0.1615
 9653SOL    HW129500   1.727   5.107   3.765  0.6329 -0.0164 -0.2337
 9653SOL    HW229501   1.681   5.011   3.873 -0.0121 -0.0908 -0.5703
 9654SOL     OW29502   7.074   5.928   6.308  0.1863 -0.6156 -0.2091
 9654SOL    HW129503   7.075   5.833   6.321 -1.4019 -0.5292  0.9475
 9654SOL    HW229504   7.037   5.963   6.390 -1.0889  0.8366 -1.3324
 9655SOL     OW29505   1.534   5.447   3.545  0.0249 -0.0239 -0.2309
 9655SOL    HW129506   1.466   5.403   3.597  0.8109  0.4473  1.2447
 9655SOL    HW229507   1.583   5.498   3.609  1.1588  0.4248 -1.4311
 9656SOL     OW29508   6.987   4.517   4.849 -0.4404 -0.6828  0.6127
 9656SOL    HW129509   6.904   4.550   4.884  0.1924  1.7229  0.0014
 9656SOL    HW229510   7.043   4.506   4.926 -1.0822 -1.6827  0.9583
 9657SOL     OW29511   2.045   4.339   5.256 -0.0183  0.1750  0.1016
 9657SOL    HW129512   2.120   4.280   5.256  2.0173  2.6184  0.2841
 9657SOL    HW229513   2.018   4.345   5.348 -1.3363 -1.6466 -0.0991
 9658SOL     OW29514   4.996   6.744   4.597 -0.6818  0.3784  0.0057
 9658SOL    HW129515   5.034   6.825   4.631 -0.2774  0.2630 -0.1600
 9658SOL    HW229516   4.982   6.761   4.504  1.0124 -0.3119 -0.4092
 9659SOL     OW29517   4.494   1.512   0.041  0.3066  0.0161 -0.2192
 9659SOL    HW129518   4.437   1.588   0.029  1.3102  1.2640  2.1853
 9659SOL    HW229519   4.580   1.542   0.010  0.2377 -0.9976 -1.4664
 9660SOL     OW29520   4.125   4.907   5.469 -0.3417  0.1896  0.0639
 9660SOL    HW129521   4.128   4.825   5.518  0.3209  1.4033  2.2289
 9660SOL    HW229522   4.191   4.897   5.401  1.1566 -0.4030  1.5259
 9661SOL     OW29523   7.113   3.941   0.131  0.4080  0.5201  0.3177
 9661SOL    HW129524   7.122   3.901   0.217 -0.2427  0.5543  0.4120
 9661SOL    HW229525   7.023   3.974   0.130  0.1893 -0.0719 -0.6145
 9662SOL     OW29526   6.486   2.956   2.603  0.2991 -0.1942  0.3547
 9662SOL    HW129527   6.493   2.982   2.511 -0.5280 -1.0098  0.0391
 9662SOL    HW229528   6.415   3.010   2.637  1.6589  1.2560  0.9653
 9663SOL     OW29529   5.690   4.212   6.516 -0.5915 -0.4792  0.6551
 9663SOL    HW129530   5.640   4.246   6.442 -1.2586 -0.9579  0.8669
 9663SOL    HW229531   5.667   4.271   6.589  0.0196 -0.0418  0.4987
 9664SOL     OW29532   0.473   1.433   7.469 -0.2334  0.5965  0.3112
 9664SOL    HW129533   0.382   1.454   7.450 -0.4306  0.6748  1.2861
 9664SOL    HW229534   0.486   1.345   7.434 -0.8343  0.3851  0.6069
 9665SOL     OW29535   5.120   5.929   5.611  0.7637 -0.3576  0.4711
 9665SOL    HW129536   5.119   5.846   5.660  1.3544 -0.2927  0.5994
 9665SOL    HW229537   5.209   5.962   5.623  0.1853  0.9008  1.4435
 9666SOL     OW29538   7.473   2.446   4.156  0.2750 -0.0786  0.4258
 9666SOL    HW129539   7.437   2.390   4.087 -0.8700  0.7584  0.3096
 9666SOL    HW229540   7.539   2.392   4.198  1.5734 -0.3558 -1.7964
 9667SOL     OW29541   6.883   6.517   7.128  0.1055 -0.0222 -0.2917
 9667SOL    HW129542   6.856   6.488   7.040  0.3369 -0.4812 -0.2176
 9667SOL    HW229543   6.842   6.602   7.139  0.8439  0.4761 -1.2319
 9668SOL     OW29544   3.799   0.358   4.193  0.8883 -0.0120  0.1095
 9668SOL    HW129545   3.776   0.337   4.102  1.6870  0.7389 -0.2717
 9668SOL    HW229546   3.770   0.281   4.243 -2.0663  0.6466 -0.3729
 9669SOL     OW29547   0.454   0.487   2.738 -0.5963 -0.1628  0.2554
 9669SOL    HW129548   0.384   0.424   2.723 -1.1507  0.4947  0.0300
 9669SOL    HW229549   0.483   0.512   2.650  1.4296 -2.0334  0.3104
 9670SOL     OW29550   5.662   5.453   5.589  0.4538 -0.4604  0.0213
 9670SOL    HW129551   5.661   5.518   5.519  0.8369 -0.2064  0.2441
 9670SOL    HW229552   5.754   5.450   5.617  0.7285 -2.1342 -0.9487
 9671SOL     OW29553   7.568   5.716   6.437  0.5416  0.3058  0.3968
 9671SOL    HW129554   7.491   5.710   6.494 -0.0266  0.8178 -0.2891
 9671SOL    HW229555   7.600   5.627   6.430 -1.6302 -0.4253 -1.4701
 9672SOL     OW29556   7.407   4.650   7.004 -0.2273 -0.2237  0.4300
 9672SOL    HW129557   7.417   4.652   7.099  0.6581 -1.2524  0.3779
 9672SOL    HW229558   7.320   4.686   6.987  0.2422  1.5541  1.5154
 9673SOL     OW29559   2.857   6.216   0.719 -0.0680 -0.3521 -0.1417
 9673SOL    HW129560   2.869   6.298   0.671  2.3548  0.0710  1.0248
 9673SOL    HW229561   2.829   6.153   0.653 -0.5934  1.0678 -1.3290
 9674SOL     OW29562   3.504   5.658   0.944  0.0582  0.1558  0.4116
 9674SOL    HW129563   3.503   5.673   0.850  1.3541 -1.4857  0.0835
 9674SOL    HW229564   3.542   5.737   0.981  0.9095  0.2448 -0.5989
 9675SOL     OW29565   4.866   4.881   0.893  0.1989 -0.0123 -0.3947
 9675SOL    HW129566   4.857   4.868   0.798 -1.9615  2.0714 -0.5652
 9675SOL    HW229567   4.810   4.957   0.912  0.1949 -0.6625  2.6248
 9676SOL     OW29568   0.497   3.966   3.702 -0.3287 -0.0727  0.2330
 9676SOL    HW129569   0.503   3.876   3.670 -0.8885  0.0701 -0.2936
 9676SOL    HW229570   0.462   3.958   3.791 -2.7410 -0.2655 -0.6621
 9677SOL     OW29571   6.907   3.250   7.052 -0.0185 -0.3171  0.6424
 9677SOL    HW129572   6.921   3.164   7.013 -0.0377  0.3771 -0.9743
 9677SOL    HW229573   6.944   3.243   7.140  0.1058 -1.9209  0.4934
 9678SOL     OW29574   1.704   5.600   4.321  0.3468 -0.1810 -0.4666
 9678SOL    HW129575   1.788   5.558   4.301  1.8140  1.2179  2.2455
 9678SOL    HW229576   1.725   5.692   4.333 -1.5772  0.2060  0.3765
 9679SOL     OW29577   2.061   6.570   0.875 -0.4159  0.2801  0.7972
 9679SOL    HW129578   2.093   6.502   0.815  0.1455  1.2965 -0.1092
 9679SOL    HW229579   2.042   6.524   0.956  0.0615 -0.9375  0.2451
 9680SOL     OW29580   2.617   4.403   2.291  0.0500  0.3410  0.0679
 9680SOL    HW129581   2.630   4.396   2.386 -0.6380  2.1350  0.3223
 9680SOL    HW229582   2.595   4.495   2.276  0.5092  0.1771 -1.8909
 9681SOL     OW29583   3.091   1.298   5.295 -0.0264 -0.0709  0.6602
 9681SOL    HW129584   3.045   1.219   5.325 -0.7151  0.1456  0.1988
 9681SOL    HW229585   3.184   1.277   5.306 -0.1531 -1.3311 -0.4014
 9682SOL     OW29586   7.332   0.615   5.392  0.3094  0.2813  0.2086
 9682SOL    HW129587   7.399   0.682   5.379 -0.0943  0.9904  1.5525
 9682SOL    HW229588   7.286   0.610   5.308  1.6893  0.1593 -0.5630
 9683SOL     OW29589   1.386   0.706   2.189  0.3321  0.0879  0.5127
 9683SOL    HW129590   1.356   0.779   2.134  1.6076  1.6493  1.7824
 9683SOL    HW229591   1.466   0.675   2.147  1.1695  1.1169  1.2939
 9684SOL     OW29592   4.538   3.226   0.111 -0.4560  0.1188  0.0306
 9684SOL    HW129593   4.597   3.260   0.044 -0.2939 -0.8636 -0.3393
 9684SOL    HW229594   4.467   3.289   0.115  0.2116  0.8965 -0.0961
 9685SOL     OW29595   4.818   7.353   3.230  0.8611  0.3218  0.1282
 9685SOL    HW129596   4.724   7.370   3.231  0.7755 -0.0563  1.7138
 9685SOL    HW229597   4.826   7.260   3.211  0.9076  0.3527 -0.0026
 9686SOL     OW29598   7.466   0.629   6.508  0.3125 -0.7580 -0.2153
 9686SOL    HW129599   7.459   0.534   6.501 -2.2345 -0.7750  1.3256
 9686SOL    HW229600   7.419   0.663   6.432 -1.5229 -0.8049  0.8450
 9687SOL     OW29601   5.492   5.550   6.611 -0.1402 -0.1637  0.4069
 9687SOL    HW129602   5.581   5.517   6.601 -0.5237 -1.1479  0.0691
 9687SOL    HW229603   5.458   5.506   6.688 -0.3103  0.2754  0.5875
 9688SOL     OW29604   1.279   6.946   5.201 -0.2801  0.0935 -0.1772
 9688SOL    HW129605   1.237   6.885   5.262  1.2056 -0.6779  0.1423
 9688SOL    HW229606   1.298   7.024   5.253  2.8244 -1.3070  1.0575
 9689SOL     OW29607   5.466   4.765   4.404 -0.3347 -0.6098 -0.3786
 9689SOL    HW129608   5.476   4.684   4.453  0.7351 -0.2441  0.0532
 9689SOL    HW229609   5.498   4.833   4.464  1.4976 -0.2025 -1.7078
 9690SOL     OW29610   7.139   6.760   7.605  0.3048  0.0036  0.0051
 9690SOL    HW129611   7.220   6.759   7.655 -1.1453  0.7006  2.5446
 9690SOL    HW229612   7.073   6.723   7.664 -1.1021 -1.4368 -2.3105
 9691SOL     OW29613   1.426   7.004   1.169 -0.6649  0.3261  0.2623
 9691SOL    HW129614   1.506   7.013   1.221 -1.1701  0.0670  1.1046
 9691SOL    HW229615   1.360   6.974   1.231 -1.5886  1.1747 -0.2765
 9692SOL     OW29616   2.839   2.296   4.561  0.1162 -0.2350 -0.1329
 9692SOL    HW129617   2.770   2.343   4.513  0.9974  0.4768 -0.7421
 9692SOL    HW229618   2.917   2.349   4.548  0.7471 -0.9341  0.7048
 9693SOL     OW29619   3.388   2.878   1.337 -1.1072  0.2170 -0.7229
 9693SOL    HW129620   3.451   2.941   1.301  0.0889  0.0761  1.0121
 9693SOL    HW229621   3.310   2.930   1.356  0.1488  1.4218  1.4660
 9694SOL     OW29622   7.104   0.508   3.132  0.1447  0.0255 -0.1033
 9694SOL    HW129623   7.142   0.594   3.119  1.2318 -0.1564  1.6025
 9694SOL    HW229624   7.172   0.447   3.103  0.7889 -0.2840  1.9459
 9695SOL     OW29625   4.192   2.138   0.685 -0.2439 -0.2671  0.0829
 9695SOL    HW129626   4.166   2.224   0.652 -1.2759  0.5494  2.8009
 9695SOL    HW229627   4.277   2.153   0.727  0.2290 -0.9195 -0.5955
 9696SOL     OW29628   3.173   4.185   4.131  0.1215  0.1266 -0.8132
 9696SOL    HW129629   3.079   4.198   4.141  0.4316  1.9704  0.0892
 9696SOL    HW229630   3.203   4.260   4.081  1.2640  0.1504 -0.1317
 9697SOL     OW29631   5.413   3.437   6.573  0.0871 -0.0241  0.2020
 9697SOL    HW129632   5.412   3.348   6.607  1.5462 -0.8785 -1.8479
 9697SOL    HW229633   5.505   3.463   6.573 -0.2639  1.3235  0.3266
 9698SOL     OW29634   7.354   7.409   5.438 -0.2061  0.0907 -0.2501
 9698SOL    HW129635   7.262   7.432   5.452 -0.2836  0.0386 -0.6739
 9698SOL    HW229636   7.385   7.472   5.373 -0.3942 -0.9238 -1.3554
 9699SOL     OW29637   6.493   6.442   4.306 -0.1652 -0.0838 -0.1065
 9699SOL    HW129638   6.530   6.503   4.369 -0.4543  0.5049 -0.4877
 9699SOL    HW229639   6.564   6.425   4.244 -0.0811 -0.1343  0.0046
 9700SOL     OW29640   5.910   5.875   5.001 -0.4685 -0.1901 -0.0758
 9700SOL    HW129641   5.867   5.858   4.917 -2.4170  0.7970  0.6505
 9700SOL    HW229642   5.902   5.969   5.014  2.6259  0.1802 -0.1714
 9701SOL     OW29643   2.756   1.669   0.722 -0.0588  0.3227 -0.6809
 9701SOL    HW129644   2.852   1.671   0.716  0.1037 -1.4205  0.6142
 9701SOL    HW229645   2.729   1.760   0.710  1.6660  0.6898 -2.1966
 9702SOL     OW29646   2.759   3.433   1.325 -0.5357  0.2884 -0.2917
 9702SOL    HW129647   2.682   3.488   1.339 -0.4009  0.6153 -0.8189
 9702SOL    HW229648   2.831   3.495   1.315 -0.1901 -0.0142  0.2241
 9703SOL     OW29649   3.665   5.134   1.705 -0.1132  0.1615  0.7719
 9703SOL    HW129650   3.761   5.128   1.702  0.3198  3.2225  3.4679
 9703SOL    HW229651   3.644   5.212   1.654 -1.0979  0.0427  0.9752
 9704SOL     OW29652   6.603   3.752   5.712 -0.9620  0.0468  0.1209
 9704SOL    HW129653   6.589   3.657   5.711  0.4350 -0.1848 -0.1857
 9704SOL    HW229654   6.596   3.776   5.805 -0.7627 -0.4556  0.2702
 9705SOL     OW29655   3.159   0.203   6.838  0.1101 -0.6092  0.0281
 9705SOL    HW129656   3.236   0.259   6.845 -0.2656  0.1043 -1.2231
 9705SOL    HW229657   3.167   0.142   6.911  1.1042  0.3716  0.7779
 9706SOL     OW29658   3.568   4.541   6.647  0.1387  0.1295 -0.1681
 9706SOL    HW129659   3.474   4.557   6.649  0.0605 -0.2527  1.5470
 9706SOL    HW229660   3.607   4.626   6.623 -0.5599  1.0462  1.7358
 9707SOL     OW29661   6.112   2.458   6.956 -0.1964  0.0170 -0.1367
 9707SOL    HW129662   6.184   2.465   6.893 -0.4952  2.0474 -0.3179
 9707SOL    HW229663   6.036   2.494   6.910 -0.4561  1.4136  1.2660
 9708SOL     OW29664   7.586   7.378   3.628  0.0486  0.3440  0.1162
 9708SOL    HW129665   7.506   7.358   3.580  0.2194  0.9765 -0.4417
 9708SOL    HW229666   7.656   7.369   3.563  0.3699  0.3532  0.4586
 9709SOL     OW29667   7.030   4.639   5.725  0.3936 -0.2491 -0.5828
 9709SOL    HW129668   7.023   4.643   5.629  0.8124  1.6901 -0.5621
 9709SOL    HW229669   6.960   4.579   5.751 -1.9827  1.7648 -1.9008
 9710SOL     OW29670   1.245   2.235   1.875  0.1106  0.4731 -0.1179
 9710SOL    HW129671   1.207   2.323   1.873 -0.8310  0.0918  0.3800
 9710SOL    HW229672   1.320   2.240   1.816 -0.3887  1.4050 -0.7062
 9711SOL     OW29673   0.693   3.710   4.082  0.1781 -0.2670  0.2083
 9711SOL    HW129674   0.786   3.703   4.103  0.0214 -0.2964  0.8919
 9711SOL    HW229675   0.647   3.683   4.161 -0.4182  0.5840  0.1710
 9712SOL     OW29676   3.714   7.467   2.501  0.3721  0.3283 -0.1919
 9712SOL    HW129677   3.746   7.388   2.460  0.7863  1.5129 -2.3001
 9712SOL    HW229678   3.627   7.443   2.535 -0.5697 -0.4641 -2.8953
 9713SOL     OW29679   4.588   2.533   7.258  0.1444 -0.0534 -0.2244
 9713SOL    HW129680   4.580   2.524   7.353  0.6843  0.6957 -0.1005
 9713SOL    HW229681   4.658   2.596   7.246  0.3480 -0.4400 -1.1342
 9714SOL     OW29682   7.262   0.494   1.430  0.6176  0.2541 -0.1904
 9714SOL    HW129683   7.227   0.430   1.367 -1.8416  0.5465  0.7740
 9714SOL    HW229684   7.271   0.445   1.511 -2.5275  1.2427  0.9232
 9715SOL     OW29685   0.879   5.108   3.361  0.2360  0.1298  0.5512
 9715SOL    HW129686   0.845   5.107   3.272 -1.3865  0.6485  1.1319
 9715SOL    HW229687   0.974   5.114   3.350  0.0786  0.1116 -1.1277
 9716SOL     OW29688   6.613   3.296   7.469 -0.4568  0.2984 -0.6708
 9716SOL    HW129689   6.701   3.297   7.505 -0.4687  1.4660 -0.6310
 9716SOL    HW229690   6.625   3.281   7.376 -0.3003 -0.7320 -0.4939
 9717SOL     OW29691   5.751   2.580   1.523 -0.3272 -0.3948 -0.2248
 9717SOL    HW129692   5.759   2.649   1.589  0.6365 -1.3932  0.7355
 9717SOL    HW229693   5.765   2.498   1.571  1.3364 -1.0942 -1.7782
 9718SOL     OW29694   5.129   4.765   5.676 -0.9330  0.1026 -0.1460
 9718SOL    HW129695   5.094   4.720   5.753 -0.3723 -0.1243 -0.0141
 9718SOL    HW229696   5.144   4.855   5.706  2.0522 -0.6277  0.9693
 9719SOL     OW29697   0.223   6.264   6.914 -0.3458 -0.5800 -0.2455
 9719SOL    HW129698   0.202   6.307   6.997 -1.9967 -0.1411 -0.8412
 9719SOL    HW229699   0.299   6.312   6.881  1.4047 -1.8007  1.7180
 9720SOL     OW29700   2.436   1.755   4.690  0.3298  0.3486  0.5109
 9720SOL    HW129701   2.399   1.761   4.778 -0.3550  0.4319  0.2215
 9720SOL    HW229702   2.367   1.714   4.637  0.0579  1.8596 -0.3636
 9721SOL     OW29703   3.668   1.554   1.147 -0.2969 -0.0912 -0.2688
 9721SOL    HW129704   3.686   1.461   1.154  0.4198  0.1718  1.9487
 9721SOL    HW229705   3.730   1.585   1.080  1.1665 -0.8124  0.6986
 9722SOL     OW29706   6.365   6.901   6.432 -0.6678 -0.7633 -0.3333
 9722SOL    HW129707   6.340   6.850   6.355 -2.9815  0.8154 -0.7468
 9722SOL    HW229708   6.297   6.883   6.496  0.0053 -0.3468  0.5125
 9723SOL     OW29709   3.348   0.751   3.083 -0.3555  0.3103 -0.2757
 9723SOL    HW129710   3.308   0.770   2.998 -1.5784 -0.5866  0.0653
 9723SOL    HW229711   3.275   0.754   3.145  0.8580  3.1945  1.1596
 9724SOL     OW29712   0.803   2.443   2.042  0.5443 -0.9629  0.3900
 9724SOL    HW129713   0.778   2.492   2.121 -0.5369 -0.8040 -0.0250
 9724SOL    HW229714   0.786   2.504   1.970 -1.0102 -1.9786 -0.1577
 9725SOL     OW29715   1.256   3.017   3.040  0.2155  0.1256 -0.3896
 9725SOL    HW129716   1.215   3.026   2.954 -0.9950  0.2162  0.1804
 9725SOL    HW229717   1.234   3.099   3.086  1.6901  0.5191 -0.3172
 9726SOL     OW29718   5.113   2.834   4.791 -0.2435  0.1639 -0.0194
 9726SOL    HW129719   5.075   2.845   4.878  0.6643 -1.8049  0.6763
 9726SOL    HW229720   5.090   2.744   4.766  1.8245 -0.2458 -0.6190
 9727SOL     OW29721   5.159   4.676   0.357 -0.0826  0.0372  0.2108
 9727SOL    HW129722   5.210   4.688   0.276  0.1493 -0.7757  0.2298
 9727SOL    HW229723   5.212   4.719   0.425  1.1740 -1.7546  0.4364
 9728SOL     OW29724   3.276   2.435   4.373  0.4400 -0.5802 -0.0265
 9728SOL    HW129725   3.244   2.385   4.448  1.7724 -0.9512  0.3361
 9728SOL    HW229726   3.297   2.521   4.410 -1.9383  0.3444 -0.6663
 9729SOL     OW29727   4.880   4.926   0.367  0.3430 -0.5475  0.4782
 9729SOL    HW129728   4.960   4.935   0.420 -0.0839  0.3816  0.9956
 9729SOL    HW229729   4.910   4.889   0.284  1.1617 -1.1645  1.0309
 9730SOL     OW29730   0.876   1.038   6.293  0.1448 -0.0446 -0.7129
 9730SOL    HW129731   0.966   1.011   6.275 -0.0829 -2.0679  0.8321
 9730SOL    HW229732   0.823   0.965   6.263 -1.0754  1.3201 -2.0286
 9731SOL     OW29733   7.030   5.542   7.364 -0.0503  0.0142 -0.0922
 9731SOL    HW129734   6.957   5.507   7.416 -0.6062  0.4269 -0.5686
 9731SOL    HW229735   7.076   5.464   7.333 -0.1121 -0.2494  0.4540
 9732SOL     OW29736   7.547   0.323   2.032  0.4194  0.4110 -0.0394
 9732SOL    HW129737   7.603   0.247   2.047 -0.8718 -0.2989  1.5432
 9732SOL    HW229738   7.540   0.329   1.936  0.7316 -1.3281 -0.2087
 9733SOL     OW29739   7.355   4.243   1.009  0.2126  0.3851 -0.6470
 9733SOL    HW129740   7.325   4.153   1.019 -0.2460  0.2778 -2.6449
 9733SOL    HW229741   7.296   4.294   1.064  1.2775 -0.5997  1.5585
 9734SOL     OW29742   2.817   4.898   2.814 -0.6078 -0.4177 -0.6252
 9734SOL    HW129743   2.786   4.813   2.845  0.4775 -0.4878  0.3313
 9734SOL    HW229744   2.740   4.955   2.821 -0.5843 -0.5600  1.7449
 9735SOL     OW29745   7.196   3.944   4.993  0.6726  0.1806  0.2618
 9735SOL    HW129746   7.237   3.870   5.036  1.5197  0.2764 -0.3642
 9735SOL    HW229747   7.163   3.909   4.911 -0.0217  0.2278  0.5155
 9736SOL     OW29748   7.512   0.292   5.080  0.0263 -0.5295 -0.0866
 9736SOL    HW129749   7.560   0.374   5.067  0.4831 -0.6762  0.6342
 9736SOL    HW229750   7.546   0.234   5.011 -0.5542 -0.0077 -0.8161
 9737SOL     OW29751   7.296   0.082   2.813 -0.3242  0.4509 -0.0650
 9737SOL    HW129752   7.200   0.085   2.817 -0.3636  1.6152 -1.3153
 9737SOL    HW229753   7.320   0.019   2.881 -2.0680 -1.4045 -1.0740
 9738SOL     OW29754   2.785   4.431   5.537  0.3748 -0.0328 -0.9745
 9738SOL    HW129755   2.698   4.397   5.513 -0.1786  1.3928 -1.0566
 9738SOL    HW229756   2.769   4.485   5.614  1.1040  0.6972 -1.3265
 9739SOL     OW29757   5.631   5.178   2.201 -0.1239  0.1448 -0.6540
 9739SOL    HW129758   5.547   5.208   2.235  0.1953  0.3286 -0.0167
 9739SOL    HW229759   5.610   5.141   2.115 -0.9152 -0.1963 -0.3194
 9740SOL     OW29760   0.502   6.649   5.597 -0.1722 -0.2430 -0.0201
 9740SOL    HW129761   0.531   6.703   5.670  0.1459 -0.9196  0.3683
 9740SOL    HW229762   0.439   6.588   5.636  0.8098 -1.3279 -0.0726
 9741SOL     OW29763   5.146   0.315   0.629  0.4560 -0.1359  0.2293
 9741SOL    HW129764   5.132   0.370   0.706  0.1833 -0.5721  0.4955
 9741SOL    HW229765   5.059   0.290   0.600  0.5925 -1.3259  0.7777
 9742SOL     OW29766   6.703   2.334   2.832 -0.0769 -0.4497 -0.4402
 9742SOL    HW129767   6.742   2.312   2.917  1.1799  0.3688 -0.7684
 9742SOL    HW229768   6.640   2.403   2.852 -0.5229 -0.9590 -0.0515
 9743SOL     OW29769   5.121   5.183   1.806 -0.6252 -0.2233 -0.0658
 9743SOL    HW129770   5.067   5.116   1.847 -1.2458 -0.4910 -1.2740
 9743SOL    HW229771   5.197   5.135   1.771 -1.1582 -0.3456 -1.0882
 9744SOL     OW29772   2.089   4.370   4.141  0.0153 -0.0331 -0.5052
 9744SOL    HW129773   2.043   4.403   4.064  1.0304  0.4766 -0.9017
 9744SOL    HW229774   2.175   4.412   4.138  0.7839 -1.5085 -0.1660
 9745SOL     OW29775   4.273   1.243   6.307  0.5763 -0.0966  0.1117
 9745SOL    HW129776   4.344   1.190   6.344  1.3836  1.8624  1.5111
 9745SOL    HW229777   4.273   1.323   6.359 -2.7827 -0.0537  0.2504
 9746SOL     OW29778   1.613   6.427   1.422 -0.1919 -0.0030 -0.1393
 9746SOL    HW129779   1.565   6.353   1.459 -1.8022 -0.0627 -2.1452
 9746SOL    HW229780   1.661   6.390   1.348  1.0247  0.5299  0.3549
 9747SOL     OW29781   7.235   6.594   0.477 -0.3520 -0.0616  0.0445
 9747SOL    HW129782   7.313   6.543   0.456 -0.7264 -0.2264 -1.0083
 9747SOL    HW229783   7.162   6.532   0.472 -0.3913 -0.4739  3.2945
 9748SOL     OW29784   2.100   6.159   0.039 -0.6931  0.1515  0.3511
 9748SOL    HW129785   2.064   6.194  -0.043 -2.8558 -1.1996  0.6271
 9748SOL    HW229786   2.180   6.113   0.012 -1.5680 -0.5883 -1.1017
 9749SOL     OW29787   0.146   3.939   0.861 -0.0566 -0.2988  0.8668
 9749SOL    HW129788   0.233   3.950   0.899  0.7084 -0.8192 -0.6238
 9749SOL    HW229789   0.133   3.845   0.857  0.8919 -0.4208 -2.0982
 9750SOL     OW29790   2.471   1.689   1.270 -0.0245 -0.6703  0.0595
 9750SOL    HW129791   2.437   1.707   1.358 -1.9884  0.5874 -0.8856
 9750SOL    HW229792   2.414   1.620   1.236  2.2741 -3.0019  0.5886
 9751SOL     OW29793   6.103   6.167   6.492 -0.3998  0.1586  0.3202
 9751SOL    HW129794   6.089   6.258   6.464  0.8720  0.7542  1.5255
 9751SOL    HW229795   6.149   6.174   6.575 -0.3745 -1.6065  0.4893
 9752SOL     OW29796   7.470   6.193   5.705 -0.0008  0.1881  0.1327
 9752SOL    HW129797   7.545   6.182   5.764 -0.2120  2.4563  0.9384
 9752SOL    HW229798   7.495   6.267   5.650 -1.3142  0.4559 -0.1196
 9753SOL     OW29799   5.189   6.576   7.238 -0.4729 -0.7134  0.3436
 9753SOL    HW129800   5.262   6.628   7.203 -0.6118  0.0549  1.1576
 9753SOL    HW229801   5.225   6.534   7.316 -0.7052 -0.8662  0.3676
 9754SOL     OW29802   6.952   1.454   1.924  0.1898  0.4416 -0.0820
 9754SOL    HW129803   6.873   1.501   1.951  0.1157 -0.1531  0.7897
 9754SOL    HW229804   7.022   1.519   1.930 -0.0537  0.6784  0.2488
 9755SOL     OW29805   3.420   1.802   7.219  0.0282 -0.4158 -0.1365
 9755SOL    HW129806   3.422   1.830   7.311  0.5728 -1.5941  0.2292
 9755SOL    HW229807   3.509   1.813   7.188 -0.0564 -0.4540 -0.3957
 9756SOL     OW29808   1.231   3.219   0.091 -0.1299  0.0999  0.5318
 9756SOL    HW129809   1.202   3.239   0.002 -2.0778 -0.2504  1.0491
 9756SOL    HW229810   1.323   3.195   0.081 -0.7149 -1.5629 -1.6550
 9757SOL     OW29811   4.139   1.924   4.272  0.2706 -0.1184 -0.4598
 9757SOL    HW129812   4.157   1.881   4.189  1.5895 -1.7733  0.6194
 9757SOL    HW229813   4.085   1.862   4.320  0.3657  0.3679  0.3003
 9758SOL     OW29814   0.449   6.253   0.816  0.3742 -0.0424 -0.3205
 9758SOL    HW129815   0.508   6.289   0.882  0.6270 -0.6429 -0.2122
 9758SOL    HW229816   0.361   6.280   0.844  0.5022 -0.0941  0.1305
 9759SOL     OW29817   1.797   2.910   0.363  0.0288 -0.1475 -0.2616
 9759SOL    HW129818   1.776   2.921   0.456 -0.1517 -0.3068 -0.2818
 9759SOL    HW229819   1.862   2.840   0.361  1.5551  1.2128 -0.0917
 9760SOL     OW29820   4.124   5.843   6.915 -0.6572 -0.8180 -0.1174
 9760SOL    HW129821   4.118   5.875   7.005 -3.7552 -0.9642 -0.1500
 9760SOL    HW229822   4.179   5.907   6.870  0.0308 -0.1313  1.6133
 9761SOL     OW29823   7.350   2.880   1.868 -0.1372  1.1823  0.1474
 9761SOL    HW129824   7.442   2.907   1.873 -0.0959  1.1246 -0.2658
 9761SOL    HW229825   7.353   2.791   1.832 -0.2828  0.6865  1.3152
 9762SOL     OW29826   1.611   5.148   1.854 -0.1034 -0.7361 -0.1626
 9762SOL    HW129827   1.633   5.216   1.917  1.3543 -0.9239 -0.4397
 9762SOL    HW229828   1.695   5.111   1.827 -0.3768  1.1121 -4.2379
 9763SOL     OW29829   4.626   6.262   3.082 -0.4967  0.2928 -0.0250
 9763SOL    HW129830   4.609   6.267   2.988  0.8851  0.3985 -0.2909
 9763SOL    HW229831   4.663   6.175   3.095  0.8755  0.8710  0.1278
 9764SOL     OW29832   7.288   0.298   1.931 -0.0606  0.6853 -0.3834
 9764SOL    HW129833   7.210   0.252   1.962 -0.1638  2.3507  2.0840
 9764SOL    HW229834   7.361   0.252   1.973  0.1312  0.4876 -0.9231
 9765SOL     OW29835   3.238   1.189   7.407  0.0015  0.3148  0.1470
 9765SOL    HW129836   3.148   1.203   7.377  0.4126  1.4348 -0.6245
 9765SOL    HW229837   3.253   1.258   7.471  0.1355 -0.2251  0.7083
 9766SOL     OW29838   6.558   4.193   2.962 -0.1308 -0.5795  0.2604
 9766SOL    HW129839   6.612   4.200   2.883  0.9883 -0.5453  1.0030
 9766SOL    HW229840   6.521   4.105   2.957 -1.4121 -0.0196 -1.1023
 9767SOL     OW29841   2.215   5.744   5.248  0.1532 -0.6505  0.3549
 9767SOL    HW129842   2.262   5.675   5.296  0.2023 -0.0612  1.1802
 9767SOL    HW229843   2.175   5.699   5.174  1.5145 -1.2815 -0.0206
 9768SOL     OW29844   1.629   4.861   1.380 -0.1815  0.0689  0.1949
 9768SOL    HW129845   1.568   4.833   1.448 -1.0106  0.3573 -0.4162
 9768SOL    HW229846   1.698   4.794   1.381 -0.4077 -0.1642  1.0136
 9769SOL     OW29847   3.175   6.281   3.075 -0.7126  0.2636  0.0190
 9769SOL    HW129848   3.200   6.195   3.109  0.2850  0.4199 -0.3013
 9769SOL    HW229849   3.218   6.343   3.133 -0.7642  0.5453 -0.2447
 9770SOL     OW29850   3.573   5.489   7.468 -0.4264 -0.0402  0.4517
 9770SOL    HW129851   3.518   5.548   7.416  1.0372  0.9151 -0.0775
 9770SOL    HW229852   3.598   5.541   7.544  0.4083 -0.1792  0.2760
 9771SOL     OW29853   3.325   1.045   1.912 -0.1570 -0.4664 -0.5196
 9771SOL    HW129854   3.378   1.124   1.899 -0.8770 -0.3223 -3.2990
 9771SOL    HW229855   3.370   0.978   1.861  0.3867 -1.9028  1.7337
 9772SOL     OW29856   1.683   4.222   1.797  0.2084 -0.3846 -0.5159
 9772SOL    HW129857   1.756   4.180   1.752  1.8314 -1.1401  2.5511
 9772SOL    HW229858   1.691   4.193   1.888 -1.5282  2.7057  0.7787
 9773SOL     OW29859   5.014   5.086   2.925  0.2589 -0.0028 -0.6361
 9773SOL    HW129860   5.102   5.116   2.904  0.2547 -0.3214 -1.1107
 9773SOL    HW229861   5.027   5.015   2.989  0.3375  0.0499 -0.5938
 9774SOL     OW29862   4.930   6.005   7.314 -0.3692  0.5682  0.0093
 9774SOL    HW129863   4.843   5.967   7.329  0.4317 -1.4179 -0.0643
 9774SOL    HW229864   4.925   6.043   7.226 -0.5194 -1.6789 -1.0267
 9775SOL     OW29865   3.675   0.795   4.119 -0.2326 -0.1790 -0.0569
 9775SOL    HW129866   3.756   0.780   4.167 -1.1143 -0.2602  1.4720
 9775SOL    HW229867   3.670   0.723   4.057  0.3711 -0.7442  0.5336
 9776SOL     OW29868   1.177   2.134   4.468  0.2132  0.0360  0.0165
 9776SOL    HW129869   1.106   2.070   4.472 -1.7164  2.0399 -0.5974
 9776SOL    HW229870   1.207   2.141   4.559 -0.1660 -1.0536  0.2383
 9777SOL     OW29871   7.076   5.031   0.848 -0.5107 -0.0779 -0.1910
 9777SOL    HW129872   7.049   5.109   0.897 -2.3550 -0.2763 -0.8237
 9777SOL    HW229873   7.140   5.064   0.785 -2.6085  1.3812 -1.7198
 9778SOL     OW29874   4.863   6.057   5.276 -0.2822  0.0126 -0.3579
 9778SOL    HW129875   4.789   6.049   5.336  0.2545  0.0758  0.3342
 9778SOL    HW229876   4.931   6.000   5.314  1.0106  2.0893  0.5994
 9779SOL     OW29877   4.593   4.198   2.568  0.1017  0.7877  1.0096
 9779SOL    HW129878   4.530   4.251   2.519  0.3970  0.4237  0.2152
 9779SOL    HW229879   4.573   4.108   2.542  0.6993  0.6399  1.0487
 9780SOL     OW29880   6.213   3.865   0.639  0.4780  0.2242 -0.0263
 9780SOL    HW129881   6.180   3.873   0.550  0.6947 -0.5108 -0.1826
 9780SOL    HW229882   6.218   3.955   0.672  0.4756  0.5019 -0.7792
 9781SOL     OW29883   3.658   3.003   4.166 -0.6084  0.2518  0.5654
 9781SOL    HW129884   3.639   2.917   4.204 -0.3874  0.6193  1.5320
 9781SOL    HW229885   3.662   3.062   4.241 -0.4294  1.0508 -0.0620
 9782SOL     OW29886   6.209   3.405   0.779 -0.2336 -0.6471 -0.2538
 9782SOL    HW129887   6.225   3.498   0.765 -0.9389 -0.4918 -0.0927
 9782SOL    HW229888   6.294   3.364   0.768  0.2344  0.1077  0.3950
 9783SOL     OW29889   2.839   6.537   7.087 -0.0585  0.0194 -0.3795
 9783SOL    HW129890   2.806   6.502   7.004  0.0694 -0.1080 -0.3774
 9783SOL    HW229891   2.923   6.577   7.064 -0.3077  0.5333 -0.4252
 9784SOL     OW29892   5.893   5.913   7.478  0.2084 -0.3130  0.0256
 9784SOL    HW129893   5.818   5.945   7.528  0.5228 -0.2388  0.4547
 9784SOL    HW229894   5.932   5.992   7.439 -1.1672 -0.5493 -1.9533
 9785SOL     OW29895   1.241   1.706   2.633  0.0390  0.0218 -0.1091
 9785SOL    HW129896   1.299   1.630   2.624 -0.0839 -0.2923  1.4539
 9785SOL    HW229897   1.262   1.761   2.558  3.3086  0.5408  1.0507
 9786SOL     OW29898   6.459   2.449   0.137  0.0965 -0.0577  0.3851
 9786SOL    HW129899   6.407   2.528   0.122 -0.4629 -0.8301 -2.3370
 9786SOL    HW229900   6.407   2.379   0.096  1.7752 -1.3983  0.4514
 9787SOL     OW29901   3.473   5.059   5.694  0.4312 -0.0145  0.1725
 9787SOL    HW129902   3.524   4.979   5.685  0.9722  0.5658 -2.9848
 9787SOL    HW229903   3.512   5.120   5.631 -3.1749  0.9563 -1.3529
 9788SOL     OW29904   1.456   4.455   6.707  0.6588  0.1674  0.3716
 9788SOL    HW129905   1.506   4.417   6.780  0.2345 -2.1374 -0.4446
 9788SOL    HW229906   1.523   4.493   6.650  1.1497  0.3616  1.0622
 9789SOL     OW29907   3.536   6.810   1.422 -0.6453 -0.2983  0.3960
 9789SOL    HW129908   3.463   6.836   1.478 -0.5108 -0.2532  0.5519
 9789SOL    HW229909   3.504   6.824   1.333 -1.5084 -2.0692  0.3864
 9790SOL     OW29910   6.372   1.114   1.230  0.0533  0.3309  0.0553
 9790SOL    HW129911   6.423   1.036   1.248  0.8373  1.0956  1.2890
 9790SOL    HW229912   6.321   1.092   1.151  2.2563 -0.4586 -1.2459
 9791SOL     OW29913   2.390   3.655   7.002  0.2017  0.0175 -0.4093
 9791SOL    HW129914   2.365   3.746   7.018  0.8120  0.2275 -0.6442
 9791SOL    HW229915   2.431   3.656   6.916  0.7053 -0.3807 -0.1790
 9792SOL     OW29916   6.286   4.808   1.601 -0.0084 -0.1116 -0.7639
 9792SOL    HW129917   6.231   4.877   1.564 -0.0418 -0.3246 -1.1112
 9792SOL    HW229918   6.233   4.770   1.671 -0.8092 -1.1463 -1.8961
 9793SOL     OW29919   0.345   6.132   2.668 -0.0932  0.1043 -0.1301
 9793SOL    HW129920   0.431   6.168   2.688 -0.1801 -0.1941  0.8466
 9793SOL    HW229921   0.335   6.143   2.573  0.5131  1.2396 -0.0759
 9794SOL     OW29922   6.051   4.674   4.125 -0.3260  0.2405 -0.6097
 9794SOL    HW129923   6.029   4.584   4.149  1.1085 -0.1766 -0.7076
 9794SOL    HW229924   6.007   4.689   4.041  0.2373 -0.7429 -1.0962
 9795SOL     OW29925   3.675   2.808   1.906  0.0534 -0.2967  0.3772
 9795SOL    HW129926   3.732   2.738   1.873  1.5566  1.0728 -0.0467
 9795SOL    HW229927   3.594   2.763   1.930 -0.3544 -1.7610 -3.0601
 9796SOL     OW29928   7.521   7.406   2.383 -0.0789  0.0702  0.2053
 9796SOL    HW129929   7.435   7.443   2.405  0.2916 -0.3811  2.7456
 9796SOL    HW229930   7.584   7.472   2.411  0.4404 -0.4221  0.2341
 9797SOL     OW29931   1.028   3.369   1.140 -0.3042 -0.4631 -0.1559
 9797SOL    HW129932   0.977   3.291   1.161 -2.4175  1.5172  2.9253
 9797SOL    HW229933   0.969   3.423   1.087  0.6085 -0.3205 -1.0561
 9798SOL     OW29934   6.360   0.328   0.043  0.1367  0.2307  0.3201
 9798SOL    HW129935   6.384   0.356  -0.046 -1.2555  0.4568 -0.0007
 9798SOL    HW229936   6.298   0.256   0.029 -1.3803  1.3498  1.0787
 9799SOL     OW29937   6.523   3.654   6.209 -0.0355  0.2202  0.0329
 9799SOL    HW129938   6.430   3.656   6.231 -0.2973  0.8284 -1.0646
 9799SOL    HW229939   6.567   3.656   6.294 -1.0135  0.6539  0.5549
 9800SOL     OW29940   2.741   4.243   5.218 -0.3110 -0.5252  0.2433
 9800SOL    HW129941   2.667   4.303   5.216  0.7426  1.1129  3.2884
 9800SOL    HW229942   2.725   4.187   5.294  1.1880 -0.5963  0.5497
 9801SOL     OW29943   3.531   3.078   6.242  0.3363 -0.1644  0.2051
 9801SOL    HW129944   3.484   3.034   6.171  1.0998  0.4041 -0.6823
 9801SOL    HW229945   3.525   3.171   6.220  1.0370 -0.0173  0.5967
 9802SOL     OW29946   7.576   2.272   3.436 -0.2267  0.3563  0.1909
 9802SOL    HW129947   7.644   2.240   3.495  0.2078 -2.4889 -1.6550
 9802SOL    HW229948   7.499   2.283   3.493  0.4035 -1.4371  1.4972
 9803SOL     OW29949   3.410   3.731   6.316  0.0008 -0.1734  0.3141
 9803SOL    HW129950   3.410   3.810   6.263  1.1610  0.2039  0.8248
 9803SOL    HW229951   3.502   3.720   6.341 -0.4297 -0.6387  1.7756
 9804SOL     OW29952   7.243   6.209   5.449 -0.1528 -0.3031 -0.0235
 9804SOL    HW129953   7.297   6.273   5.403  0.9924 -0.9210  0.4190
 9804SOL    HW229954   7.303   6.166   5.510 -0.8665 -1.8782 -0.3694
 9805SOL     OW29955   6.289   1.968   3.071 -0.1205  0.2104 -0.1810
 9805SOL    HW129956   6.229   1.999   3.139 -0.4653  0.6518 -0.6839
 9805SOL    HW229957   6.329   1.889   3.109 -0.9169 -0.0159  0.2082
 9806SOL     OW29958   0.362   4.868   6.760 -0.7052 -0.0138  1.0314
 9806SOL    HW129959   0.457   4.852   6.755 -0.7279 -0.6070  2.2543
 9806SOL    HW229960   0.352   4.957   6.725 -0.0247 -0.8318 -1.5060
 9807SOL     OW29961   4.349   0.852   5.395 -0.0411 -0.2197  0.4863
 9807SOL    HW129962   4.387   0.926   5.348 -0.4495  0.3425  1.0341
 9807SOL    HW229963   4.423   0.812   5.440  0.1066  0.1245  0.5502
 9808SOL     OW29964   0.503   7.305   3.534  0.3656  0.1265  0.2469
 9808SOL    HW129965   0.435   7.249   3.572 -0.9759  1.3191 -0.3133
 9808SOL    HW229966   0.532   7.360   3.606  0.2126  0.1101  0.3211
 9809SOL     OW29967   0.866   2.685   6.635  0.5472 -0.1655 -0.4199
 9809SOL    HW129968   0.891   2.771   6.601  0.7783  0.5727  1.5080
 9809SOL    HW229969   0.929   2.625   6.596  0.4734  0.5329 -1.6896
 9810SOL     OW29970   7.147   2.892   3.070 -0.2275  0.1002 -0.1100
 9810SOL    HW129971   7.145   2.834   3.147 -2.1325 -0.2150 -0.3536
 9810SOL    HW229972   7.088   2.850   3.008 -1.5011  2.2043 -0.3805
 9811SOL     OW29973   2.745   4.890   1.861 -0.0604  0.0929  0.3850
 9811SOL    HW129974   2.785   4.821   1.915  0.7850 -0.2190 -0.6040
 9811SOL    HW229975   2.687   4.844   1.802  0.7059  0.1778 -0.4589
 9812SOL     OW29976   1.163   0.643   6.851  0.0260 -0.5452 -0.2284
 9812SOL    HW129977   1.149   0.562   6.901  0.5032 -1.0127 -0.8440
 9812SOL    HW229978   1.189   0.707   6.917 -0.3871 -0.8812  0.2694
 9813SOL     OW29979   0.037   4.117   3.647 -0.2505  0.5834 -0.2212
 9813SOL    HW129980   0.028   4.022   3.642 -0.0224  0.5164  0.4915
 9813SOL    HW229981   0.022   4.147   3.558 -3.6506  0.1628  0.0772
 9814SOL     OW29982   5.998   4.763   7.565 -0.5112  0.0541 -0.5496
 9814SOL    HW129983   5.948   4.840   7.591 -1.0589  0.5372 -2.8639
 9814SOL    HW229984   5.949   4.726   7.492  0.3536 -1.8612 -0.2198
 9815SOL     OW29985   0.258   2.752   1.762  0.3990 -0.1530 -0.0856
 9815SOL    HW129986   0.179   2.784   1.806  0.7158  1.4473 -0.6227
 9815SOL    HW229987   0.304   2.831   1.734  1.9445 -1.0655 -0.2476
 9816SOL     OW29988   1.101   3.373   0.266 -0.0101 -0.3940 -0.0204
 9816SOL    HW129989   1.133   3.322   0.192 -0.7331  0.5820 -1.0185
 9816SOL    HW229990   1.008   3.386   0.249  0.1129  1.0504  0.3278
 9817SOL     OW29991   1.004   4.340   1.571 -0.0170 -0.4292 -0.6417
 9817SOL    HW129992   0.950   4.406   1.616 -0.2622  0.7492 -2.5580
 9817SOL    HW229993   1.062   4.391   1.515  1.5260 -1.7866 -0.3534
 9818SOL     OW29994   5.318   5.098   5.311 -0.8085 -0.9498 -0.2222
 9818SOL    HW129995   5.411   5.114   5.294 -0.4310 -2.4719  0.2680
 9818SOL    HW229996   5.309   5.003   5.306 -2.2613 -0.8477  0.1583
 9819SOL     OW29997   3.189   2.015   5.883  0.0171 -0.1372 -0.0980
 9819SOL    HW129998   3.241   1.935   5.882 -0.4771 -0.4805 -1.5396
 9819SOL    HW229999   3.115   1.995   5.939  0.0810 -0.5741 -0.1670
 9820SOL     OW30000   1.798   4.194   7.336  0.1895  0.0307  0.1541
 9820SOL    HW130001   1.840   4.135   7.398 -0.1835  0.3034  0.6746
 9820SOL    HW230002   1.774   4.137   7.262  2.8826  0.1532 -0.9035
 9821SOL     OW30003   0.629   5.700   1.149 -0.9463  0.2873  0.5128
 9821SOL    HW130004   0.626   5.694   1.245  0.2043 -0.7968  0.5077
 9821SOL    HW230005   0.639   5.609   1.120 -0.3580  0.6863 -0.5878
 9822SOL     OW30006   1.386   2.722   6.033  0.1081 -0.2651 -0.2679
 9822SOL    HW130007   1.414   2.739   6.123  0.3323  0.1822 -0.4224
 9822SOL    HW230008   1.300   2.762   6.027  0.3620  0.2572 -0.4399
 9823SOL     OW30009   7.393   5.745   4.969 -0.5530 -0.1565 -0.1278
 9823SOL    HW130010   7.445   5.806   4.916  0.1728 -0.0645  0.6746
 9823SOL    HW230011   7.409   5.659   4.929 -1.2147  0.1035 -0.9776
 9824SOL     OW30012   3.019   2.004   2.025  0.1554 -0.7975  0.2659
 9824SOL    HW130013   3.050   2.037   1.941  3.8662 -0.0926  1.7435
 9824SOL    HW230014   3.049   1.914   2.028 -0.3457 -0.9550  0.6619
 9825SOL     OW30015   2.661   0.857   1.046 -0.1268  0.2825 -0.1061
 9825SOL    HW130016   2.609   0.926   1.088  0.5020 -0.2047  1.5404
 9825SOL    HW230017   2.741   0.901   1.018  0.1723  0.2904  0.7289
 9826SOL     OW30018   5.018   4.180   1.489 -0.6578 -0.2380  0.0146
 9826SOL    HW130019   4.938   4.158   1.441 -0.8102  2.2555 -1.0392
 9826SOL    HW230020   4.988   4.211   1.574 -0.8953  0.8604 -0.4417
 9827SOL     OW30021   3.285   0.244   1.790  0.4182 -0.0687 -0.1886
 9827SOL    HW130022   3.217   0.311   1.797  0.0367 -0.1829 -2.1848
 9827SOL    HW230023   3.366   0.289   1.815 -0.1818  0.4306  0.9027
 9828SOL     OW30024   3.380   2.983   2.102 -0.3170  0.2559 -0.1529
 9828SOL    HW130025   3.443   2.917   2.076  0.0650  0.0106  1.3249
 9828SOL    HW230026   3.342   3.015   2.019  0.4330 -0.8624 -0.9409
 9829SOL     OW30027   0.894   7.355   5.898  0.2474 -0.0012 -0.3130
 9829SOL    HW130028   0.908   7.263   5.873  2.1556  0.0970  0.2157
 9829SOL    HW230029   0.839   7.391   5.828 -0.3086 -1.4638 -0.6619
 9830SOL     OW30030   3.808   4.531   6.333  0.2539 -0.0144  0.1078
 9830SOL    HW130031   3.772   4.608   6.377  1.0048  1.1424 -1.2008
 9830SOL    HW230032   3.790   4.547   6.240  1.5047 -0.8268 -0.2991
 9831SOL     OW30033   4.073   3.831   1.086  0.1509 -0.4479  0.0220
 9831SOL    HW130034   4.001   3.809   1.027  0.6992 -0.3087 -0.7220
 9831SOL    HW230035   4.130   3.754   1.085 -0.1640 -0.7001  0.8922
 9832SOL     OW30036   4.239   6.773   4.218 -0.3268 -0.9424 -0.3756
 9832SOL    HW130037   4.296   6.761   4.142  0.7809  0.2657  0.2340
 9832SOL    HW230038   4.189   6.852   4.199  2.2902  1.3549  1.4392
 9833SOL     OW30039   1.085   2.988   6.439 -0.2034 -0.0455  0.3371
 9833SOL    HW130040   1.049   3.027   6.519 -0.8789 -0.4755  0.2568
 9833SOL    HW230041   1.162   3.040   6.419 -1.5378  1.7958 -0.2642
 9834SOL     OW30042   2.205   5.425   4.857  0.2737  0.2249  0.6310
 9834SOL    HW130043   2.157   5.355   4.813  2.5547 -0.8034 -0.3523
 9834SOL    HW230044   2.233   5.387   4.940  0.9130  0.1907  0.4055
 9835SOL     OW30045   6.560   3.542   0.669  0.0495 -0.1633 -0.1420
 9835SOL    HW130046   6.655   3.533   0.661 -0.1130 -0.4874 -2.0994
 9835SOL    HW230047   6.528   3.452   0.672 -0.1959 -0.0545  0.8131
 9836SOL     OW30048   0.002   4.591   1.355 -0.0025  0.4280  0.0271
 9836SOL    HW130049  -0.014   4.506   1.395  0.7295  0.8877  1.3574
 9836SOL    HW230050  -0.059   4.651   1.398 -1.1098  0.4444 -1.5017
 9837SOL     OW30051   0.453   2.453   6.749  0.2328 -0.4555 -0.2137
 9837SOL    HW130052   0.508   2.387   6.790 -1.5436 -1.1423  1.2231
 9837SOL    HW230053   0.494   2.537   6.772 -0.3502 -0.8332  2.5836
 9838SOL     OW30054   2.065   6.381   2.980  0.0554  0.1193 -0.3397
 9838SOL    HW130055   1.997   6.314   2.977  0.1773  0.0074 -0.6130
 9838SOL    HW230056   2.034   6.444   3.046 -0.0631 -0.1973 -0.0925
 9839SOL     OW30057   1.426   0.605   3.269 -0.3708 -0.0603  0.0022
 9839SOL    HW130058   1.387   0.671   3.212  1.0769  1.1674  0.3739
 9839SOL    HW230059   1.363   0.595   3.340 -1.1711  0.0017 -0.6776
 9840SOL     OW30060   2.783   6.857   4.009 -0.1264  0.1177 -0.0429
 9840SOL    HW130061   2.862   6.908   3.988 -0.4196  0.5822 -0.0334
 9840SOL    HW230062   2.719   6.885   3.945 -0.6316  0.5871  0.6481
 9841SOL     OW30063   3.970   0.493   3.129  0.0098 -0.5542 -0.0907
 9841SOL    HW130064   4.010   0.412   3.099  0.2846 -1.2810  2.0291
 9841SOL    HW230065   3.985   0.494   3.224 -1.4311  1.1577  0.1949
 9842SOL     OW30066   4.240   4.934   4.869  0.5556 -0.7164  0.1993
 9842SOL    HW130067   4.260   4.941   4.776  0.4620 -1.9576  0.0617
 9842SOL    HW230068   4.298   4.997   4.912  1.0729 -0.6094 -0.6437
 9843SOL     OW30069   0.864   4.716   7.438 -0.5084 -0.6306 -0.1321
 9843SOL    HW130070   0.943   4.694   7.388  0.0892  0.0252  0.4949
 9843SOL    HW230071   0.802   4.746   7.371  0.9009  2.0108 -0.4050
 9844SOL     OW30072   3.217   3.702   7.621  0.4718 -0.0390  0.4676
 9844SOL    HW130073   3.179   3.782   7.585  0.3766 -0.0166  0.6164
 9844SOL    HW230074   3.296   3.687   7.568 -0.2305 -0.5893 -0.4526
 9845SOL     OW30075   2.761   4.157   3.303  0.3984 -0.2272 -0.0680
 9845SOL    HW130076   2.781   4.196   3.388 -0.0565  1.4689 -0.7017
 9845SOL    HW230077   2.685   4.102   3.320  0.5687 -0.2285  0.7111
 9846SOL     OW30078   6.341   0.226   7.235 -0.2384  0.5136  0.0046
 9846SOL    HW130079   6.255   0.253   7.201 -0.4094 -1.9927 -1.8713
 9846SOL    HW230080   6.375   0.167   7.168  2.5636  0.6679  1.1687
 9847SOL     OW30081   6.706   1.182   1.283  0.7673 -0.2975 -0.1275
 9847SOL    HW130082   6.764   1.248   1.319 -0.6296  0.8910  0.0387
 9847SOL    HW230083   6.756   1.142   1.211  1.3223  1.5584 -0.8266
 9848SOL     OW30084   0.005   7.251   3.205 -0.4524 -0.0058 -0.0995
 9848SOL    HW130085  -0.070   7.193   3.221  0.5297 -1.0943  0.6705
 9848SOL    HW230086  -0.032   7.339   3.216 -1.2776 -0.5449  2.0326
 9849SOL     OW30087   4.468   6.115   1.503 -0.7392  0.3028 -0.7670
 9849SOL    HW130088   4.430   6.108   1.415 -1.8500  2.1154 -0.4880
 9849SOL    HW230089   4.511   6.200   1.504 -0.4389  0.1572  0.3327
 9850SOL     OW30090   7.476   2.667   7.254 -0.1371 -0.8616  0.1436
 9850SOL    HW130091   7.390   2.710   7.252 -0.0540 -0.6987  0.1179
 9850SOL    HW230092   7.518   2.699   7.333 -0.3915 -1.5106  0.5485
 9851SOL     OW30093   7.387   6.792   3.760  0.2181 -0.5210 -0.4139
 9851SOL    HW130094   7.458   6.816   3.701 -1.2362  0.1045 -1.9970
 9851SOL    HW230095   7.426   6.795   3.847  1.7169  1.4859 -1.0733
 9852SOL     OW30096   6.384   0.325   3.750 -0.0541  0.2648 -0.2691
 9852SOL    HW130097   6.403   0.259   3.684 -0.8241  1.8710 -2.2086
 9852SOL    HW230098   6.346   0.277   3.823  0.4058 -1.5376 -1.1762
 9853SOL     OW30099   6.807   6.620   5.466 -0.1639 -0.3769 -0.0997
 9853SOL    HW130100   6.856   6.592   5.388  0.5730  1.1331 -0.2073
 9853SOL    HW230101   6.873   6.628   5.534 -0.7803 -1.5038  0.6611
 9854SOL     OW30102   3.369   1.875   4.256  0.3842 -0.1982  0.1524
 9854SOL    HW130103   3.284   1.882   4.300 -0.1074  1.8282 -0.9950
 9854SOL    HW230104   3.351   1.899   4.165  1.8487 -1.7532 -0.6131
 9855SOL     OW30105   1.953   7.484   0.423  0.5294  0.1233  0.0698
 9855SOL    HW130106   1.921   7.545   0.356  0.6578 -2.0692 -2.1442
 9855SOL    HW230107   1.875   7.436   0.451  0.4609  1.1041  1.6298
 9856SOL     OW30108   1.484   5.812   2.006  0.0025  0.1356  0.1445
 9856SOL    HW130109   1.553   5.863   2.048  0.0055 -1.2452  1.9338
 9856SOL    HW230110   1.512   5.805   1.915  0.9948  1.6056  0.3015
 9857SOL     OW30111   2.749   5.136   6.225 -0.3379 -0.1395 -0.7184
 9857SOL    HW130112   2.725   5.212   6.171  0.0656  0.4788 -0.0465
 9857SOL    HW230113   2.793   5.077   6.164 -1.7292 -0.3864 -1.5174
 9858SOL     OW30114   1.913   2.568   3.985  0.1315  0.3677 -0.0772
 9858SOL    HW130115   1.859   2.536   3.912 -0.3799  1.2111 -0.0887
 9858SOL    HW230116   1.892   2.662   3.990  0.8543  0.5000  0.5672
 9859SOL     OW30117   1.882   6.965   6.063  0.2633  0.0757  0.1997
 9859SOL    HW130118   1.827   6.956   5.984  0.1527 -0.0180  0.2875
 9859SOL    HW230119   1.856   6.892   6.119 -0.2701  0.6265  0.6881
 9860SOL     OW30120   6.408   3.328   5.353  0.2339  0.2720 -0.4418
 9860SOL    HW130121   6.459   3.381   5.291  0.3058  0.2772 -0.3784
 9860SOL    HW230122   6.324   3.315   5.310 -0.6371  2.3716  0.4894
 9861SOL     OW30123   1.682   0.600   3.251  0.1839  0.5146 -0.1740
 9861SOL    HW130124   1.587   0.603   3.262  0.4136  1.3410  2.0456
 9861SOL    HW230125   1.713   0.684   3.285  1.6989  0.3990 -1.1813
 9862SOL     OW30126   3.189   5.218   3.072 -0.4657  0.6077 -0.1639
 9862SOL    HW130127   3.238   5.265   3.004 -0.3149  0.5892 -0.0692
 9862SOL    HW230128   3.112   5.183   3.027 -0.6643  1.0821 -0.2009
 9863SOL     OW30129   1.618   3.619   4.354  0.1687 -0.1307  0.6917
 9863SOL    HW130130   1.638   3.602   4.446  0.7416  1.3735  0.8752
 9863SOL    HW230131   1.524   3.635   4.353 -0.0008 -1.0569  0.8539
 9864SOL     OW30132   6.505   0.088   5.521 -0.3910  0.4044  0.5104
 9864SOL    HW130133   6.534  -0.001   5.538  0.6611  0.6531  0.1343
 9864SOL    HW230134   6.428   0.079   5.466 -0.5552 -0.2771  0.8448
 9865SOL     OW30135   3.182   5.639   5.132  0.4150 -0.2952 -0.2929
 9865SOL    HW130136   3.234   5.559   5.118 -1.4013 -1.7781  0.8416
 9865SOL    HW230137   3.160   5.669   5.045  3.2389  0.4933 -0.8265
 9866SOL     OW30138   6.060   4.849   6.558 -0.2335 -0.0971  0.4108
 9866SOL    HW130139   6.135   4.904   6.537  0.6518 -1.2179  0.5245
 9866SOL    HW230140   6.043   4.865   6.651 -0.8275  0.9572  0.1302
 9867SOL     OW30141   6.841   0.340   4.791 -0.3503  0.2094 -0.4410
 9867SOL    HW130142   6.800   0.282   4.727  0.1141  0.5053 -1.0116
 9867SOL    HW230143   6.875   0.414   4.739 -0.1770  0.5674  0.1690
 9868SOL     OW30144   5.535   2.705   0.342 -0.2871  0.1606 -0.5681
 9868SOL    HW130145   5.614   2.748   0.309  0.0148 -0.6990 -0.9926
 9868SOL    HW230146   5.507   2.759   0.416  1.1818  0.0067  0.1387
 9869SOL     OW30147   4.043   1.566   2.614  0.5651 -0.3936 -0.2467
 9869SOL    HW130148   4.011   1.476   2.611 -0.4100 -0.0843  0.2721
 9869SOL    HW230149   4.058   1.590   2.523 -1.9188 -0.1694 -0.6775
 9870SOL     OW30150   3.036   2.525   1.749  0.1183 -0.6892 -0.5437
 9870SOL    HW130151   3.079   2.509   1.833 -0.7423  1.7542  0.4524
 9870SOL    HW230152   3.062   2.614   1.725 -1.4810 -0.4776 -1.6912
 9871SOL     OW30153   1.472   0.026   6.699 -0.2352 -0.4498  0.5157
 9871SOL    HW130154   1.387   0.002   6.737  0.4724 -1.2731  1.6349
 9871SOL    HW230155   1.529  -0.048   6.720  0.9274  0.3866  0.3635
 9872SOL     OW30156   3.028   4.877   6.981 -0.5198  0.3476  0.2945
 9872SOL    HW130157   3.090   4.804   6.983  1.3072  1.8142  2.0201
 9872SOL    HW230158   2.954   4.847   7.033 -0.2658 -0.6570  0.0990
 9873SOL     OW30159   6.498   6.979   0.389 -0.2997 -0.4774 -0.3165
 9873SOL    HW130160   6.556   6.959   0.315 -0.9454  0.1740 -1.0239
 9873SOL    HW230161   6.462   7.066   0.368 -0.2061 -0.1175  0.9550
 9874SOL     OW30162   3.197   6.258   5.810 -0.0191  0.3961 -0.4110
 9874SOL    HW130163   3.224   6.180   5.858 -0.4107  0.0424 -0.7636
 9874SOL    HW230164   3.188   6.229   5.719 -1.1056  0.6182 -0.3810
 9875SOL     OW30165   5.157   4.279   0.534 -0.3259  0.0459 -0.0825
 9875SOL    HW130166   5.107   4.337   0.591 -0.5782  0.2092 -0.4668
 9875SOL    HW230167   5.217   4.233   0.593  0.3919  1.2183  0.1411
 9876SOL     OW30168   7.013   6.613   1.417 -0.3975 -0.4056  0.1441
 9876SOL    HW130169   6.972   6.674   1.478 -4.0940 -2.0958 -0.4155
 9876SOL    HW230170   7.005   6.656   1.332 -0.7886 -0.6604  0.0552
 9877SOL     OW30171   0.489   7.622   1.231 -0.3407 -0.2445  0.3449
 9877SOL    HW130172   0.511   7.531   1.212  0.1595  0.0986 -0.8073
 9877SOL    HW230173   0.560   7.653   1.288 -0.9616 -0.8052  1.4444
 9878SOL     OW30174   2.789   6.356   6.211 -0.0086  0.0447 -0.4155
 9878SOL    HW130175   2.875   6.316   6.203 -0.4990 -0.9230 -1.0974
 9878SOL    HW230176   2.749   6.313   6.287 -0.4324 -0.6022 -0.9856
 9879SOL     OW30177   6.260   3.921   0.370  0.1791  0.5581  0.0083
 9879SOL    HW130178   6.219   4.004   0.344 -1.1329 -0.6530 -2.0455
 9879SOL    HW230179   6.329   3.906   0.305 -1.4907 -1.2977 -1.4502
 9880SOL     OW30180   1.207   0.813   5.012 -0.3799  0.3097  0.3967
 9880SOL    HW130181   1.299   0.827   5.033  0.2329  1.0710 -2.4226
 9880SOL    HW230182   1.164   0.894   5.042 -0.2239 -0.1184  1.8798
 9881SOL     OW30183   5.294   0.696   1.107  0.2531  0.1570  0.0045
 9881SOL    HW130184   5.237   0.645   1.165 -0.8477  0.2541 -0.9351
 9881SOL    HW230185   5.339   0.631   1.055  0.5994  0.0917  0.3825
 9882SOL     OW30186   1.924   2.368   4.473 -0.6080  0.0488  0.2027
 9882SOL    HW130187   1.836   2.334   4.490 -0.0531 -1.4851  0.1508
 9882SOL    HW230188   1.931   2.369   4.378 -0.9880  1.3771  0.1618
 9883SOL     OW30189   4.681   4.512   2.531 -0.4901  0.5231 -0.2355
 9883SOL    HW130190   4.618   4.451   2.493 -1.2884  0.4159  1.2138
 9883SOL    HW230191   4.752   4.516   2.466 -1.1292 -0.7520 -1.0569
 9884SOL     OW30192   7.598   2.752   0.868  0.3877  0.6819  0.0830
 9884SOL    HW130193   7.671   2.748   0.929 -0.0285 -0.8239  0.5388
 9884SOL    HW230194   7.611   2.677   0.810  0.1486  1.4222 -0.9482
 9885SOL     OW30195   4.514   5.429   4.239 -0.3749 -0.1802  0.1488
 9885SOL    HW130196   4.442   5.464   4.291 -2.1644 -2.0009 -0.9767
 9885SOL    HW230197   4.549   5.357   4.292 -0.6952 -0.5588 -0.1467
 9886SOL     OW30198   2.490   0.572   6.299  0.4530 -0.1117 -0.3914
 9886SOL    HW130199   2.409   0.584   6.348  0.9246  2.2096 -0.0611
 9886SOL    HW230200   2.548   0.525   6.360  0.7206  1.9333  1.0436
 9887SOL     OW30201   4.218   7.540   1.198  0.1562 -0.8845  0.2777
 9887SOL    HW130202   4.234   7.605   1.265 -0.4726 -2.1340  1.6985
 9887SOL    HW230203   4.171   7.470   1.243 -0.8456 -1.4973 -1.6091
 9888SOL     OW30204   4.055   0.644   1.492 -0.0024  0.0323 -0.1547
 9888SOL    HW130205   3.973   0.609   1.528 -0.3108  1.2485  0.3564
 9888SOL    HW230206   4.118   0.572   1.501 -0.6473 -0.4267  0.7911
 9889SOL     OW30207   7.347   2.941   3.549 -0.2474 -0.0031 -0.3280
 9889SOL    HW130208   7.285   2.909   3.614 -0.9252 -0.2129 -1.0584
 9889SOL    HW230209   7.404   2.867   3.531  0.4481  0.2909  0.5935
 9890SOL     OW30210   1.554   0.732   3.826  0.2919 -0.9586 -0.2715
 9890SOL    HW130211   1.539   0.639   3.842  1.6957 -1.0898  0.4129
 9890SOL    HW230212   1.531   0.744   3.734  0.5780 -2.1033 -0.5128
 9891SOL     OW30213   1.901   2.888   4.030  0.4536  0.3251  0.3077
 9891SOL    HW130214   1.945   2.949   3.971 -0.1854  2.3047  1.7702
 9891SOL    HW230215   1.971   2.848   4.081  0.8763 -0.1930 -0.6533
 9892SOL     OW30216   7.368   2.978   5.769 -0.1004  0.1155 -0.5878
 9892SOL    HW130217   7.359   3.073   5.776  1.0730  0.2868 -1.1560
 9892SOL    HW230218   7.325   2.943   5.847  0.8957  1.1980  0.4839
 9893SOL     OW30219   1.851   5.695   2.455 -0.4613  0.1462 -0.5876
 9893SOL    HW130220   1.870   5.783   2.422  1.9473 -0.3696 -0.7523
 9893SOL    HW230221   1.905   5.637   2.401 -3.2323 -1.7091 -1.6462
 9894SOL     OW30222   7.192   5.423   0.595  0.0938  0.1689  0.2546
 9894SOL    HW130223   7.197   5.397   0.503  2.6349  0.7542  0.1481
 9894SOL    HW230224   7.187   5.340   0.643 -3.4138 -0.1244 -0.3687
 9895SOL     OW30225   1.817   2.141   6.930 -0.6724  0.3317  0.1090
 9895SOL    HW130226   1.862   2.105   6.854 -1.2532 -0.0824 -0.0460
 9895SOL    HW230227   1.886   2.151   6.996  0.1197  2.0325 -0.9051
 9896SOL     OW30228   3.232   2.745   2.835  0.4690 -0.0795 -0.6304
 9896SOL    HW130229   3.299   2.809   2.814 -0.0398  1.0130  0.8898
 9896SOL    HW230230   3.251   2.718   2.925 -0.4393 -0.6273 -0.5832
 9897SOL     OW30231   6.097   3.089   2.036  0.3604  0.0938 -0.1467
 9897SOL    HW130232   6.157   3.021   2.007  1.7780  0.7127  1.1947
 9897SOL    HW230233   6.013   3.044   2.048  1.0953 -1.2601  0.0503
 9898SOL     OW30234   3.113   5.948   6.955 -0.2265 -0.3634  0.1863
 9898SOL    HW130235   3.173   5.875   6.971  0.4061  0.1571  0.1800
 9898SOL    HW230236   3.167   6.026   6.962 -1.0541  0.1533  0.9446
 9899SOL     OW30237   3.855   3.706   3.874 -0.2255  0.2932 -0.3380
 9899SOL    HW130238   3.856   3.802   3.873 -0.8609  0.3036 -0.4581
 9899SOL    HW230239   3.812   3.684   3.957  0.9910  0.0856  0.2728
 9900SOL     OW30240   0.599   2.735   7.500 -1.0033  0.1806 -0.0264
 9900SOL    HW130241   0.682   2.779   7.521 -2.0919  2.0802  0.5040
 9900SOL    HW230242   0.598   2.659   7.559 -1.0243  1.8687  2.3228
 9901SOL     OW30243   2.551   0.876   3.084 -0.2233 -0.7335  0.7359
 9901SOL    HW130244   2.553   0.797   3.030 -1.3146 -0.1021 -0.2734
 9901SOL    HW230245   2.464   0.912   3.071  0.1803  0.5233  1.3654
 9902SOL     OW30246   2.282   2.107   4.466 -0.7693  0.0796 -0.3558
 9902SOL    HW130247   2.265   2.128   4.374  0.6854  0.9085 -0.4596
 9902SOL    HW230248   2.224   2.166   4.515  0.0171  1.1956 -0.7281
 9903SOL     OW30249   1.434   4.971   4.755  0.0566  0.4420 -0.0377
 9903SOL    HW130250   1.383   5.038   4.709 -1.7171  0.3446  1.6717
 9903SOL    HW230251   1.434   4.896   4.696  0.4102  1.2726 -1.1390
 9904SOL     OW30252   3.088   0.861   7.260 -0.3006 -0.5505  0.2696
 9904SOL    HW130253   3.152   0.903   7.203 -1.0417 -1.7552 -1.5282
 9904SOL    HW230254   3.003   0.879   7.219 -0.6764 -3.4789 -0.4607
 9905SOL     OW30255   2.026   6.783   7.074 -0.9206  0.6526  0.7857
 9905SOL    HW130256   1.936   6.756   7.059 -0.3469 -0.2546 -1.5245
 9905SOL    HW230257   2.044   6.847   7.004  0.1680  0.9370  1.2965
 9906SOL     OW30258   1.499   7.045   4.758 -0.4611 -0.4128 -0.4221
 9906SOL    HW130259   1.458   6.983   4.819 -1.1941  0.2214 -0.2585
 9906SOL    HW230260   1.491   7.130   4.802  0.5871 -0.2043 -0.6208
 9907SOL     OW30261   2.795   2.962   1.506 -0.2185 -0.1425  0.1728
 9907SOL    HW130262   2.875   2.912   1.526  0.6129  0.6151 -1.1402
 9907SOL    HW230263   2.825   3.051   1.489 -1.5417  0.5441  1.1786
 9908SOL     OW30264   3.449   7.218   7.043 -0.1094 -0.2506 -0.1794
 9908SOL    HW130265   3.487   7.300   7.075 -2.4261  1.2305 -0.9964
 9908SOL    HW230266   3.421   7.171   7.122 -0.0078  0.3799  0.2346
 9909SOL     OW30267   6.232   4.931   2.219 -0.2595 -0.1850  0.1648
 9909SOL    HW130268   6.169   4.879   2.170 -0.3008  0.5461 -0.5870
 9909SOL    HW230269   6.179   4.993   2.270 -0.1636  0.7677 -0.8545
 9910SOL     OW30270   3.408   1.292   5.274  0.1072  0.3448 -0.1232
 9910SOL    HW130271   3.448   1.271   5.358 -1.8120  2.2642  1.3995
 9910SOL    HW230272   3.477   1.337   5.225  0.4441  1.9179  1.6768
 9911SOL     OW30273   7.370   5.836   0.376 -0.1950  0.3191 -0.2498
 9911SOL    HW130274   7.275   5.836   0.379 -0.2330  1.7475 -0.6807
 9911SOL    HW230275   7.391   5.829   0.283  0.1329 -0.3198 -0.1323
 9912SOL     OW30276   4.356   5.060   6.007 -0.3020 -0.5969 -0.4475
 9912SOL    HW130277   4.448   5.041   6.025  0.2681  1.0569 -1.3223
 9912SOL    HW230278   4.313   4.975   6.009  1.5205 -1.6268 -1.5593
 9913SOL     OW30279   4.470   5.490   3.357 -0.2615  0.2637  0.1068
 9913SOL    HW130280   4.419   5.549   3.301 -3.3741 -1.5772  0.7963
 9913SOL    HW230281   4.433   5.404   3.341  1.5211 -0.9519  2.0169
 9914SOL     OW30282   6.441   5.252   0.560 -0.5274  0.3126 -0.6878
 9914SOL    HW130283   6.492   5.200   0.621 -1.5074 -1.7304 -1.5228
 9914SOL    HW230284   6.431   5.196   0.483 -1.5718  1.7758 -1.6671
 9915SOL     OW30285   6.058   0.776   1.638  0.2848 -0.1667 -0.0091
 9915SOL    HW130286   6.147   0.757   1.607  0.9381 -0.3313  1.8197
 9915SOL    HW230287   6.067   0.857   1.689 -0.5902 -0.2287  0.2602
 9916SOL     OW30288   6.528   6.024   7.247 -0.1096  0.0297 -0.0688
 9916SOL    HW130289   6.594   6.094   7.251 -0.3391  0.2248  0.4697
 9916SOL    HW230290   6.548   5.968   7.321 -0.5084  0.0563  0.0633
 9917SOL     OW30291   4.597   2.193   7.434  0.0767 -0.2855  0.0923
 9917SOL    HW130292   4.536   2.179   7.506 -0.6577 -1.2172 -0.6985
 9917SOL    HW230293   4.682   2.202   7.477 -0.4061 -0.3890  1.1020
 9918SOL     OW30294   4.266   0.348   1.876 -0.3166  0.2336  0.8240
 9918SOL    HW130295   4.318   0.316   1.950 -0.9015 -2.5118  0.1554
 9918SOL    HW230296   4.330   0.365   1.807  0.0632  1.0621  1.3694
 9919SOL     OW30297   5.827   3.071   2.758 -0.5162  0.3414 -0.4046
 9919SOL    HW130298   5.756   3.119   2.799  0.3791 -0.3100  2.0745
 9919SOL    HW230299   5.893   3.062   2.827  1.4254 -0.1981 -2.2254
 9920SOL     OW30300   4.393   2.162   3.563 -0.1635 -0.0429  0.6071
 9920SOL    HW130301   4.329   2.228   3.588  0.5301  0.2350  1.6834
 9920SOL    HW230302   4.341   2.082   3.551 -0.9918  0.6436 -0.6331
 9921SOL     OW30303   7.057   1.954   3.080  0.5910  0.3649  0.0607
 9921SOL    HW130304   7.003   2.032   3.096  0.0096  0.1356 -0.6937
 9921SOL    HW230305   7.147   1.984   3.090  0.3651  1.0864 -0.0048
 9922SOL     OW30306   5.309   4.099   3.752  0.3058 -0.2908  0.5455
 9922SOL    HW130307   5.324   4.102   3.657 -2.3997  0.2996  0.0562
 9922SOL    HW230308   5.287   4.189   3.775  1.3153 -0.3497  1.8657
 9923SOL     OW30309   1.917   4.336   2.150 -0.0193  0.2537 -0.1702
 9923SOL    HW130310   1.877   4.391   2.217  1.2481  0.9763  0.0366
 9923SOL    HW230311   2.007   4.322   2.180  1.1779  2.0911 -2.4904
 9924SOL     OW30312   2.565   0.763   5.379 -0.2857 -0.2663  0.7306
 9924SOL    HW130313   2.537   0.676   5.352 -1.1031 -0.0985  1.0205
 9924SOL    HW230314   2.488   0.819   5.367  0.2290  0.4179  0.5430
 9925SOL     OW30315   0.506   5.854   0.614  0.2644 -0.2674 -0.4247
 9925SOL    HW130316   0.428   5.905   0.591 -1.3927 -3.4511 -2.6322
 9925SOL    HW230317   0.574   5.887   0.555 -0.1474  0.7429 -0.3581
 9926SOL     OW30318   5.314   3.771   6.854  0.0551 -0.3064  0.8288
 9926SOL    HW130319   5.393   3.774   6.800  0.9641 -1.7078  1.9896
 9926SOL    HW230320   5.242   3.790   6.793  1.3103  1.9344 -0.0730
 9927SOL     OW30321   4.480   6.342   4.518  0.5163  0.4018  0.1278
 9927SOL    HW130322   4.432   6.415   4.477  0.8739  0.5372 -0.0488
 9927SOL    HW230323   4.549   6.321   4.456 -1.1934 -1.8944 -1.1392
 9928SOL     OW30324   6.065   6.091   2.727 -0.0688 -0.0402 -0.1525
 9928SOL    HW130325   6.060   6.024   2.795  2.3886 -0.7662 -0.5879
 9928SOL    HW230326   6.147   6.073   2.681  1.1162  3.6789  0.1569
 9929SOL     OW30327   6.826   7.076   5.006 -0.0100 -0.6845 -0.9336
 9929SOL    HW130328   6.777   7.010   5.055  1.3234 -0.9809  0.0748
 9929SOL    HW230329   6.878   7.122   5.073  0.4335  0.1741 -1.8413
 9930SOL     OW30330   4.977   1.871   6.086  0.5793  0.7876  0.0414
 9930SOL    HW130331   4.900   1.839   6.133 -0.5407  0.8080 -1.6927
 9930SOL    HW230332   5.031   1.912   6.153 -1.2807  1.4740  1.1996
 9931SOL     OW30333   1.224   0.861   1.307 -0.2551 -0.2113 -0.1732
 9931SOL    HW130334   1.232   0.924   1.235  0.3171 -0.0312  0.0406
 9931SOL    HW230335   1.262   0.906   1.383 -0.1051 -0.7069  0.0516
 9932SOL     OW30336   3.267   6.963   5.979  0.1423 -0.0501  0.2365
 9932SOL    HW130337   3.198   6.984   5.916 -1.2307  0.5076  1.8352
 9932SOL    HW230338   3.233   6.887   6.027  0.7446  0.0798  0.8834
 9933SOL     OW30339   3.331   4.768   7.002 -0.3322  0.7035 -0.5311
 9933SOL    HW130340   3.416   4.749   7.043  0.4251  1.7423 -1.5432
 9933SOL    HW230341   3.303   4.685   6.965 -0.6305 -0.0678  1.3082
 9934SOL     OW30342   1.123   6.364   2.460  0.3307 -0.1568 -0.6036
 9934SOL    HW130343   1.120   6.389   2.367  1.2141  0.9864 -0.3418
 9934SOL    HW230344   1.156   6.274   2.458  1.0030  0.0914 -1.3763
 9935SOL     OW30345   4.890   6.187   1.281 -0.1695 -0.6149  0.1494
 9935SOL    HW130346   4.823   6.224   1.224  0.7546 -0.7412 -1.0621
 9935SOL    HW230347   4.853   6.104   1.311 -0.4986 -0.7592 -0.6322
 9936SOL     OW30348   7.612   3.818   6.383  0.3070  0.4045 -0.0823
 9936SOL    HW130349   7.600   3.910   6.406  0.4784  0.4497 -0.1702
 9936SOL    HW230350   7.690   3.818   6.327 -0.6219  0.4062 -1.4168
 9937SOL     OW30351   7.124   6.371   1.478  0.3142  0.1720  0.1910
 9937SOL    HW130352   7.042   6.322   1.473  0.1115  0.4658  0.6122
 9937SOL    HW230353   7.102   6.457   1.441  0.9236 -0.3524 -1.5192
 9938SOL     OW30354   2.583   5.602   3.102 -0.1191 -0.1765 -0.4194
 9938SOL    HW130355   2.531   5.682   3.113 -0.8330 -0.7490  0.4692
 9938SOL    HW230356   2.525   5.541   3.056  0.4873 -0.1349 -1.2570
 9939SOL     OW30357   5.277   0.350   4.269 -0.4508  0.4643  0.4177
 9939SOL    HW130358   5.371   0.358   4.283 -0.3045  0.1565 -0.3535
 9939SOL    HW230359   5.241   0.432   4.300 -0.0095  0.2934  1.4117
 9940SOL     OW30360   2.676   2.608   6.198 -0.4254  0.1847 -0.3549
 9940SOL    HW130361   2.671   2.549   6.123 -1.0177  0.4152 -0.5031
 9940SOL    HW230362   2.588   2.645   6.206 -1.7572 -3.0907  3.1274
 9941SOL     OW30363   5.886   6.017   5.245  0.3555  0.4344 -0.6112
 9941SOL    HW130364   5.866   6.061   5.163 -0.2807 -2.7387 -2.3212
 9941SOL    HW230365   5.833   5.937   5.243  0.3855  0.1564  2.8938
 9942SOL     OW30366   6.424   2.873   0.130 -0.4538  0.3492  0.2601
 9942SOL    HW130367   6.328   2.877   0.127 -0.4653 -0.3113 -1.7291
 9942SOL    HW230368   6.446   2.792   0.084  1.0574  0.1702  1.2365
 9943SOL     OW30369   5.443   1.700   5.819 -0.3516  0.8141 -0.0331
 9943SOL    HW130370   5.504   1.627   5.812 -1.2875  0.0024 -0.0042
 9943SOL    HW230371   5.455   1.749   5.738  1.2112  1.3991  0.5169
 9944SOL     OW30372   5.825   2.942   4.372  0.0365 -0.1062  0.1459
 9944SOL    HW130373   5.754   2.930   4.435 -0.6081  1.4261 -0.2493
 9944SOL    HW230374   5.905   2.930   4.423 -0.4603  1.6399  1.3943
 9945SOL     OW30375   5.463   5.173   6.377  0.1080  0.0744  0.6347
 9945SOL    HW130376   5.437   5.128   6.457  1.2471 -1.9015 -0.0309
 9945SOL    HW230377   5.392   5.153   6.315 -0.9559  1.9035  1.1798
 9946SOL     OW30378   0.901   1.912   2.341 -0.0828  0.1866 -0.1116
 9946SOL    HW130379   0.954   1.989   2.321 -0.0651  1.0578  2.8476
 9946SOL    HW230380   0.893   1.866   2.257  3.1796  1.3375 -1.2103
 9947SOL     OW30381   2.506   0.884   7.376 -0.0266 -0.6330  0.9160
 9947SOL    HW130382   2.467   0.943   7.311 -1.3206 -1.3458  1.0246
 9947SOL    HW230383   2.445   0.884   7.449  1.0368 -0.4458  1.8391
 9948SOL     OW30384   3.425   7.085   5.597  0.0829  0.1775  0.0759
 9948SOL    HW130385   3.347   7.139   5.581 -0.2111 -0.1583  0.3358
 9948SOL    HW230386   3.389   7.003   5.631  0.4946 -0.3544 -0.7622
 9949SOL     OW30387   5.361   4.501   0.694 -0.3575 -0.3302  0.3457
 9949SOL    HW130388   5.421   4.466   0.760 -1.1814  0.2298  1.4178
 9949SOL    HW230389   5.278   4.459   0.712 -0.1194 -1.9002 -1.7828
 9950SOL     OW30390   5.524   3.968   6.259 -0.0809  0.7487 -0.0112
 9950SOL    HW130391   5.616   3.989   6.244 -0.3668  2.4211  0.4956
 9950SOL    HW230392   5.519   3.945   6.351  0.2410 -1.8932 -0.5514
 9951SOL     OW30393   5.516   0.536   4.978  0.1411 -0.7123 -0.7550
 9951SOL    HW130394   5.520   0.625   4.944  0.1910 -1.3871 -2.5798
 9951SOL    HW230395   5.607   0.506   4.978  0.0584 -0.9630 -0.6557
 9952SOL     OW30396   1.764   4.636   7.103  0.9269 -0.2573  0.1110
 9952SOL    HW130397   1.812   4.684   7.171  1.0538 -1.4085  0.8657
 9952SOL    HW230398   1.782   4.543   7.122  0.8728 -0.6151 -1.4276
 9953SOL     OW30399   1.588   3.898   4.716 -0.3899 -0.1617 -0.2007
 9953SOL    HW130400   1.599   3.915   4.622  0.0285 -0.9603 -0.3034
 9953SOL    HW230401   1.493   3.899   4.729 -0.5698 -2.1901 -1.0689
 9954SOL     OW30402   6.350   5.858   4.161 -0.2416  0.4819  0.2133
 9954SOL    HW130403   6.426   5.806   4.136 -1.4007 -1.4595  0.5239
 9954SOL    HW230404   6.290   5.849   4.087 -0.2556  1.8921  0.0250
 9955SOL     OW30405   2.643   2.153   4.750  0.0247 -0.2366 -0.2187
 9955SOL    HW130406   2.564   2.103   4.730 -0.2385  0.2977 -0.5334
 9955SOL    HW230407   2.669   2.191   4.666  0.5946 -0.3814 -0.1061
 9956SOL     OW30408   4.365   5.597   5.992  0.1905 -0.3025 -0.6983
 9956SOL    HW130409   4.325   5.680   5.967  0.5073 -0.2709 -1.1087
 9956SOL    HW230410   4.352   5.591   6.086  1.3404  0.8349 -0.4405
 9957SOL     OW30411   5.084   2.367   6.028 -0.1987 -0.2907 -0.1763
 9957SOL    HW130412   5.163   2.321   6.002  0.5219  0.2051  1.0671
 9957SOL    HW230413   5.115   2.449   6.066 -1.3710  0.4409 -0.7172
 9958SOL     OW30414   1.031   3.954   4.585 -0.5800  0.4022 -0.3663
 9958SOL    HW130415   1.064   4.042   4.605 -0.8515  0.3214  0.4495
 9958SOL    HW230416   0.938   3.957   4.608 -0.0951 -0.7975  2.0656
 9959SOL     OW30417   2.985   3.848   5.049  0.1604  0.3309 -0.2960
 9959SOL    HW130418   3.028   3.895   5.120 -2.1699  1.3734  0.5278
 9959SOL    HW230419   2.928   3.913   5.008 -1.8527 -1.2935 -0.2425
 9960SOL     OW30420   1.570   6.767   5.228 -0.9254  0.6561  0.0074
 9960SOL    HW130421   1.528   6.847   5.259 -0.7735  0.6544  0.2172
 9960SOL    HW230422   1.498   6.704   5.220 -1.1549  1.0025 -0.8146
 9961SOL     OW30423   3.992   2.752   3.706  0.6448 -0.0741 -0.0678
 9961SOL    HW130424   4.071   2.806   3.709 -0.0899  1.1081 -1.2156
 9961SOL    HW230425   3.922   2.812   3.731 -0.1857 -0.4846 -1.3630
 9962SOL     OW30426   0.684   2.625   6.222  0.1250 -0.3200  0.4155
 9962SOL    HW130427   0.724   2.705   6.254  1.6939 -0.6523 -0.5730
 9962SOL    HW230428   0.592   2.631   6.247  0.0303  2.1357 -0.3092
 9963SOL     OW30429   0.910   0.171   6.047  0.1648 -0.3918  0.3499
 9963SOL    HW130430   0.984   0.231   6.034  2.6137 -3.0386  0.8944
 9963SOL    HW230431   0.952   0.086   6.065 -3.0655 -2.0390  0.7407
 9964SOL     OW30432   2.034   6.347   5.985  0.9212  0.8683  0.3053
 9964SOL    HW130433   2.113   6.386   5.947  0.3625  1.5138 -0.2219
 9964SOL    HW230434   2.014   6.273   5.928  0.5467  1.3467 -0.1927
 9965SOL     OW30435   1.525   3.450   0.535  0.1042  0.5605 -0.3039
 9965SOL    HW130436   1.431   3.451   0.549 -0.0153  0.4356 -1.0533
 9965SOL    HW230437   1.557   3.530   0.577 -0.4153  0.9117 -0.5694
 9966SOL     OW30438   6.878   2.627   4.023 -0.4569  0.3839  0.2971
 9966SOL    HW130439   6.936   2.663   4.090 -1.1622 -0.4632  1.3845
 9966SOL    HW230440   6.921   2.648   3.940  0.0886  2.0607  0.9674
 9967SOL     OW30441   4.221   4.599   3.646  0.5449 -0.1168 -0.3638
 9967SOL    HW130442   4.142   4.599   3.593 -0.0286  0.6943  0.4571
 9967SOL    HW230443   4.293   4.601   3.583 -0.0582 -1.5205 -1.1292
 9968SOL     OW30444   0.818   2.986   2.778 -0.2324  0.1141 -0.2110
 9968SOL    HW130445   0.848   2.991   2.687  3.0239  2.6882  0.8136
 9968SOL    HW230446   0.750   3.053   2.784 -0.3499  0.0435 -0.7233
 9969SOL     OW30447   3.504   7.302   2.309  0.7291  0.7212  0.2530
 9969SOL    HW130448   3.485   7.258   2.392  1.1863  3.0867  1.7104
 9969SOL    HW230449   3.600   7.304   2.304  0.7204 -0.5515 -1.0361
 9970SOL     OW30450   6.356   3.971   7.420 -0.4036 -0.4420 -0.2215
 9970SOL    HW130451   6.431   3.945   7.367 -0.4582  2.2153 -1.7910
 9970SOL    HW230452   6.369   4.064   7.436 -3.3664  0.1581 -0.6574
 9971SOL     OW30453   6.482   0.320   5.675  0.8006  0.4530 -0.1140
 9971SOL    HW130454   6.422   0.377   5.626 -2.0708 -0.5442  1.9539
 9971SOL    HW230455   6.476   0.236   5.631 -0.1870  0.0886  0.6787
 9972SOL     OW30456   5.470   5.492   1.024  0.0728  0.0920 -0.0651
 9972SOL    HW130457   5.559   5.468   0.999  0.8416  0.8670  1.7188
 9972SOL    HW230458   5.474   5.587   1.039 -1.7673  0.7022 -2.5876
 9973SOL     OW30459   1.737   3.660   4.678 -0.4415 -0.3783  0.6221
 9973SOL    HW130460   1.685   3.736   4.705  1.4358  0.5432  1.8098
 9973SOL    HW230461   1.807   3.654   4.742  2.2204 -0.2508 -2.0452
 9974SOL     OW30462   3.182   6.135   1.268 -0.1008  0.1674  0.2871
 9974SOL    HW130463   3.131   6.141   1.187  1.9103  0.6935 -1.0032
 9974SOL    HW230464   3.166   6.046   1.299  0.5750 -0.7337 -1.7566
 9975SOL     OW30465   5.761   5.932   2.000  0.6281  0.3970 -0.0618
 9975SOL    HW130466   5.844   5.959   1.963  1.0962  0.5340  1.0384
 9975SOL    HW230467   5.695   5.960   1.936  1.4518 -0.3367 -1.2717
 9976SOL     OW30468   0.353   5.680   2.423 -0.1439 -0.4155 -0.4294
 9976SOL    HW130469   0.268   5.697   2.462  0.1009  0.5180 -0.2784
 9976SOL    HW230470   0.335   5.614   2.355 -0.7386 -1.2689  0.5241
 9977SOL     OW30471   3.310   0.259   3.469  0.5442 -0.0930 -0.5829
 9977SOL    HW130472   3.319   0.184   3.528  0.9445 -1.3365 -2.1521
 9977SOL    HW230473   3.390   0.310   3.482  1.2251 -1.0412 -0.9621
 9978SOL     OW30474   4.347   4.254   1.905 -0.4735 -0.1638  0.2221
 9978SOL    HW130475   4.390   4.169   1.895 -1.6877 -0.8042  0.2223
 9978SOL    HW230476   4.282   4.257   1.834 -1.1156  0.3349  0.8116
 9979SOL     OW30477   2.639   2.725   6.848 -0.1627 -0.9011  0.1655
 9979SOL    HW130478   2.569   2.731   6.783 -1.0783 -2.0388  0.9909
 9979SOL    HW230479   2.598   2.751   6.930  0.9650  0.4686  0.3287
 9980SOL     OW30480   4.133   6.716   6.307  0.5455  0.0669 -0.3140
 9980SOL    HW130481   4.186   6.790   6.337 -0.4235  0.8804 -0.5508
 9980SOL    HW230482   4.063   6.756   6.255 -0.2626 -0.9753 -0.0730
 9981SOL     OW30483   7.353   4.767   1.218  0.2928 -0.1755  0.0975
 9981SOL    HW130484   7.280   4.787   1.159  1.1533 -0.5439 -1.1230
 9981SOL    HW230485   7.428   4.753   1.161  1.5151  0.8822  1.3590
 9982SOL     OW30486   3.714   6.806   5.378  0.1352 -0.3485 -0.5215
 9982SOL    HW130487   3.731   6.899   5.363 -0.4673  0.5366  3.1285
 9982SOL    HW230488   3.618   6.798   5.376  0.2008 -0.9965 -1.2961
 9983SOL     OW30489   1.879   3.157   5.502 -0.4294  0.0086  0.0260
 9983SOL    HW130490   1.907   3.157   5.594  2.5090 -0.0299 -0.7669
 9983SOL    HW230491   1.894   3.247   5.473  0.2139 -0.3661 -0.8275
 9984SOL     OW30492   0.927   6.451   3.582  0.2448 -0.1996 -0.1646
 9984SOL    HW130493   0.895   6.538   3.559  0.9632 -0.1297 -0.9107
 9984SOL    HW230494   0.851   6.409   3.624  0.0126  0.9111  0.5727
 9985SOL     OW30495   3.324   5.865   0.523 -0.1755  0.4046 -0.2021
 9985SOL    HW130496   3.328   5.802   0.450 -0.6867 -0.9804  0.9147
 9985SOL    HW230497   3.242   5.912   0.508 -0.9099 -0.7257  0.1150
 9986SOL     OW30498   0.042   0.728   3.323  1.0249  0.1983  0.4208
 9986SOL    HW130499   0.071   0.811   3.285  0.7869 -0.3185 -0.9507
 9986SOL    HW230500   0.106   0.664   3.292 -0.1375 -0.5293 -0.5856
 9987SOL     OW30501   2.139   3.268   3.219  0.3246 -0.1181  0.2385
 9987SOL    HW130502   2.104   3.182   3.196 -2.0520  1.0909 -1.0321
 9987SOL    HW230503   2.114   3.280   3.310 -0.5738 -0.2169  0.0122
 9988SOL     OW30504   6.934   1.683   1.098  0.0055  0.4565  0.3771
 9988SOL    HW130505   6.851   1.725   1.077 -0.1924  0.8557  1.8271
 9988SOL    HW230506   6.933   1.601   1.049 -0.4537  1.2411 -0.9840
 9989SOL     OW30507   6.334   5.465   1.302 -0.0921 -0.3509  0.2389
 9989SOL    HW130508   6.377   5.474   1.387 -0.8360  0.3953  0.5556
 9989SOL    HW230509   6.385   5.399   1.256  0.9223 -0.0485  0.8886
 9990SOL     OW30510   3.597   6.641   5.987 -0.4256 -0.3021 -0.0237
 9990SOL    HW130511   3.543   6.721   5.984 -0.5480 -0.3392  0.9710
 9990SOL    HW230512   3.548   6.577   5.935  0.7089  0.8430 -2.7175
 9991SOL     OW30513   2.970   5.395   1.784  0.0956  0.3823  0.1907
 9991SOL    HW130514   2.998   5.445   1.861 -1.6200  2.5008 -0.4605
 9991SOL    HW230515   2.886   5.433   1.760 -0.9641 -2.3881 -0.8558
 9992SOL     OW30516   1.539   2.984   5.242 -0.1674  0.1760 -0.5522
 9992SOL    HW130517   1.524   2.892   5.220 -2.2003  0.4104 -0.3038
 9992SOL    HW230518   1.606   2.981   5.311 -0.4151 -1.1439 -0.3357
 9993SOL     OW30519   5.197   0.624   2.848  0.2484  0.0563 -0.7557
 9993SOL    HW130520   5.159   0.536   2.856  0.7364 -0.3776 -2.5732
 9993SOL    HW230521   5.290   0.612   2.867  0.0034  0.5930  0.9471
 9994SOL     OW30522   3.955   1.246   6.944 -0.0467  0.0035 -0.2614
 9994SOL    HW130523   3.947   1.252   6.848  1.7602 -1.3657 -0.5751
 9994SOL    HW230524   3.993   1.330   6.970  0.1158  0.1201 -0.8480
 9995SOL     OW30525   0.724   4.487   7.469  0.0270 -0.3492  0.0487
 9995SOL    HW130526   0.744   4.490   7.375 -1.3646  0.6407 -0.2425
 9995SOL    HW230527   0.700   4.577   7.491 -1.5834 -0.9516  0.8974
 9996SOL     OW30528   5.975   3.001   3.010 -0.3380  0.0944  0.5871
 9996SOL    HW130529   6.027   2.924   2.987 -1.9216 -0.9180  0.2602
 9996SOL    HW230530   6.039   3.063   3.045  1.0284 -1.2212  0.5386
 9997SOL     OW30531   5.348   1.210   1.519  0.1807  0.1874 -0.0352
 9997SOL    HW130532   5.394   1.134   1.483  0.3705 -0.5961  1.7705
 9997SOL    HW230533   5.415   1.258   1.568 -0.6523 -0.3844  1.7320
 9998SOL     OW30534   4.893   1.807   4.394 -0.1294 -0.3232  0.7441
 9998SOL    HW130535   4.800   1.821   4.381 -0.2198 -1.9944 -0.8760
 9998SOL    HW230536   4.900   1.722   4.438  0.6210 -1.0562 -0.6958
 9999SOL     OW30537   0.862   5.045   2.593 -0.2150 -0.0079  0.4417
 9999SOL    HW130538   0.900   5.127   2.624 -2.4287  0.8139  1.1178
 9999SOL    HW230539   0.793   5.072   2.533 -0.1671 -1.4383 -0.2993
10000SOL     OW30540   6.931   4.064   3.810  0.1540  0.1891  0.2539
10000SOL    HW130541   6.869   4.072   3.882 -0.1375  0.7379 -0.0441
10000SOL    HW230542   6.889   4.004   3.748  1.5656 -2.4592  1.6991
10001SOL     OW30543   3.361   0.407   7.429 -0.1380 -0.1740  0.2759
10001SOL    HW130544   3.305   0.376   7.357 -3.0376 -0.1490  2.3416
10001SOL    HW230545   3.333   0.497   7.444 -0.0390 -0.3661  1.7942
10002SOL     OW30546   1.846   5.727   5.003 -0.4209  0.0173  0.1587
10002SOL    HW130547   1.771   5.671   5.022  0.8587 -1.1800  1.9296
10002SOL    HW230548   1.822   5.812   5.043 -1.1191 -0.1373  0.0872
10003SOL     OW30549   6.789   0.866   0.998 -0.4537 -0.2958  0.2747
10003SOL    HW130550   6.794   0.803   0.926 -0.7833  0.4138 -0.3826
10003SOL    HW230551   6.780   0.812   1.076 -0.6938 -1.0698 -0.2761
10004SOL     OW30552   3.443   4.342   5.405  0.5555  0.0500  0.4932
10004SOL    HW130553   3.456   4.264   5.460  0.7843  0.8343  1.5887
10004SOL    HW230554   3.520   4.395   5.421 -0.4112  1.3022  1.1317
10005SOL     OW30555   2.388   3.974   5.676  0.0888 -0.3413  0.0547
10005SOL    HW130556   2.328   3.961   5.602  0.2709  0.5595 -0.2718
10005SOL    HW230557   2.365   4.061   5.709  1.4740  0.1860 -0.3241
10006SOL     OW30558   3.726   3.428   4.976  0.3188 -0.5194 -0.0670
10006SOL    HW130559   3.757   3.515   4.998  0.5580 -0.5165 -0.3991
10006SOL    HW230560   3.804   3.372   4.982  0.1462 -0.7277  0.2492
10007SOL     OW30561   2.236   6.187   5.486  0.1137 -0.2511 -0.8569
10007SOL    HW130562   2.283   6.246   5.546  0.3550 -0.3165 -0.9795
10007SOL    HW230563   2.261   6.099   5.515  0.9561 -0.2822 -1.6128
10008SOL     OW30564   0.203   7.579   0.003  0.0668 -0.1247 -0.2183
10008SOL    HW130565   0.204   7.560  -0.090 -2.0756 -0.9759 -0.1272
10008SOL    HW230566   0.277   7.529   0.039  0.7312 -0.0152 -1.3833
10009SOL     OW30567   4.389   3.996   0.477 -0.3388 -0.5605  0.1339
10009SOL    HW130568   4.429   4.082   0.484  0.3592 -0.8682  0.0253
10009SOL    HW230569   4.315   4.008   0.417  1.5103 -0.6226 -2.3199
10010SOL     OW30570   6.774   3.438   3.706  0.4946  0.0950  0.0887
10010SOL    HW130571   6.715   3.485   3.764 -1.1523 -2.0595  0.2911
10010SOL    HW230572   6.858   3.437   3.753 -0.8456 -1.8068  2.6678
10011SOL     OW30573   0.219   2.778   7.218 -0.0769 -0.0194  0.1104
10011SOL    HW130574   0.189   2.809   7.303 -0.4112 -0.0787  0.0135
10011SOL    HW230575   0.169   2.828   7.154  0.5043  0.3571 -0.0574
10012SOL     OW30576   3.055   1.570   5.300 -0.3055  0.4553 -0.2289
10012SOL    HW130577   3.056   1.476   5.317 -0.4923  0.3142 -0.9636
10012SOL    HW230578   3.027   1.577   5.209 -1.1375  1.2630  0.0772
10013SOL     OW30579   4.194   6.035   0.692  0.2411 -0.2941 -0.5660
10013SOL    HW130580   4.263   5.988   0.646  1.2878  0.2370  0.4214
10013SOL    HW230581   4.211   6.019   0.785 -0.7609  0.1296 -0.2922
10014SOL     OW30582   5.366   2.204   1.290 -0.5325  0.2842 -0.0526
10014SOL    HW130583   5.318   2.186   1.370  0.1760 -0.2770  0.2552
10014SOL    HW230584   5.316   2.273   1.247 -1.3841 -0.0096  0.4508
10015SOL     OW30585   5.264   2.182   2.148  0.1336 -0.1682 -0.6807
10015SOL    HW130586   5.296   2.176   2.238  1.7805 -2.8450 -1.3230
10015SOL    HW230587   5.199   2.112   2.140 -1.6737  1.4488 -1.0553
10016SOL     OW30588   4.226   0.375   7.284 -0.4184 -0.2015  0.1155
10016SOL    HW130589   4.133   0.390   7.296 -0.0601  2.3145  0.1674
10016SOL    HW230590   4.268   0.418   7.358  0.7851 -1.8598  0.4614
10017SOL     OW30591   7.423   7.249   2.884  0.4752 -0.4436  0.2569
10017SOL    HW130592   7.507   7.247   2.839 -0.0492  1.7798 -0.9318
10017SOL    HW230593   7.359   7.230   2.816 -0.2782  2.2613  0.1072
10018SOL     OW30594   2.120   0.212   1.867 -0.4045 -0.5452 -0.2339
10018SOL    HW130595   2.198   0.204   1.921 -0.9475  2.4566  1.2121
10018SOL    HW230596   2.051   0.170   1.917 -0.1191 -1.4775 -0.6045
10019SOL     OW30597   0.037   3.416   5.000  0.3630  0.2626 -0.2592
10019SOL    HW130598   0.059   3.434   5.092  1.9524  0.3696 -0.6252
10019SOL    HW230599   0.006   3.500   4.966  0.0142  0.2888  0.1170
10020SOL     OW30600   3.897   5.418   5.588  0.5392  0.2716 -0.1059
10020SOL    HW130601   3.968   5.396   5.528  1.1287  0.8555  0.3548
10020SOL    HW230602   3.925   5.382   5.672 -0.7072 -1.3555 -0.3397
10021SOL     OW30603   5.388   1.383   3.427 -0.3172  0.4251  0.1040
10021SOL    HW130604   5.292   1.379   3.436 -0.4635  1.2026 -0.9008
10021SOL    HW230605   5.412   1.300   3.386 -0.3214 -0.5660  1.9946
10022SOL     OW30606   3.182   4.911   5.073 -0.1707  0.2838  0.2674
10022SOL    HW130607   3.170   4.885   4.982 -1.9563 -1.3227  0.9016
10022SOL    HW230608   3.175   4.829   5.123 -0.9931  1.3440  1.9910
10023SOL     OW30609   5.063   1.101   1.342 -0.0440  0.1192  0.0701
10023SOL    HW130610   5.109   1.177   1.306 -0.1123  0.5613  0.9032
10023SOL    HW230611   4.982   1.137   1.379 -0.9035 -0.5994 -1.0471
10024SOL     OW30612   5.632   4.656   7.356  0.4913  0.1902  0.2375
10024SOL    HW130613   5.557   4.676   7.411  0.8190  0.7260  0.5015
10024SOL    HW230614   5.597   4.660   7.266  0.3576  1.1625  0.3231
10025SOL     OW30615   4.155   4.463   1.659 -0.5567 -0.6487 -0.4764
10025SOL    HW130616   4.217   4.428   1.595 -2.0710 -2.2980 -1.1146
10025SOL    HW230617   4.115   4.385   1.698 -2.1019  0.3592  0.0344
10026SOL     OW30618   5.865   0.752   6.364 -0.5473  0.4895  0.0550
10026SOL    HW130619   5.909   0.837   6.376  0.1700  0.1451 -0.0555
10026SOL    HW230620   5.796   0.771   6.301 -0.3050  0.9711 -0.0792
10027SOL     OW30621   1.571   1.095   4.843 -0.0475  0.2400  0.3238
10027SOL    HW130622   1.661   1.107   4.874  0.0828 -3.1353  1.6814
10027SOL    HW230623   1.527   1.048   4.914 -2.2094 -0.2955 -1.2585
10028SOL     OW30624   2.421   6.569   7.133  0.4050  0.1857 -0.1465
10028SOL    HW130625   2.340   6.570   7.082  0.7052  1.3349 -0.6291
10028SOL    HW230626   2.490   6.591   7.069  0.8963  0.7945  0.5715
10029SOL     OW30627   2.076   6.914   3.883  0.2651 -0.2626 -0.7203
10029SOL    HW130628   2.073   7.008   3.866  0.5668  0.0329  0.6949
10029SOL    HW230629   2.129   6.878   3.812 -1.7113  0.2819 -2.5706
10030SOL     OW30630   0.080   6.399   3.239 -0.3734  0.5688  0.0074
10030SOL    HW130631   0.003   6.454   3.225  0.0343  1.6385  1.6594
10030SOL    HW230632   0.096   6.358   3.155 -1.8971  1.4423 -0.7461
10031SOL     OW30633   5.333   0.437   1.009 -0.6836 -0.0149  0.6378
10031SOL    HW130634   5.292   0.392   1.084 -0.8576 -1.1773 -0.1250
10031SOL    HW230635   5.427   0.422   1.020 -0.3148  2.8934  2.5443
10032SOL     OW30636   5.544   1.024   0.130 -0.0761 -0.2253  1.0045
10032SOL    HW130637   5.556   0.984   0.216  3.7478 -1.1332  0.2330
10032SOL    HW230638   5.611   1.092   0.126  0.0689 -0.4253 -1.3390
10033SOL     OW30639   4.342   5.094   3.131 -0.1355  0.4440 -0.0036
10033SOL    HW130640   4.402   5.162   3.101 -0.8791  0.8507 -0.5841
10033SOL    HW230641   4.259   5.139   3.146 -1.2127 -0.6448 -2.3262
10034SOL     OW30642   0.755   7.193   6.531 -0.3354 -0.4787 -0.5126
10034SOL    HW130643   0.694   7.261   6.502  0.9252  0.5249 -0.9402
10034SOL    HW230644   0.838   7.240   6.545  0.1619 -1.6674  0.7476
10035SOL     OW30645   1.814   2.771   0.942  0.4756 -0.2186  0.0814
10035SOL    HW130646   1.860   2.789   1.024 -0.2271  0.5075  0.3311
10035SOL    HW230647   1.772   2.854   0.919 -2.5629 -1.3359  1.0661
10036SOL     OW30648   3.731   6.195   6.437  0.2381  0.2271 -0.0663
10036SOL    HW130649   3.701   6.270   6.385  0.4927  0.8919  0.7346
10036SOL    HW230650   3.826   6.201   6.435  0.2465  0.8990  1.3755
10037SOL     OW30651   6.370   0.174   6.129  0.1618  0.3446 -0.1791
10037SOL    HW130652   6.437   0.106   6.138 -0.8936 -0.5677  1.2618
10037SOL    HW230653   6.296   0.129   6.088 -0.5289  0.5954  0.7398
10038SOL     OW30654   2.196   5.341   3.977 -0.0745  0.4046  0.2286
10038SOL    HW130655   2.121   5.389   3.941  1.7979  2.9039 -0.6214
10038SOL    HW230656   2.252   5.323   3.901 -0.0716 -2.1163  0.7143
10039SOL     OW30657   4.355   5.182   4.430  0.1521 -0.5452  0.1833
10039SOL    HW130658   4.277   5.211   4.383  0.9305 -1.5742 -1.8878
10039SOL    HW230659   4.364   5.243   4.503 -2.2254 -0.0490  0.1355
10040SOL     OW30660   7.335   7.236   0.885 -0.1056  0.0754  0.0619
10040SOL    HW130661   7.333   7.182   0.807 -1.1654 -0.1599  0.2357
10040SOL    HW230662   7.416   7.211   0.929 -0.2917 -0.9648 -0.1518
10041SOL     OW30663   5.191   1.912   2.163  0.7901  0.1400  0.2126
10041SOL    HW130664   5.194   1.948   2.252 -0.3880 -1.0308  0.7424
10041SOL    HW230665   5.113   1.857   2.161 -0.6572  2.0223 -2.2856
10042SOL     OW30666   6.141   3.781   6.927 -0.2629  0.0660 -0.2356
10042SOL    HW130667   6.049   3.771   6.952 -0.8083  1.1704 -1.6968
10042SOL    HW230668   6.183   3.816   7.006 -1.4110  1.0212 -0.0184
10043SOL     OW30669   3.881   4.262   2.121  0.0804  0.3600 -0.0492
10043SOL    HW130670   3.792   4.252   2.156 -0.2525 -2.2232 -1.3892
10043SOL    HW230671   3.884   4.353   2.091 -1.9539  0.6399  0.4053
10044SOL     OW30672   2.241   6.679   6.449  0.2204  0.5134 -0.0253
10044SOL    HW130673   2.301   6.608   6.473  0.3312 -0.2278 -2.2879
10044SOL    HW230674   2.295   6.741   6.400 -0.7453 -0.0467 -1.8854
10045SOL     OW30675   5.934   1.951   7.187 -0.1620 -0.5518 -0.5420
10045SOL    HW130676   5.924   1.973   7.279 -1.5872  1.6545 -1.1601
10045SOL    HW230677   5.959   2.033   7.145 -3.2110 -0.5448 -2.6426
10046SOL     OW30678   4.030   4.648   3.447  0.2757  0.3405 -0.5256
10046SOL    HW130679   4.090   4.718   3.419  0.0651 -0.0060 -1.8903
10046SOL    HW230680   3.948   4.693   3.468 -0.2606  0.4068 -2.6121
10047SOL     OW30681   6.186   1.142   1.021  0.3322  0.1240  0.2389
10047SOL    HW130682   6.112   1.084   1.006 -0.6440  0.9664  1.5632
10047SOL    HW230683   6.184   1.204   0.948 -2.2095  2.0320  1.7470
10048SOL     OW30684   3.223   0.692   2.455  0.2853 -0.7177  0.1740
10048SOL    HW130685   3.250   0.611   2.412  0.9004 -1.0868  1.2140
10048SOL    HW230686   3.276   0.695   2.535  0.2321  0.6869  0.1776
10049SOL     OW30687   1.481   4.915   4.400  0.2170  0.5569 -0.3357
10049SOL    HW130688   1.395   4.948   4.374  0.3797  0.2417 -1.3206
10049SOL    HW230689   1.540   4.990   4.390 -0.0860  1.0177  1.1953
10050SOL     OW30690   2.181   0.020   3.209  0.1170 -0.1593 -0.1621
10050SOL    HW130691   2.225  -0.062   3.190 -0.5428 -0.2750 -1.3420
10050SOL    HW230692   2.144   0.009   3.296 -0.5374 -1.3893 -0.5737
10051SOL     OW30693   2.295   6.248   2.601  0.3710  0.5357 -0.5221
10051SOL    HW130694   2.270   6.297   2.523  1.5508  0.2860 -1.0789
10051SOL    HW230695   2.375   6.202   2.576  0.1912 -0.3735  0.5131
10052SOL     OW30696   1.942   7.219   0.653 -0.7222  0.8355 -0.6631
10052SOL    HW130697   2.037   7.217   0.648 -0.7238 -0.1449 -0.4824
10052SOL    HW230698   1.920   7.312   0.659  0.1546  1.1279 -1.7940
10053SOL     OW30699   1.521   4.511   3.383 -0.4594 -0.0285 -0.0487
10053SOL    HW130700   1.430   4.497   3.411 -0.9119  0.2917 -1.2914
10053SOL    HW230701   1.532   4.606   3.385 -0.2954 -0.0402 -0.3171
10054SOL     OW30702   4.533   4.190   4.879 -0.5274 -0.2850  0.0113
10054SOL    HW130703   4.461   4.227   4.827  0.1765 -0.8990 -1.4750
10054SOL    HW230704   4.578   4.265   4.917  0.8523  0.4924 -2.8965
10055SOL     OW30705   2.553   1.854   3.858 -0.1908 -0.1618  0.0292
10055SOL    HW130706   2.624   1.809   3.905 -0.1518 -1.4548 -1.1914
10055SOL    HW230707   2.567   1.830   3.766 -0.5183  1.9511 -0.6087
10056SOL     OW30708   4.096   4.904   2.645  0.2626  0.0589 -0.1110
10056SOL    HW130709   4.167   4.869   2.592  0.6651  0.3912  0.2017
10056SOL    HW230710   4.135   4.918   2.732 -0.4095 -0.5525  0.3020
10057SOL     OW30711   0.521   0.031   6.441  0.0849  0.2515 -0.3211
10057SOL    HW130712   0.583  -0.019   6.389 -0.2454  1.9177 -2.4561
10057SOL    HW230713   0.435   0.001   6.412 -0.1598 -0.5601  1.1232
10058SOL     OW30714   3.437   0.493   3.793 -0.1553 -0.3378  0.1518
10058SOL    HW130715   3.514   0.511   3.848 -0.6002 -2.1842  1.4852
10058SOL    HW230716   3.452   0.544   3.714  2.6890 -0.9730  0.1718
10059SOL     OW30717   0.905   6.397   0.080  0.1981  0.4233 -0.5188
10059SOL    HW130718   0.963   6.342   0.029  0.4401  0.7721 -0.6261
10059SOL    HW230719   0.841   6.337   0.118  2.4817 -0.4739  2.2492
10060SOL     OW30720   0.948   7.124   5.729 -0.4516  0.6669 -0.3542
10060SOL    HW130721   1.037   7.104   5.757  0.2873  2.7310 -0.9868
10060SOL    HW230722   0.944   7.095   5.638 -0.1211  1.3227 -0.5858
10061SOL     OW30723   6.810   0.384   5.392 -0.0360  0.0699  0.2399
10061SOL    HW130724   6.839   0.461   5.443  1.3714  0.2306 -0.7305
10061SOL    HW230725   6.809   0.313   5.455  3.0303 -0.0371  0.3382
10062SOL     OW30726   2.233   6.950   1.944 -0.1656 -0.1037 -0.1991
10062SOL    HW130727   2.230   7.045   1.959  0.3583  0.5297 -3.3296
10062SOL    HW230728   2.325   6.926   1.958  0.0614  0.2270 -1.0402
10063SOL     OW30729   6.128   5.846   0.073 -0.3736 -0.1767  0.5749
10063SOL    HW130730   6.106   5.922   0.019  0.1286 -1.1075 -1.0273
10063SOL    HW230731   6.048   5.795   0.076 -0.6806  0.3556  1.5605
10064SOL     OW30732   3.655   0.371   7.593 -0.6961  0.1731  0.1599
10064SOL    HW130733   3.740   0.415   7.597 -0.8517  0.4945  0.0072
10064SOL    HW230734   3.606   0.420   7.526 -0.8805 -0.2198  0.0047
10065SOL     OW30735   4.190   6.046   1.919 -0.0032 -0.6573  0.9673
10065SOL    HW130736   4.211   6.040   1.826 -2.6306  0.7838  0.1704
10065SOL    HW230737   4.153   5.961   1.941  0.2144 -0.8605  0.5539
10066SOL     OW30738   7.324   0.207   4.529  0.0406  0.0225 -0.3752
10066SOL    HW130739   7.236   0.244   4.537 -0.8158 -1.8916 -0.3468
10066SOL    HW230740   7.380   0.271   4.572 -1.6389  0.2574  1.6701
10067SOL     OW30741   2.009   1.357   7.352 -0.0805  0.1259  0.6479
10067SOL    HW130742   1.947   1.292   7.386 -2.5913  2.0165  0.0277
10067SOL    HW230743   2.057   1.386   7.429 -1.8268  0.4114  1.6990
10068SOL     OW30744   3.561   1.385   0.691 -0.5636  1.0779 -0.3904
10068SOL    HW130745   3.631   1.388   0.757 -0.7069 -2.0017  0.0466
10068SOL    HW230746   3.606   1.404   0.609  0.3476  1.2924  0.1329
10069SOL     OW30747   5.199   7.221   5.898 -0.1881  0.2209  0.2760
10069SOL    HW130748   5.243   7.277   5.834 -1.9884  2.4225  0.8443
10069SOL    HW230749   5.237   7.247   5.982 -0.0022 -0.5031  0.4272
10070SOL     OW30750   6.272   3.814   5.078 -0.4184 -1.1106 -0.8184
10070SOL    HW130751   6.201   3.878   5.084 -0.3502 -1.0786 -0.3086
10070SOL    HW230752   6.267   3.781   4.989 -1.1278 -1.1668 -0.7616
10071SOL     OW30753   5.931   6.778   1.724 -0.0889  0.5679 -0.2773
10071SOL    HW130754   5.862   6.720   1.756 -0.7153  1.4901  0.1008
10071SOL    HW230755   5.969   6.731   1.650  0.7854 -1.2165  1.2088
10072SOL     OW30756   4.450   2.597   3.894  0.5297  0.0636  0.2546
10072SOL    HW130757   4.407   2.570   3.813 -0.8324 -0.3050  1.0820
10072SOL    HW230758   4.506   2.523   3.917 -0.3412 -0.5288  0.5155
10073SOL     OW30759   5.375   0.394   3.556 -0.1240  0.6574  0.2655
10073SOL    HW130760   5.374   0.375   3.462 -1.1448  0.5541  0.2802
10073SOL    HW230761   5.289   0.433   3.573  1.0972  3.4790  0.6186
10074SOL     OW30762   6.873   2.488   2.318 -0.3258  0.1977  0.7635
10074SOL    HW130763   6.892   2.476   2.225 -0.0469 -0.5472  0.9043
10074SOL    HW230764   6.804   2.554   2.321  0.4056  1.0103  0.0869
10075SOL     OW30765   6.797   4.194   0.651  0.4550  0.0953 -0.5166
10075SOL    HW130766   6.808   4.287   0.631  1.1930 -0.1397 -1.2724
10075SOL    HW230767   6.769   4.192   0.742  2.3722  0.9924  0.1353
10076SOL     OW30768   4.834   4.715   6.064 -0.3073  0.2850 -0.4548
10076SOL    HW130769   4.854   4.791   6.118  1.4524  0.2956 -1.0676
10076SOL    HW230770   4.832   4.642   6.126  0.2889  0.5021 -0.1673
10077SOL     OW30771   2.454   7.010   0.694 -0.0903 -0.2725  0.3493
10077SOL    HW130772   2.390   6.941   0.677 -1.3247  0.4426  1.8787
10077SOL    HW230773   2.510   6.974   0.762 -0.6753  0.1607  1.0791
10078SOL     OW30774   0.680   7.219   0.291 -0.4663 -0.2151 -0.0896
10078SOL    HW130775   0.644   7.308   0.290  0.2071  0.0664  0.1184
10078SOL    HW230776   0.608   7.165   0.323 -0.2788  0.5575  1.7988
10079SOL     OW30777   3.152   0.870   0.399 -0.3296 -0.8064  0.4168
10079SOL    HW130778   3.210   0.794   0.397  0.1655 -0.4309 -0.0771
10079SOL    HW230779   3.181   0.924   0.325  1.0234  1.1055  2.2043
10080SOL     OW30780   3.137   4.094   2.118  0.2421  0.1837 -0.3964
10080SOL    HW130781   3.148   4.047   2.201 -0.5729 -0.1677 -0.4802
10080SOL    HW230782   3.178   4.179   2.133 -0.3862  0.3358  0.5678
10081SOL     OW30783   5.110   6.839   6.405 -0.0763 -0.6438 -0.0352
10081SOL    HW130784   5.189   6.843   6.351 -0.2142  2.5635 -0.1972
10081SOL    HW230785   5.039   6.858   6.344 -0.3101  2.2225  0.9882
10082SOL     OW30786   6.137   5.640   3.098 -0.0612  0.3268 -0.3819
10082SOL    HW130787   6.106   5.687   3.021  0.5713  1.3066 -0.0440
10082SOL    HW230788   6.207   5.583   3.065  1.2476  1.8457 -0.3009
10083SOL     OW30789   5.609   2.052   4.749  0.0545 -0.0171 -0.5798
10083SOL    HW130790   5.544   2.047   4.820 -0.3817  3.0132 -0.6663
10083SOL    HW230791   5.679   1.994   4.777 -1.0528 -0.5462  1.2897
10084SOL     OW30792   6.576   3.514   2.830  0.1161  0.0708  0.0168
10084SOL    HW130793   6.609   3.441   2.779  0.6221  1.5763 -1.9279
10084SOL    HW230794   6.655   3.553   2.869 -0.0924 -0.0715  0.5982
10085SOL     OW30795   4.453   3.505   7.555 -0.7094 -0.2658  0.2925
10085SOL    HW130796   4.440   3.595   7.524  1.7989  0.2517  0.4960
10085SOL    HW230797   4.488   3.459   7.479 -0.6923 -0.7062  0.5656
10086SOL     OW30798   1.168   3.532   6.392  0.3989 -0.1512  0.3796
10086SOL    HW130799   1.180   3.608   6.335  1.0818 -1.8256 -1.8864
10086SOL    HW230800   1.256   3.504   6.414  0.1600 -0.3571  1.0858
10087SOL     OW30801   2.638   3.187   3.861  0.4750  0.1402  0.2040
10087SOL    HW130802   2.705   3.188   3.792 -0.4931  0.4120 -0.7530
10087SOL    HW230803   2.558   3.218   3.818 -0.1780  0.2204  1.4298
10088SOL     OW30804   4.853   0.531   2.895  0.2744  0.4281 -0.0447
10088SOL    HW130805   4.778   0.521   2.954  0.9782 -0.0445  0.7915
10088SOL    HW230806   4.882   0.441   2.879  0.3692  0.5842 -0.7497
10089SOL     OW30807   4.296   0.038   2.589  0.2989 -0.6223 -0.1805
10089SOL    HW130808   4.225   0.053   2.527 -0.5979 -2.5335  0.3255
10089SOL    HW230809   4.372   0.082   2.550 -1.2807  2.2582 -0.3198
10090SOL     OW30810   5.167   4.102   5.889  0.3006 -0.0110 -0.1463
10090SOL    HW130811   5.200   4.168   5.950 -0.8280 -0.6499  1.2101
10090SOL    HW230812   5.167   4.147   5.804  0.4614  1.4246  0.5752
10091SOL     OW30813   2.687   0.105   1.587  0.3865 -0.2733  0.0754
10091SOL    HW130814   2.712   0.158   1.511 -1.3838 -0.6305 -0.8254
10091SOL    HW230815   2.723   0.018   1.568  0.0629 -0.3286 -0.2970
10092SOL     OW30816   4.326   5.455   2.950  0.2841 -0.0371 -0.1261
10092SOL    HW130817   4.237   5.471   2.918 -1.4470 -0.0308  4.0644
10092SOL    HW230818   4.365   5.543   2.955  0.5194 -0.0164 -1.7362
10093SOL     OW30819   7.168   1.047   4.238 -0.0261  0.4242  0.4668
10093SOL    HW130820   7.123   1.033   4.154 -0.3015  0.9060  0.5311
10093SOL    HW230821   7.099   1.040   4.303  0.2032 -0.0322  0.6658
10094SOL     OW30822   4.491   2.819   6.337 -0.0113 -0.7757 -0.4331
10094SOL    HW130823   4.535   2.884   6.282 -0.7231  0.0817 -0.0073
10094SOL    HW230824   4.552   2.744   6.338  1.8478  0.6580  0.7965
10095SOL     OW30825   3.487   1.843   3.441  0.1719 -0.4453 -0.7115
10095SOL    HW130826   3.483   1.917   3.380  3.0741  0.0785 -0.4389
10095SOL    HW230827   3.449   1.877   3.522 -0.4336  0.0438 -1.1937
10096SOL     OW30828   1.940   6.862   2.644 -0.1724 -0.4982  0.1783
10096SOL    HW130829   2.029   6.869   2.611 -0.7657  0.6847 -1.3011
10096SOL    HW230830   1.908   6.779   2.610  0.4510 -1.1107  1.0290
10097SOL     OW30831   1.721   6.100   7.363 -0.1906  0.0268  0.0037
10097SOL    HW130832   1.659   6.056   7.420  0.7704  0.3620  1.3520
10097SOL    HW230833   1.705   6.193   7.377  0.6291  0.1208  0.4208
10098SOL     OW30834   2.080   1.414   6.303  0.2790 -0.0460 -0.3771
10098SOL    HW130835   1.999   1.447   6.342  0.1706 -0.8317  0.0917
10098SOL    HW230836   2.148   1.473   6.333 -0.1667  0.8115 -1.0337
10099SOL     OW30837   6.313   3.617   1.751  0.2035 -0.5523 -0.3363
10099SOL    HW130838   6.338   3.579   1.835 -2.2409 -0.1372  0.6628
10099SOL    HW230839   6.388   3.601   1.694  2.4574  0.2433  2.2335
10100SOL     OW30840   2.892   6.327   2.280  0.3896  0.0906 -0.1311
10100SOL    HW130841   2.963   6.341   2.218  0.2316 -0.7728 -0.5179
10100SOL    HW230842   2.914   6.383   2.355  2.5114 -1.5934  0.6070
10101SOL     OW30843   5.051   4.504   1.905 -0.3790  0.7503  0.1137
10101SOL    HW130844   4.982   4.568   1.888 -1.1230 -0.5253 -2.0755
10101SOL    HW230845   5.132   4.554   1.906 -0.9925  1.8002 -0.9123
10102SOL     OW30846   6.880   1.698   6.007  0.4670 -0.1783  0.2949
10102SOL    HW130847   6.809   1.703   6.071 -0.4467 -0.5718 -0.6753
10102SOL    HW230848   6.960   1.704   6.060 -0.2191 -2.3047  1.6798
10103SOL     OW30849   4.769   2.864   5.312 -0.0119 -0.3252 -0.6109
10103SOL    HW130850   4.824   2.941   5.325 -0.8892 -0.1279  2.7613
10103SOL    HW230851   4.718   2.883   5.232  0.3036  2.2652 -0.2533
10104SOL     OW30852   1.922   2.435   5.709 -0.1313 -0.1828 -0.0570
10104SOL    HW130853   1.940   2.514   5.760  1.7648 -0.8331  0.3811
10104SOL    HW230854   1.971   2.366   5.754  0.8784 -0.9626 -2.2155
10105SOL     OW30855   4.267   5.798   5.283 -0.1053  0.4759  0.3196
10105SOL    HW130856   4.297   5.724   5.229 -1.1750  0.8003 -0.7647
10105SOL    HW230857   4.322   5.871   5.256  0.9434  0.1165  1.3812
10106SOL     OW30858   0.169   6.292   1.262 -0.3110 -0.4879  0.2119
10106SOL    HW130859   0.195   6.227   1.196 -1.9592 -1.3817  0.4053
10106SOL    HW230860   0.166   6.374   1.213 -1.1110 -1.0635 -0.7571
10107SOL     OW30861   6.867   7.307   0.350  0.5832 -0.0969 -0.0832
10107SOL    HW130862   6.870   7.232   0.410  1.7159 -0.6689 -0.8345
10107SOL    HW230863   6.918   7.375   0.394 -2.4856  1.2254  1.8025
10108SOL     OW30864   5.070   2.991   4.555  0.2250  0.4835  0.1785
10108SOL    HW130865   5.080   2.929   4.627 -0.0049  0.7960  0.4843
10108SOL    HW230866   5.009   2.948   4.495  0.2630  0.3052  0.2665
10109SOL     OW30867   0.341   1.183   4.221 -0.3142  0.3136 -0.0559
10109SOL    HW130868   0.256   1.155   4.255 -0.4579 -0.1159 -0.7418
10109SOL    HW230869   0.331   1.276   4.203 -1.0583  0.0039 -1.3331
10110SOL     OW30870   5.120   5.814   2.113 -0.0493 -0.2489 -0.5926
10110SOL    HW130871   5.043   5.802   2.058  0.2870 -2.9072 -0.6084
10110SOL    HW230872   5.180   5.745   2.086  0.9958 -0.3001  1.6234
10111SOL     OW30873   6.178   3.229   2.752 -0.3610 -0.3868  0.0922
10111SOL    HW130874   6.146   3.273   2.831  1.7640 -0.9784  1.3750
10111SOL    HW230875   6.206   3.142   2.783  0.2425 -0.7403 -1.3750
10112SOL     OW30876   1.797   2.054   1.033 -0.0502 -0.7620 -0.4522
10112SOL    HW130877   1.733   1.988   1.008 -0.7023 -0.5407  0.5958
10112SOL    HW230878   1.763   2.092   1.114 -0.0963  1.3947 -1.4108
10113SOL     OW30879   1.899   1.130   1.312 -0.0885  0.3023  0.4394
10113SOL    HW130880   1.828   1.120   1.376  0.1676  0.6104  0.7776
10113SOL    HW230881   1.858   1.114   1.228 -0.6455  0.8476  0.6019
10114SOL     OW30882   5.841   1.814   5.750 -0.7818 -0.5461 -0.1133
10114SOL    HW130883   5.763   1.865   5.730 -0.7556 -0.7288 -0.7021
10114SOL    HW230884   5.914   1.870   5.724 -0.7353 -0.6293 -0.1628
10115SOL     OW30885   4.374   4.751   6.772  0.4716 -0.5882 -0.5875
10115SOL    HW130886   4.337   4.738   6.684  0.5362 -0.2398 -0.6669
10115SOL    HW230887   4.321   4.821   6.810  0.6953 -0.4709 -0.4949
10116SOL     OW30888   3.938   5.425   1.715  0.3117  0.1097 -0.0181
10116SOL    HW130889   3.935   5.461   1.804  0.9746 -0.8995  0.4283
10116SOL    HW230890   3.900   5.338   1.724  2.3295 -0.8341 -0.2917
10117SOL     OW30891   6.791   4.068   3.490  0.0840  0.4696 -0.3732
10117SOL    HW130892   6.804   4.107   3.577  1.7717  0.6920 -0.7026
10117SOL    HW230893   6.759   3.980   3.508 -1.4322  1.1252  0.4144
10118SOL     OW30894   3.656   4.741   3.805 -0.2165 -0.2080 -0.5358
10118SOL    HW130895   3.730   4.705   3.756 -0.8748 -1.3991 -0.6917
10118SOL    HW230896   3.581   4.690   3.776 -1.1608  1.1247 -0.5421
10119SOL     OW30897   4.859   2.396   4.847 -0.0151 -0.6857 -0.1769
10119SOL    HW130898   4.785   2.436   4.894 -0.1067  0.2308 -1.0558
10119SOL    HW230899   4.874   2.313   4.892 -0.1314  0.1165  1.4162
10120SOL     OW30900   1.266   1.605   3.536  0.1345 -0.0175 -0.2788
10120SOL    HW130901   1.202   1.676   3.525 -0.6013 -0.5716  0.2982
10120SOL    HW230902   1.341   1.632   3.482 -0.7278  0.4685 -1.2885
10121SOL     OW30903   4.892   6.327   5.378  0.3258  0.0517  0.1596
10121SOL    HW130904   4.941   6.277   5.444 -1.5508 -1.5654  0.4295
10121SOL    HW230905   4.817   6.272   5.358 -1.4591  2.4646 -0.1538
10122SOL     OW30906   1.159   4.380   0.731  0.8555 -0.5446 -0.1013
10122SOL    HW130907   1.095   4.427   0.678 -0.4885 -2.2967 -0.1066
10122SOL    HW230908   1.211   4.449   0.772  2.1568  0.9437 -3.8219
10123SOL     OW30909   6.447   0.341   2.454 -0.0218 -0.2253 -0.3796
10123SOL    HW130910   6.462   0.256   2.413  0.6539 -0.6714  0.7336
10123SOL    HW230911   6.438   0.402   2.381  1.4875 -0.9176 -1.1977
10124SOL     OW30912   7.114   0.295   6.791 -0.1443  0.4163 -0.8385
10124SOL    HW130913   7.026   0.310   6.756 -0.1377  2.0691 -0.2812
10124SOL    HW230914   7.099   0.270   6.883 -0.0456  1.7730 -0.4253
10125SOL     OW30915   7.430   4.309   2.037  0.3635  0.4079  0.6744
10125SOL    HW130916   7.522   4.332   2.044  1.0313 -2.2440  2.0650
10125SOL    HW230917   7.398   4.311   2.127 -0.5897  0.0296  0.3608
10126SOL     OW30918   6.789   7.459   3.653 -0.3034  0.0327 -0.0103
10126SOL    HW130919   6.698   7.465   3.623 -1.1081  0.1558  2.2311
10126SOL    HW230920   6.816   7.371   3.629 -0.6118  0.3637 -1.6835
10127SOL     OW30921   4.447   4.521   1.285 -0.4939  0.3069 -0.1068
10127SOL    HW130922   4.368   4.476   1.315 -0.2982 -0.0318 -0.0960
10127SOL    HW230923   4.415   4.604   1.249 -1.3390 -1.2951 -3.5284
10128SOL     OW30924   2.465   0.154   6.584 -0.0272 -0.2704 -0.3553
10128SOL    HW130925   2.529   0.103   6.535 -0.0161  0.1463 -0.7858
10128SOL    HW230926   2.517   0.212   6.639 -0.0307  0.0381 -0.6733
10129SOL     OW30927   3.673   4.796   6.651 -0.2759  0.4067  0.0601
10129SOL    HW130928   3.592   4.839   6.679 -0.0940  0.5328  0.3925
10129SOL    HW230929   3.712   4.857   6.588  0.0523  0.8014  0.6344
10130SOL     OW30930   7.462   3.594   1.391  0.1977  0.5104 -0.0798
10130SOL    HW130931   7.483   3.675   1.438 -0.2756  0.6152 -0.0422
10130SOL    HW230932   7.397   3.621   1.325 -1.0103 -0.0779  0.8205
10131SOL     OW30933   0.070   4.989   1.865  0.0854 -0.7826 -0.0787
10131SOL    HW130934   0.166   4.992   1.862  0.0337  0.1810 -2.0264
10131SOL    HW230935   0.047   4.910   1.816 -0.1556  0.4586 -2.0360
10132SOL     OW30936   4.145   2.203   4.324  0.3466  0.2007  0.2558
10132SOL    HW130937   4.159   2.112   4.299  0.3947 -0.2363  1.7591
10132SOL    HW230938   4.229   2.231   4.361  0.2025  0.7138  0.2071
10133SOL     OW30939   7.131   0.252   5.683 -0.6443  0.0015 -0.1498
10133SOL    HW130940   7.043   0.262   5.720 -0.0125  0.2732  1.3801
10133SOL    HW230941   7.172   0.187   5.740 -0.4163 -1.4863 -1.9446
10134SOL     OW30942   4.926   7.493   2.463 -0.0819 -0.2630 -0.2727
10134SOL    HW130943   4.911   7.569   2.520 -3.8776 -0.3862 -0.8287
10134SOL    HW230944   5.006   7.514   2.416  1.2418  1.4929  2.4475
10135SOL     OW30945   2.476   5.669   2.318 -0.2224  0.0140 -0.3232
10135SOL    HW130946   2.556   5.685   2.368  0.2834 -0.4506 -0.9707
10135SOL    HW230947   2.429   5.753   2.320  0.3964  0.3625 -0.1531
10136SOL     OW30948   0.572   0.182   2.903 -0.0919  0.3543 -0.2544
10136SOL    HW130949   0.622   0.225   2.973 -0.3808  0.8457 -0.3479
10136SOL    HW230950   0.509   0.127   2.949 -0.7949  1.2598 -0.1098
10137SOL     OW30951   3.227   5.565   3.884 -0.0490  0.1022 -0.3632
10137SOL    HW130952   3.292   5.498   3.864 -1.1540 -1.2875  0.5004
10137SOL    HW230953   3.180   5.531   3.960 -2.7979  0.2940 -1.8396
10138SOL     OW30954   6.546   6.709   4.471  0.1228 -0.0829  0.1826
10138SOL    HW130955   6.641   6.702   4.460  0.3845  1.4116  1.1663
10138SOL    HW230956   6.531   6.686   4.563 -0.4450 -0.1427  0.0764
10139SOL     OW30957   0.010   4.480   3.835  0.6389  0.2817  0.1525
10139SOL    HW130958  -0.076   4.521   3.832  1.0961  1.2246 -1.3709
10139SOL    HW230959  -0.008   4.386   3.828 -0.2314  0.5556 -2.0407
10140SOL     OW30960   6.553   5.416   0.376 -0.2710  0.1292 -0.2910
10140SOL    HW130961   6.522   5.373   0.456 -0.4681  1.2037  0.2213
10140SOL    HW230962   6.538   5.509   0.391  0.3968  0.4108 -1.2770
10141SOL     OW30963   2.096   1.855   4.613  0.1906 -0.2461 -0.1419
10141SOL    HW130964   2.071   1.889   4.699  3.3588  1.4775  0.2430
10141SOL    HW230965   2.066   1.922   4.551  1.4353  0.5750  0.0892
10142SOL     OW30966   1.634   4.549   3.121 -0.0157 -0.2256  0.7439
10142SOL    HW130967   1.579   4.519   3.193  0.3536  1.4613  1.7673
10142SOL    HW230968   1.641   4.643   3.133 -0.2278  0.1600 -1.7256
10143SOL     OW30969   0.121   0.092   4.615 -0.2400 -0.0169 -0.0919
10143SOL    HW130970   0.127   0.056   4.526 -1.1052  0.8217 -0.5024
10143SOL    HW230971   0.034   0.130   4.620  0.2061  0.9425  0.7457
10144SOL     OW30972   4.503   6.409   3.857 -0.8162 -0.1440  0.5521
10144SOL    HW130973   4.450   6.461   3.797 -2.2285 -0.8856  1.1112
10144SOL    HW230974   4.532   6.334   3.805  0.1738  0.5417  0.0932
10145SOL     OW30975   5.968   0.736   2.980  0.2324  0.4941 -0.0388
10145SOL    HW130976   5.971   0.640   2.978 -0.6691  0.4687 -1.7484
10145SOL    HW230977   6.040   0.763   2.923 -0.1789  0.8185 -0.4026
10146SOL     OW30978   3.075   2.762   5.254  0.5932  0.0929 -0.4389
10146SOL    HW130979   3.083   2.718   5.339 -2.3073  1.3704  0.6417
10146SOL    HW230980   3.085   2.855   5.275 -0.2731  0.4362 -1.4879
10147SOL     OW30981   7.245   1.389   3.303 -0.7004  0.1999 -0.2227
10147SOL    HW130982   7.207   1.336   3.232  1.5545  2.0825 -3.0916
10147SOL    HW230983   7.334   1.355   3.312 -0.1183  1.6798 -0.1925
10148SOL     OW30984   5.448   0.126   4.530 -0.0515 -0.2193 -0.5739
10148SOL    HW130985   5.468   0.212   4.566  0.1273  0.0827 -1.3671
10148SOL    HW230986   5.405   0.079   4.601 -0.2326  0.5532 -0.1637
10149SOL     OW30987   4.765   5.447   6.890  0.1965  0.3731 -0.2877
10149SOL    HW130988   4.729   5.515   6.833  1.8854  0.6633 -1.0901
10149SOL    HW230989   4.858   5.470   6.899 -0.1865  1.0284  3.6027
10150SOL     OW30990   3.569   1.037   3.884 -0.2309 -0.2369 -0.1720
10150SOL    HW130991   3.617   1.061   3.963  3.6244 -1.3273 -1.9354
10150SOL    HW230992   3.540   1.121   3.847 -2.2662  0.2778  2.3472
10151SOL     OW30993   0.791   4.970   0.914  0.4772  0.1314  0.0406
10151SOL    HW130994   0.838   4.922   0.983  2.2183 -0.5411 -1.5378
10151SOL    HW230995   0.743   4.902   0.866  0.2535  0.4258 -0.1525
10152SOL     OW30996   2.996   5.595   5.608  0.5807  0.1086 -0.5607
10152SOL    HW130997   3.052   5.536   5.658 -0.6222 -1.0692 -0.5696
10152SOL    HW230998   2.950   5.647   5.674 -0.4023 -0.8833 -0.4511
10153SOL     OW30999   0.434   7.429   5.022  0.4181 -0.0915  0.1056
10153SOL    HW131000   0.399   7.377   4.950 -0.2969  1.7660 -0.9344
10153SOL    HW231001   0.512   7.471   4.986 -0.2526  1.2823  0.1994
10154SOL     OW31002   2.566   6.033   2.217 -0.4958  0.7075 -0.4779
10154SOL    HW131003   2.539   6.120   2.188  0.1869  0.9482 -0.4240
10154SOL    HW231004   2.540   5.974   2.146  0.4179  1.1794 -1.2322
10155SOL     OW31005   2.745   1.042   3.695 -0.4810  0.3024 -0.2788
10155SOL    HW131006   2.720   1.028   3.604  0.4440 -0.1864 -0.4630
10155SOL    HW231007   2.795   0.964   3.719 -1.8666 -0.2411  1.0847
10156SOL     OW31008   4.682   2.556   5.049  0.6294 -0.4794  0.4893
10156SOL    HW131009   4.766   2.594   5.024 -0.2528  1.1249 -0.1485
10156SOL    HW231010   4.658   2.602   5.130  0.8785 -1.7666  1.3377
10157SOL     OW31011   5.653   3.257   3.818 -0.0980 -0.4249 -0.2175
10157SOL    HW131012   5.655   3.349   3.844  1.4729 -0.3194 -0.6204
10157SOL    HW231013   5.739   3.224   3.842 -0.2862 -1.5282 -1.0059
10158SOL     OW31014   0.780   6.081   4.384 -0.0284 -0.6830 -0.1741
10158SOL    HW131015   0.843   6.149   4.363  0.7483 -0.9111  1.3005
10158SOL    HW231016   0.831   6.001   4.392 -0.9404 -1.5085 -1.9746
10159SOL     OW31017   6.221   3.252   0.153  0.0792  0.0960  0.0164
10159SOL    HW131018   6.209   3.343   0.126 -0.1952 -0.1052 -0.5387
10159SOL    HW231019   6.287   3.217   0.093  0.5267  0.0502  0.5172
10160SOL     OW31020   3.171   1.775   3.094 -0.0088  0.7217 -0.2264
10160SOL    HW131021   3.151   1.867   3.077  0.4744  0.7375 -0.7186
10160SOL    HW231022   3.113   1.727   3.035  0.8165  0.7496 -1.0729
10161SOL     OW31023   2.131   0.473   6.314 -0.0608 -0.2213 -0.1507
10161SOL    HW131024   2.098   0.410   6.250  0.9451  1.6649 -2.6772
10161SOL    HW231025   2.163   0.546   6.262  0.7849  1.4841  2.5495
10162SOL     OW31026   7.565   4.712   1.060 -0.0981 -0.0933  0.6959
10162SOL    HW131027   7.535   4.621   1.061  0.8768 -0.4592 -0.4941
10162SOL    HW231028   7.658   4.706   1.083 -0.0997  0.6499  0.9193
10163SOL     OW31029   5.105   0.290   6.344 -0.5288  0.2981  0.5445
10163SOL    HW131030   5.112   0.383   6.368 -0.4218  0.3884  0.1706
10163SOL    HW231031   5.010   0.274   6.339 -0.5596  0.8658 -1.1767
10164SOL     OW31032   1.013   3.260   6.130  1.0162  0.1336  0.1032
10164SOL    HW131033   1.082   3.270   6.064  0.5296  2.2105 -0.1722
10164SOL    HW231034   0.950   3.201   6.089  1.9217 -0.6115 -0.2484
10165SOL     OW31035   4.398   0.909   0.954  0.3505 -0.1473 -0.3533
10165SOL    HW131036   4.351   0.825   0.960  0.5239 -0.1723  1.2160
10165SOL    HW231037   4.486   0.885   0.925  0.5547 -0.5885  0.5877
10166SOL     OW31038   3.563   7.015   2.230  0.5309  0.1260  0.7407
10166SOL    HW131039   3.527   7.093   2.188  0.1007 -0.3910  0.1590
10166SOL    HW231040   3.652   7.041   2.254 -0.3067  1.5418  2.5541
10167SOL     OW31041   0.621   4.699   0.911  0.4120 -0.0508 -0.4540
10167SOL    HW131042   0.604   4.621   0.858  0.2026  0.1795 -0.7255
10167SOL    HW231043   0.549   4.701   0.974  0.2661  0.0761 -0.6244
10168SOL     OW31044   7.142   7.246   6.791 -0.4938 -0.5946  0.4962
10168SOL    HW131045   7.204   7.241   6.865 -1.7964 -1.3044  1.5903
10168SOL    HW231046   7.057   7.260   6.833 -0.8580  2.4830 -1.0694
10169SOL     OW31047   6.408   6.726   0.969 -0.3715 -0.2315 -0.3252
10169SOL    HW131048   6.378   6.793   0.908 -1.9362 -3.1614 -3.0699
10169SOL    HW231049   6.501   6.715   0.950 -0.6390 -0.4660 -1.5847
10170SOL     OW31050   0.065   5.770   7.039  0.0748  0.0579  0.5725
10170SOL    HW131051   0.067   5.791   7.133  0.4252 -1.2345  0.8727
10170SOL    HW231052   0.154   5.740   7.020 -0.3672 -1.0658  0.1761
10171SOL     OW31053   3.916   0.812   6.013  0.0168 -0.8228  0.1826
10171SOL    HW131054   3.911   0.892   6.065 -0.0810 -0.1823 -0.7734
10171SOL    HW231055   3.943   0.842   5.926 -0.2992 -1.8003 -0.2682
10172SOL     OW31056   6.097   2.860   4.452  0.2674 -0.3210  0.0168
10172SOL    HW131057   6.152   2.784   4.434  0.3922 -0.8845  2.4656
10172SOL    HW231058   6.152   2.935   4.427  1.2281 -0.9652  0.1294
10173SOL     OW31059   4.876   1.263   6.343 -0.6763 -0.4989 -0.1937
10173SOL    HW131060   4.799   1.213   6.371 -0.7607 -0.3112 -0.0931
10173SOL    HW231061   4.872   1.344   6.393  0.9841 -1.5408  1.7979
10174SOL     OW31062   0.468   5.432   1.423  0.2353 -0.1308 -0.0173
10174SOL    HW131063   0.457   5.452   1.516 -1.0703 -2.5612  0.4362
10174SOL    HW231064   0.433   5.343   1.413  2.2673 -0.7740 -2.4579
10175SOL     OW31065   0.033   3.469   3.028 -0.1131  0.0486  0.4333
10175SOL    HW131066   0.021   3.564   3.016  0.2735 -0.1933 -2.3011
10175SOL    HW231067  -0.055   3.433   3.017 -0.0069 -0.0549 -0.0469
10176SOL     OW31068   7.049   0.761   3.941 -0.5405  0.0605 -0.0152
10176SOL    HW131069   7.027   0.678   3.983  1.5359 -0.1436  0.7925
10176SOL    HW231070   7.058   0.740   3.848 -0.5072 -0.4987  0.1158
10177SOL     OW31071   2.734   5.221   5.576  0.3836  0.0839 -0.4118
10177SOL    HW131072   2.785   5.278   5.518 -0.4335 -0.6323 -1.8777
10177SOL    HW231073   2.644   5.250   5.566 -0.0071 -1.2431 -0.9560
10178SOL     OW31074   0.737   7.564   2.995  0.1528  0.1956  0.0014
10178SOL    HW131075   0.796   7.571   2.921  1.5445  1.4880  1.1659
10178SOL    HW231076   0.787   7.517   3.062  0.7293  2.9995  1.7249
10179SOL     OW31077   6.735   1.017   2.247  0.0841  0.2271 -0.4135
10179SOL    HW131078   6.749   0.926   2.220 -3.1699 -0.3506 -0.5476
10179SOL    HW231079   6.696   1.059   2.170  1.5290  1.8117 -0.3511
10180SOL     OW31080   0.167   1.449   0.138 -0.4293 -0.4678 -0.0387
10180SOL    HW131081   0.260   1.463   0.117 -0.6508 -0.8328 -1.3297
10180SOL    HW231082   0.125   1.434   0.053 -1.4796 -1.4324  0.6226
10181SOL     OW31083   3.516   3.896   0.189  1.1375 -0.1208  0.4846
10181SOL    HW131084   3.527   3.941   0.272 -1.1067  0.6646  0.4162
10181SOL    HW231085   3.459   3.953   0.137 -0.1557 -2.0516 -0.3686
10182SOL     OW31086   2.394   5.823   7.297  0.6016 -0.5056  0.0028
10182SOL    HW131087   2.431   5.735   7.301  0.0563 -0.7068  0.7673
10182SOL    HW231088   2.303   5.812   7.324  0.9556  0.5375  1.7311
10183SOL     OW31089   3.414   2.586   0.958  0.0417 -0.0891  0.1653
10183SOL    HW131090   3.336   2.606   0.906  0.4401  0.1913 -0.3413
10183SOL    HW231091   3.472   2.661   0.943  0.7454 -0.6749 -0.1361
10184SOL     OW31092   0.392   3.224   3.633  0.5409 -0.3817  0.6530
10184SOL    HW131093   0.358   3.137   3.613  1.3354 -0.1922 -1.7952
10184SOL    HW231094   0.335   3.256   3.703 -1.7828 -1.6231 -0.5545
10185SOL     OW31095   2.765   6.806   7.489 -0.3433  0.0407 -0.3379
10185SOL    HW131096   2.682   6.770   7.459 -0.0473 -1.7070  0.7507
10185SOL    HW231097   2.763   6.792   7.584  0.6997  1.0706 -0.1469
10186SOL     OW31098   0.910   4.994   7.245  0.2568 -0.1360 -0.0139
10186SOL    HW131099   0.895   4.907   7.208  0.6720  0.2486 -1.1215
10186SOL    HW231100   0.823   5.022   7.275  0.1852 -1.0691  0.6890
10187SOL     OW31101   6.132   0.184   0.020 -0.1188  0.0180  0.2054
10187SOL    HW131102   6.059   0.172  -0.041  0.8705 -0.4551 -0.9201
10187SOL    HW231103   6.100   0.248   0.083 -1.0696  0.7678 -0.9986
10188SOL     OW31104   5.622   0.967   0.991  0.1182  0.4883  0.7304
10188SOL    HW131105   5.641   0.890   1.046 -1.0514 -0.4584 -0.1207
10188SOL    HW231106   5.534   0.994   1.018  0.5971  1.6668  1.1489
10189SOL     OW31107   6.057   2.011   3.237 -0.2137  0.4319 -0.4893
10189SOL    HW131108   6.012   1.992   3.155 -0.5089  1.8366 -0.6773
10189SOL    HW231109   5.996   1.979   3.305  0.4384 -1.5911 -0.7731
10190SOL     OW31110   0.115   4.457   6.705  0.0134 -0.0060 -0.0883
10190SOL    HW131111   0.127   4.418   6.792 -1.2771  0.7836  0.4706
10190SOL    HW231112   0.073   4.541   6.722 -1.0199 -0.1985 -1.5248
10191SOL     OW31113   3.697   7.494   3.142 -0.8368 -0.4530 -0.0320
10191SOL    HW131114   3.693   7.522   3.234  0.7807 -0.4884  0.0700
10191SOL    HW231115   3.740   7.566   3.097 -1.7886 -0.3583 -0.8242
10192SOL     OW31116   5.728   3.611   1.797  0.5287 -0.1900  0.2323
10192SOL    HW131117   5.802   3.597   1.737  0.9383 -0.6680  0.8320
10192SOL    HW231118   5.755   3.685   1.850 -1.3514  2.6742 -2.4881
10193SOL     OW31119   5.405   6.611   0.205 -0.2436 -0.5660  0.2458
10193SOL    HW131120   5.376   6.624   0.295 -1.4593 -0.2711 -0.1684
10193SOL    HW231121   5.483   6.666   0.196 -1.7083  1.6449  0.3288
10194SOL     OW31122   5.130   3.621   4.418  0.2211  0.4971 -0.7751
10194SOL    HW131123   5.100   3.671   4.342 -1.3436  1.7729  0.5833
10194SOL    HW231124   5.132   3.686   4.489  2.7179 -0.3884  0.0728
10195SOL     OW31125   2.356   3.219   3.820  0.8882  0.3631  0.5829
10195SOL    HW131126   2.304   3.261   3.889  1.2173  0.7324  0.6100
10195SOL    HW231127   2.318   3.251   3.738  0.2572 -0.3699  0.5849
10196SOL     OW31128   4.809   3.953   3.758 -0.0751 -0.3760 -0.3039
10196SOL    HW131129   4.759   4.028   3.790 -1.2524 -0.7097 -1.2605
10196SOL    HW231130   4.743   3.893   3.723  0.9690 -1.0294 -1.2424
10197SOL     OW31131   4.067   3.719   7.368  0.6041  0.0873 -0.3368
10197SOL    HW131132   4.126   3.784   7.328 -0.1323  1.2108  0.3471
10197SOL    HW231133   4.035   3.762   7.447  1.4519 -1.7970  1.0889
10198SOL     OW31134   7.457   4.304   5.410  0.5431  0.5560  0.1520
10198SOL    HW131135   7.444   4.302   5.505  2.4882 -0.3321  0.4541
10198SOL    HW231136   7.468   4.212   5.386  0.7151  0.8234 -0.8382
10199SOL     OW31137   5.429   5.668   1.842  0.1750  0.3355 -0.2097
10199SOL    HW131138   5.353   5.694   1.791  0.4086 -0.1916 -0.8516
10199SOL    HW231139   5.501   5.665   1.778  0.4652 -0.3775  0.1313
10200SOL     OW31140   3.851   1.027   4.011  0.8077 -0.4645  0.5952
10200SOL    HW131141   3.831   1.056   3.922 -1.3405  1.4779  1.6145
10200SOL    HW231142   3.832   0.933   4.011 -2.7085  0.1169 -0.1745
10201SOL     OW31143   5.912   1.995   2.734 -0.1263  0.1894  0.3507
10201SOL    HW131144   5.943   2.078   2.770 -0.5645  0.1261  0.8872
10201SOL    HW231145   5.826   2.015   2.698  0.5078  0.3578 -1.1089
10202SOL     OW31146   0.597   2.005   4.465  0.0207  0.5990  0.1297
10202SOL    HW131147   0.664   1.952   4.508 -1.5860 -0.5749  1.3175
10202SOL    HW231148   0.584   2.079   4.524  0.6956  1.1704 -0.4220
10203SOL     OW31149   0.483   6.419   1.668  0.1751 -0.1324  0.4959
10203SOL    HW131150   0.444   6.405   1.754 -2.0692  0.2962 -0.3784
10203SOL    HW231151   0.423   6.376   1.607  1.9431 -0.8305 -0.8586
10204SOL     OW31152   1.592   1.054   1.176 -0.3862  0.0198 -0.0730
10204SOL    HW131153   1.600   1.076   1.269  2.3206  3.2259 -0.8474
10204SOL    HW231154   1.635   0.969   1.168  0.4998  0.2647  1.4897
10205SOL     OW31155   6.875   3.816   2.964  0.1740 -0.6786 -0.5031
10205SOL    HW131156   6.933   3.864   3.023 -1.8381 -1.0877  1.9980
10205SOL    HW231157   6.787   3.840   2.994 -0.9950 -0.8329 -3.4929
10206SOL     OW31158   0.219   2.298   5.989 -0.1504 -0.4464  0.5451
10206SOL    HW131159   0.212   2.229   5.924 -0.6243 -1.2465  1.4094
10206SOL    HW231160   0.309   2.332   5.980 -0.1174 -0.7449 -0.2980
10207SOL     OW31161   3.393   1.709   4.679  0.1212  0.4138 -0.0503
10207SOL    HW131162   3.319   1.755   4.718 -1.3013 -1.8770  0.0782
10207SOL    HW231163   3.430   1.772   4.616 -1.1619  2.0260  0.7336
10208SOL     OW31164   7.619   5.872   0.722  0.2967  0.0878  0.6237
10208SOL    HW131165   7.637   5.965   0.732 -0.3514  0.1581  1.2476
10208SOL    HW231166   7.690   5.828   0.768 -0.8657  0.3481  2.7938
10209SOL     OW31167   5.441   4.182   2.610  0.0010 -0.0575 -0.0725
10209SOL    HW131168   5.536   4.170   2.607  0.2690  1.2928  1.6212
10209SOL    HW231169   5.426   4.234   2.689 -1.9623  1.4081 -1.3162
10210SOL     OW31170   0.211   2.775   5.584 -0.4637 -0.0874 -0.6338
10210SOL    HW131171   0.147   2.844   5.597 -0.0798  0.1360  0.0749
10210SOL    HW231172   0.294   2.821   5.570 -0.3595 -0.3860 -1.0205
10211SOL     OW31173   4.748   2.722   0.273  0.1439  0.6044 -0.0208
10211SOL    HW131174   4.721   2.813   0.264 -2.0587 -0.0272 -0.3273
10211SOL    HW231175   4.674   2.679   0.314  1.5517 -0.8859  1.1034
10212SOL     OW31176   1.625   3.642   6.452 -0.2682 -0.3165  0.3766
10212SOL    HW131177   1.661   3.722   6.491 -1.1476  0.5807 -0.5964
10212SOL    HW231178   1.673   3.633   6.369 -2.4014  1.1034 -1.1255
10213SOL     OW31179   4.732   5.926   6.601  0.0024 -0.4333 -0.2103
10213SOL    HW131180   4.742   5.847   6.653  0.3640  0.5395  1.2676
10213SOL    HW231181   4.680   5.899   6.525  0.8354 -2.2481 -0.1901
10214SOL     OW31182   2.737   7.580   2.160 -0.4464 -0.4405  0.4001
10214SOL    HW131183   2.696   7.647   2.214  0.6066 -0.8664  1.7906
10214SOL    HW231184   2.700   7.497   2.192  0.8345 -0.7631  1.1322
10215SOL     OW31185   1.656   4.124   0.052 -0.0949 -0.3040  0.3347
10215SOL    HW131186   1.644   4.212   0.015 -0.1425  1.0297  3.1750
10215SOL    HW231187   1.622   4.065  -0.014  1.2049  1.6797 -2.2976
10216SOL     OW31188   2.004   0.616   7.231 -0.4286 -0.2989 -0.2518
10216SOL    HW131189   2.019   0.531   7.273 -0.5108 -1.3915 -2.2979
10216SOL    HW231190   2.084   0.633   7.182 -0.7777  0.3473 -0.6043
10217SOL     OW31191   3.926   4.173   4.177  0.2552  0.0568  0.0075
10217SOL    HW131192   3.961   4.107   4.237 -0.4021 -0.0711  0.2634
10217SOL    HW231193   3.986   4.172   4.103  2.1173  1.4489  1.3797
10218SOL     OW31194   5.558   5.093   0.700  0.3367 -0.1484  0.0465
10218SOL    HW131195   5.602   5.178   0.692  0.6234 -0.3688 -0.8113
10218SOL    HW231196   5.616   5.032   0.654 -0.4205 -0.6095 -0.3088
10219SOL     OW31197   6.832   5.190   3.818 -0.2618 -0.1417  0.3801
10219SOL    HW131198   6.869   5.251   3.882 -0.9471  0.7409 -0.0440
10219SOL    HW231199   6.888   5.199   3.741 -0.9083  0.6658 -0.0111
10220SOL     OW31200   4.185   1.764   4.053 -0.0838  0.2239  0.1942
10220SOL    HW131201   4.260   1.802   4.008 -0.7823 -0.3100 -1.5278
10220SOL    HW231202   4.172   1.679   4.011  0.6361 -1.4236  3.0622
10221SOL     OW31203   5.012   1.696   2.453 -0.2786 -0.6600 -0.6579
10221SOL    HW131204   5.067   1.727   2.525  1.4244 -0.8471 -1.8238
10221SOL    HW231205   4.957   1.628   2.492  1.7349 -1.9008  0.1470
10222SOL     OW31206   5.140   5.802   6.818  0.2742 -0.0130  0.6251
10222SOL    HW131207   5.113   5.736   6.881  0.4220  0.0376  0.7425
10222SOL    HW231208   5.068   5.865   6.817 -1.7046 -2.0263 -2.2433
10223SOL     OW31209   2.657   7.450   0.129 -0.4253 -0.1226  0.1896
10223SOL    HW131210   2.636   7.469   0.037  0.6870  1.0396  0.1534
10223SOL    HW231211   2.605   7.514   0.179 -0.3505 -0.1659  0.3224
10224SOL     OW31212   1.575   3.164   6.919  0.4814  0.3118 -0.6426
10224SOL    HW131213   1.572   3.117   7.003 -1.7755 -1.0533 -1.4024
10224SOL    HW231214   1.563   3.256   6.943  0.9771  0.0696  0.6068
10225SOL     OW31215   3.349   5.243   6.816 -0.3149  0.1619  0.0451
10225SOL    HW131216   3.320   5.249   6.725  0.8275  0.8887 -0.3064
10225SOL    HW231217   3.276   5.204   6.863 -0.7144 -0.7535 -1.2892
10226SOL     OW31218   7.053   0.365   5.019  0.2212 -0.0211  0.1769
10226SOL    HW131219   7.090   0.279   5.040  0.6399 -0.3451 -1.7377
10226SOL    HW231220   6.987   0.347   4.952 -0.6337  1.0293  0.7009
10227SOL     OW31221   7.345   1.177   4.920  0.3029 -0.7373 -0.1535
10227SOL    HW131222   7.321   1.199   4.830 -0.8927 -1.2195  0.0327
10227SOL    HW231223   7.407   1.246   4.946 -1.1215  0.7377 -0.5612
10228SOL     OW31224   6.957   1.692   7.335  0.1754 -0.0840  0.1970
10228SOL    HW131225   7.028   1.726   7.281  1.2861 -1.4751  0.7166
10228SOL    HW231226   6.962   1.742   7.416 -0.9463  1.4079 -0.5977
10229SOL     OW31227   1.870   0.514   6.050  0.1402 -0.9725  0.1380
10229SOL    HW131228   1.793   0.488   5.999  0.7850 -0.6833 -1.0036
10229SOL    HW231229   1.925   0.435   6.051  0.7616 -0.5612 -0.8181
10230SOL     OW31230   6.975   3.817   4.514 -0.1899  0.2341 -0.2593
10230SOL    HW131231   6.938   3.733   4.544 -1.6751  0.7517 -0.5537
10230SOL    HW231232   6.982   3.808   4.419  2.9280 -0.7806 -0.0327
10231SOL     OW31233   3.158   1.329   3.534  0.2646  0.4233  0.3776
10231SOL    HW131234   3.237   1.349   3.484  0.8553 -0.9803  0.7075
10231SOL    HW231235   3.117   1.414   3.548  1.8563  1.2231  0.4505
10232SOL     OW31236   6.043   7.004   4.602  0.2135  0.5140  0.1731
10232SOL    HW131237   6.015   7.062   4.532  1.9083 -0.4350 -1.3746
10232SOL    HW231238   6.121   7.045   4.638  0.3914  0.0950  0.2799
10233SOL     OW31239   2.489   6.512   6.191 -0.3264  0.1577 -0.3982
10233SOL    HW131240   2.570   6.561   6.205 -0.7269  0.4861  0.8853
10233SOL    HW231241   2.516   6.437   6.138  1.0881 -0.4320  1.0657
10234SOL     OW31242   7.284   6.816   6.816 -0.0148 -0.8901 -0.1618
10234SOL    HW131243   7.328   6.878   6.874 -2.0056  1.1946 -0.6928
10234SOL    HW231244   7.253   6.746   6.874 -0.4970  0.2721  1.0393
10235SOL     OW31245   4.955   0.519   4.459 -0.1113  0.7012 -0.0154
10235SOL    HW131246   5.041   0.562   4.449 -0.3913  1.3260  0.1898
10235SOL    HW231247   4.904   0.581   4.511  0.2019 -0.9082  2.3336
10236SOL     OW31248   2.571   0.737   3.619  0.4326  0.4786 -0.0842
10236SOL    HW131249   2.513   0.772   3.686  0.5876  1.3630 -0.4022
10236SOL    HW231250   2.635   0.684   3.667 -1.5683 -1.8970  0.1404
10237SOL     OW31251   6.025   1.709   7.070  0.1323 -0.0283  0.2245
10237SOL    HW131252   6.006   1.788   7.120  0.6551  0.7288 -0.7297
10237SOL    HW231253   5.940   1.669   7.055 -0.2057  0.6695  0.2376
10238SOL     OW31254   1.383   4.838   2.646  0.1306  0.1149 -0.0298
10238SOL    HW131255   1.427   4.880   2.720  0.8620 -0.0641 -0.3540
10238SOL    HW231256   1.298   4.811   2.681  0.8604 -0.8990  1.0567
10239SOL     OW31257   5.978   0.310   2.512 -0.8205 -0.2964 -0.4878
10239SOL    HW131258   5.896   0.290   2.556 -0.7004  0.6108  0.1825
10239SOL    HW231259   5.961   0.292   2.420 -1.0304 -2.3678 -0.0952
10240SOL     OW31260   6.814   2.769   0.408  0.1986 -0.3575  0.0158
10240SOL    HW131261   6.719   2.780   0.411  0.3089  0.5758  0.3910
10240SOL    HW231262   6.828   2.677   0.432 -0.6304 -0.6368 -0.5465
10241SOL     OW31263   5.662   5.590   2.410 -0.0458 -0.0248  0.5807
10241SOL    HW131264   5.676   5.599   2.316 -0.2973 -0.1259  0.5337
10241SOL    HW231265   5.740   5.630   2.449 -0.2139  0.5523  0.3413
10242SOL     OW31266   3.181   1.944   6.874 -0.1912 -0.6650  0.1893
10242SOL    HW131267   3.086   1.938   6.862 -0.3027  1.3963 -0.3690
10242SOL    HW231268   3.195   2.031   6.911  1.5921 -0.2249 -1.3680
10243SOL     OW31269   2.499   1.995   4.598 -0.2472  0.1815 -0.7683
10243SOL    HW131270   2.474   1.906   4.625 -0.1834  0.2673 -0.4205
10243SOL    HW231271   2.427   2.023   4.541  0.2107 -0.4608 -1.6874
10244SOL     OW31272   5.489   0.864   2.269 -0.1442  0.5706  0.1205
10244SOL    HW131273   5.501   0.888   2.361  1.0647  0.6401 -0.0470
10244SOL    HW231274   5.408   0.908   2.244  0.9840  2.9479  0.3628
10245SOL     OW31275   3.738   7.191   2.459 -0.0656  0.0069  0.1851
10245SOL    HW131276   3.782   7.136   2.393 -0.7819 -0.0134 -0.2828
10245SOL    HW231277   3.689   7.129   2.513 -0.3667  0.1213  0.0471
10246SOL     OW31278   6.086   4.410   2.976  0.4466 -0.5828  0.4838
10246SOL    HW131279   6.178   4.383   2.971  0.3804 -0.5767 -1.3613
10246SOL    HW231280   6.081   4.460   3.057  1.7153 -1.8326  1.3973
10247SOL     OW31281   3.664   2.152   3.463 -0.0995  0.4363  0.5401
10247SOL    HW131282   3.683   2.219   3.398  0.9748  0.8979  1.3134
10247SOL    HW231283   3.628   2.079   3.412  0.7895  0.7501 -0.5801
10248SOL     OW31284   2.790   5.892   0.771 -0.5562  0.6618 -0.7607
10248SOL    HW131285   2.701   5.903   0.738 -1.5087  0.8264  1.6512
10248SOL    HW231286   2.839   5.856   0.697 -2.3870  1.4419 -2.4302
10249SOL     OW31287   0.044   4.060   6.514  0.9259  0.2153  0.5212
10249SOL    HW131288   0.119   4.120   6.515  0.2111  1.1471  0.1671
10249SOL    HW231289  -0.019   4.101   6.574  0.0933  0.2826 -0.3663
10250SOL     OW31290   4.554   2.846   5.860  0.4758 -0.1859 -0.4034
10250SOL    HW131291   4.587   2.929   5.893  0.4869 -0.4403  0.2386
10250SOL    HW231292   4.578   2.846   5.767 -0.6568  1.0878 -0.7273
10251SOL     OW31293   3.784   6.515   3.605  0.0706  0.1980  0.2795
10251SOL    HW131294   3.752   6.428   3.581  1.0861  0.4941 -2.6362
10251SOL    HW231295   3.706   6.571   3.600 -1.0594 -0.7086  4.2706
10252SOL     OW31296   5.595   4.208   3.714  1.1928 -0.6830 -0.9053
10252SOL    HW131297   5.562   4.157   3.640  1.8979 -1.5557 -0.6289
10252SOL    HW231298   5.645   4.145   3.766  0.4434 -0.1643  0.4860
10253SOL     OW31299   1.201   5.016   6.050 -0.0467 -0.3953  0.1670
10253SOL    HW131300   1.198   4.924   6.025  0.5616 -0.2777 -0.3587
10253SOL    HW231301   1.132   5.025   6.116 -0.4474 -1.1150 -0.1394
10254SOL     OW31302   6.425   0.311   0.635  0.3533 -0.3375 -0.2904
10254SOL    HW131303   6.419   0.359   0.718 -3.1958 -2.6745  1.0624
10254SOL    HW231304   6.409   0.378   0.568  1.1944  1.2599  1.0081
10255SOL     OW31305   4.442   3.747   0.610 -0.3358 -0.2394 -0.1781
10255SOL    HW131306   4.395   3.811   0.557  0.7491  0.5208 -0.2306
10255SOL    HW231307   4.386   3.736   0.687 -1.3526 -0.4982 -0.9288
10256SOL     OW31308   1.768   4.462   2.371 -0.6194  0.4885 -0.5788
10256SOL    HW131309   1.714   4.531   2.331  0.8618  0.6829 -2.3488
10256SOL    HW231310   1.704   4.399   2.405 -1.9706  1.4957 -1.1491
10257SOL     OW31311   0.391   3.565   0.634  0.3118  0.4812  0.2631
10257SOL    HW131312   0.412   3.608   0.716  1.2703 -0.8331  0.7452
10257SOL    HW231313   0.410   3.630   0.567  1.0782  1.0345  0.9965
10258SOL     OW31314   3.136   7.239   2.545 -0.6206  0.0536  0.1939
10258SOL    HW131315   3.122   7.168   2.482  1.1298 -1.8895  1.8381
10258SOL    HW231316   3.079   7.217   2.619 -0.7124  0.8630  0.3751
10259SOL     OW31317   7.263   7.116   2.307  0.0432 -0.2381  0.0854
10259SOL    HW131318   7.352   7.151   2.298 -0.2301  0.5393  0.2565
10259SOL    HW231319   7.206   7.189   2.281 -0.5972  0.0213  2.0086
10260SOL     OW31320   2.174   2.799   3.360  0.2118  0.5457 -0.1094
10260SOL    HW131321   2.124   2.864   3.311 -0.5975 -0.0688 -0.1231
10260SOL    HW231322   2.211   2.848   3.433  0.3592  1.2021 -0.6090
10261SOL     OW31323   1.993   6.291   1.266 -0.7631 -0.0251  0.6152
10261SOL    HW131324   2.006   6.234   1.342 -2.7138 -1.3501  0.0333
10261SOL    HW231325   1.899   6.306   1.264 -0.5623  1.2175 -0.6978
10262SOL     OW31326   5.176   6.214   4.777 -0.5337 -0.1591 -0.0844
10262SOL    HW131327   5.221   6.154   4.718  0.3978 -0.3406  0.7793
10262SOL    HW231328   5.098   6.241   4.729 -0.5332 -1.3942 -0.8282
10263SOL     OW31329   5.090   0.460   4.703 -0.1843  0.1583  0.8007
10263SOL    HW131330   5.137   0.543   4.696 -0.8423  0.8455  3.5239
10263SOL    HW231331   5.070   0.436   4.613  1.1756  2.2671 -0.1276
10264SOL     OW31332   5.335   2.109   1.556 -0.5249  0.1589 -0.6269
10264SOL    HW131333   5.256   2.069   1.594  0.5830 -0.8938  0.7063
10264SOL    HW231334   5.384   2.035   1.519  0.4510  0.5902 -0.2459
10265SOL     OW31335   6.305   0.683   7.378  0.0872  0.2780 -0.3750
10265SOL    HW131336   6.341   0.746   7.315 -0.2182 -0.6332 -1.4963
10265SOL    HW231337   6.371   0.613   7.383 -0.8193 -0.6835 -1.3232
10266SOL     OW31338   2.784   4.779   1.559  0.1542 -0.4282  0.5915
10266SOL    HW131339   2.854   4.819   1.612 -1.5428  1.2506  1.6930
10266SOL    HW231340   2.773   4.691   1.597  1.4338 -0.5941  0.6094
10267SOL     OW31341   0.850   4.197   5.183 -0.4127  0.5310  0.7721
10267SOL    HW131342   0.855   4.108   5.150 -0.6995  0.1458  1.7209
10267SOL    HW231343   0.876   4.189   5.275 -1.7116  1.2166  1.2149
10268SOL     OW31344   7.477   6.721   6.279  0.4184 -0.1812  0.0099
10268SOL    HW131345   7.551   6.750   6.332  1.0943  1.4028 -1.6932
10268SOL    HW231346   7.405   6.777   6.306  0.5299  0.0263 -0.1184
10269SOL     OW31347   2.196   0.127   1.615 -0.1718 -0.3501 -0.2405
10269SOL    HW131348   2.283   0.086   1.619 -1.1763 -2.6509 -0.1527
10269SOL    HW231349   2.174   0.143   1.707 -0.7462 -1.9882 -0.0454
10270SOL     OW31350   0.296   0.027   2.845  0.3172 -0.1870  0.1325
10270SOL    HW131351   0.290  -0.068   2.852 -0.3084 -0.3116 -1.5961
10270SOL    HW231352   0.279   0.045   2.752 -1.8349  1.7467  0.8063
10271SOL     OW31353   1.837   1.941   2.725 -0.1558  0.9669  0.7863
10271SOL    HW131354   1.786   1.869   2.763  0.1591 -0.4271 -1.2450
10271SOL    HW231355   1.773   2.011   2.711 -1.1956 -0.1463 -0.2201
10272SOL     OW31356   1.408   2.527   4.239 -0.7942 -0.1522  0.4162
10272SOL    HW131357   1.489   2.514   4.288 -0.1117 -0.0548 -0.6329
10272SOL    HW231358   1.358   2.446   4.253 -0.7681  0.0220  1.5269
10273SOL     OW31359   2.165   3.676   4.002  0.4745 -0.3368 -0.3212
10273SOL    HW131360   2.187   3.767   3.988  2.0869 -0.7474 -0.6094
10273SOL    HW231361   2.163   3.638   3.914  2.2249 -1.0771 -0.0824
10274SOL     OW31362   7.328   5.274   7.464 -0.4254 -0.2319  0.3546
10274SOL    HW131363   7.407   5.291   7.516  0.6818  0.1151 -1.3499
10274SOL    HW231364   7.339   5.184   7.434 -0.6279 -0.1600  0.0619
10275SOL     OW31365   1.495   0.682   5.103  0.6072 -0.0868 -0.3436
10275SOL    HW131366   1.534   0.741   5.039  0.6877  0.8428  0.5490
10275SOL    HW231367   1.465   0.607   5.050  2.0929 -0.0791 -1.2441
10276SOL     OW31368   2.831   1.551   4.304  0.6563 -0.1458  0.0807
10276SOL    HW131369   2.816   1.560   4.398 -0.9934 -1.7213  0.0309
10276SOL    HW231370   2.782   1.472   4.279  3.2670 -1.3683 -1.6102
10277SOL     OW31371   0.559   0.914   2.949  0.7637  0.1602  0.2094
10277SOL    HW131372   0.574   1.004   2.920 -0.1654  0.3738  0.3469
10277SOL    HW231373   0.627   0.898   3.014  1.8138  0.2673 -0.8376
10278SOL     OW31374   4.473   2.645   6.031 -0.3344  0.6068 -0.6066
10278SOL    HW131375   4.501   2.723   5.983  1.5456 -0.5944 -1.5934
10278SOL    HW231376   4.493   2.572   5.971 -1.8792 -0.6647  0.3433
10279SOL     OW31377   4.862   4.905   6.256  0.4686 -0.0574 -0.3360
10279SOL    HW131378   4.866   4.907   6.352  2.9112  0.0152 -0.3707
10279SOL    HW231379   4.927   4.970   6.229 -0.1927 -0.0758 -2.0571
10280SOL     OW31380   1.376   1.760   0.504 -0.5081  0.1456  0.4825
10280SOL    HW131381   1.327   1.842   0.511  0.4214  0.9096 -1.3528
10280SOL    HW231382   1.373   1.738   0.411  2.2013 -0.0245  0.3645
10281SOL     OW31383   4.449   4.844   4.307 -0.1522  0.1488 -0.2127
10281SOL    HW131384   4.418   4.778   4.245 -0.7809  0.6568 -0.4555
10281SOL    HW231385   4.369   4.880   4.346 -0.1044  2.8089 -2.2107
10282SOL     OW31386   5.398   5.121   3.974 -0.0262  0.1201 -0.1324
10282SOL    HW131387   5.348   5.072   4.039 -1.3796  1.9109  0.2336
10282SOL    HW231388   5.483   5.137   4.016 -0.1544 -0.4690  0.3632
10283SOL     OW31389   0.240   7.613   1.916  0.1193 -0.1129  0.1365
10283SOL    HW131390   0.287   7.611   1.999 -0.5289 -1.1773  0.4912
10283SOL    HW231391   0.255   7.702   1.882  2.2712 -0.3684  0.2854
10284SOL     OW31392   0.291   1.460   3.887 -0.0490 -0.3927 -0.3869
10284SOL    HW131393   0.313   1.452   3.980 -0.6512 -1.4616 -0.3182
10284SOL    HW231394   0.276   1.553   3.874  1.1465 -0.0799  0.3266
10285SOL     OW31395   5.245   0.751   5.023 -0.3011 -0.5888  0.1883
10285SOL    HW131396   5.263   0.657   5.029 -0.0702 -0.4719  2.3578
10285SOL    HW231397   5.326   0.788   4.989  0.3932 -0.9997  1.3105
10286SOL     OW31398   2.025   3.113   1.344 -0.3776 -0.3811 -0.1107
10286SOL    HW131399   1.996   3.170   1.415  0.7972  0.8391 -0.5653
10286SOL    HW231400   2.112   3.083   1.370 -0.3722 -0.7755 -0.5536
10287SOL     OW31401   3.580   7.599   4.446  0.1381 -0.5088 -0.3066
10287SOL    HW131402   3.568   7.609   4.541  0.0454  0.2976 -0.3941
10287SOL    HW231403   3.529   7.522   4.423  0.5395 -0.9843  0.3747
10288SOL     OW31404   6.266   2.688   0.951  0.7172 -0.3322  0.0140
10288SOL    HW131405   6.246   2.742   0.875  1.5399 -0.6692 -0.4522
10288SOL    HW231406   6.292   2.603   0.915 -2.6978 -1.8897  0.7522
10289SOL     OW31407   3.535   5.827   4.739 -0.0605 -0.0540 -0.4205
10289SOL    HW131408   3.500   5.836   4.650 -1.1513 -2.4299 -0.2790
10289SOL    HW231409   3.469   5.867   4.795 -0.3614 -0.4350 -0.5060
10290SOL     OW31410   5.537   2.023   6.691 -0.1544 -0.0855 -0.2898
10290SOL    HW131411   5.454   1.979   6.713 -1.3664  1.1601 -2.0862
10290SOL    HW231412   5.511   2.109   6.660  1.7679  0.0779 -1.6283
10291SOL     OW31413   5.137   1.058   5.839  0.1978 -0.2869  0.3201
10291SOL    HW131414   5.155   1.098   5.754 -1.2957  0.8486  0.4802
10291SOL    HW231415   5.163   1.125   5.902  0.2480 -0.6739  0.7103
10292SOL     OW31416   2.038   5.484   3.813  0.0422 -0.3535  0.1929
10292SOL    HW131417   2.117   5.529   3.782  0.1338 -0.3311  0.4501
10292SOL    HW231418   1.995   5.548   3.870 -0.9633  0.1942 -1.1191
10293SOL     OW31419   6.229   5.692   5.588 -0.0785  0.0635  0.4558
10293SOL    HW131420   6.325   5.694   5.587  0.0302 -1.8823  1.2763
10293SOL    HW231421   6.206   5.627   5.521 -0.7414 -0.5086  1.2208
10294SOL     OW31422   6.696   3.583   2.401  0.0363 -0.1600 -0.2944
10294SOL    HW131423   6.780   3.568   2.445  0.3318  0.0254 -0.7769
10294SOL    HW231424   6.633   3.533   2.451  0.5825 -0.9810 -0.4128
10295SOL     OW31425   3.776   3.753   4.676  0.3043  0.1873 -0.6342
10295SOL    HW131426   3.803   3.773   4.586  1.7796 -0.1366 -0.2931
10295SOL    HW231427   3.682   3.736   4.669 -0.1518  2.6160 -1.6889
10296SOL     OW31428   2.665   2.345   3.832 -0.4414  0.6306 -0.5178
10296SOL    HW131429   2.683   2.432   3.796 -0.5595  0.8304 -0.0974
10296SOL    HW231430   2.752   2.307   3.848 -0.3723  1.3217  0.8511
10297SOL     OW31431   0.067   2.866   1.964 -0.3677 -0.1715  0.4828
10297SOL    HW131432   0.133   2.838   2.028 -0.4641 -1.3054  0.1175
10297SOL    HW231433   0.013   2.929   2.010  0.4141  0.0809  1.0762
10298SOL     OW31434   0.594   2.630   5.261 -0.2868 -0.3748 -0.1162
10298SOL    HW131435   0.651   2.702   5.286 -1.5875  0.2377  1.2302
10298SOL    HW231436   0.596   2.628   5.166  1.6394 -0.1244 -0.1068
10299SOL     OW31437   6.197   5.728   0.328 -0.3338 -0.0515  0.3663
10299SOL    HW131438   6.155   5.789   0.267  1.1352 -0.0534 -0.6864
10299SOL    HW231439   6.162   5.642   0.304  0.8921 -0.1737 -1.0997
10300SOL     OW31440   3.721   1.988   6.239  0.2192 -0.2433  0.3880
10300SOL    HW131441   3.813   1.987   6.213 -0.0597  1.3159 -0.8448
10300SOL    HW231442   3.675   2.018   6.161 -0.9177  2.6760  2.0100
10301SOL     OW31443   4.894   2.759   4.513  0.1243  0.3564  0.1131
10301SOL    HW131444   4.856   2.777   4.598 -0.8501  0.3539 -0.3061
10301SOL    HW231445   4.978   2.716   4.532  0.4097  1.3043  1.0620
10302SOL     OW31446   4.705   2.914   2.847 -0.4000 -0.3810  0.2141
10302SOL    HW131447   4.680   2.976   2.915 -4.1681 -1.2619 -0.1620
10302SOL    HW231448   4.723   2.969   2.770  0.0932  0.3968  0.8674
10303SOL     OW31449   7.316   2.348   5.277 -0.1050  0.2038 -0.3097
10303SOL    HW131450   7.248   2.282   5.265  0.3346 -0.3315  0.0957
10303SOL    HW231451   7.299   2.384   5.364 -0.9892  1.3932 -0.9450
10304SOL     OW31452   5.293   0.164   5.152 -0.4462  0.0723 -0.1186
10304SOL    HW131453   5.308   0.170   5.247  0.1768  0.2223 -0.2248
10304SOL    HW231454   5.290   0.255   5.123 -1.1543  0.0407 -0.1737
10305SOL     OW31455   0.524   3.606   3.880  0.3832 -0.0610  0.1496
10305SOL    HW131456   0.602   3.582   3.830  0.6383  0.6251  0.2005
10305SOL    HW231457   0.557   3.658   3.953  0.1663 -2.2876  1.9443
10306SOL     OW31458   7.294   2.618   7.536  0.1112  0.6384 -0.2167
10306SOL    HW131459   7.384   2.584   7.537 -0.5690 -1.3259  1.3786
10306SOL    HW231460   7.248   2.563   7.472 -0.2708  0.7481 -0.0408
10307SOL     OW31461   3.458   5.571   1.813  0.7753 -0.0341  0.0384
10307SOL    HW131462   3.501   5.620   1.883  2.2088 -0.3789 -0.5467
10307SOL    HW231463   3.403   5.507   1.859  0.5271  0.7286  0.8242
10308SOL     OW31464   1.085   5.759   4.887  0.1159  0.3715 -0.4902
10308SOL    HW131465   1.154   5.698   4.862  1.6321  1.2821  1.2214
10308SOL    HW231466   1.008   5.704   4.901  0.1297 -0.5579 -3.3959
10309SOL     OW31467   5.525   0.566   1.829 -0.0624  0.0238 -0.2703
10309SOL    HW131468   5.435   0.537   1.840 -0.2918  0.8369  0.0827
10309SOL    HW231469   5.529   0.597   1.738  0.2625 -1.3324 -0.7403
10310SOL     OW31470   5.810   5.085   0.153  0.4640 -0.2513 -0.3925
10310SOL    HW131471   5.744   5.153   0.169  0.7995 -0.1344  0.5899
10310SOL    HW231472   5.885   5.131   0.116 -0.9920 -0.7665 -4.5439
10311SOL     OW31473   7.080   2.320   6.825 -0.3323 -0.0820 -0.0373
10311SOL    HW131474   7.076   2.388   6.758 -1.0541 -1.2733 -1.2485
10311SOL    HW231475   7.050   2.363   6.905  1.0345  1.5042 -0.3237
10312SOL     OW31476   4.497   0.634   0.418  0.4379  1.0273 -0.5360
10312SOL    HW131477   4.584   0.596   0.403  0.1861  0.5770 -0.9113
10312SOL    HW231478   4.479   0.618   0.510 -0.0074 -0.5312 -0.8691
10313SOL     OW31479   6.028   5.226   2.000 -0.1075  0.5270  0.7216
10313SOL    HW131480   6.108   5.251   2.046  0.5754 -1.2090  0.5339
10313SOL    HW231481   5.958   5.271   2.048  0.9572  2.3049  0.7236
10314SOL     OW31482   3.117   7.184   7.606  0.2397  0.2786  0.0923
10314SOL    HW131483   3.031   7.223   7.616  1.0746  2.1113  0.5159
10314SOL    HW231484   3.178   7.255   7.626  1.8469 -1.5066  2.0795
10315SOL     OW31485   5.760   1.815   6.701  0.1976 -0.3964 -0.4577
10315SOL    HW131486   5.709   1.889   6.669 -1.7640 -1.5978 -0.2555
10315SOL    HW231487   5.755   1.750   6.631  1.2768 -0.6390 -0.3264
10316SOL     OW31488   0.497   2.998   0.931 -0.8183 -0.2747  0.0579
10316SOL    HW131489   0.506   2.942   0.853  1.3555  0.7248 -0.4851
10316SOL    HW231490   0.484   3.086   0.895  1.3663  0.3782  0.7482
10317SOL     OW31491   7.022   2.623   3.517 -0.3185 -0.6980 -0.0002
10317SOL    HW131492   6.971   2.571   3.455 -2.9026  3.1248 -1.4947
10317SOL    HW231493   7.111   2.622   3.483 -0.7863 -2.1941 -1.2802
10318SOL     OW31494   5.614   1.545   1.979 -0.1968  1.0081 -0.3425
10318SOL    HW131495   5.570   1.600   2.044 -0.7333  0.7280 -0.4618
10318SOL    HW231496   5.663   1.606   1.925  0.8986  1.1766  0.8077
10319SOL     OW31497   0.898   4.921   5.686  0.0572  0.0655 -0.0629
10319SOL    HW131498   0.951   4.843   5.703  0.1315 -0.0232 -0.6863
10319SOL    HW231499   0.831   4.891   5.625 -0.9192  0.0943  0.9642
10320SOL     OW31500   1.273   3.886   1.203 -0.1879 -0.0493 -0.5193
10320SOL    HW131501   1.247   3.798   1.179  1.0508 -0.3563 -0.8191
10320SOL    HW231502   1.366   3.890   1.181  0.0112  1.0028  0.4309
10321SOL     OW31503   0.699   6.046   2.756  0.8277  0.5742  0.1374
10321SOL    HW131504   0.662   6.070   2.671  1.2070 -0.8305 -0.4579
10321SOL    HW231505   0.711   6.129   2.802  1.7007  1.4852 -1.6355
10322SOL     OW31506   4.677   0.398   6.293 -0.5227  0.3444  0.0173
10322SOL    HW131507   4.599   0.354   6.326 -0.1312  1.1025  2.1072
10322SOL    HW231508   4.745   0.330   6.296 -0.8129  0.0128 -0.6636
10323SOL     OW31509   2.817   4.439   6.837  0.4969  0.1937 -0.4894
10323SOL    HW131510   2.756   4.507   6.811 -0.4101 -0.4356 -0.0641
10323SOL    HW231511   2.903   4.480   6.832  0.2406  0.5736 -2.9105
10324SOL     OW31512   4.629   2.342   4.250 -0.1475 -0.4070  0.0403
10324SOL    HW131513   4.723   2.324   4.242  0.7639  3.5556 -0.6211
10324SOL    HW231514   4.600   2.355   4.159 -0.6915  0.7013  0.3484
10325SOL     OW31515   7.369   7.043   0.144  0.4525  0.9640  0.2852
10325SOL    HW131516   7.329   7.128   0.128  0.0201  0.4603 -1.6643
10325SOL    HW231517   7.300   6.992   0.187 -0.2608  0.8240 -0.9521
10326SOL     OW31518   4.830   0.140   6.325 -0.4947 -0.1253 -0.2389
10326SOL    HW131519   4.869   0.116   6.409 -1.7999 -0.6959  0.2345
10326SOL    HW231520   4.831   0.059   6.274 -1.5464 -0.2895 -0.0140
10327SOL     OW31521   4.205   7.045   4.750  0.2302  0.1314  0.9716
10327SOL    HW131522   4.140   7.028   4.682  0.1340 -2.8773  1.6496
10327SOL    HW231523   4.155   7.088   4.820 -0.5824 -0.3295  0.6888
10328SOL     OW31524   3.740   7.306   6.498 -0.3162  0.3159 -0.4784
10328SOL    HW131525   3.648   7.291   6.523 -0.1326  0.5289  0.3228
10328SOL    HW231526   3.766   7.384   6.546 -0.1913  1.2094 -1.9458
10329SOL     OW31527   2.583   7.251   4.742  0.1033 -0.2322 -0.3661
10329SOL    HW131528   2.590   7.211   4.655 -1.5620  0.3359 -0.7981
10329SOL    HW231529   2.666   7.298   4.754  0.7312 -1.0760 -1.2326
10330SOL     OW31530   0.202   6.555   1.102  0.1861 -0.3960  0.3008
10330SOL    HW131531   0.290   6.582   1.125 -0.1887  1.0297  0.1304
10330SOL    HW231532   0.185   6.594   1.016 -0.5753 -0.7347  0.2826
10331SOL     OW31533   3.820   5.643   1.570  0.1550 -0.4659 -0.5575
10331SOL    HW131534   3.796   5.687   1.488  1.1503  0.7979 -0.1920
10331SOL    HW231535   3.913   5.624   1.561 -0.2121 -2.3589 -0.6187
10332SOL     OW31536   0.250   7.531   6.274  0.0261  0.3576  0.1696
10332SOL    HW131537   0.317   7.485   6.222  0.0585  0.9747 -0.3535
10332SOL    HW231538   0.207   7.588   6.211 -1.3888 -0.4349  0.3882
10333SOL     OW31539   0.974   6.360   0.416 -0.3338 -0.2633 -0.0787
10333SOL    HW131540   1.065   6.343   0.441 -0.7593  0.2781  2.0995
10333SOL    HW231541   0.945   6.278   0.375  1.2021 -0.3243 -1.1191
10334SOL     OW31542   6.531   0.106   3.173 -0.0091 -0.2061  0.6985
10334SOL    HW131543   6.618   0.075   3.150  0.4274  1.7655 -0.5340
10334SOL    HW231544   6.474   0.074   3.104  0.0180 -0.2209  0.6833
10335SOL     OW31545   1.349   5.505   6.880 -0.0593 -0.1763  0.1243
10335SOL    HW131546   1.425   5.560   6.900  0.0339 -1.1225  2.8534
10335SOL    HW231547   1.276   5.566   6.872  0.6776  0.6071 -0.6608
10336SOL     OW31548   1.491   5.561   3.284  0.4336 -0.2668  0.0327
10336SOL    HW131549   1.481   5.532   3.375 -0.6346  1.1685  0.4011
10336SOL    HW231550   1.584   5.549   3.266  0.6254 -0.7800  1.2433
10337SOL     OW31551   4.163   6.089   5.745 -0.4843  0.2201  0.1164
10337SOL    HW131552   4.115   6.006   5.746 -0.2506  0.0854  0.2363
10337SOL    HW231553   4.185   6.103   5.653  2.2729 -1.4824  0.4222
10338SOL     OW31554   0.425   6.113   1.828  0.6347 -0.6677 -0.2106
10338SOL    HW131555   0.478   6.105   1.749  0.0363 -0.5049 -0.6354
10338SOL    HW231556   0.398   6.023   1.848 -1.0160 -0.4851 -1.4574
10339SOL     OW31557   5.816   6.958   0.949  0.6027  0.1148  0.0900
10339SOL    HW131558   5.839   6.870   0.918 -1.4588 -0.3050 -0.4020
10339SOL    HW231559   5.877   6.975   1.021 -0.2345 -2.6101  1.6043
10340SOL     OW31560   6.944   7.354   7.615  0.6749  0.1630  0.1399
10340SOL    HW131561   7.021   7.410   7.607 -0.1064  1.5080  1.3771
10340SOL    HW231562   6.891   7.375   7.538  0.4403  1.0845  0.5382
10341SOL     OW31563   5.037   6.815   0.301 -0.3976  0.0297  0.0709
10341SOL    HW131564   4.966   6.783   0.357 -0.7676 -2.0118 -1.4501
10341SOL    HW231565   5.116   6.803   0.353 -0.9741  0.7094  1.1416
10342SOL     OW31566   3.571   3.611   6.964  0.0519 -0.1751  0.1035
10342SOL    HW131567   3.634   3.617   6.892 -0.7547  1.0176 -0.5407
10342SOL    HW231568   3.624   3.589   7.040  1.3035  1.0035 -0.3771
10343SOL     OW31569   0.654   5.846   3.315  0.1454 -0.0239 -0.1935
10343SOL    HW131570   0.588   5.902   3.355  0.3239  0.4251 -0.5198
10343SOL    HW231571   0.653   5.869   3.222  0.9765  0.2177 -0.1488
10344SOL     OW31572   0.366   6.523   6.433 -0.9019  0.1550 -0.3431
10344SOL    HW131573   0.346   6.517   6.339  1.4722 -0.7654 -0.8509
10344SOL    HW231574   0.428   6.595   6.440 -0.2856 -0.4288  0.3683
10345SOL     OW31575   2.564   2.708   4.771  0.0102 -0.8928  0.2546
10345SOL    HW131576   2.476   2.690   4.804  0.5598 -2.7409  0.8289
10345SOL    HW231577   2.622   2.657   4.828  1.2623 -1.5031 -1.4777
10346SOL     OW31578   3.406   1.014   0.796  0.2223 -0.3330 -0.2610
10346SOL    HW131579   3.482   1.025   0.739  0.5400  1.1476  0.3910
10346SOL    HW231580   3.435   0.954   0.865 -0.0378 -1.8053 -1.3745
10347SOL     OW31581   4.566   5.922   2.433 -0.3603 -0.1602  0.8849
10347SOL    HW131582   4.484   5.883   2.463 -0.2503  0.0913  1.5427
10347SOL    HW231583   4.596   5.864   2.363 -0.9976 -0.3622  0.7767
10348SOL     OW31584   7.288   4.780   7.274 -0.2522  0.2162  0.0699
10348SOL    HW131585   7.199   4.814   7.271  0.2282  1.4413 -0.8412
10348SOL    HW231586   7.282   4.703   7.330 -1.9996 -0.0696 -0.4472
10349SOL     OW31587   1.008   6.545   4.675 -0.3845 -0.1713  0.3443
10349SOL    HW131588   1.018   6.466   4.728  0.2804  0.4217  1.1254
10349SOL    HW231589   1.097   6.579   4.666 -0.6155  0.2664 -0.3381
10350SOL     OW31590   7.110   3.455   5.056 -0.6793 -0.1512  0.1655
10350SOL    HW131591   7.080   3.377   5.009  1.1148 -0.1053 -1.1639
10350SOL    HW231592   7.157   3.421   5.132 -2.7990 -0.2419  1.5150
10351SOL     OW31593   3.489   0.769   0.282 -0.1717  0.4007 -0.8124
10351SOL    HW131594   3.466   0.692   0.230  0.0327 -0.3327  0.1555
10351SOL    HW231595   3.433   0.763   0.359 -0.1170  1.2035 -0.7051
10352SOL     OW31596   4.075   6.881   2.202 -0.4925  0.0964 -0.0893
10352SOL    HW131597   4.010   6.849   2.139 -1.5309 -1.0650  1.4738
10352SOL    HW231598   4.159   6.849   2.169 -0.9345 -0.0019 -1.1548
10353SOL     OW31599   5.757   1.361   0.800 -0.3578 -0.1299  0.5089
10353SOL    HW131600   5.703   1.401   0.867 -1.4411  1.2474 -1.1224
10353SOL    HW231601   5.786   1.434   0.745  0.9872 -1.1407 -0.1943
10354SOL     OW31602   0.918   2.132   6.573  0.0730  0.1068  0.4025
10354SOL    HW131603   0.866   2.071   6.626 -3.2197  1.8213 -0.5707
10354SOL    HW231604   0.947   2.199   6.634  0.7811 -0.6000  0.8664
10355SOL     OW31605   2.193   5.616   6.257 -0.0287 -0.1742 -0.2914
10355SOL    HW131606   2.104   5.635   6.228 -0.5098 -2.9025 -0.9578
10355SOL    HW231607   2.237   5.700   6.258 -2.3722  1.1416 -0.7822
10356SOL     OW31608   2.565   0.146   0.669 -0.2854  0.0162  0.0728
10356SOL    HW131609   2.553   0.080   0.737 -4.8929  1.3353  0.9001
10356SOL    HW231610   2.508   0.117   0.598  0.6207  1.1698 -1.1797
10357SOL     OW31611   3.154   4.650   1.535 -0.2144  0.3553 -0.6706
10357SOL    HW131612   3.071   4.688   1.507 -0.3428  0.5682 -0.0107
10357SOL    HW231613   3.129   4.570   1.583 -0.2221  1.6611  1.6619
10358SOL     OW31614   2.988   6.867   0.763 -0.0941 -0.1057 -0.0068
10358SOL    HW131615   2.983   6.937   0.829 -1.6700 -0.5854  0.4271
10358SOL    HW231616   2.926   6.893   0.696  0.4959 -0.3129 -0.6407
10359SOL     OW31617   1.135   0.569   1.493  0.4449 -0.4325  0.1293
10359SOL    HW131618   1.074   0.628   1.537  1.4734 -0.6700  1.9878
10359SOL    HW231619   1.129   0.487   1.543  0.6675 -1.1837 -1.0368
10360SOL     OW31620   2.664   2.680   5.264 -0.4582  0.0495 -0.4412
10360SOL    HW131621   2.687   2.589   5.284 -0.1861  0.1532 -0.2712
10360SOL    HW231622   2.685   2.690   5.172 -0.8237 -0.1617 -0.5487
10361SOL     OW31623   7.388   3.530   4.843  0.4300  0.2974  0.3192
10361SOL    HW131624   7.308   3.582   4.854 -1.3998 -2.5469  1.4835
10361SOL    HW231625   7.422   3.555   4.757 -2.0842  1.1129 -0.5108
10362SOL     OW31626   0.614   6.134   2.509 -0.5141 -0.0592  0.1759
10362SOL    HW131627   0.684   6.173   2.456 -0.7499  0.0468 -0.0621
10362SOL    HW231628   0.552   6.098   2.445  0.6347 -2.5824  0.3715
10363SOL     OW31629   5.060   5.940   4.276 -0.1563 -0.1656  0.1980
10363SOL    HW131630   4.979   5.968   4.234  0.2925 -0.6842 -1.0806
10363SOL    HW231631   5.039   5.854   4.312 -0.3633  0.0030  0.4878
10364SOL     OW31632   2.705   5.014   3.118 -0.3353 -0.3765 -0.6375
10364SOL    HW131633   2.658   5.008   3.035  0.2222  1.1758 -1.0953
10364SOL    HW231634   2.795   4.992   3.097 -0.4011 -1.1038 -0.2022
10365SOL     OW31635   4.043   4.674   7.476  0.1861  0.1771 -0.0843
10365SOL    HW131636   4.063   4.581   7.488 -0.4630  0.1291  0.6941
10365SOL    HW231637   4.009   4.680   7.386 -2.7954 -0.9089  0.8464
10366SOL     OW31638   7.060   7.597   4.174 -0.3144  0.2614  0.4502
10366SOL    HW131639   7.073   7.551   4.257  0.4007 -2.2290 -0.9301
10366SOL    HW231640   6.966   7.598   4.162 -0.6221  2.6051  2.2177
10367SOL     OW31641   1.672   0.290   4.268  0.0079  0.1750  0.0660
10367SOL    HW131642   1.591   0.341   4.261 -1.8236 -2.4105  0.7960
10367SOL    HW231643   1.645   0.200   4.249  2.5065 -0.9722  1.4569
10368SOL     OW31644   5.229   4.937   4.907  0.1939 -0.5772  0.5136
10368SOL    HW131645   5.138   4.907   4.911 -0.0926 -0.1065 -1.3846
10368SOL    HW231646   5.269   4.884   4.838  1.1039 -0.1592  0.7036
10369SOL     OW31647   5.976   3.893   5.318 -0.0931  0.2461  0.5587
10369SOL    HW131648   5.909   3.891   5.387 -1.3789  0.6943 -0.6325
10369SOL    HW231649   6.059   3.890   5.365 -0.9354  0.4324  2.1173
10370SOL     OW31650   3.765   2.129   5.580 -0.9815 -0.3628 -0.5760
10370SOL    HW131651   3.669   2.123   5.583 -0.9855 -0.1958 -0.2667
10370SOL    HW231652   3.784   2.174   5.498 -1.0008 -3.3044 -2.3430
10371SOL     OW31653   2.510   5.551   3.631 -0.2293 -0.2811  0.4044
10371SOL    HW131654   2.598   5.574   3.660 -0.6200  0.1253  1.3055
10371SOL    HW231655   2.511   5.568   3.537  0.4522  0.3582  0.5163
10372SOL     OW31656   4.718   5.927   4.607  0.2260  1.2719 -0.0600
10372SOL    HW131657   4.704   6.008   4.557  1.0163  2.3759  1.4443
10372SOL    HW231658   4.757   5.955   4.689  1.3191 -0.7388  0.1768
10373SOL     OW31659   2.799   3.703   3.795 -0.2185 -0.4943  0.1328
10373SOL    HW131660   2.820   3.615   3.826  0.7762 -0.6225 -0.8348
10373SOL    HW231661   2.727   3.690   3.734 -1.0394 -0.4438  1.0627
10374SOL     OW31662   1.423   3.743   0.711  0.1377 -0.2388  0.1556
10374SOL    HW131663   1.399   3.835   0.705 -0.8008 -0.5481 -1.2076
10374SOL    HW231664   1.392   3.716   0.798 -1.7297  0.1573 -0.3489
10375SOL     OW31665   0.722   6.324   3.738  0.4509 -0.4177 -0.2369
10375SOL    HW131666   0.629   6.305   3.747 -0.3552  3.1614  0.3072
10375SOL    HW231667   0.752   6.341   3.828  1.2234  0.0425 -0.5689
10376SOL     OW31668   1.279   0.304   3.580  0.0064 -0.3418 -0.6137
10376SOL    HW131669   1.229   0.227   3.553  0.1851 -0.2882 -1.1085
10376SOL    HW231670   1.215   0.376   3.579 -0.2494 -0.5437  0.2163
10377SOL     OW31671   5.748   0.611   3.484 -0.7770  0.3079  0.2424
10377SOL    HW131672   5.712   0.699   3.483 -1.6094 -0.0112  0.6433
10377SOL    HW231673   5.703   0.566   3.412 -0.4082  0.1873  0.0844
10378SOL     OW31674   1.072   6.514   0.958 -0.2378  0.5888  0.3646
10378SOL    HW131675   1.168   6.509   0.958 -0.1217  2.2821  0.8208
10378SOL    HW231676   1.043   6.423   0.952  1.3989  0.1241 -1.6349
10379SOL     OW31677   5.468   5.166   0.429 -0.3191  0.4692  0.1470
10379SOL    HW131678   5.446   5.136   0.517  1.2126  0.6795  0.6362
10379SOL    HW231679   5.393   5.142   0.376 -0.7387 -0.7982  1.2618
10380SOL     OW31680   1.917   3.193   4.125  0.3205  0.3647 -0.5846
10380SOL    HW131681   1.854   3.121   4.122  0.1713  0.4345  0.6896
10380SOL    HW231682   1.866   3.269   4.155  1.2731  0.0930  1.8935
10381SOL     OW31683   5.238   1.826   0.806  0.5503  0.2736 -0.2375
10381SOL    HW131684   5.222   1.903   0.861 -1.8854  0.6914 -1.4066
10381SOL    HW231685   5.214   1.854   0.718  2.2782 -1.0409 -1.1880
10382SOL     OW31686   4.629   0.444   3.079  0.1473  0.2524  0.3046
10382SOL    HW131687   4.541   0.406   3.072  1.0223 -1.6341 -2.1323
10382SOL    HW231688   4.680   0.377   3.124  0.4490  1.2296  1.4679
10383SOL     OW31689   5.039   6.116   2.014 -0.0673  0.0191  0.0477
10383SOL    HW131690   5.130   6.088   2.021 -0.3453 -0.5957  1.3978
10383SOL    HW231691   4.995   6.076   2.089 -1.6875 -0.5668 -1.1554
10384SOL     OW31692   5.060   1.945   1.182 -0.1773  0.0278  0.2102
10384SOL    HW131693   4.983   1.898   1.214 -1.1143 -0.6633 -2.7958
10384SOL    HW231694   5.028   1.998   1.110  1.7926  1.5335  0.3385
10385SOL     OW31695   2.509   2.327   4.309  0.3374 -0.0569 -0.3215
10385SOL    HW131696   2.517   2.232   4.317 -0.5168 -0.0956  0.2710
10385SOL    HW231697   2.582   2.363   4.359 -1.6747 -0.3772  3.1889
10386SOL     OW31698   2.918   0.694   5.564  0.4054 -0.1392 -0.1690
10386SOL    HW131699   2.909   0.714   5.471 -3.0397 -0.9710 -0.1601
10386SOL    HW231700   2.902   0.777   5.608  2.1320  0.2759 -0.2421
10387SOL     OW31701   4.405   1.880   2.641 -0.3871 -0.3356  0.2627
10387SOL    HW131702   4.466   1.953   2.634  0.6336 -1.1619  0.2529
10387SOL    HW231703   4.441   1.826   2.712 -0.8327 -1.0885 -0.0720
10388SOL     OW31704   3.083   2.399   4.588 -0.2332  0.0346  0.3683
10388SOL    HW131705   3.093   2.346   4.667  1.9541  0.4474  0.4343
10388SOL    HW231706   3.113   2.486   4.613 -0.4399  0.4181 -0.6484
10389SOL     OW31707   4.469   2.246   6.638 -0.0662  0.1396 -0.4406
10389SOL    HW131708   4.561   2.230   6.618 -0.2498 -0.2096 -1.0261
10389SOL    HW231709   4.455   2.203   6.723 -0.2371 -1.8182 -1.3913
10390SOL     OW31710   2.844   0.905   6.817  1.0161  0.0004  0.1141
10390SOL    HW131711   2.842   0.949   6.902  2.0095 -1.6961  1.0844
10390SOL    HW231712   2.891   0.965   6.760  1.5601  0.5953  1.1480
10391SOL     OW31713   6.802   0.736   0.759 -0.2941  0.2565  0.3243
10391SOL    HW131714   6.863   0.673   0.720 -0.1476  0.5831  0.0100
10391SOL    HW231715   6.735   0.749   0.692  0.3040  1.3057 -0.0974
10392SOL     OW31716   1.213   2.438   7.490 -0.0164  0.6680  0.1079
10392SOL    HW131717   1.129   2.448   7.535 -0.3516 -0.6529 -0.1748
10392SOL    HW231718   1.278   2.452   7.558 -0.4504  1.6847  0.3372
10393SOL     OW31719   2.607   7.374   2.260 -0.5808 -0.3161  0.2506
10393SOL    HW131720   2.672   7.304   2.260 -0.3169 -0.0749  0.0109
10393SOL    HW231721   2.545   7.348   2.191  0.0215  0.1426 -0.4740
10394SOL     OW31722   5.040   1.310   7.457  0.3047  0.1986  0.4021
10394SOL    HW131723   5.103   1.332   7.389 -0.6910  1.8771 -0.0430
10394SOL    HW231724   4.960   1.355   7.431 -0.5905 -0.5029  1.8166
10395SOL     OW31725   4.113   5.045   5.164  0.0210  0.2317 -0.3145
10395SOL    HW131726   4.063   4.977   5.118 -0.7959  0.9745 -0.5359
10395SOL    HW231727   4.189   4.998   5.199 -0.8557 -0.9336  0.0877
10396SOL     OW31728   7.134   5.004   0.501  0.5590 -0.5268  0.3389
10396SOL    HW131729   7.082   5.080   0.474 -0.7540 -1.8552 -1.0901
10396SOL    HW231730   7.206   5.001   0.439  1.3314  0.2261  1.1643
10397SOL     OW31731   6.453   4.773   2.673  0.4738  0.1719  0.4288
10397SOL    HW131732   6.471   4.683   2.647  1.1838 -0.3474  2.5626
10397SOL    HW231733   6.495   4.826   2.605 -0.4402 -1.0524 -1.1743
10398SOL     OW31734   5.245   0.738   2.510 -0.0030 -0.2250 -0.0598
10398SOL    HW131735   5.283   0.672   2.569  1.2692  0.8299  0.3585
10398SOL    HW231736   5.297   0.817   2.527 -1.9158  1.0877 -0.0512
10399SOL     OW31737   6.789   7.605   4.146 -0.1888 -0.0458 -0.1284
10399SOL    HW131738   6.769   7.581   4.237  1.0929 -0.1408  0.1421
10399SOL    HW231739   6.707   7.588   4.099 -0.4536 -1.3775  0.7413
10400SOL     OW31740   7.455   5.290   4.347 -0.1364 -0.3652 -0.4437
10400SOL    HW131741   7.415   5.376   4.356 -1.5537 -1.0187 -0.2525
10400SOL    HW231742   7.533   5.294   4.402  0.8337  1.3549 -1.8218
10401SOL     OW31743   5.537   0.482   4.295  0.1629  0.2372  0.3859
10401SOL    HW131744   5.607   0.430   4.256 -1.1795 -0.9289 -0.5826
10401SOL    HW231745   5.577   0.523   4.372  2.0631  0.1486 -0.5084
10402SOL     OW31746   3.815   6.723   6.755  0.2298 -0.3660  0.4241
10402SOL    HW131747   3.821   6.768   6.670  0.7439  0.1482  0.7243
10402SOL    HW231748   3.906   6.705   6.779  0.0889 -0.4801  0.8798
10403SOL     OW31749   6.864   6.844   7.448  0.2521  0.4218 -0.2836
10403SOL    HW131750   6.803   6.775   7.422  0.9194  0.4831 -2.1435
10403SOL    HW231751   6.840   6.865   7.538 -1.6097 -0.4616 -0.5385
10404SOL     OW31752   4.122   5.991   3.806 -0.1602 -0.4730 -0.1963
10404SOL    HW131753   4.205   5.965   3.766 -0.6115 -1.5664 -0.4621
10404SOL    HW231754   4.072   6.030   3.734  0.6277  1.5150  0.2640
10405SOL     OW31755   0.709   1.847   6.912  0.4403  0.1046  0.2588
10405SOL    HW131756   0.711   1.910   6.840 -2.3864  0.5317  0.4775
10405SOL    HW231757   0.671   1.895   6.985 -0.4841 -1.4546  0.8420
10406SOL     OW31758   5.690   4.023   7.027 -0.0012 -1.0738 -0.7485
10406SOL    HW131759   5.652   3.970   7.098  0.1308  0.2405  0.3289
10406SOL    HW231760   5.613   4.057   6.980 -0.1205 -0.5640 -0.1892
10407SOL     OW31761   4.451   4.334   5.811 -0.2121  0.3965 -0.0736
10407SOL    HW131762   4.402   4.255   5.837 -1.1081  0.6814 -0.8348
10407SOL    HW231763   4.416   4.357   5.725  0.3813  1.3470 -0.0779
10408SOL     OW31764   1.518   1.398   3.945 -0.0264  0.5016  0.3003
10408SOL    HW131765   1.558   1.479   3.975 -1.8015  0.7417  2.2482
10408SOL    HW231766   1.591   1.336   3.940  1.3363  2.1232 -1.0754
10409SOL     OW31767   0.993   2.315   7.313 -0.1168  0.1250 -0.1794
10409SOL    HW131768   1.081   2.334   7.280  0.7325 -1.0998  1.2297
10409SOL    HW231769   0.965   2.398   7.354  0.1441  0.6802 -1.1003
10410SOL     OW31770   2.747   5.346   4.394  0.1191 -0.0274 -0.3992
10410SOL    HW131771   2.714   5.429   4.428  1.7063  0.8508 -0.8994
10410SOL    HW231772   2.811   5.318   4.460 -0.9390 -1.2526  0.1372
10411SOL     OW31773   0.734   7.214   0.948  0.1384 -0.3522  0.4479
10411SOL    HW131774   0.742   7.122   0.922 -0.6152 -0.1552 -0.5732
10411SOL    HW231775   0.660   7.246   0.896  1.4065  1.2646 -0.4464
10412SOL     OW31776   7.482   2.110   6.601 -0.2456  0.1552 -0.1692
10412SOL    HW131777   7.469   2.161   6.681  1.6920 -1.7783  1.5415
10412SOL    HW231778   7.477   2.019   6.631  4.7312 -0.7914 -1.2034
10413SOL     OW31779   2.683   1.852   1.870 -0.4105 -0.4031 -0.1752
10413SOL    HW131780   2.757   1.899   1.830 -0.0712 -0.6671  0.1350
10413SOL    HW231781   2.608   1.874   1.815 -0.9837  3.1472  1.7074
10414SOL     OW31782   1.403   3.892   1.546  0.2622 -0.0162  0.0138
10414SOL    HW131783   1.340   3.944   1.495  1.4545 -0.0131 -1.5316
10414SOL    HW231784   1.478   3.882   1.488  1.2671 -0.9422  1.4119
10415SOL     OW31785   1.670   3.593   1.343 -0.5897  0.0586  0.4293
10415SOL    HW131786   1.625   3.530   1.287  0.4181  0.2997 -0.6967
10415SOL    HW231787   1.646   3.679   1.308  1.6895  0.1719 -1.0315
10416SOL     OW31788   3.020   3.162   5.932 -0.1672 -0.7800 -0.0421
10416SOL    HW131789   2.968   3.198   5.860 -2.1331 -1.1306  1.1000
10416SOL    HW231790   3.051   3.078   5.901 -1.5748 -1.2339 -0.2739
10417SOL     OW31791   3.893   6.720   2.861 -0.3891  0.0107 -0.5136
10417SOL    HW131792   3.827   6.713   2.930  0.0082 -0.0977 -0.1367
10417SOL    HW231793   3.956   6.784   2.894 -0.4869  0.3725 -1.0228
10418SOL     OW31794   7.349   5.903   5.963 -0.0093 -0.0319 -0.0373
10418SOL    HW131795   7.438   5.904   5.926  0.4848  1.3911  1.1226
10418SOL    HW231796   7.308   5.981   5.927 -0.4013 -0.0551  0.3621
10419SOL     OW31797   1.722   6.283   1.202 -0.5162 -0.5116  0.6087
10419SOL    HW131798   1.766   6.198   1.211  0.6543 -0.0580 -0.4543
10419SOL    HW231799   1.714   6.296   1.108 -1.1392  0.3402  0.7674
10420SOL     OW31800   5.898   5.671   0.689  0.2195  0.6684 -0.1087
10420SOL    HW131801   5.928   5.693   0.601  1.2097 -0.7961 -0.1753
10420SOL    HW231802   5.956   5.601   0.717 -1.6538 -0.6198  0.7323
10421SOL     OW31803   7.047   3.727   6.816  0.4677  0.5069 -0.2684
10421SOL    HW131804   7.072   3.679   6.737  1.5455  0.2596  0.2059
10421SOL    HW231805   7.024   3.658   6.879 -1.2530  0.7221 -0.6218
10422SOL     OW31806   6.340   1.270   0.775  0.7257  0.0731 -0.3758
10422SOL    HW131807   6.348   1.232   0.687  0.4019  0.4048 -0.5530
10422SOL    HW231808   6.258   1.320   0.772  0.4430 -0.3332  0.2738
10423SOL     OW31809   0.005   1.951   5.855  0.2599  0.3561  0.7176
10423SOL    HW131810   0.049   1.872   5.886  0.1476  0.1965  0.4706
10423SOL    HW231811  -0.089   1.930   5.863  0.2280  0.2968  0.2347
10424SOL     OW31812   3.720   3.078   3.712 -0.2069  0.1111  0.4576
10424SOL    HW131813   3.642   3.026   3.695 -1.2089  1.3359  1.1566
10424SOL    HW231814   3.715   3.150   3.649 -0.3760  0.9359  1.3884
10425SOL     OW31815   5.688   7.441   0.964  0.2463 -0.0007 -0.2382
10425SOL    HW131816   5.704   7.480   1.050  1.0313 -1.1024  0.1352
10425SOL    HW231817   5.667   7.516   0.908 -0.5873  0.7051  0.9683
10426SOL     OW31818   6.078   1.576   3.025 -0.3765 -0.5125 -0.1847
10426SOL    HW131819   6.150   1.619   2.980 -0.1101 -0.5890  0.1686
10426SOL    HW231820   6.027   1.535   2.955  1.1609 -2.3894 -0.2820
10427SOL     OW31821   1.200   0.495   4.764  0.0251  0.2020  0.2785
10427SOL    HW131822   1.136   0.426   4.744 -0.2358  0.7690 -0.9248
10427SOL    HW231823   1.267   0.485   4.697  1.0071 -0.0991  1.2677
10428SOL     OW31824   6.597   7.415   4.642  0.3912 -0.1644  0.5587
10428SOL    HW131825   6.568   7.492   4.691 -3.2216 -1.2650  0.4919
10428SOL    HW231826   6.636   7.357   4.708  0.9394  0.7535  1.0462
10429SOL     OW31827   3.836   0.558   7.028  0.2062  0.1815 -0.5658
10429SOL    HW131828   3.870   0.533   7.114  1.1681  0.3994 -0.8719
10429SOL    HW231829   3.829   0.476   6.980 -0.2088  0.0752 -0.3333
10430SOL     OW31830   1.354   1.731   0.204 -0.3135  0.8609 -0.3051
10430SOL    HW131831   1.264   1.699   0.216  0.0756  0.2657  1.1352
10430SOL    HW231832   1.361   1.744   0.109 -1.1443 -1.4508 -0.7695
10431SOL     OW31833   5.360   0.116   6.137 -0.2997  0.6803 -0.0921
10431SOL    HW131834   5.306   0.045   6.103  1.4428 -0.8404  0.1513
10431SOL    HW231835   5.396   0.159   6.059 -0.6213  0.7054 -0.2270
10432SOL     OW31836   2.495   1.476   4.743  0.3970  0.5827 -0.2206
10432SOL    HW131837   2.492   1.463   4.838  0.0372 -1.4332 -0.4700
10432SOL    HW231838   2.467   1.566   4.730 -1.1792  0.3834  1.4798
10433SOL     OW31839   0.514   1.185   5.655  0.2074  0.2685 -0.7386
10433SOL    HW131840   0.556   1.263   5.690  0.3427  0.9429 -2.3211
10433SOL    HW231841   0.518   1.196   5.560  0.3087 -1.7099 -1.0050
10434SOL     OW31842   1.950   1.370   2.995 -0.0933  0.2712 -0.0072
10434SOL    HW131843   1.972   1.281   2.967  1.0526  0.7735 -0.7849
10434SOL    HW231844   1.937   1.364   3.089  0.2675 -0.6680 -0.0092
10435SOL     OW31845   5.641   2.052   2.984  0.1399 -0.1996 -0.2360
10435SOL    HW131846   5.643   2.035   2.890  0.1127 -1.7358  0.0079
10435SOL    HW231847   5.657   2.146   2.992 -0.0118 -0.0115 -1.7753
10436SOL     OW31848   4.069   4.789   3.107 -0.0470  0.0581 -0.2226
10436SOL    HW131849   4.006   4.718   3.114 -0.1121  0.1363 -0.0091
10436SOL    HW231850   4.154   4.746   3.102 -0.1985 -0.1006 -1.8453
10437SOL     OW31851   7.572   1.090   7.152  0.6585 -0.3992 -0.1064
10437SOL    HW131852   7.632   1.025   7.115 -0.2896 -1.7189  0.5934
10437SOL    HW231853   7.630   1.154   7.194  1.6492 -0.2223 -1.6595
10438SOL     OW31854   6.049   0.006   3.078  0.2193  0.0167 -0.7616
10438SOL    HW131855   5.966  -0.038   3.059  0.2267  0.4160 -1.7930
10438SOL    HW231856   6.024   0.087   3.121  0.1616 -0.5535  0.3152
10439SOL     OW31857   5.687   3.859   0.238  0.0216  0.2987  0.3278
10439SOL    HW131858   5.727   3.925   0.294 -0.3066 -0.3895  1.4001
10439SOL    HW231859   5.604   3.897   0.210 -0.0624  0.4265  0.7548
10440SOL     OW31860   2.704   6.214   3.572  0.2113  0.2263 -0.6016
10440SOL    HW131861   2.781   6.203   3.628 -0.5345 -0.1403  0.3739
10440SOL    HW231862   2.724   6.162   3.494 -0.7257 -3.4944  1.3855
10441SOL     OW31863   2.184   3.536   7.327 -0.4250  0.2147 -0.2431
10441SOL    HW131864   2.232   3.618   7.323 -0.6634  0.3928  0.5067
10441SOL    HW231865   2.162   3.524   7.419  0.4014 -1.1557 -0.1979
10442SOL     OW31866   7.095   6.605   6.909  0.0884 -0.0657  0.2352
10442SOL    HW131867   7.048   6.521   6.909 -1.3510  0.6350  3.2418
10442SOL    HW231868   7.077   6.642   6.823  0.3250 -2.5307 -0.9927
10443SOL     OW31869   1.246   0.731   7.107  0.5926  0.6752 -0.1557
10443SOL    HW131870   1.330   0.766   7.138  0.3509  0.1754  1.1553
10443SOL    HW231871   1.244   0.642   7.141  0.0241  0.2931 -1.1617
10444SOL     OW31872   1.117   1.421   0.652  0.2749 -0.2188 -0.4538
10444SOL    HW131873   1.030   1.381   0.652  0.5375 -0.7900 -0.5281
10444SOL    HW231874   1.126   1.460   0.565  0.4752 -0.9933 -0.7821
10445SOL     OW31875   6.827   5.162   6.659 -0.1782 -0.0900 -0.6118
10445SOL    HW131876   6.827   5.226   6.730 -0.9643  0.0584 -0.7407
10445SOL    HW231877   6.914   5.171   6.619 -0.2433  0.8203 -0.5653
10446SOL     OW31878   4.725   0.402   3.515  0.0020 -0.9705 -0.8156
10446SOL    HW131879   4.729   0.477   3.575 -0.8774  0.1576 -2.0982
10446SOL    HW231880   4.793   0.343   3.546 -0.2506 -0.3087  1.1199
10447SOL     OW31881   5.400   3.795   0.466 -0.1946 -0.2186  0.4129
10447SOL    HW131882   5.391   3.744   0.386  0.2023 -0.8496  0.7566
10447SOL    HW231883   5.458   3.742   0.521  1.1953  1.1558  0.3233
10448SOL     OW31884   6.377   1.891   6.434  0.0638  0.0113 -0.0094
10448SOL    HW131885   6.415   1.816   6.479  1.0270  0.1088 -0.6349
10448SOL    HW231886   6.285   1.867   6.422  0.5675 -1.5575 -1.1412
10449SOL     OW31887   5.481   2.665   1.911 -0.3247  0.2848  0.4570
10449SOL    HW131888   5.524   2.644   1.994 -0.4033 -0.4477  0.3175
10449SOL    HW231889   5.408   2.604   1.906  0.0720 -0.1190 -0.4634
10450SOL     OW31890   5.857   6.697   0.443  0.4243  0.5610 -0.6465
10450SOL    HW131891   5.911   6.642   0.386  0.9894 -1.4460  1.6514
10450SOL    HW231892   5.894   6.785   0.433  1.3890  0.0248 -2.2577
10451SOL     OW31893   3.461   4.866   6.785 -0.5849  1.3535  0.4802
10451SOL    HW131894   3.446   4.961   6.785 -1.4547  1.2277 -0.4534
10451SOL    HW231895   3.419   4.835   6.865 -1.4228  1.5980  0.1440
10452SOL     OW31896   1.975   6.298   3.267  0.1720 -0.9002  0.4528
10452SOL    HW131897   1.924   6.241   3.210  2.2452 -0.8458 -1.5688
10452SOL    HW231898   1.919   6.374   3.282 -0.6447 -1.1894 -1.0109
10453SOL     OW31899   2.004   6.934   1.729  0.5296 -0.0406 -0.3926
10453SOL    HW131900   1.974   6.981   1.807  0.8978  2.2666 -1.5533
10453SOL    HW231901   2.093   6.906   1.751  1.0129  1.4781 -0.3090
10454SOL     OW31902   4.265   1.643   6.983 -0.5734 -0.0820  0.7068
10454SOL    HW131903   4.228   1.677   6.902 -1.5197  1.2597  1.6565
10454SOL    HW231904   4.292   1.721   7.032 -0.9521 -0.7883  2.1118
10455SOL     OW31905   1.737   5.496   3.145 -0.3361  0.2502  0.6021
10455SOL    HW131906   1.796   5.441   3.195 -1.4495 -2.5937 -0.9404
10455SOL    HW231907   1.794   5.553   3.093  0.9948 -0.9290  0.7233
10456SOL     OW31908   5.656   1.591   2.736  0.1099  0.3189  0.2447
10456SOL    HW131909   5.652   1.593   2.832 -0.9073  1.6504  0.2110
10456SOL    HW231910   5.586   1.530   2.711  0.5410 -0.2261  0.3361
10457SOL     OW31911   1.043   1.650   3.747  0.3074  0.0858 -0.0959
10457SOL    HW131912   1.061   1.743   3.760 -0.0344  0.0900  0.3643
10457SOL    HW231913   0.969   1.631   3.804 -0.2192 -0.2638 -0.8810
10458SOL     OW31914   4.792   4.569   6.961 -0.2884 -0.1872  0.4303
10458SOL    HW131915   4.701   4.543   6.978 -0.2556 -0.5578  0.0548
10458SOL    HW231916   4.827   4.591   7.048 -0.5984 -0.4986  0.6387
10459SOL     OW31917   1.793   3.826   5.780 -0.1109 -0.0858 -0.4297
10459SOL    HW131918   1.794   3.797   5.871  1.4759  1.3587  0.0502
10459SOL    HW231919   1.822   3.917   5.783 -2.6927  0.9067 -2.1151
10460SOL     OW31920   0.170   6.421   7.136 -0.1206 -0.0741  0.0592
10460SOL    HW131921   0.081   6.455   7.132 -0.0618  0.4174  2.0513
10460SOL    HW231922   0.187   6.407   7.229  1.8775 -0.1773 -0.2655
10461SOL     OW31923   3.799   5.054   2.448  0.0136  0.2175  0.3340
10461SOL    HW131924   3.759   5.033   2.364 -0.5644 -2.2499  1.1464
10461SOL    HW231925   3.886   5.087   2.426 -1.9653  5.1929 -1.4784
10462SOL     OW31926   0.803   2.118   1.605 -0.2215  0.1304  0.2655
10462SOL    HW131927   0.715   2.085   1.623  0.3723 -0.1582  3.0743
10462SOL    HW231928   0.860   2.043   1.619  0.5032  0.1892 -2.0031
10463SOL     OW31929   6.111   0.357   2.795  0.4321 -0.6696  0.5607
10463SOL    HW131930   6.168   0.285   2.769  0.7685 -0.3471  0.4012
10463SOL    HW231931   6.106   0.413   2.717  1.0812  0.0706  1.0368
10464SOL     OW31932   7.294   5.416   5.293 -0.1505 -0.3176  0.4213
10464SOL    HW131933   7.293   5.345   5.229 -0.7118 -1.9402  2.1447
10464SOL    HW231934   7.218   5.469   5.270  1.3698  0.9867 -2.1120
10465SOL     OW31935   5.940   1.900   0.701 -0.7635  0.3320  0.8868
10465SOL    HW131936   5.884   1.854   0.763  0.2400  0.6792  2.1018
10465SOL    HW231937   5.925   1.857   0.617 -1.9188 -0.3601  1.4333
10466SOL     OW31938   4.179   4.985   0.982 -0.0486  0.0472 -0.5092
10466SOL    HW131939   4.105   4.925   0.976 -0.0383 -0.1188  0.6472
10466SOL    HW231940   4.154   5.047   1.051  0.7582  0.1681 -0.3088
10467SOL     OW31941   0.426   0.332   4.218 -0.6996 -0.0005 -0.1252
10467SOL    HW131942   0.505   0.374   4.184  0.7793 -0.7694  2.0974
10467SOL    HW231943   0.397   0.389   4.289 -1.5755 -0.2072 -0.3122
10468SOL     OW31944   7.156   5.510   3.056 -0.3409  0.2099 -0.4961
10468SOL    HW131945   7.125   5.595   3.088  1.1935  0.6242 -0.0241
10468SOL    HW231946   7.205   5.530   2.977 -0.0125 -0.2289 -0.4099
10469SOL     OW31947   6.515   7.301   1.271 -0.1976  0.4852  0.1999
10469SOL    HW131948   6.544   7.211   1.289 -0.7825  0.4592  1.1364
10469SOL    HW231949   6.502   7.339   1.358 -1.0100  1.1190 -0.1835
10470SOL     OW31950   3.293   1.711   7.508  0.5809 -0.3237 -0.3482
10470SOL    HW131951   3.239   1.729   7.584 -0.7539 -0.6137 -1.1986
10470SOL    HW231952   3.346   1.790   7.496 -1.2671  0.9145 -0.8087
10471SOL     OW31953   1.599   6.473   6.923  0.3175 -0.2915  0.1178
10471SOL    HW131954   1.517   6.444   6.882  0.2726  0.2057 -0.1381
10471SOL    HW231955   1.636   6.392   6.960 -1.3684 -0.2134  2.1719
10472SOL     OW31956   6.571   1.550   0.898  0.8072 -0.3153  0.1736
10472SOL    HW131957   6.629   1.540   0.973 -0.2985 -0.2277  1.0560
10472SOL    HW231958   6.542   1.461   0.879 -1.5454 -0.0264  2.0116
10473SOL     OW31959   5.564   5.509   3.621  0.0931  0.2954  0.0165
10473SOL    HW131960   5.545   5.481   3.531  0.5772  1.0862 -0.3494
10473SOL    HW231961   5.534   5.600   3.624  0.4123  0.3852  0.5425
10474SOL     OW31962   1.980   5.067   0.387  0.4483  0.1244 -0.0535
10474SOL    HW131963   1.917   4.999   0.363 -0.0734  0.2343  0.9478
10474SOL    HW231964   2.013   5.039   0.473  0.9137  0.6707 -0.0513
10475SOL     OW31965   1.214   6.661   5.592 -0.3603 -0.0981 -0.3953
10475SOL    HW131966   1.216   6.713   5.673 -0.3265  1.1252 -1.1492
10475SOL    HW231967   1.305   6.636   5.578 -0.2776  0.1533 -0.3281
10476SOL     OW31968   6.128   5.348   6.423  0.4098  0.2130 -0.1087
10476SOL    HW131969   6.039   5.368   6.451  1.1551  1.6299  1.3666
10476SOL    HW231970   6.141   5.400   6.344 -0.0037  0.1032 -0.2536
10477SOL     OW31971   5.053   0.851   2.817  0.0079 -0.2938  0.2825
10477SOL    HW131972   5.010   0.809   2.892  0.7932 -0.0708  0.8734
10477SOL    HW231973   5.124   0.791   2.793  0.3408  0.0806  0.3221
10478SOL     OW31974   2.553   5.874   4.183 -0.6129  0.6910 -1.1502
10478SOL    HW131975   2.512   5.850   4.266  0.1009  3.1318  0.0180
10478SOL    HW231976   2.482   5.910   4.131 -0.4154  3.3327  0.2177
10479SOL     OW31977   0.012   6.824   6.476 -0.4596 -0.5397  0.1223
10479SOL    HW131978   0.077   6.885   6.510  1.0117 -2.4656  0.9784
10479SOL    HW231979  -0.027   6.784   6.554 -1.1169 -0.9726 -0.4124
10480SOL     OW31980   4.696   6.804   5.855 -0.2487  0.3003  0.1321
10480SOL    HW131981   4.681   6.804   5.761  0.9995 -2.0998 -0.1352
10480SOL    HW231982   4.766   6.868   5.868 -0.5113  0.7311 -0.5385
10481SOL     OW31983   4.909   2.279   6.215  0.5801 -0.0538 -0.7350
10481SOL    HW131984   4.974   2.312   6.154  0.8334  0.5682 -0.1351
10481SOL    HW231985   4.959   2.239   6.285  0.2841 -1.6915 -1.4030
10482SOL     OW31986   3.111   7.596   6.044 -0.3159  0.2375 -0.3027
10482SOL    HW131987   3.176   7.581   5.975 -0.9155  0.8743 -1.0255
10482SOL    HW231988   3.135   7.534   6.113  2.0396  1.5379  0.1592
10483SOL     OW31989   4.261   3.333   2.062  0.2603  0.4866  0.0701
10483SOL    HW131990   4.215   3.367   2.139 -0.9446 -0.5565 -0.1446
10483SOL    HW231991   4.265   3.407   2.002 -1.1895  0.6338  0.1061
10484SOL     OW31992   6.242   2.489   5.562 -0.1211  0.9188  0.0824
10484SOL    HW131993   6.172   2.494   5.497 -0.4579 -1.8990  0.1206
10484SOL    HW231994   6.201   2.451   5.640  1.2421  0.0864  0.4281
10485SOL     OW31995   2.453   1.219   4.635  0.3866  0.3642 -0.4702
10485SOL    HW131996   2.509   1.214   4.558  1.5852  2.0951  0.2380
10485SOL    HW231997   2.466   1.307   4.669 -0.6360 -0.1295  1.3371
10486SOL     OW31998   1.614   1.390   4.547 -0.8079 -0.0670 -0.3215
10486SOL    HW131999   1.581   1.418   4.632  0.9578  0.9924  0.0634
10486SOL    HW232000   1.613   1.470   4.494  0.3718 -0.1833 -0.5345
10487SOL     OW32001   4.704   6.364   2.789 -0.1793  0.5585  0.5071
10487SOL    HW132002   4.757   6.358   2.709 -0.0455 -0.0034  0.6333
10487SOL    HW232003   4.639   6.294   2.779  0.1091  0.1995  1.0875
10488SOL     OW32004   2.018   7.396   1.457 -0.2673 -0.4497  0.8543
10488SOL    HW132005   2.045   7.324   1.514 -1.5617  0.2058  2.3561
10488SOL    HW232006   1.955   7.446   1.509 -1.3182  0.3298 -1.0731
10489SOL     OW32007   2.413   1.799   0.054 -0.2663  0.1538 -0.0344
10489SOL    HW132008   2.413   1.844   0.138  2.8470 -1.7055  1.1267
10489SOL    HW232009   2.491   1.833   0.009  1.1491 -2.5986  0.1410
10490SOL     OW32010   4.526   1.152   6.455 -0.5396  0.0039 -0.4128
10490SOL    HW132011   4.542   1.059   6.474  2.5656 -0.2225 -3.3527
10490SOL    HW232012   4.582   1.199   6.516 -0.1426 -0.1669 -0.6457
10491SOL     OW32013   1.093   4.782   0.794  0.2294 -0.0818  0.4575
10491SOL    HW132014   1.178   4.826   0.786  0.5274 -0.4985  1.2513
10491SOL    HW232015   1.097   4.737   0.878 -1.0695  0.5249  0.8784
10492SOL     OW32016   4.933   2.813   3.013 -0.2069 -0.5547  0.3592
10492SOL    HW132017   4.874   2.798   3.087 -1.8335  1.7054 -0.3841
10492SOL    HW232018   4.879   2.853   2.946  1.4275 -1.6797 -1.7869
10493SOL     OW32019   6.463   1.358   1.173  0.1976  0.5354 -0.2307
10493SOL    HW132020   6.447   1.276   1.220 -0.1924  0.1913 -0.9481
10493SOL    HW232021   6.551   1.384   1.200  0.9887 -0.9817 -1.2079
10494SOL     OW32022   4.503   1.537   6.701  0.9056 -0.2043 -0.1088
10494SOL    HW132023   4.561   1.500   6.635  1.3857 -1.5372  0.9895
10494SOL    HW232024   4.498   1.630   6.681 -0.4647 -0.8174 -3.1047
10495SOL     OW32025   6.398   3.742   6.821 -0.2978 -0.0566 -0.1083
10495SOL    HW132026   6.310   3.780   6.817 -0.8525 -1.1008  1.2648
10495SOL    HW232027   6.456   3.817   6.835 -1.2162  0.4536  1.1359
10496SOL     OW32028   5.662   5.162   4.359  0.4651  0.9252 -0.3302
10496SOL    HW132029   5.610   5.108   4.417 -0.4556  2.9739  0.8486
10496SOL    HW232030   5.625   5.250   4.367  0.2175  1.3592 -4.0779
10497SOL     OW32031   5.116   5.970   0.668  0.4517 -0.2401 -0.3291
10497SOL    HW132032   5.089   5.995   0.756 -2.4161  0.0894 -1.2114
10497SOL    HW232033   5.171   5.892   0.681  1.1155  0.5038  1.7654
10498SOL     OW32034   4.145   0.899   0.502  0.5955 -0.7921 -0.1703
10498SOL    HW132035   4.171   0.964   0.567  0.1348 -0.4412 -0.3275
10498SOL    HW232036   4.216   0.899   0.437 -0.1011  0.6790 -0.9793
10499SOL     OW32037   4.459   2.393   2.576 -0.2797 -0.2169  0.8717
10499SOL    HW132038   4.369   2.413   2.601 -0.1651  0.3735  0.8185
10499SOL    HW232039   4.468   2.298   2.591 -1.3438 -0.5544 -0.5138
10500SOL     OW32040   3.852   5.136   0.484  0.3485  0.0242  0.0583
10500SOL    HW132041   3.891   5.062   0.437  1.9568  2.4050 -2.7449
10500SOL    HW232042   3.841   5.105   0.573  3.4926 -2.7418 -0.3242
10501SOL     OW32043   2.300   6.810   0.653  0.5801 -0.1898  0.2832
10501SOL    HW132044   2.331   6.720   0.668  2.2268  0.0634 -1.2577
10501SOL    HW232045   2.206   6.801   0.640  0.7944 -1.7848 -0.3962
10502SOL     OW32046   7.180   0.605   5.049 -0.2550 -0.0973 -0.0289
10502SOL    HW132047   7.117   0.533   5.049 -0.1744 -0.2145  1.5799
10502SOL    HW232048   7.127   0.683   5.064 -0.3981  0.2832 -2.2358
10503SOL     OW32049   2.935   0.703   0.928 -0.6791  0.1273  0.0490
10503SOL    HW132050   2.977   0.665   1.005 -0.9104  0.7171  0.4816
10503SOL    HW232051   2.982   0.785   0.913 -1.6138  0.7725  0.5104
10504SOL     OW32052   2.653   6.298   5.426  0.2229 -0.0344  0.3005
10504SOL    HW132053   2.629   6.336   5.510  0.8770  0.1630  0.4054
10504SOL    HW232054   2.572   6.262   5.392 -0.3665  1.1824  0.3440
10505SOL     OW32055   4.623   6.157   6.882  0.1557 -0.0257 -0.1402
10505SOL    HW132056   4.631   6.211   6.961  0.7131 -1.3799  0.7592
10505SOL    HW232057   4.706   6.168   6.836 -0.1046  0.6313 -0.4647
10506SOL     OW32058   4.867   1.979   5.143 -0.5544 -0.3700 -0.0790
10506SOL    HW132059   4.874   2.001   5.236  0.8162  0.6521 -0.4018
10506SOL    HW232060   4.944   1.924   5.125 -0.6813 -0.3590 -0.6732
10507SOL     OW32061   6.237   3.661   3.223 -0.4202  0.3184  0.0425
10507SOL    HW132062   6.229   3.723   3.150 -1.0572 -1.6713 -1.7117
10507SOL    HW232063   6.331   3.648   3.234 -0.2936  1.3645  0.2380
10508SOL     OW32064   7.598   7.289   5.493 -0.1173 -0.1431 -0.1327
10508SOL    HW132065   7.513   7.334   5.484 -1.4080 -2.4035 -0.0453
10508SOL    HW232066   7.575   7.197   5.503  2.3252 -0.6806  1.3246
10509SOL     OW32067   0.370   5.517   5.535 -0.3346 -0.3526  0.1830
10509SOL    HW132068   0.347   5.470   5.615 -0.0709  0.1835  0.5892
10509SOL    HW232069   0.333   5.465   5.464 -1.7397 -0.1382  0.7303
10510SOL     OW32070   2.627   1.307   2.892  0.5256 -0.4834  0.2974
10510SOL    HW132071   2.621   1.252   2.970 -3.7624 -0.8660 -0.0420
10510SOL    HW232072   2.637   1.245   2.820 -1.4293 -0.7033  0.1580
10511SOL     OW32073   6.927   2.751   5.129 -0.3247  0.5379 -0.0427
10511SOL    HW132074   6.944   2.842   5.104  0.3074  0.1605 -1.0504
10511SOL    HW232075   6.981   2.738   5.207 -0.7270  1.1402  0.3437
10512SOL     OW32076   3.570   3.551   2.049  0.3079  0.4332 -0.0870
10512SOL    HW132077   3.574   3.584   2.139 -1.1699 -0.4329  0.3414
10512SOL    HW232078   3.623   3.471   2.051  2.3701  1.7296 -0.6622
10513SOL     OW32079   4.499   4.526   4.404 -0.2044  0.2039 -0.0128
10513SOL    HW132080   4.552   4.452   4.433 -1.5982 -0.6203  0.5195
10513SOL    HW232081   4.451   4.494   4.328 -1.0477  0.4322  0.4015
10514SOL     OW32082   2.593   1.902   0.687 -0.1718  0.0686  0.0615
10514SOL    HW132083   2.511   1.884   0.642 -0.5683  0.7118  0.5145
10514SOL    HW232084   2.632   1.975   0.640  1.1814 -1.5213 -1.4436
10515SOL     OW32085   0.109   0.755   3.819 -0.3531  0.2368  0.1211
10515SOL    HW132086   0.155   0.684   3.864  0.7773  0.5284 -0.5463
10515SOL    HW232087   0.018   0.746   3.847  0.3251  0.5286  2.6106
10516SOL     OW32088   3.944   6.123   4.535  0.2738  0.7065 -0.0308
10516SOL    HW132089   3.866   6.113   4.590 -1.5720  0.8053 -2.4676
10516SOL    HW232090   3.967   6.033   4.510  0.3225  0.7425 -0.1150
10517SOL     OW32091   2.779   4.283   0.558  0.1114 -0.3555  0.0558
10517SOL    HW132092   2.767   4.350   0.626  0.4849 -1.2842  1.0719
10517SOL    HW232093   2.712   4.217   0.578  0.3294 -0.7131 -0.3859
10518SOL     OW32094   4.912   4.265   3.585 -0.2496  0.2428 -0.5309
10518SOL    HW132095   4.840   4.258   3.522 -1.0817  1.3151  0.2655
10518SOL    HW232096   4.874   4.235   3.667  0.5544 -0.2605 -0.3415
10519SOL     OW32097   5.625   5.605   1.619  0.2699 -0.1197  0.7966
10519SOL    HW132098   5.590   5.597   1.530  3.6743 -0.5721 -0.6668
10519SOL    HW232099   5.623   5.517   1.654  1.4316 -0.4704  0.0412
10520SOL     OW32100   3.754   5.229   4.869  0.0251 -0.0069  0.1003
10520SOL    HW132101   3.741   5.135   4.880  0.5986  0.0459  1.4238
10520SOL    HW232102   3.785   5.259   4.955  0.5306  1.2650 -0.5019
10521SOL     OW32103   0.037   6.184   7.231  0.6061  0.5802  0.0995
10521SOL    HW132104   0.108   6.161   7.171 -1.4408  0.8437 -2.6363
10521SOL    HW232105   0.080   6.230   7.303  3.7120 -3.1441  0.9653
10522SOL     OW32106   0.090   6.812   2.083 -0.5649  0.3623  0.1135
10522SOL    HW132107   0.164   6.807   2.143 -0.6533  0.4757  0.2346
10522SOL    HW232108   0.031   6.743   2.112 -1.3645  1.4523  1.2077
10523SOL     OW32109   4.120   5.842   1.475  0.0901  0.1952 -0.2959
10523SOL    HW132110   4.112   5.750   1.500 -0.0056  0.4238  0.5220
10523SOL    HW232111   4.035   5.880   1.494  0.3374  0.6071  0.0041
10524SOL     OW32112   7.231   5.867   4.488  0.0585  0.0108 -0.2708
10524SOL    HW132113   7.283   5.947   4.491  2.1203 -1.1980 -1.5532
10524SOL    HW232114   7.220   5.843   4.580 -0.4456  1.6219  0.1261
10525SOL     OW32115   2.060   6.672   3.520 -1.0295  0.0916 -0.3485
10525SOL    HW132116   2.032   6.752   3.564  1.8873  0.4224  1.1566
10525SOL    HW232117   2.033   6.601   3.579  0.1794  0.3364  0.5563
10526SOL     OW32118   4.982   3.305   2.502 -0.7771  0.0507  0.5307
10526SOL    HW132119   4.931   3.302   2.421 -0.0685  1.8584 -0.0340
10526SOL    HW232120   5.050   3.239   2.489 -1.2208 -0.3206  0.0447
10527SOL     OW32121   1.854   5.844   3.689  0.4349  0.0862  0.2497
10527SOL    HW132122   1.921   5.818   3.626 -1.7341 -2.1705 -1.3329
10527SOL    HW232123   1.786   5.777   3.680 -0.9455  0.8489  3.5394
10528SOL     OW32124   5.082   6.846   5.273  0.3925  0.3986 -0.1255
10528SOL    HW132125   5.123   6.771   5.316 -1.5177 -0.6543 -0.0528
10528SOL    HW232126   5.036   6.808   5.198 -1.2841  1.3652  0.3777
10529SOL     OW32127   0.689   5.432   1.257  0.0207  0.3813  0.6781
10529SOL    HW132128   0.632   5.450   1.332 -0.4908 -0.6273  0.5511
10529SOL    HW232129   0.675   5.339   1.239  0.6607  0.4564 -0.2414
10530SOL     OW32130   2.847   7.269   0.062  0.8576  0.5001 -0.3401
10530SOL    HW132131   2.811   7.234  -0.020  1.0620  1.9905 -1.0942
10530SOL    HW232132   2.784   7.335   0.091  0.8015  0.0131  0.7119
10531SOL     OW32133   5.123   7.037   1.497 -0.5741  0.1607 -0.0057
10531SOL    HW132134   5.131   6.946   1.524 -2.9602  0.0374  0.4851
10531SOL    HW232135   5.187   7.047   1.426 -1.1828 -2.2901 -0.9893
10532SOL     OW32136   0.556   1.916   0.506  0.1271 -0.7519 -0.3032
10532SOL    HW132137   0.562   1.821   0.511  0.8543 -0.8284 -1.9994
10532SOL    HW232138   0.465   1.933   0.482 -0.4745 -0.8902  1.7003
10533SOL     OW32139   5.616   0.438   2.526  0.6622  0.1480 -0.1941
10533SOL    HW132140   5.643   0.478   2.609  0.2727 -0.0650  0.0361
10533SOL    HW232141   5.526   0.468   2.513  0.0933 -1.2505  0.3577
10534SOL     OW32142   3.662   0.552   4.657 -0.2060 -0.0071  0.2955
10534SOL    HW132143   3.589   0.491   4.644 -1.4669  1.7068 -1.1778
10534SOL    HW232144   3.719   0.537   4.582 -0.7369  0.8663 -0.3019
10535SOL     OW32145   5.264   2.175   6.024 -0.5337 -0.4150 -0.6889
10535SOL    HW132146   5.322   2.142   5.955 -1.3487 -1.6539 -0.8212
10535SOL    HW232147   5.254   2.101   6.084 -0.5354  0.3672  0.2959
10536SOL     OW32148   0.021   1.871   7.421  0.7051  0.1938 -0.1905
10536SOL    HW132149  -0.030   1.922   7.484 -0.7189  0.6740 -1.6631
10536SOL    HW232150   0.079   1.818   7.475  1.4515  2.4998  1.4662
10537SOL     OW32151   1.849   3.346   6.981  0.4697 -1.0213  0.3205
10537SOL    HW132152   1.887   3.264   7.011 -1.1979 -0.8639  3.2414
10537SOL    HW232153   1.773   3.320   6.929 -0.4454 -1.4269  1.7813
10538SOL     OW32154   0.928   4.935   6.838 -0.8123 -0.2615  0.8607
10538SOL    HW132155   1.012   4.970   6.809 -1.5331  0.4090 -0.5237
10538SOL    HW232156   0.939   4.840   6.834 -0.1473 -0.1805  0.6467
10539SOL     OW32157   7.588   6.220   6.430 -0.3271  0.3608  0.1013
10539SOL    HW132158   7.520   6.188   6.370 -0.7006  2.7762 -0.8970
10539SOL    HW232159   7.539   6.251   6.506 -0.0744 -0.4529  0.5986
10540SOL     OW32160   1.062   1.637   0.195 -0.3239  0.1253 -0.3691
10540SOL    HW132161   1.067   1.579   0.270  0.5638  1.0139  0.2873
10540SOL    HW232162   0.983   1.690   0.211  0.4972  1.1158  0.5702
10541SOL     OW32163   4.621   1.739   3.674 -0.1782 -0.7279  0.0357
10541SOL    HW132164   4.706   1.697   3.684  0.1589  0.0343  0.5011
10541SOL    HW232165   4.620   1.771   3.584  0.7610  0.7545  0.5081
10542SOL     OW32166   0.514   4.361   4.533 -0.0854 -0.0112 -0.1730
10542SOL    HW132167   0.493   4.424   4.602  0.4533 -0.5218  0.4823
10542SOL    HW232168   0.484   4.402   4.452 -0.7075  0.6168  0.3623
10543SOL     OW32169   4.937   2.312   5.810  0.6418  0.0318 -0.3403
10543SOL    HW132170   4.982   2.326   5.894  1.1824 -1.5787 -0.3355
10543SOL    HW232171   4.956   2.392   5.761  1.0337  0.6447  0.7478
10544SOL     OW32172   3.639   1.447   6.514 -0.0698  0.4243  0.3341
10544SOL    HW132173   3.720   1.491   6.541  1.1415 -0.9570 -0.8747
10544SOL    HW232174   3.635   1.461   6.419 -0.2375 -1.0915  0.1015
10545SOL     OW32175   4.029   4.689   0.110  0.0295  0.2576 -0.1552
10545SOL    HW132176   4.015   4.700   0.016  1.5059  0.4883 -0.3776
10545SOL    HW232177   3.952   4.642   0.141  0.7404 -2.2783 -1.9562
10546SOL     OW32178   5.947   0.993   5.166  0.0850  0.0750  0.0725
10546SOL    HW132179   6.019   1.056   5.170 -0.9544  1.2719  0.4586
10546SOL    HW232180   5.924   0.977   5.258 -0.7185  0.4012 -0.0646
10547SOL     OW32181   2.406   2.989   4.132  0.0517 -0.1805 -0.6176
10547SOL    HW132182   2.499   3.011   4.127 -0.1807  0.6224 -1.6557
10547SOL    HW232183   2.391   2.969   4.225  0.9093  1.2533 -0.1473
10548SOL     OW32184   6.121   0.729   4.773 -0.0793 -0.3925 -0.4028
10548SOL    HW132185   6.077   0.743   4.689 -0.5182  3.0996  0.2602
10548SOL    HW232186   6.121   0.815   4.815  1.8684 -1.5876  2.3654
10549SOL     OW32187   5.039   7.436   3.080  0.2009  0.2730 -0.1132
10549SOL    HW132188   4.954   7.426   3.123  0.0919  1.4872 -0.0069
10549SOL    HW232189   5.102   7.405   3.145 -0.0708  0.6288  0.3271
10550SOL     OW32190   2.877   4.035   1.610 -0.0073  0.2345  0.6549
10550SOL    HW132191   2.952   4.049   1.552 -0.6628  0.0205 -0.2812
10550SOL    HW232192   2.907   3.968   1.672 -0.2570 -1.9302 -1.4068
10551SOL     OW32193   5.550   2.655   3.069 -0.7881 -0.2828  0.2707
10551SOL    HW132194   5.511   2.736   3.035  1.4107  1.0601  0.7427
10551SOL    HW232195   5.570   2.603   2.991  0.8978  1.1780 -0.3337
10552SOL     OW32196   3.600   4.525   3.168 -0.0088 -0.2106  0.1849
10552SOL    HW132197   3.658   4.488   3.234  0.1794  0.1353  0.2149
10552SOL    HW232198   3.608   4.465   3.093 -0.5733 -0.8535  0.6327
10553SOL     OW32199   2.869   4.322   4.338 -0.6777 -0.0007  0.3274
10553SOL    HW132200   2.882   4.239   4.293  0.9721  0.1005  0.5545
10553SOL    HW232201   2.872   4.388   4.268 -1.2327 -0.0598  0.2402
10554SOL     OW32202   0.549   1.761   3.192  0.2103  0.4859 -0.2356
10554SOL    HW132203   0.532   1.834   3.253 -0.4952 -1.1640  1.6622
10554SOL    HW232204   0.468   1.710   3.193  0.4979 -0.0703 -1.9468
10555SOL     OW32205   1.271   2.998   4.379  0.1342  0.5813 -0.7409
10555SOL    HW132206   1.338   3.009   4.446 -1.4060  0.0545  0.9855
10555SOL    HW232207   1.303   2.925   4.326  0.0099 -1.0885  1.3380
10556SOL     OW32208   1.409   4.348   1.072  0.4375 -0.0714  0.7052
10556SOL    HW132209   1.403   4.436   1.035 -1.6189  0.8974  2.9991
10556SOL    HW232210   1.491   4.313   1.039  1.3085  2.6828 -0.3423
10557SOL     OW32211   2.112   2.245   1.443  0.6806  0.0827  0.4395
10557SOL    HW132212   2.154   2.179   1.387 -1.9349 -0.1687 -1.4048
10557SOL    HW232213   2.074   2.194   1.515  0.2537 -0.2150  0.0142
10558SOL     OW32214   7.228   5.897   4.205  0.3641 -0.1433 -0.1533
10558SOL    HW132215   7.149   5.895   4.151  0.3187 -1.5612 -0.0601
10558SOL    HW232216   7.198   5.872   4.292  0.7106  0.6117  0.1967
10559SOL     OW32217   3.077   2.889   7.230 -0.2824 -0.6957 -0.4688
10559SOL    HW132218   3.033   2.914   7.311 -0.5235  0.2068 -0.8662
10559SOL    HW232219   3.130   2.813   7.254  0.0171 -0.1545  0.6523
10560SOL     OW32220   7.054   6.126   4.560 -0.4261 -0.5141  0.3624
10560SOL    HW132221   7.098   6.209   4.578 -2.3099  0.5297  0.4237
10560SOL    HW232222   7.066   6.113   4.466  0.5674 -0.6203  0.4869
10561SOL     OW32223   5.232   5.841   4.868  0.4213  0.2109  0.1638
10561SOL    HW132224   5.220   5.901   4.795 -0.3637 -0.2230 -0.0650
10561SOL    HW232225   5.147   5.798   4.879  0.3372  0.6874  1.6976
10562SOL     OW32226   0.282   0.621   6.843  0.3494 -0.0010 -0.1540
10562SOL    HW132227   0.328   0.701   6.815 -0.2105 -0.1085 -1.4362
10562SOL    HW232228   0.189   0.644   6.839  0.1849 -0.7063 -0.4690
10563SOL     OW32229   5.485   0.154   5.828 -0.4215 -0.7111 -0.0094
10563SOL    HW132230   5.512   0.238   5.865 -0.3169 -0.4007 -0.7650
10563SOL    HW232231   5.411   0.175   5.771 -1.4425 -1.3709  1.0231
10564SOL     OW32232   1.500   2.974   2.611  0.3065  0.1670  0.1021
10564SOL    HW132233   1.491   2.904   2.676  0.6433  0.1704  0.1576
10564SOL    HW232234   1.589   3.008   2.626 -0.1539  1.1684  0.6372
10565SOL     OW32235   4.151   4.090   2.801 -0.2548 -0.1146 -0.1639
10565SOL    HW132236   4.216   4.034   2.759 -0.9979  0.0111 -1.5440
10565SOL    HW232237   4.149   4.170   2.748 -1.3013  0.0055  0.0280
10566SOL     OW32238   3.565   1.468   0.037  0.1163 -0.1241 -1.0090
10566SOL    HW132239   3.489   1.450   0.092  1.0398  0.6915  0.6215
10566SOL    HW232240   3.530   1.477  -0.051 -1.6417  0.0451 -0.3276
10567SOL     OW32241   1.766   3.417   4.227 -0.1368 -0.2414 -0.3179
10567SOL    HW132242   1.849   3.441   4.269 -0.0236 -1.5141  0.2342
10567SOL    HW232243   1.704   3.483   4.256 -0.2119 -1.3623  2.3915
10568SOL     OW32244   5.253   3.862   0.130 -0.5637 -0.3534  0.6603
10568SOL    HW132245   5.182   3.832   0.073  1.6777 -1.9669 -1.4989
10568SOL    HW232246   5.302   3.783   0.152  1.3255  0.8332  0.9690
10569SOL     OW32247   1.863   4.968   1.914 -0.6905 -0.1768  0.6953
10569SOL    HW132248   1.914   4.891   1.888  0.6733  0.8640  0.1329
10569SOL    HW232249   1.860   4.964   2.009  1.8345  0.5079  0.8829
10570SOL     OW32250   2.912   2.474   5.049  0.0731 -0.4478  0.2409
10570SOL    HW132251   2.885   2.463   5.141 -1.2034 -2.8515 -0.3252
10570SOL    HW232252   2.995   2.427   5.043 -0.4322 -1.3322 -0.0518
10571SOL     OW32253   1.303   6.538   1.327 -0.0048 -0.2582 -0.4273
10571SOL    HW132254   1.231   6.565   1.270 -0.9085  1.8194  1.5775
10571SOL    HW232255   1.376   6.595   1.302 -0.7214  1.4272  1.0939
10572SOL     OW32256   6.100   5.652   4.322  0.3910  0.3392  0.2244
10572SOL    HW132257   6.050   5.691   4.250 -0.2599 -0.8121  0.0406
10572SOL    HW232258   6.188   5.691   4.314  0.7415 -0.8025 -2.0434
10573SOL     OW32259   4.092   2.012   6.897 -0.5900  0.3273  0.2340
10573SOL    HW132260   4.092   2.098   6.937  1.7716  0.4952 -0.0309
10573SOL    HW232261   4.140   1.956   6.958  1.7035  0.2376 -1.5176
10574SOL     OW32262   4.538   7.376   0.708 -0.2865  0.3296  0.3148
10574SOL    HW132263   4.501   7.336   0.630 -0.2068  1.1365 -0.1452
10574SOL    HW232264   4.564   7.464   0.680  1.1627  0.0934  0.8476
10575SOL     OW32265   2.311   1.915   0.282 -0.0386  0.4843  0.0811
10575SOL    HW132266   2.225   1.958   0.273  0.0671  0.5135 -0.8074
10575SOL    HW232267   2.348   1.954   0.362 -0.1677  1.6884 -0.4162
10576SOL     OW32268   4.970   5.008   5.762 -0.4460 -0.1566 -0.1670
10576SOL    HW132269   4.968   5.074   5.831  0.2231 -1.0476  0.7264
10576SOL    HW232270   4.930   5.052   5.686 -0.2994  1.1586  0.4877
10577SOL     OW32271   6.418   6.565   6.106 -0.1833 -0.3884 -0.3973
10577SOL    HW132272   6.435   6.497   6.172  0.2507 -1.0597 -1.1777
10577SOL    HW232273   6.355   6.623   6.148  1.5399  0.3310  1.3679
10578SOL     OW32274   0.898   1.479   1.812  0.6902  0.4802  0.3382
10578SOL    HW132275   0.910   1.510   1.722  0.1836  1.3397  0.5490
10578SOL    HW232276   0.821   1.527   1.843 -0.3526 -1.2633  0.5868
10579SOL     OW32277   4.110   2.954   5.550 -0.2770  0.1995 -0.3343
10579SOL    HW132278   4.048   2.882   5.561 -1.3429  0.6573 -2.7374
10579SOL    HW232279   4.072   3.027   5.599 -0.2680 -0.2438  0.3513
10580SOL     OW32280   4.052   4.020   4.364 -0.4524  0.3605  0.5502
10580SOL    HW132281   4.141   4.018   4.399  0.4968 -1.1695 -1.7209
10580SOL    HW232282   4.007   3.946   4.405  0.0485 -0.2360  0.0438
10581SOL     OW32283   0.973   5.409   5.323  0.1911 -0.0107  0.1534
10581SOL    HW132284   0.910   5.471   5.286  0.0272 -0.6538 -0.6530
10581SOL    HW232285   1.032   5.463   5.375 -0.5914  0.6909  0.3324
10582SOL     OW32286   5.815   2.099   1.097  0.3661  0.2336 -0.4478
10582SOL    HW132287   5.830   2.006   1.084  2.7996  0.6975 -1.5603
10582SOL    HW232288   5.795   2.133   1.010  2.2691  1.1318 -0.5851
10583SOL     OW32289   1.545   1.002   7.554 -0.2731  0.1804  0.1630
10583SOL    HW132290   1.572   0.987   7.644 -1.9388 -0.9539  0.5179
10583SOL    HW232291   1.607   0.952   7.501  0.1019  0.0292  0.7393
10584SOL     OW32292   6.232   7.395   6.306 -0.2189  0.2190 -0.1001
10584SOL    HW132293   6.286   7.464   6.268 -2.1964  3.0328  1.7149
10584SOL    HW232294   6.273   7.375   6.390  0.7146 -1.4275 -0.8936
10585SOL     OW32295   5.513   2.488   5.285 -0.4401  0.7769 -0.3514
10585SOL    HW132296   5.481   2.416   5.230 -2.1990  1.1883  0.0679
10585SOL    HW232297   5.581   2.448   5.339  0.1566 -0.0337 -1.6587
10586SOL     OW32298   4.081   2.243   7.037  0.2040  0.2924  0.2196
10586SOL    HW132299   4.129   2.257   7.119 -1.3425  0.9210  1.0620
10586SOL    HW232300   3.992   2.272   7.056 -0.1701  0.5737 -1.7425
10587SOL     OW32301   6.293   6.009   4.615 -0.0255 -0.6187 -0.2591
10587SOL    HW132302   6.331   5.936   4.566  2.1315  0.7225 -0.7127
10587SOL    HW232303   6.270   5.972   4.700  2.2485 -1.6034 -0.0049
10588SOL     OW32304   2.193   5.018   3.345 -0.5300 -0.3052 -0.3289
10588SOL    HW132305   2.125   5.061   3.397 -0.9886 -1.4005  0.0186
10588SOL    HW232306   2.275   5.057   3.375 -1.0263  1.3878 -1.1101
10589SOL     OW32307   5.829   5.661   2.138  0.2000  0.1229  0.0692
10589SOL    HW132308   5.768   5.625   2.074  0.2549  0.4271 -0.1583
10589SOL    HW232309   5.807   5.754   2.142  0.3727  0.1550  0.2954
10590SOL     OW32310   4.666   3.110   3.086 -0.1506  0.1652  0.1535
10590SOL    HW132311   4.579   3.124   3.124 -0.3427  1.7539 -0.8347
10590SOL    HW232312   4.722   3.173   3.130 -0.2070  1.4698 -1.5587
10591SOL     OW32313   5.414   5.347   5.462 -0.2834  0.0795  0.2661
10591SOL    HW132314   5.491   5.398   5.438  0.1228 -1.7776 -2.9147
10591SOL    HW232315   5.446   5.282   5.525  0.4862  0.0513 -0.1469
10592SOL     OW32316   7.523   5.282   0.942  0.5368  0.1819  1.0675
10592SOL    HW132317   7.606   5.312   0.979  1.7617 -1.7894  0.1095
10592SOL    HW232318   7.468   5.360   0.939  2.0915  1.4063  2.3905
10593SOL     OW32319   3.789   1.732   2.286 -0.8740 -0.1082 -0.3314
10593SOL    HW132320   3.710   1.770   2.326 -1.2348  3.1595 -3.5617
10593SOL    HW232321   3.756   1.684   2.210  0.1414 -0.2455 -0.6945
10594SOL     OW32322   1.033   6.001   2.689  0.5512 -0.1946  0.6866
10594SOL    HW132323   1.036   5.970   2.780 -0.0270  0.4852  0.9454
10594SOL    HW232324   0.945   6.036   2.679  1.1650  1.3326  0.4086
10595SOL     OW32325   2.877   6.585   5.596 -0.3921  0.4971 -0.3246
10595SOL    HW132326   2.931   6.664   5.586 -0.6941  0.8488  0.7074
10595SOL    HW232327   2.790   6.619   5.620 -0.3189 -0.1733  0.9694
10596SOL     OW32328   4.765   0.852   0.615 -0.1718  0.3122 -0.1467
10596SOL    HW132329   4.761   0.937   0.571 -0.8039  0.5725  0.4053
10596SOL    HW232330   4.804   0.793   0.549  0.4763  1.0666 -0.4592
10597SOL     OW32331   2.409   5.201   5.739  0.2755  0.2967 -0.1228
10597SOL    HW132332   2.399   5.168   5.650  2.5259 -2.0492  0.3821
10597SOL    HW232333   2.321   5.196   5.776 -0.2577 -1.0370 -1.4658
10598SOL     OW32334   7.063   4.531   7.567 -0.1780  0.3626  0.2938
10598SOL    HW132335   6.982   4.546   7.518  1.1446 -1.1295 -2.6096
10598SOL    HW232336   7.062   4.436   7.584  0.2973  0.5701  1.5653
10599SOL     OW32337   6.308   1.982   1.638  0.4435 -0.2835 -0.0200
10599SOL    HW132338   6.232   1.941   1.679  1.2993 -2.1159 -0.1831
10599SOL    HW232339   6.287   1.986   1.545 -0.4669  1.5917  0.2129
10600SOL     OW32340   7.398   4.387   3.385  0.1659 -0.4347  0.5353
10600SOL    HW132341   7.331   4.329   3.421  0.6459 -0.7697  0.9023
10600SOL    HW232342   7.439   4.335   3.316 -0.3150 -0.0319 -0.0588
10601SOL     OW32343   1.654   4.150   6.560 -0.0747  0.1917 -0.3911
10601SOL    HW132344   1.747   4.138   6.539 -0.0136  0.8460 -0.5234
10601SOL    HW232345   1.649   4.239   6.593 -0.6789  0.1958 -0.4951
10602SOL     OW32346   2.132   0.272   3.134 -0.1578 -0.0370 -1.0001
10602SOL    HW132347   2.157   0.308   3.218  2.1863 -2.1762 -0.6601
10602SOL    HW232348   2.146   0.177   3.143  1.7140 -0.2206 -4.2148
10603SOL     OW32349   1.076   1.687   2.378  0.0065 -0.2333 -0.6633
10603SOL    HW132350   1.057   1.779   2.391  1.3003 -0.1415  0.9467
10603SOL    HW232351   1.166   1.685   2.346 -0.1742 -0.9221 -1.1562
10604SOL     OW32352   6.860   2.029   3.919  0.0685 -0.0709 -0.2848
10604SOL    HW132353   6.780   1.977   3.922 -0.0393  0.1270  0.3777
10604SOL    HW232354   6.831   2.116   3.891  0.0728 -0.0377 -0.1856
10605SOL     OW32355   6.137   2.189   5.539 -0.3066  0.6509 -0.3011
10605SOL    HW132356   6.210   2.249   5.552  0.3319 -0.4390  1.5232
10605SOL    HW232357   6.071   2.218   5.602 -0.5092  0.2144 -0.3099
10606SOL     OW32358   7.131   3.963   3.100 -0.5525  0.6866 -0.1996
10606SOL    HW132359   7.072   3.997   3.168 -0.6648  1.5118 -0.7010
10606SOL    HW232360   7.114   4.018   3.023 -0.3080 -0.1306 -0.8524
10607SOL     OW32361   0.551   1.999   1.583 -0.0549  0.2866  0.6407
10607SOL    HW132362   0.490   1.978   1.654 -0.8271 -0.8244 -0.3213
10607SOL    HW232363   0.499   1.989   1.503  1.4053 -0.8121 -0.2121
10608SOL     OW32364   0.764   0.289   1.537 -0.5152 -0.1163  0.4694
10608SOL    HW132365   0.794   0.334   1.616 -0.1423  0.6322 -0.0921
10608SOL    HW232366   0.781   0.350   1.466 -0.3243 -1.0067 -0.2715
10609SOL     OW32367   2.525   7.155   7.594 -0.4852  0.2101 -0.3309
10609SOL    HW132368   2.498   7.155   7.686  0.2167  1.7438 -0.0887
10609SOL    HW232369   2.445   7.137   7.546 -0.9422 -0.2072  0.5547
10610SOL     OW32370   4.696   3.214   4.991 -0.3069  0.0631 -0.1412
10610SOL    HW132371   4.677   3.299   4.951 -1.5175  0.6976  1.6378
10610SOL    HW232372   4.659   3.149   4.932  1.0134  0.7139 -1.7487
10611SOL     OW32373   5.844   7.382   4.403  0.4144 -0.1383  0.3908
10611SOL    HW132374   5.770   7.443   4.407 -0.6551 -1.3452 -0.3056
10611SOL    HW232375   5.888   7.403   4.321 -1.5198 -1.9422 -1.2476
10612SOL     OW32376   3.287   7.401   0.028 -0.1374  0.1548 -0.1801
10612SOL    HW132377   3.371   7.426  -0.010 -0.4571  0.0226 -0.9988
10612SOL    HW232378   3.233   7.480   0.019  0.0607  0.4274  0.8668
10613SOL     OW32379   0.712   5.762   2.806  0.8360 -0.3952  0.0117
10613SOL    HW132380   0.800   5.753   2.770  1.4265 -0.6502  1.4461
10613SOL    HW232381   0.680   5.845   2.771  2.5996  0.9351  1.3368
10614SOL     OW32382   7.321   1.207   0.281 -0.3012  0.2109 -0.6142
10614SOL    HW132383   7.365   1.122   0.272  1.6432  0.9598  0.9717
10614SOL    HW232384   7.293   1.228   0.192  0.4988 -1.4097 -1.3100
10615SOL     OW32385   4.591   5.811   5.915 -0.0961  0.2318  0.1711
10615SOL    HW132386   4.591   5.887   5.974  1.0331  1.1163 -0.9169
10615SOL    HW232387   4.500   5.781   5.916 -0.1015  0.1124  2.4461
10616SOL     OW32388   4.355   4.415   2.805  0.3072 -0.1587  0.0893
10616SOL    HW132389   4.358   4.511   2.799  1.6352 -0.2400 -0.9174
10616SOL    HW232390   4.389   4.396   2.892 -0.0537  0.2803  0.3337
10617SOL     OW32391   0.415   3.678   1.724 -0.0295 -0.4803 -0.0498
10617SOL    HW132392   0.480   3.616   1.757 -1.4681 -2.6451 -0.9945
10617SOL    HW232393   0.440   3.762   1.762  2.3181 -1.5236  0.9272
10618SOL     OW32394   0.156   3.335   1.235  0.1002 -0.2060 -0.1929
10618SOL    HW132395   0.170   3.289   1.152  0.8762  0.9697 -0.7531
10618SOL    HW232396   0.177   3.270   1.302 -2.8558 -1.9305 -0.7961
10619SOL     OW32397   6.747   0.894   3.984  0.4783 -0.2370  0.2808
10619SOL    HW132398   6.720   0.985   3.997 -2.4328 -1.0539  0.8366
10619SOL    HW232399   6.822   0.882   4.042  0.5325  1.6278  0.6612
10620SOL     OW32400   3.736   0.222   3.351  0.3654 -0.2641  0.6923
10620SOL    HW132401   3.754   0.285   3.281  2.0793  0.0967  1.3996
10620SOL    HW232402   3.722   0.139   3.306  0.8718  0.0765 -0.1288
10621SOL     OW32403   7.048   6.281   1.882 -0.2634 -0.1233  1.2898
10621SOL    HW132404   6.988   6.276   1.807  0.8087 -1.4466  0.4743
10621SOL    HW232405   7.125   6.326   1.847  0.4147 -1.1368  1.4608
10622SOL     OW32406   5.454   2.410   3.170 -0.4409 -0.3178 -0.2638
10622SOL    HW132407   5.392   2.471   3.130 -1.0607 -0.9275 -0.2621
10622SOL    HW232408   5.513   2.386   3.099  0.4527  1.0538 -0.0233
10623SOL     OW32409   3.523   1.219   5.699 -0.3968 -0.1525  0.0701
10623SOL    HW132410   3.582   1.162   5.749 -0.7625  0.7546  1.6160
10623SOL    HW232411   3.548   1.206   5.608  1.5185 -0.5358  0.6097
10624SOL     OW32412   3.748   2.236   0.032  0.1004  0.0652  0.2834
10624SOL    HW132413   3.685   2.302   0.004 -0.9108 -0.9903 -0.0428
10624SOL    HW232414   3.738   2.166  -0.033 -0.3187 -1.2640  1.7343
10625SOL     OW32415   0.493   4.955   2.323 -0.1245  0.4236 -0.1814
10625SOL    HW132416   0.407   4.916   2.338  1.0935 -2.3059  0.2368
10625SOL    HW232417   0.514   4.933   2.233  1.9428 -3.0005  0.9730
10626SOL     OW32418   0.968   6.592   2.270 -0.2685 -0.4681  0.6816
10626SOL    HW132419   0.873   6.593   2.279 -0.3986  0.5386 -0.4686
10626SOL    HW232420   0.984   6.557   2.182  0.4701 -1.4540  1.1896
10627SOL     OW32421   4.723   6.226   0.253 -0.8685  0.1646 -0.0258
10627SOL    HW132422   4.670   6.151   0.279 -1.0650  0.0996 -0.6209
10627SOL    HW232423   4.662   6.287   0.212 -0.4583  0.0182 -0.8644
10628SOL     OW32424   0.568   6.020   1.565  0.0300  0.0266  0.7587
10628SOL    HW132425   0.643   6.074   1.590  0.3248 -0.7705  1.6449
10628SOL    HW232426   0.582   5.936   1.609 -1.2503 -0.2324  0.7275
10629SOL     OW32427   3.929   5.146   1.700 -0.0650  0.2321  0.5387
10629SOL    HW132428   3.993   5.120   1.634  0.4953 -0.0418  1.1897
10629SOL    HW232429   3.970   5.125   1.784 -0.5368  1.1110  1.0031
10630SOL     OW32430   6.555   7.212   0.976  0.1045  0.6009 -0.2715
10630SOL    HW132431   6.530   7.214   1.069 -1.2951  1.3915 -0.6394
10630SOL    HW232432   6.650   7.222   0.977 -0.0154  1.9728  1.0385
10631SOL     OW32433   2.252   5.732   1.657 -0.2489  0.4201  0.1231
10631SOL    HW132434   2.344   5.705   1.652 -0.0944  0.7434  1.1212
10631SOL    HW232435   2.203   5.649   1.666  0.0755  0.3363  1.2297
10632SOL     OW32436   7.267   3.633   1.218 -0.5864 -0.1265  0.0063
10632SOL    HW132437   7.177   3.647   1.246 -0.3573 -1.7466  1.7011
10632SOL    HW232438   7.276   3.685   1.138 -2.6291  1.0702  0.5062
10633SOL     OW32439   6.218   5.378   0.663  0.5328 -0.0955  0.3558
10633SOL    HW132440   6.252   5.467   0.669  0.6744 -0.0128 -1.3356
10633SOL    HW232441   6.294   5.324   0.645  0.4065 -0.5410  1.1127
10634SOL     OW32442   5.432   6.859   4.721 -0.4963  0.0619 -0.8730
10634SOL    HW132443   5.424   6.933   4.660  1.0227 -1.9347 -3.7461
10634SOL    HW232444   5.518   6.822   4.702 -0.9737 -2.1169  0.8490
10635SOL     OW32445   4.914   2.338   5.187  0.4051 -0.6716  0.0519
10635SOL    HW132446   4.959   2.254   5.188 -0.5290 -1.1881  1.2913
10635SOL    HW232447   4.873   2.345   5.273  1.7190  1.7640  0.5622
10636SOL     OW32448   1.773   0.257   5.093 -0.0659 -0.6671  0.4521
10636SOL    HW132449   1.708   0.279   5.160 -0.0064 -1.0497  0.6401
10636SOL    HW232450   1.856   0.253   5.140  0.7946  3.3544 -0.3357
10637SOL     OW32451   1.263   6.757   3.115  0.5767 -0.0961 -0.6701
10637SOL    HW132452   1.188   6.723   3.163  0.2370  1.2115 -0.2230
10637SOL    HW232453   1.302   6.681   3.074  0.5597 -1.2103  1.2481
10638SOL     OW32454   4.216   3.719   4.175 -0.3842 -0.5662 -0.4887
10638SOL    HW132455   4.220   3.758   4.262  0.7294 -1.2771 -0.1948
10638SOL    HW232456   4.175   3.786   4.120 -3.0171 -0.8621  0.9709
10639SOL     OW32457   5.831   4.364   5.644  0.3682 -0.4155  0.3386
10639SOL    HW132458   5.761   4.380   5.708 -0.7481 -1.5990 -0.5211
10639SOL    HW232459   5.836   4.445   5.594 -0.6877 -0.4450  0.1613
10640SOL     OW32460   5.339   7.478   1.220 -0.7959  0.4510 -0.6680
10640SOL    HW132461   5.421   7.499   1.265 -1.4305  0.5479  0.4533
10640SOL    HW232462   5.364   7.408   1.158 -0.2405 -0.9767  1.0781
10641SOL     OW32463   0.863   1.310   7.197 -0.1597  0.1421 -0.6717
10641SOL    HW132464   0.774   1.279   7.183 -0.2161  0.0663 -0.1667
10641SOL    HW232465   0.907   1.296   7.113 -0.4214 -0.4911 -0.7099
10642SOL     OW32466   4.648   2.081   7.186  0.2514 -0.3054  0.1441
10642SOL    HW132467   4.719   2.020   7.207 -0.2525 -0.6993  0.7417
10642SOL    HW232468   4.641   2.137   7.264 -0.2518 -0.4260  0.1878
10643SOL     OW32469   7.480   6.659   3.427 -0.6378  0.2476 -0.1008
10643SOL    HW132470   7.424   6.733   3.448 -1.0125 -0.2901  0.8662
10643SOL    HW232471   7.493   6.664   3.332 -1.4355  0.9902 -0.1779
10644SOL     OW32472   5.394   6.009   1.279  0.1097 -0.5622 -0.2099
10644SOL    HW132473   5.419   6.080   1.220 -0.6432 -1.0498 -1.1368
10644SOL    HW232474   5.307   6.032   1.309  0.4232 -0.4007  0.5951
10645SOL     OW32475   0.153   0.875   1.740  0.5041 -0.3676 -0.2573
10645SOL    HW132476   0.166   0.783   1.763  1.1632 -0.1229  0.3758
10645SOL    HW232477   0.173   0.879   1.647 -0.5716 -1.0558 -0.5391
10646SOL     OW32478   3.130   3.430   6.796  0.0162  0.0543 -0.7850
10646SOL    HW132479   3.216   3.451   6.832 -0.6379 -0.0492  0.9303
10646SOL    HW232480   3.120   3.489   6.722  0.3998  2.1655  0.7490
10647SOL     OW32481   2.986   4.668   7.542  0.3087  0.0030 -0.0689
10647SOL    HW132482   3.011   4.582   7.575 -0.9658 -0.1384  0.5738
10647SOL    HW232483   3.033   4.676   7.458  0.0994 -1.4893 -0.3492
10648SOL     OW32484   5.563   3.394   1.740 -0.6874 -0.2698  0.1931
10648SOL    HW132485   5.598   3.366   1.656 -2.3863  1.3619 -1.1255
10648SOL    HW232486   5.616   3.469   1.765 -0.2013 -0.7370  0.6053
10649SOL     OW32487   1.158   0.877   3.336  0.3162  0.4793 -0.3083
10649SOL    HW132488   1.215   0.883   3.259 -1.4484 -0.6469 -1.7954
10649SOL    HW232489   1.198   0.810   3.391  1.6151  1.3127 -0.2114
10650SOL     OW32490   6.721   3.225   1.941  0.0663  0.0515 -0.5952
10650SOL    HW132491   6.806   3.260   1.965 -0.0579  1.2282 -1.7515
10650SOL    HW232492   6.664   3.246   2.015  0.5283  0.2541 -0.2941
10651SOL     OW32493   6.420   7.291   4.385 -0.1510  0.4554 -0.8514
10651SOL    HW132494   6.443   7.354   4.454  0.3007 -0.8296  0.2184
10651SOL    HW232495   6.494   7.230   4.383 -0.6892 -0.1885 -1.6867
10652SOL     OW32496   3.003   0.539   0.256  0.2332  0.1224  0.4022
10652SOL    HW132497   3.072   0.567   0.315  0.8354 -1.1914  0.3611
10652SOL    HW232498   2.927   0.525   0.312 -0.2294  2.1841  0.3609
10653SOL     OW32499   6.938   2.902   4.376 -0.2030  0.0049  0.2554
10653SOL    HW132500   6.878   2.966   4.336 -0.1167  1.1737  1.8696
10653SOL    HW232501   6.881   2.849   4.432 -0.1094 -0.6538 -0.2641
10654SOL     OW32502   5.198   4.506   3.946  0.0192 -0.5112  0.2040
10654SOL    HW132503   5.294   4.500   3.943  0.0397  0.1383 -0.6816
10654SOL    HW232504   5.175   4.561   3.871 -0.9534  0.5670  1.2513
10655SOL     OW32505   1.679   7.182   1.145 -0.5721 -0.5583  0.3049
10655SOL    HW132506   1.755   7.232   1.115 -1.4218 -0.3428 -1.5979
10655SOL    HW232507   1.666   7.115   1.078 -3.4242  0.8424 -0.6709
10656SOL     OW32508   2.206   6.407   5.061 -0.4494  0.2373 -0.3182
10656SOL    HW132509   2.159   6.416   5.144  2.3455 -1.1107  1.5706
10656SOL    HW232510   2.170   6.328   5.021 -0.5594 -0.1530  0.5319
10657SOL     OW32511   0.046   0.089   6.483 -0.0313 -0.2738  0.3910
10657SOL    HW132512  -0.014   0.024   6.446 -0.3241 -1.2752  2.4212
10657SOL    HW232513   0.058   0.154   6.414 -1.1016 -1.5952 -1.1156
10658SOL     OW32514   1.800   0.880   3.818  0.1321  0.3678 -0.1731
10658SOL    HW132515   1.711   0.843   3.816  0.2560  0.0336  0.2097
10658SOL    HW232516   1.815   0.912   3.729  0.7506 -2.2772 -1.1036
10659SOL     OW32517   0.423   3.292   5.033 -0.1153  0.1892 -0.0320
10659SOL    HW132518   0.427   3.200   5.007 -0.6617  0.0866  0.2414
10659SOL    HW232519   0.387   3.291   5.122 -2.8220  0.8080 -1.0148
10660SOL     OW32520   3.265   1.773   6.091  0.4697 -0.0582 -0.7034
10660SOL    HW132521   3.225   1.788   6.176  0.1960  2.2901 -1.2015
10660SOL    HW232522   3.200   1.722   6.042  0.7658 -1.7214  0.5215
10661SOL     OW32523   7.604   1.595   6.540 -0.0997  0.0173  0.7323
10661SOL    HW132524   7.611   1.522   6.601  0.1245 -1.0039 -0.4827
10661SOL    HW232525   7.536   1.569   6.479  0.2948  0.6253  0.0158
10662SOL     OW32526   4.192   7.593   6.443  0.0911 -0.4752 -0.0603
10662SOL    HW132527   4.283   7.567   6.430  0.0723  0.1717 -1.7949
10662SOL    HW232528   4.181   7.671   6.387 -0.7420  1.2758  2.3839
10663SOL     OW32529   3.366   7.258   4.501  0.1034 -0.8807  0.7739
10663SOL    HW132530   3.325   7.284   4.583  0.1473 -0.6777  0.7328
10663SOL    HW232531   3.453   7.228   4.526 -0.5092 -2.5574  1.0242
10664SOL     OW32532   4.678   0.524   4.120 -0.1082 -0.1897  0.2250
10664SOL    HW132533   4.699   0.448   4.174  1.5589 -0.3931 -0.6440
10664SOL    HW232534   4.758   0.577   4.120 -0.8547  0.9777 -0.1402
10665SOL     OW32535   5.426   0.535   7.507  0.6944 -0.4804  0.7084
10665SOL    HW132536   5.370   0.613   7.509 -0.1940 -1.0837 -0.0556
10665SOL    HW232537   5.505   0.562   7.554  2.4972  2.5116 -3.3487
10666SOL     OW32538   5.508   4.333   5.538  0.6282 -0.0493  0.1668
10666SOL    HW132539   5.450   4.407   5.557  0.8255  0.4723 -1.1449
10666SOL    HW232540   5.546   4.354   5.452  2.0554 -0.8228  0.5790
10667SOL     OW32541   0.171   6.804   4.783 -0.3289  0.2679  0.7438
10667SOL    HW132542   0.089   6.783   4.740  0.6091  1.2038 -1.6602
10667SOL    HW232543   0.189   6.729   4.839 -1.6673 -0.9964 -0.4457
10668SOL     OW32544   0.388   5.659   3.395 -0.1934 -0.1541 -0.4530
10668SOL    HW132545   0.435   5.732   3.353 -1.5724  1.9246  1.4176
10668SOL    HW232546   0.315   5.640   3.335 -0.7352  1.1028 -0.2097
10669SOL     OW32547   2.082   6.664   4.372 -0.1637 -0.6553  0.4319
10669SOL    HW132548   2.035   6.600   4.318 -1.0225 -1.5538  2.1520
10669SOL    HW232549   2.174   6.653   4.348 -0.3209 -2.4091  0.5213
10670SOL     OW32550   2.944   6.063   7.190  0.0009 -0.2975  0.0352
10670SOL    HW132551   2.850   6.080   7.185  0.2017  0.8286 -0.3563
10670SOL    HW232552   2.970   6.047   7.099 -0.0896 -2.4027  0.3328
10671SOL     OW32553   5.365   1.858   4.854 -0.2828  0.1597  0.0518
10671SOL    HW132554   5.451   1.817   4.855  0.1253  0.8575 -1.9624
10671SOL    HW232555   5.373   1.934   4.911  0.6153  0.5214 -0.5402
10672SOL     OW32556   5.092   5.618   6.983 -0.0414 -0.4055 -0.0381
10672SOL    HW132557   5.063   5.560   6.913  1.6573  0.3216 -1.4006
10672SOL    HW232558   5.146   5.562   7.039  0.5651 -0.4434 -0.6515
10673SOL     OW32559   3.707   4.532   1.545  0.0157 -0.7121  0.0929
10673SOL    HW132560   3.723   4.567   1.633 -0.3950 -0.1949 -0.0368
10673SOL    HW232561   3.723   4.438   1.554  0.4012 -0.6018  0.6179
10674SOL     OW32562   2.807   1.581   1.691 -0.0816 -0.4141 -0.3154
10674SOL    HW132563   2.876   1.520   1.664  1.3406 -0.2819  2.5447
10674SOL    HW232564   2.852   1.666   1.698 -0.6230 -0.1987  0.9789
10675SOL     OW32565   1.974   2.268   2.761  0.4753  0.1957  0.1937
10675SOL    HW132566   1.886   2.230   2.755  1.6847 -3.5020  2.4525
10675SOL    HW232567   1.978   2.330   2.689 -3.4367 -0.6007 -0.9620
10676SOL     OW32568   3.022   6.674   4.796  0.4933  0.3124  0.4875
10676SOL    HW132569   2.926   6.673   4.794  0.5052 -1.0383  0.0654
10676SOL    HW232570   3.048   6.667   4.705  1.0071  0.6203  0.6059
10677SOL     OW32571   4.360   2.635   6.916 -0.7351  0.3069 -0.0338
10677SOL    HW132572   4.364   2.561   6.977 -1.9334 -0.1261 -0.4299
10677SOL    HW232573   4.435   2.689   6.938  1.0869 -1.7956 -0.7104
10678SOL     OW32574   0.862   1.276   0.252 -0.1534 -0.4664 -0.1367
10678SOL    HW132575   0.910   1.200   0.221  1.2840  0.7049 -0.9347
10678SOL    HW232576   0.803   1.298   0.181 -0.9107 -1.0994  0.2871
10679SOL     OW32577   6.002   4.233   7.562 -0.2001 -0.0381  0.1224
10679SOL    HW132578   6.052   4.169   7.613  2.2187  0.9915 -0.8393
10679SOL    HW232579   5.987   4.189   7.478  0.5711  0.2778 -0.1812
10680SOL     OW32580   4.308   5.569   3.558  0.1460  0.2427  0.6732
10680SOL    HW132581   4.240   5.579   3.492 -0.1113  0.5926  0.9904
10680SOL    HW232582   4.383   5.532   3.510 -0.2323 -0.0639  0.3067
10681SOL     OW32583   1.470   1.376   3.348 -0.2089  0.0337 -0.0350
10681SOL    HW132584   1.411   1.362   3.273 -0.6038 -0.0288  0.2868
10681SOL    HW232585   1.551   1.408   3.308 -0.8411  1.2719 -0.3863
10682SOL     OW32586   3.122   5.837   0.824  0.1098 -0.0793  0.3244
10682SOL    HW132587   3.151   5.752   0.792 -1.0158 -0.6155  0.7005
10682SOL    HW232588   3.147   5.898   0.755  3.1613 -0.2858  1.0890
10683SOL     OW32589   4.358   4.085   5.862 -0.6102 -0.0674 -0.3703
10683SOL    HW132590   4.369   4.049   5.774 -1.0972  1.0659 -0.9111
10683SOL    HW232591   4.286   4.036   5.900 -1.3038  0.3419 -1.1196
10684SOL     OW32592   5.754   1.185   6.733 -0.2320  0.0274  0.8593
10684SOL    HW132593   5.833   1.237   6.743 -0.1073 -0.0374  0.2467
10684SOL    HW232594   5.784   1.102   6.694 -0.5772 -0.0519  0.7567
10685SOL     OW32595   4.568   6.524   2.344 -0.8147  0.0385  0.6819
10685SOL    HW132596   4.637   6.558   2.401 -1.5144 -1.0951  2.3072
10685SOL    HW232597   4.562   6.431   2.367 -2.0337 -0.1554 -0.3102
10686SOL     OW32598   6.932   6.971   6.847 -0.4022  0.4012 -0.6102
10686SOL    HW132599   6.987   6.905   6.807 -0.2887 -1.6127  2.5059
10686SOL    HW232600   6.855   6.976   6.790  0.3271 -1.1901 -1.8039
10687SOL     OW32601   7.163   4.992   5.313  0.2858 -0.1986 -0.0244
10687SOL    HW132602   7.070   4.997   5.333 -0.1796 -3.5358 -0.8453
10687SOL    HW232603   7.206   5.014   5.396 -1.2518 -0.2176  0.8079
10688SOL     OW32604   4.996   7.351   2.163  0.2649  0.7275  0.0989
10688SOL    HW132605   5.091   7.341   2.164  0.2212 -0.0826 -1.4378
10688SOL    HW232606   4.971   7.335   2.072 -1.0600  3.8040 -0.1980
10689SOL     OW32607   3.946   2.003   5.754  0.2373 -0.3251  0.4249
10689SOL    HW132608   3.882   2.046   5.698  1.6119 -0.8220 -1.6320
10689SOL    HW232609   3.991   2.076   5.798 -2.3207  0.0170  2.7701
10690SOL     OW32610   6.494   3.500   7.036  0.0887  0.0575 -0.1722
10690SOL    HW132611   6.521   3.543   7.117  1.0860  1.0719 -0.9976
10690SOL    HW232612   6.527   3.557   6.967 -0.1891 -1.0984 -1.3008
10691SOL     OW32613   5.865   2.215   6.022  0.1950  0.8295 -0.7427
10691SOL    HW132614   5.895   2.277   6.088  0.8026  1.2103 -1.3590
10691SOL    HW232615   5.888   2.256   5.938 -0.3079  0.2330 -1.1859
10692SOL     OW32616   7.408   1.021   6.948 -0.3412 -0.3390  0.4276
10692SOL    HW132617   7.420   1.081   6.875  0.0635 -1.1004 -0.1486
10692SOL    HW232618   7.446   1.067   7.023 -2.5131  1.2916  0.6335
10693SOL     OW32619   5.805   7.257   5.674 -0.3799 -0.0883  0.0042
10693SOL    HW132620   5.737   7.197   5.644 -3.5130  2.4835  1.3129
10693SOL    HW232621   5.771   7.291   5.757  2.9111  0.8682  1.0819
10694SOL     OW32622   4.544   2.618   6.665  0.3711 -0.3080 -0.7860
10694SOL    HW132623   4.586   2.578   6.589  0.7225 -0.3444 -0.5769
10694SOL    HW232624   4.451   2.617   6.645  0.4719 -0.2092 -1.2654
10695SOL     OW32625   1.179   2.341   5.936 -0.0075 -0.1004  0.0054
10695SOL    HW132626   1.240   2.317   6.005  0.2119  1.9918  0.5979
10695SOL    HW232627   1.234   2.376   5.866 -0.2829 -1.5998 -1.0128
10696SOL     OW32628   2.082   6.675   4.024 -0.5970  0.3887  0.5022
10696SOL    HW132629   2.063   6.757   3.978 -1.0932  0.1674  0.2973
10696SOL    HW232630   2.005   6.621   4.008  0.2346 -0.5765 -0.4062
10697SOL     OW32631   1.667   2.360   2.522  0.1017 -0.0338 -0.9886
10697SOL    HW132632   1.654   2.288   2.584  2.8481  0.5279  0.4311
10697SOL    HW232633   1.621   2.434   2.562  1.1083  0.0961 -0.0165
10698SOL     OW32634   2.100   0.195   4.783  0.2945  0.1103 -0.1737
10698SOL    HW132635   2.047   0.117   4.802 -0.4660  0.6421 -0.0500
10698SOL    HW232636   2.043   0.249   4.728  1.4049 -0.1285 -1.6197
10699SOL     OW32637   6.086   0.874   6.103  0.1224  0.2827  0.0239
10699SOL    HW132638   6.114   0.848   6.190 -1.7205 -0.6168  0.3927
10699SOL    HW232639   6.068   0.792   6.057 -1.9644  0.7651 -0.1221
10700SOL     OW32640   7.265   6.195   2.735 -0.6355  0.7939 -0.0898
10700SOL    HW132641   7.325   6.141   2.785  0.1386  2.6433  1.0936
10700SOL    HW232642   7.223   6.135   2.674  0.6800 -0.9710  0.6706
10701SOL     OW32643   4.749   6.428   1.449 -0.3132  0.3676  0.1257
10701SOL    HW132644   4.757   6.474   1.365  0.9001 -0.7084 -0.3803
10701SOL    HW232645   4.828   6.374   1.455  1.3489  2.7987  3.5071
10702SOL     OW32646   0.380   0.235   7.228  0.5638 -0.1182 -0.2703
10702SOL    HW132647   0.314   0.303   7.239  0.0196 -0.3068 -2.1061
10702SOL    HW232648   0.347   0.180   7.157  0.7094 -2.6588  1.4626
10703SOL     OW32649   5.040   0.224   3.641 -0.0092 -0.2927 -0.0452
10703SOL    HW132650   4.972   0.176   3.689 -1.8005  1.4958 -0.6402
10703SOL    HW232651   5.121   0.179   3.663 -1.3248 -2.3242  0.9880
10704SOL     OW32652   0.602   4.320   3.464  0.6958  0.0101 -0.0485
10704SOL    HW132653   0.540   4.341   3.534  3.0329  1.4508  1.7429
10704SOL    HW232654   0.611   4.401   3.415  1.5037 -0.0363  0.0184
10705SOL     OW32655   0.596   5.773   3.044 -0.0117 -0.4681  0.5986
10705SOL    HW132656   0.535   5.699   3.046 -2.2199  1.2125 -0.6914
10705SOL    HW232657   0.643   5.763   2.961 -0.1355 -0.5418  0.5380
10706SOL     OW32658   3.734   6.238   6.013 -0.4608  0.2053  0.3129
10706SOL    HW132659   3.683   6.272   5.940 -0.3934 -0.3317  0.0133
10706SOL    HW232660   3.706   6.146   6.021  0.0672  0.0581  0.4912
10707SOL     OW32661   4.119   1.260   0.399  0.4757 -0.5503 -0.2799
10707SOL    HW132662   4.166   1.205   0.462  1.4373  1.1570  0.5640
10707SOL    HW232663   4.114   1.207   0.320  2.4371 -1.4153  0.1184
10708SOL     OW32664   2.473   7.064   4.319 -0.4468  0.1696 -0.5879
10708SOL    HW132665   2.429   7.094   4.240 -1.1416 -0.2425 -0.3619
10708SOL    HW232666   2.403   7.054   4.383 -0.2341 -1.8519 -0.6252
10709SOL     OW32667   1.489   3.225   7.573 -0.2860 -0.1953  0.6194
10709SOL    HW132668   1.577   3.252   7.600  0.0910 -0.0302 -0.7027
10709SOL    HW232669   1.454   3.302   7.528 -1.0924 -0.2884  1.0742
10710SOL     OW32670   3.908   1.350   0.130  0.1158  0.1033 -0.0980
10710SOL    HW132671   3.890   1.409   0.204 -0.8802 -0.6107  0.2517
10710SOL    HW232672   3.980   1.392   0.083  2.4943 -0.6035  2.6521
10711SOL     OW32673   2.231   1.669   4.480 -0.3565 -0.1470  0.7897
10711SOL    HW132674   2.158   1.643   4.425  0.3260 -0.9125  0.2257
10711SOL    HW232675   2.197   1.742   4.532 -0.7024  1.4481 -1.4885
10712SOL     OW32676   4.290   7.236   2.224 -0.3166 -0.1869  0.3612
10712SOL    HW132677   4.322   7.146   2.217  0.0594 -0.0273 -0.0416
10712SOL    HW232678   4.251   7.241   2.311 -1.3280 -1.0589 -0.0233
10713SOL     OW32679   4.044   7.210   0.037  0.4134 -0.4009  0.1095
10713SOL    HW132680   4.137   7.227   0.021  0.7281 -1.4785  0.6947
10713SOL    HW232681   4.043   7.126   0.083 -0.9261 -1.0067 -0.9518
10714SOL     OW32682   3.788   1.195   5.021 -0.2359  0.3145  0.2944
10714SOL    HW132683   3.760   1.170   4.933  0.3140 -0.9633  0.4536
10714SOL    HW232684   3.731   1.268   5.045 -1.4099 -0.2970 -0.5363
10715SOL     OW32685   5.224   7.377   5.035 -0.1613  0.7812 -0.1943
10715SOL    HW132686   5.312   7.399   5.068  0.4424 -0.5001 -0.8505
10715SOL    HW232687   5.185   7.461   5.011  2.0942  1.2346 -2.8156
10716SOL     OW32688   5.063   5.573   5.193  0.1676  0.6921 -0.4413
10716SOL    HW132689   5.129   5.641   5.209 -0.4138  1.6800 -1.9853
10716SOL    HW232690   5.092   5.498   5.244  2.4020  1.1542 -0.9634
10717SOL     OW32691   4.688   3.731   5.327  0.7072 -0.6277  0.1359
10717SOL    HW132692   4.594   3.715   5.326  0.5800 -0.0260 -1.6361
10717SOL    HW232693   4.714   3.721   5.419 -0.8076 -2.3108  0.4205
10718SOL     OW32694   5.346   6.671   4.086 -0.1522 -0.4128 -0.3245
10718SOL    HW132695   5.252   6.675   4.067 -0.0709 -1.4024 -0.9647
10718SOL    HW232696   5.360   6.583   4.121  0.6109 -0.4120 -0.6214
10719SOL     OW32697   1.008   4.732   2.934 -0.3817  0.9101 -0.1801
10719SOL    HW132698   1.090   4.685   2.951 -1.2548 -0.9053 -0.7214
10719SOL    HW232699   1.034   4.802   2.874  0.3984 -1.4932 -2.9134
10720SOL     OW32700   1.846   3.634   1.548 -0.3070 -0.3340 -0.1657
10720SOL    HW132701   1.778   3.676   1.601 -0.7771 -1.4828  0.1669
10720SOL    HW232702   1.798   3.592   1.476  0.2770  0.7960 -1.2497
10721SOL     OW32703   0.338   6.652   7.370 -0.3036  0.1978 -0.2322
10721SOL    HW132704   0.269   6.656   7.436 -1.6936 -3.0982 -1.2481
10721SOL    HW232705   0.292   6.664   7.287  0.8048  0.5795 -0.8051
10722SOL     OW32706   6.421   1.905   3.373 -0.3457 -0.5789  0.5434
10722SOL    HW132707   6.379   1.820   3.359  0.6554 -0.9583 -0.2541
10722SOL    HW232708   6.510   1.894   3.339 -0.4234  1.0144 -0.2554
10723SOL     OW32709   3.158   2.623   3.234  0.0722  0.2462  0.3631
10723SOL    HW132710   3.099   2.682   3.280 -0.4258  0.0342  0.0056
10723SOL    HW232711   3.111   2.601   3.153 -0.5561 -2.0693  1.3002
10724SOL     OW32712   6.592   6.047   2.702  0.1131  0.2345  0.0651
10724SOL    HW132713   6.591   5.970   2.758  0.4524  0.0387 -0.1927
10724SOL    HW232714   6.540   6.112   2.749  1.2317  0.4164  1.1120
10725SOL     OW32715   6.227   6.718   4.811 -0.1915  0.5712 -0.1071
10725SOL    HW132716   6.137   6.691   4.832 -0.2844  2.1357  1.7855
10725SOL    HW232717   6.275   6.635   4.803 -1.4458 -0.2730  0.6869
10726SOL     OW32718   2.115   2.108   6.162  0.3181  0.0739 -0.3259
10726SOL    HW132719   2.195   2.056   6.159 -0.7895 -1.6633 -1.8038
10726SOL    HW232720   2.072   2.092   6.078 -2.8682 -1.1776  1.3700
10727SOL     OW32721   5.472   1.091   1.300 -0.2444  0.7627 -0.2293
10727SOL    HW132722   5.564   1.117   1.296 -0.5697  2.0063 -4.3521
10727SOL    HW232723   5.463   1.024   1.233 -2.3172  0.5082  0.2256
10728SOL     OW32724   6.575   2.730   5.893 -0.4133  0.1275 -0.5679
10728SOL    HW132725   6.548   2.709   5.804 -0.0973  0.0076 -0.6343
10728SOL    HW232726   6.524   2.807   5.916 -0.2996  0.3135 -0.9467
10729SOL     OW32727   6.507   3.912   2.941  0.4707 -0.2354 -0.0341
10729SOL    HW132728   6.529   3.924   2.848  1.4324 -1.4591  0.0050
10729SOL    HW232729   6.420   3.871   2.940  0.7525 -0.8435 -0.4378
10730SOL     OW32730   3.876   6.365   6.688  0.1661  0.6132  0.0937
10730SOL    HW132731   3.919   6.444   6.722  0.6070  1.7636 -2.8619
10730SOL    HW232732   3.789   6.394   6.662  0.7395  0.4830 -2.1179
10731SOL     OW32733   6.555   0.765   4.106  0.2164 -0.0395  0.3034
10731SOL    HW132734   6.610   0.799   4.035  0.6293 -2.0718 -0.3970
10731SOL    HW232735   6.497   0.702   4.064 -0.8638  0.1158  1.4863
10732SOL     OW32736   2.527   5.431   5.181  0.3756  0.0886 -0.4099
10732SOL    HW132737   2.488   5.480   5.108 -0.2715  0.4894  0.1810
10732SOL    HW232738   2.615   5.467   5.189 -0.3036  1.6906  0.4428
10733SOL     OW32739   5.820   3.985   5.529  0.6473  0.1086 -0.1757
10733SOL    HW132740   5.874   4.063   5.544  2.3140 -0.9063 -0.6781
10733SOL    HW232741   5.730   4.017   5.539  1.3239  1.6090  1.8622
10734SOL     OW32742   5.994   1.443   0.366 -0.2946  0.3836 -0.5066
10734SOL    HW132743   6.016   1.392   0.288 -0.4349 -0.7174  0.1515
10734SOL    HW232744   6.075   1.444   0.417 -0.3268  0.7297 -0.4600
10735SOL     OW32745   6.174   5.564   5.350  0.1885 -0.5976 -0.1639
10735SOL    HW132746   6.226   5.507   5.294  1.0593  0.1640 -0.1449
10735SOL    HW232747   6.085   5.555   5.317  0.4882 -1.1652 -0.8313
10736SOL     OW32748   3.326   0.863   4.139 -0.6197 -0.1930  0.3300
10736SOL    HW132749   3.352   0.840   4.050  0.1888 -0.3297  0.5974
10736SOL    HW232750   3.393   0.925   4.169 -0.8334 -0.2179  0.8747
10737SOL     OW32751   2.521   5.070   6.344 -0.1569 -0.0063  0.2064
10737SOL    HW132752   2.505   5.139   6.408  0.6617  1.6615 -1.3163
10737SOL    HW232753   2.598   5.100   6.295  0.1625 -1.9604 -0.5759
10738SOL     OW32754   6.331   2.594   4.918  0.0010  0.2224 -0.0463
10738SOL    HW132755   6.270   2.668   4.914 -1.7106 -1.0498  1.1136
10738SOL    HW232756   6.278   2.518   4.894  1.0112 -1.0188  1.4607
10739SOL     OW32757   1.305   0.163   2.928 -0.1819  0.0869  0.4333
10739SOL    HW132758   1.394   0.135   2.907  0.4899  1.5638  1.1656
10739SOL    HW232759   1.317   0.244   2.978 -1.9208  0.0030  1.0296
10740SOL     OW32760   3.569   3.965   3.849  0.8046 -0.2799  0.4866
10740SOL    HW132761   3.588   4.045   3.898  0.9519 -0.6527  1.0406
10740SOL    HW232762   3.515   3.913   3.907 -1.0546  0.2825 -0.6472
10741SOL     OW32763   3.768   1.372   2.722 -0.2089 -0.2535 -0.2682
10741SOL    HW132764   3.797   1.299   2.776  0.0046 -0.0220 -0.0679
10741SOL    HW232765   3.812   1.358   2.638  0.8433  0.3222  0.1659
10742SOL     OW32766   4.054   5.790   2.538  0.5559 -0.0947  0.1370
10742SOL    HW132767   4.013   5.784   2.624  1.7198 -1.1443  0.6556
10742SOL    HW232768   3.992   5.747   2.478 -1.2569  2.5052  0.0112
10743SOL     OW32769   5.376   1.879   7.505 -0.1270 -0.1066 -0.0501
10743SOL    HW132770   5.286   1.869   7.535 -0.2792  0.8763 -0.1412
10743SOL    HW232771   5.393   1.973   7.512  1.0164 -0.3221  0.3266
10744SOL     OW32772   5.818   1.351   1.965  0.2208 -0.1988  0.2383
10744SOL    HW132773   5.748   1.416   1.966 -0.2621 -0.7224  0.3359
10744SOL    HW232774   5.826   1.326   1.873 -1.1098 -1.6319  0.4865
10745SOL     OW32775   2.659   6.148   6.640  0.0186  0.2436  0.2996
10745SOL    HW132776   2.646   6.058   6.671  0.1522 -1.2292 -3.3242
10745SOL    HW232777   2.571   6.178   6.618  0.1308  0.3665  0.0189
10746SOL     OW32778   1.604   1.443   1.600 -0.0602  0.0918 -0.0605
10746SOL    HW132779   1.612   1.464   1.507 -0.6160  2.9403  0.4263
10746SOL    HW232780   1.516   1.408   1.610 -0.0477 -0.0883 -0.5737
10747SOL     OW32781   0.537   5.804   0.211 -0.5290 -0.5240 -0.1804
10747SOL    HW132782   0.626   5.799   0.247 -1.3161 -0.5615  1.8483
10747SOL    HW232783   0.494   5.724   0.241 -1.1993 -0.6331 -1.3661
10748SOL     OW32784   1.352   7.253   1.656 -0.4392 -0.0594  0.1733
10748SOL    HW132785   1.355   7.169   1.701 -0.3143  0.1663  0.5931
10748SOL    HW232786   1.262   7.260   1.624 -0.9352  0.3801  1.5730
10749SOL     OW32787   4.698   4.507   0.545  0.0832  0.1766 -0.2088
10749SOL    HW132788   4.767   4.465   0.597  0.1259 -0.5708 -0.8592
10749SOL    HW232789   4.633   4.534   0.610 -0.0103 -1.0247  0.2235
10750SOL     OW32790   7.194   0.298   0.993  0.2169 -0.3342  0.4300
10750SOL    HW132791   7.243   0.358   0.938  0.7108  0.2991  1.5418
10750SOL    HW232792   7.240   0.214   0.984  0.3900 -0.1963  0.0113
10751SOL     OW32793   5.560   0.987   7.428 -0.2534  0.2486 -0.2540
10751SOL    HW132794   5.528   0.910   7.382 -0.1616  0.7360 -1.1484
10751SOL    HW232795   5.494   1.004   7.495 -0.4040 -0.4505 -0.2223
10752SOL     OW32796   4.457   3.930   2.203  0.9009  0.2391  0.3286
10752SOL    HW132797   4.394   3.862   2.226  0.9516 -0.1427 -0.6292
10752SOL    HW232798   4.468   3.922   2.109  0.5882  1.8512  0.1242
10753SOL     OW32799   0.844   0.217   2.140 -0.1899 -0.4398  0.3265
10753SOL    HW132800   0.934   0.184   2.138 -0.1422 -0.2629 -0.7546
10753SOL    HW232801   0.791   0.144   2.107 -0.2179  0.1056 -0.8880
10754SOL     OW32802   1.220   3.578   1.199  0.0406 -0.0673  0.3347
10754SOL    HW132803   1.160   3.506   1.184  0.0148 -0.0532  0.3705
10754SOL    HW232804   1.274   3.551   1.273  0.8847 -0.5937 -0.4564
10755SOL     OW32805   7.128   1.977   6.196 -0.4913  0.1044 -0.4695
10755SOL    HW132806   7.076   1.898   6.185  1.0908 -0.9481 -0.7048
10755SOL    HW232807   7.171   1.967   6.281 -1.0707  1.2183 -0.0185
10756SOL     OW32808   7.176   1.916   5.636 -0.1104 -0.0635 -0.0201
10756SOL    HW132809   7.088   1.909   5.598  0.2790 -1.2196 -0.7502
10756SOL    HW232810   7.214   1.994   5.596 -1.2831  1.2937  1.3652
10757SOL     OW32811   5.630   1.701   4.106 -0.1714  0.4334 -0.0195
10757SOL    HW132812   5.609   1.681   4.015  0.6262 -0.0403 -0.1156
10757SOL    HW232813   5.546   1.703   4.151 -0.6326  1.5127 -0.9227
10758SOL     OW32814   4.313   3.028   5.188  0.1836  0.0974 -0.7760
10758SOL    HW132815   4.242   3.091   5.171 -0.0622  0.2443  0.6448
10758SOL    HW232816   4.276   2.943   5.163 -0.3910  0.2130 -0.3470
10759SOL     OW32817   4.580   4.553   3.019 -0.6596  0.1101 -0.4025
10759SOL    HW132818   4.664   4.551   2.972  0.2638  0.7140  1.1563
10759SOL    HW232819   4.520   4.596   2.958  0.1538 -0.3292 -1.5489
10760SOL     OW32820   3.248   4.127   3.750  0.1707 -0.1552 -0.3194
10760SOL    HW132821   3.239   4.069   3.825 -1.3322  0.5187  0.0660
10760SOL    HW232822   3.165   4.117   3.702  1.5075 -1.4336 -2.5712
10761SOL     OW32823   7.060   1.812   0.801  0.1692  0.0660 -0.4184
10761SOL    HW132824   7.088   1.756   0.874  0.3310 -1.0075 -1.2701
10761SOL    HW232825   7.109   1.778   0.726  0.3607  1.4534 -0.9437
10762SOL     OW32826   5.372   5.033   6.623  0.2637 -0.0105  0.0984
10762SOL    HW132827   5.278   5.049   6.624 -0.1091 -1.9075 -0.2062
10762SOL    HW232828   5.402   5.059   6.711 -0.7438 -0.3648  0.5595
10763SOL     OW32829   0.037   7.149   6.801 -0.3982 -0.0584  0.0019
10763SOL    HW132830   0.109   7.205   6.776 -0.7967 -0.1608 -1.4694
10763SOL    HW232831  -0.032   7.167   6.737 -1.0519 -1.1940  0.3399
10764SOL     OW32832   0.034   1.264   5.774  0.3122 -0.4154  0.0549
10764SOL    HW132833   0.100   1.215   5.824  0.4338  0.9591  1.2762
10764SOL    HW232834   0.082   1.338   5.737 -0.0359 -0.7621 -1.1329
10765SOL     OW32835   3.343   2.953   3.090  0.7572 -0.3252  0.3236
10765SOL    HW132836   3.405   2.886   3.120  0.3774 -0.7069  0.2712
10765SOL    HW232837   3.292   2.975   3.168  1.0059  0.0352  0.3814
10766SOL     OW32838   4.915   2.370   2.665 -0.1969  0.0081  0.1113
10766SOL    HW132839   4.919   2.465   2.657  0.9499 -0.1080 -0.9764
10766SOL    HW232840   4.865   2.341   2.589  1.1683 -0.3668 -0.6867
10767SOL     OW32841   5.660   0.783   6.200  0.2725 -0.1047  0.1273
10767SOL    HW132842   5.690   0.832   6.124  2.2453 -1.7280 -0.2622
10767SOL    HW232843   5.610   0.710   6.163 -0.2755  0.0776  0.5041
10768SOL     OW32844   1.137   0.217   4.219  0.3578  0.1231  0.1097
10768SOL    HW132845   1.118   0.301   4.178  0.8771  0.9584  1.5150
10768SOL    HW232846   1.125   0.153   4.149  0.6380  1.4272 -1.1778
10769SOL     OW32847   6.154   7.094   6.422 -0.0927  0.2050 -0.0552
10769SOL    HW132848   6.144   7.107   6.328  1.9082  1.0591 -0.2052
10769SOL    HW232849   6.237   7.137   6.443  0.3706 -1.4615  1.7969
10770SOL     OW32850   4.294   2.492   2.866 -0.0129  0.6017 -0.0161
10770SOL    HW132851   4.382   2.530   2.874  0.2004  0.7368 -2.4321
10770SOL    HW232852   4.238   2.554   2.912  0.9036  1.5354 -0.1100
10771SOL     OW32853   3.030   3.300   6.406 -0.1991  0.2036  0.9560
10771SOL    HW132854   3.117   3.272   6.376  0.6642  1.8104  1.7854
10771SOL    HW232855   3.002   3.230   6.465 -0.0005 -0.8916 -0.2061
10772SOL     OW32856   4.697   5.086   1.318 -0.0564 -0.2216  0.3596
10772SOL    HW132857   4.629   5.111   1.380  0.9100  1.3682  0.8299
10772SOL    HW232858   4.728   5.001   1.348  0.6450  0.6745  2.3145
10773SOL     OW32859   1.229   0.607   3.812 -0.2204 -0.0726  0.6319
10773SOL    HW132860   1.136   0.627   3.827 -0.0260 -0.0202  1.8941
10773SOL    HW232861   1.237   0.599   3.717 -2.0106 -2.4036  0.5886
10774SOL     OW32862   5.583   5.035   4.979  0.0289  0.6362 -0.3783
10774SOL    HW132863   5.657   5.091   4.953  1.5667 -0.8601  0.5866
10774SOL    HW232864   5.585   4.963   4.916  0.0966  0.0286  0.3073
10775SOL     OW32865   2.549   6.811   5.566 -0.3854  0.2737 -0.3568
10775SOL    HW132866   2.553   6.792   5.473 -3.3305 -0.6193 -0.4138
10775SOL    HW232867   2.539   6.907   5.570  2.4996  0.6662 -0.7246
10776SOL     OW32868   7.067   5.114   4.127  0.0406  0.3720  0.0954
10776SOL    HW132869   7.054   5.201   4.164  0.6139  1.4902 -2.1263
10776SOL    HW232870   7.159   5.094   4.144  0.2585  0.8096 -0.5133
10777SOL     OW32871   0.238   6.736   0.261  0.3006  0.8135  0.2326
10777SOL    HW132872   0.217   6.695   0.345  0.1820 -1.0776 -0.6691
10777SOL    HW232873   0.155   6.739   0.214  0.4993  1.1669 -0.0960
10778SOL     OW32874   2.825   7.375   4.786  0.4784 -0.3370 -0.1845
10778SOL    HW132875   2.816   7.469   4.770  1.2990 -0.1900  0.1660
10778SOL    HW232876   2.903   7.368   4.840  2.0506 -1.4357 -2.4254
10779SOL     OW32877   6.400   4.771   2.930  0.3908  0.3463 -0.3735
10779SOL    HW132878   6.433   4.769   2.840  0.9108 -1.4086 -0.1769
10779SOL    HW232879   6.334   4.840   2.929 -0.6419 -0.5692 -2.4792
10780SOL     OW32880   0.616   1.721   2.622 -0.6254 -0.5724 -0.0761
10780SOL    HW132881   0.539   1.771   2.648 -0.1870 -0.5185  1.1968
10780SOL    HW232882   0.689   1.783   2.631 -0.4982 -0.3563 -2.1005
10781SOL     OW32883   7.419   1.363   3.026 -0.2923  0.3955 -0.0061
10781SOL    HW132884   7.428   1.394   3.116  0.0919 -0.3209  0.2114
10781SOL    HW232885   7.481   1.416   2.976  0.8137 -0.3978  0.4638
10782SOL     OW32886   3.070   2.716   5.540 -0.4457 -0.0087  0.3261
10782SOL    HW132887   2.992   2.766   5.520  0.4108  0.9106 -0.9333
10782SOL    HW232888   3.039   2.626   5.553 -1.7362  0.4209  0.3128
10783SOL     OW32889   5.019   6.632   0.074  0.0823  0.0738  0.2788
10783SOL    HW132890   5.026   6.694   0.146 -0.5527  1.1256 -0.5330
10783SOL    HW232891   5.034   6.546   0.114 -0.9315  0.5655  1.7723
10784SOL     OW32892   6.566   2.837   2.113 -0.4690  0.5601 -0.3951
10784SOL    HW132893   6.615   2.853   2.032 -0.3682 -2.5808 -1.0811
10784SOL    HW232894   6.483   2.798   2.083 -0.9309  0.4538  0.9722
10785SOL     OW32895   3.642   7.226   4.649  0.4540 -0.2631 -0.0452
10785SOL    HW132896   3.723   7.273   4.632  0.5447  0.7426  2.6371
10785SOL    HW232897   3.586   7.290   4.693 -1.5152 -1.1664 -1.1390
10786SOL     OW32898   2.214   7.480   7.104 -0.1431  0.2815 -0.2317
10786SOL    HW132899   2.252   7.440   7.182 -0.8149  0.0762  0.0004
10786SOL    HW232900   2.285   7.532   7.066  0.3762 -0.1363  0.1542
10787SOL     OW32901   1.065   4.807   4.298 -0.1838  0.2004  0.7522
10787SOL    HW132902   1.014   4.761   4.364  0.8453 -0.3879  1.1571
10787SOL    HW232903   1.006   4.876   4.266 -1.5666 -1.0182  0.5316
10788SOL     OW32904   1.124   6.068   6.342 -0.6662  0.2540 -0.5869
10788SOL    HW132905   1.048   6.068   6.284  0.2851  2.0242 -1.9240
10788SOL    HW232906   1.136   6.160   6.366  0.4448 -0.1291  0.4141
10789SOL     OW32907   0.227   5.530   6.659 -0.4400  0.4376 -0.1646
10789SOL    HW132908   0.223   5.477   6.738 -0.1889  2.6577  1.4234
10789SOL    HW232909   0.229   5.620   6.690  2.2212  1.3950 -2.5719
10790SOL     OW32910   7.137   5.651   0.167  0.3731  0.4320  0.6254
10790SOL    HW132911   7.149   5.559   0.147 -0.8026  0.2083  0.8801
10790SOL    HW232912   7.085   5.652   0.248 -1.9646  1.2612 -0.7775
10791SOL     OW32913   5.832   3.384   1.975 -0.3225  0.4373  0.6322
10791SOL    HW132914   5.908   3.370   1.918 -0.8673  0.2116 -0.0602
10791SOL    HW232915   5.787   3.459   1.936 -2.4128 -1.5823 -1.1803
10792SOL     OW32916   2.264   3.211   5.654 -0.0531  0.2247 -0.2042
10792SOL    HW132917   2.220   3.227   5.571 -0.6186  0.2195  0.0843
10792SOL    HW232918   2.228   3.278   5.713 -0.0450 -0.0945  0.1688
10793SOL     OW32919   1.494   5.377   3.051 -0.4276  0.4180 -0.3673
10793SOL    HW132920   1.428   5.385   3.120  1.2794  0.9332  1.2817
10793SOL    HW232921   1.569   5.428   3.083  0.8199 -0.1975 -2.1378
10794SOL     OW32922   3.494   2.542   2.780  0.0374 -0.6133  0.4978
10794SOL    HW132923   3.578   2.507   2.810  1.0213  1.6396  0.5407
10794SOL    HW232924   3.442   2.550   2.859  0.7917  0.5305  0.9006
10795SOL     OW32925   1.916   4.078   3.511 -0.2310  0.1779  0.3669
10795SOL    HW132926   2.001   4.033   3.506  0.5659  1.7352 -1.4510
10795SOL    HW232927   1.859   4.028   3.453 -0.5519 -0.8212  1.5220
10796SOL     OW32928   0.656   0.336   3.345  0.2340  0.0734 -0.2837
10796SOL    HW132929   0.615   0.272   3.287 -0.8487  1.6968 -1.3732
10796SOL    HW232930   0.731   0.369   3.296 -0.3185  0.9956 -0.5261
10797SOL     OW32931   6.028   7.325   3.897 -0.4776 -0.4807  0.2166
10797SOL    HW132932   6.010   7.241   3.938  0.4168 -0.5326  0.5239
10797SOL    HW232933   6.123   7.331   3.896 -0.5021  1.5292  2.2713
10798SOL     OW32934   0.023   3.357   5.827 -1.0746 -0.2144  0.2739
10798SOL    HW132935  -0.056   3.377   5.877 -0.8750  0.6327  0.2823
10798SOL    HW232936   0.094   3.364   5.891 -0.9905 -1.0075  0.2755
10799SOL     OW32937   5.313   2.389   4.288 -0.2390  0.1392  0.3876
10799SOL    HW132938   5.299   2.446   4.363 -0.6967 -0.6111  0.8840
10799SOL    HW232939   5.398   2.416   4.252 -1.6957  3.1073 -1.1702
10800SOL     OW32940   2.899   2.019   4.769 -0.2055  0.3756  0.1358
10800SOL    HW132941   2.806   2.040   4.756 -0.3532  0.0361  0.6054
10800SOL    HW232942   2.927   2.076   4.841 -0.0112  0.5771 -0.0973
10801SOL     OW32943   1.361   5.415   4.304 -0.1439  0.0219 -0.4015
10801SOL    HW132944   1.436   5.356   4.297 -1.8793 -2.4892  0.5012
10801SOL    HW232945   1.394   5.499   4.274  3.4795 -0.4920  1.4867
10802SOL     OW32946   6.210   1.519   2.479 -0.3027  0.0120 -0.2712
10802SOL    HW132947   6.125   1.475   2.483  0.7048 -2.1762 -1.3432
10802SOL    HW232948   6.221   1.542   2.387  0.0652  0.7222 -0.0567
10803SOL     OW32949   1.758   6.385   6.383  0.0450  0.3209 -0.2375
10803SOL    HW132950   1.851   6.378   6.363 -0.0241  0.0813 -0.4795
10803SOL    HW232951   1.755   6.409   6.476  0.3638  1.5531 -0.5336
10804SOL     OW32952   7.134   4.735   6.934  0.1009  0.0886  0.4863
10804SOL    HW132953   7.057   4.699   6.978  0.8159 -0.5627  1.2323
10804SOL    HW232954   7.100   4.771   6.852 -0.9086 -0.6718  0.5518
10805SOL     OW32955   2.597   3.647   3.621  0.1755  0.7874 -0.4319
10805SOL    HW132956   2.531   3.611   3.561  0.8782  0.6013 -1.1102
10805SOL    HW232957   2.551   3.718   3.666 -0.5681  0.4966 -0.6976
10806SOL     OW32958   6.453   0.864   6.524  0.4994  0.6800 -1.3494
10806SOL    HW132959   6.462   0.834   6.614 -2.9636  1.7925 -0.5039
10806SOL    HW232960   6.540   0.899   6.502  1.1944  1.3074  1.8745
10807SOL     OW32961   2.776   0.246   4.643  0.3162 -0.3051 -0.0138
10807SOL    HW132962   2.757   0.310   4.575 -2.1908  0.7236  1.5247
10807SOL    HW232963   2.804   0.299   4.718  2.3418 -1.3643  0.0654
10808SOL     OW32964   6.762   0.402   0.863  0.9828 -0.2594  0.0688
10808SOL    HW132965   6.833   0.448   0.909  0.4445 -1.2826  2.0325
10808SOL    HW232966   6.749   0.321   0.913 -1.2076 -0.3582 -0.5558
10809SOL     OW32967   7.085   1.267   1.761 -0.6270  0.3551 -0.6524
10809SOL    HW132968   7.031   1.324   1.815 -2.0555 -0.6814 -0.9014
10809SOL    HW232969   7.025   1.236   1.692  0.8777  0.8731 -2.2736
10810SOL     OW32970   7.247   5.258   5.075 -0.0229 -0.1921 -0.7881
10810SOL    HW132971   7.192   5.181   5.058  2.3942 -1.5494 -3.1132
10810SOL    HW232972   7.323   5.246   5.018  1.0014  3.3892 -0.3837
10811SOL     OW32973   3.958   3.607   6.386 -0.6747 -0.2970  0.0942
10811SOL    HW132974   3.973   3.514   6.400  0.7360  0.0889  1.4748
10811SOL    HW232975   4.039   3.640   6.348 -0.0639  0.7991  2.1416
10812SOL     OW32976   7.007   6.888   0.794 -0.2713  0.3721 -0.3679
10812SOL    HW132977   7.061   6.963   0.818  0.3073 -0.2482  0.3257
10812SOL    HW232978   6.956   6.868   0.872  0.8903 -1.0422  0.0776
10813SOL     OW32979   1.243   6.328   5.740  0.2817 -0.1641 -0.2547
10813SOL    HW132980   1.154   6.328   5.775  0.0574  0.5803 -0.7995
10813SOL    HW232981   1.281   6.410   5.769  0.9139 -0.6274  0.2511
10814SOL     OW32982   0.639   2.267   4.558  0.0276 -0.2561 -0.3791
10814SOL    HW132983   0.733   2.278   4.576  0.1562 -2.8918  0.9752
10814SOL    HW232984   0.598   2.267   4.644 -1.2037  0.6086 -0.9507
10815SOL     OW32985   1.808   0.984   4.398 -0.0234  0.3287 -0.4557
10815SOL    HW132986   1.808   1.026   4.484  2.9315  0.7166 -0.5565
10815SOL    HW232987   1.761   1.045   4.341 -1.9253  0.1112  0.7921
10816SOL     OW32988   1.069   3.239   4.480  0.0772 -0.5018 -0.3058
10816SOL    HW132989   1.126   3.170   4.447 -1.1561 -1.3258 -0.7891
10816SOL    HW232990   1.129   3.302   4.520  1.2100 -2.0229  0.5006
10817SOL     OW32991   6.050   3.471   2.335  0.3365 -0.5724 -0.4700
10817SOL    HW132992   6.076   3.399   2.393 -0.9374 -0.8236 -0.1638
10817SOL    HW232993   6.026   3.542   2.394  1.2669  0.0003 -0.7653
10818SOL     OW32994   6.666   0.095   6.937 -0.1264  0.1324 -0.5275
10818SOL    HW132995   6.687   0.143   7.017 -0.0099  0.2176 -0.6085
10818SOL    HW232996   6.570   0.086   6.939 -0.0971 -0.1125 -0.2408
10819SOL     OW32997   5.102   6.935   1.892 -0.4710  0.1845  0.0340
10819SOL    HW132998   5.183   6.977   1.923  0.4370 -2.0393  0.8900
10819SOL    HW232999   5.032   6.993   1.921  0.7305  1.3499  0.6970
10820SOL     OW33000   7.369   1.987   7.426 -0.2352  0.0123  0.1535
10820SOL    HW133001   7.386   1.981   7.520 -0.1527 -2.1356  0.0615
10820SOL    HW233002   7.274   1.998   7.420 -0.4890 -1.6235  0.5228
10821SOL     OW33003   1.261   5.046   2.495  0.1556  0.3711  0.8506
10821SOL    HW133004   1.311   5.072   2.572  0.7495  1.9780 -0.0409
10821SOL    HW233005   1.327   5.023   2.430 -0.2578  1.4002  0.0417
10822SOL     OW33006   4.431   5.588   1.521  0.1318 -0.2506  0.0934
10822SOL    HW133007   4.425   5.494   1.504 -1.2795  0.0517 -1.2770
10822SOL    HW233008   4.485   5.622   1.450 -1.7180  0.3462 -1.0721
10823SOL     OW33009   0.982   2.493   4.433  0.0523  0.1784  0.2383
10823SOL    HW133010   0.985   2.587   4.417 -0.5023  0.0181 -0.9240
10823SOL    HW233011   0.889   2.472   4.439  0.1884 -0.0936  1.9450
10824SOL     OW33012   4.473   5.658   2.228  0.0614  0.3796  0.1326
10824SOL    HW133013   4.450   5.566   2.217  1.1789  0.1882 -0.8019
10824SOL    HW233014   4.400   5.696   2.276 -2.5311 -0.0509 -3.1192
10825SOL     OW33015   5.981   5.964   1.808  0.3021 -0.1407 -0.7393
10825SOL    HW133016   6.044   6.031   1.782  1.2167 -0.7048 -0.0031
10825SOL    HW233017   5.916   5.964   1.737 -0.1826  2.0872 -0.3856
10826SOL     OW33018   3.401   3.396   3.799 -0.1774 -0.3924  0.5478
10826SOL    HW133019   3.467   3.457   3.830  0.9125 -1.1199 -0.2589
10826SOL    HW233020   3.448   3.313   3.789 -1.1436 -0.8560 -0.3279
10827SOL     OW33021   6.724   0.440   2.837 -0.2080 -0.1002 -0.0237
10827SOL    HW133022   6.663   0.375   2.802 -1.9040  0.6471  1.3983
10827SOL    HW233023   6.770   0.393   2.908  0.5986 -0.5212 -0.7931
10828SOL     OW33024   6.322   2.768   3.791 -0.4947  0.0561 -0.0868
10828SOL    HW133025   6.411   2.798   3.772 -0.6791  0.4004 -0.4341
10828SOL    HW233026   6.284   2.751   3.705 -0.2505 -1.6534  0.1242
10829SOL     OW33027   4.472   1.651   1.049  0.6545 -0.3539 -0.3789
10829SOL    HW133028   4.507   1.621   1.133  0.5582  1.5291  0.3963
10829SOL    HW233029   4.529   1.725   1.025 -0.3814  0.2382 -1.0751
10830SOL     OW33030   5.873   0.236   3.714 -0.9941  0.1183  0.3876
10830SOL    HW133031   5.797   0.202   3.761 -0.6850 -0.0304  0.7895
10830SOL    HW233032   5.924   0.283   3.781 -0.8876  0.4786  0.0578
10831SOL     OW33033   2.823   7.150   0.733  0.2962  0.1527 -0.1419
10831SOL    HW133034   2.870   7.145   0.816 -1.4487  1.5139  1.0122
10831SOL    HW233035   2.792   7.060   0.717 -0.7263  0.1697  1.5652
10832SOL     OW33036   3.746   2.012   4.923 -0.1687 -0.6513  0.0066
10832SOL    HW133037   3.677   2.061   4.879  0.3924  0.2837  0.1180
10832SOL    HW233038   3.780   1.953   4.856  1.1671  1.2575 -1.1192
10833SOL     OW33039   4.529   4.939   2.879 -0.5456 -0.3769  0.1780
10833SOL    HW133040   4.468   5.006   2.847  0.1123  0.3581  0.4214
10833SOL    HW233041   4.609   4.955   2.830 -0.6484 -1.5663 -0.3994
10834SOL     OW33042   1.643   6.727   0.253 -0.1035 -0.0839 -0.1090
10834SOL    HW133043   1.605   6.810   0.225 -0.6413 -0.1347  0.4432
10834SOL    HW233044   1.660   6.739   0.347 -0.6637 -0.7633  0.0894
10835SOL     OW33045   0.104   6.453   3.578  0.3115 -0.3846 -1.0158
10835SOL    HW133046   0.078   6.519   3.513 -0.4492  0.7528  0.4016
10835SOL    HW233047   0.026   6.439   3.631  1.3300 -0.1406  0.6160
10836SOL     OW33048   1.111   4.160   5.773  0.7881 -0.1910  0.2620
10836SOL    HW133049   1.072   4.094   5.717 -1.5859 -0.2576  1.8237
10836SOL    HW233050   1.070   4.242   5.745 -0.3440 -0.2122  1.7223
10837SOL     OW33051   0.715   0.101   0.591 -0.0596  0.0909  0.5387
10837SOL    HW133052   0.729   0.018   0.637 -1.3796  0.0968  0.9746
10837SOL    HW233053   0.625   0.095   0.558  0.2777  0.8089 -0.5601
10838SOL     OW33054   7.181   5.070   0.005 -0.3595  0.1314  0.0143
10838SOL    HW133055   7.194   5.064  -0.089 -1.1066  0.0452 -0.0891
10838SOL    HW233056   7.101   5.122   0.015 -0.9382 -0.8240  0.5622
10839SOL     OW33057   3.566   2.884   0.860 -0.1968  0.6816  0.1662
10839SOL    HW133058   3.606   2.831   0.792 -1.3014 -0.9978  0.7576
10839SOL    HW233059   3.609   2.858   0.941 -2.5443 -1.4337  0.8737
10840SOL     OW33060   0.002   5.110   3.607 -0.3221 -0.2910  0.2134
10840SOL    HW133061  -0.029   5.026   3.641 -0.8738  0.3998  1.4671
10840SOL    HW233062   0.067   5.140   3.670 -0.2762  0.3171 -0.1117
10841SOL     OW33063   4.559   7.081   3.562  0.3659 -0.1438  0.2508
10841SOL    HW133064   4.624   7.019   3.529  0.6422  0.2765  0.0062
10841SOL    HW233065   4.500   7.094   3.487  0.0156 -0.4927  0.4586
10842SOL     OW33066   1.748   3.034   4.464 -0.3276 -0.0178  0.4461
10842SOL    HW133067   1.678   2.973   4.441 -0.5886  0.0407  1.0820
10842SOL    HW233068   1.810   3.027   4.392 -0.4964 -0.8236  0.3773
10843SOL     OW33069   7.087   1.669   6.199  0.3168 -0.0678  0.2392
10843SOL    HW133070   7.182   1.680   6.192  0.2942 -0.4123 -0.9286
10843SOL    HW233071   7.072   1.641   6.289  1.4138 -0.7797  0.2213
10844SOL     OW33072   5.858   4.848   6.342 -0.1308  0.0422 -0.2186
10844SOL    HW133073   5.935   4.872   6.393  0.4330 -0.9158 -0.6063
10844SOL    HW233074   5.885   4.858   6.251 -1.2127  2.0121 -0.3921
10845SOL     OW33075   0.637   6.982   6.368  0.0430 -0.9376  0.1411
10845SOL    HW133076   0.662   7.058   6.419  0.8930 -0.4349 -0.9739
10845SOL    HW233077   0.713   6.924   6.372  0.3456 -0.6450 -0.9692
10846SOL     OW33078   5.544   2.532   2.833  0.0453  0.4228 -0.4363
10846SOL    HW133079   5.615   2.564   2.778  0.0230 -0.8077 -1.2311
10846SOL    HW233080   5.466   2.541   2.778  0.0658 -1.0949 -0.7430
10847SOL     OW33081   6.384   7.338   0.077  0.1538 -0.5705  0.0598
10847SOL    HW133082   6.314   7.369   0.134  0.0348 -0.7125 -0.0070
10847SOL    HW233083   6.457   7.319   0.136  0.4121  0.3502  0.0382
10848SOL     OW33084   1.973   5.381   7.017 -0.4091  0.3426 -0.2366
10848SOL    HW133085   2.040   5.408   6.954  0.5874 -0.3402  0.5018
10848SOL    HW233086   1.902   5.444   7.005  0.2105  0.8704 -1.2794
10849SOL     OW33087   0.960   0.707   4.138  0.6051 -0.6355 -0.6248
10849SOL    HW133088   0.947   0.628   4.190  0.2925  0.2661  0.6971
10849SOL    HW233089   0.904   0.773   4.179  0.0852  0.0266 -2.3026
10850SOL     OW33090   3.033   2.752   2.661  0.5004  0.8878 -0.0617
10850SOL    HW133091   3.105   2.750   2.724 -0.0571  2.2732  0.6453
10850SOL    HW233092   2.955   2.731   2.713 -0.0727  2.8074 -0.0979
10851SOL     OW33093   0.913   1.478   5.561 -0.6105 -0.6673  0.4525
10851SOL    HW133094   0.937   1.544   5.625  1.3225  0.0440 -0.9058
10851SOL    HW233095   0.838   1.515   5.515 -1.2606 -0.6628  1.4980
10852SOL     OW33096   3.749   0.467   3.814 -0.7128  0.3206 -0.1435
10852SOL    HW133097   3.767   0.551   3.855  0.9574  0.6902 -1.5236
10852SOL    HW233098   3.775   0.402   3.880 -0.7425  0.8782  0.4228
10853SOL     OW33099   1.576   7.544   4.367  0.4820  0.0390 -0.5551
10853SOL    HW133100   1.559   7.450   4.361  1.3278 -0.5287  3.4973
10853SOL    HW233101   1.526   7.581   4.294 -0.0294 -3.4619 -2.2206
10854SOL     OW33102   3.365   3.407   3.119  0.0130  0.0498  0.5040
10854SOL    HW133103   3.399   3.375   3.203 -0.3911  0.8856  1.0056
10854SOL    HW233104   3.350   3.501   3.134 -2.0074 -0.1655  0.1663
10855SOL     OW33105   2.297   0.124   2.054 -0.5611 -0.2416 -0.0476
10855SOL    HW133106   2.273   0.062   2.123 -0.7254  0.5769  0.6441
10855SOL    HW233107   2.324   0.203   2.101  1.6186 -0.4528 -0.8486
10856SOL     OW33108   3.241   6.093   4.583  0.1163  0.1526  0.0879
10856SOL    HW133109   3.166   6.039   4.608 -1.2710  1.9453 -0.0402
10856SOL    HW233110   3.280   6.120   4.666 -0.1060  0.2084  0.1741
10857SOL     OW33111   2.439   1.480   4.399 -0.3624  0.0700  0.3403
10857SOL    HW133112   2.377   1.428   4.348  0.0570 -1.2536  1.1174
10857SOL    HW233113   2.385   1.520   4.468 -0.5753  0.1181  0.1489
10858SOL     OW33114   1.079   4.396   4.833 -0.1811  0.0639  0.2274
10858SOL    HW133115   1.095   4.463   4.767  0.6995  0.1575  0.5147
10858SOL    HW233116   1.095   4.440   4.916 -2.7163  0.3708  0.6451
10859SOL     OW33117   6.144   1.564   4.370  0.0874  0.3282 -0.6308
10859SOL    HW133118   6.109   1.646   4.336 -1.3301  0.1190  0.1902
10859SOL    HW233119   6.233   1.584   4.397  0.7194  0.8658 -2.9735
10860SOL     OW33120   0.730   2.541   2.323 -0.0400 -0.1430  0.7720
10860SOL    HW133121   0.746   2.580   2.409 -0.2622 -0.3079  0.8866
10860SOL    HW233122   0.718   2.617   2.265 -1.3387 -0.0427  1.1591
10861SOL     OW33123   0.758   6.060   5.391 -0.1305 -0.4971  0.0718
10861SOL    HW133124   0.725   5.971   5.407  0.2479 -0.6721 -0.0924
10861SOL    HW233125   0.685   6.106   5.351 -0.9025 -0.2285  1.7210
10862SOL     OW33126   0.618   1.569   3.866 -0.1562  0.2523 -0.3381
10862SOL    HW133127   0.574   1.600   3.786  0.4428 -0.7499 -1.0847
10862SOL    HW233128   0.652   1.483   3.842 -0.2981 -0.2393  1.1346
10863SOL     OW33129   3.769   7.001   0.309  0.2670 -0.3638  0.3450
10863SOL    HW133130   3.695   6.945   0.333 -0.9069  1.1211  0.3294
10863SOL    HW233131   3.761   7.011   0.214 -0.6153  1.2262  0.5474
10864SOL     OW33132   3.300   3.819   2.869 -0.4814 -0.8011  0.3334
10864SOL    HW133133   3.261   3.780   2.948  0.8207 -1.5778  0.6182
10864SOL    HW233134   3.364   3.882   2.903 -1.5421  0.5711 -0.1282
10865SOL     OW33135   2.944   2.076   3.299  0.2674  0.4213  0.0127
10865SOL    HW133136   2.916   2.077   3.390  0.8719 -1.2784  0.2484
10865SOL    HW233137   2.911   1.994   3.264  0.4709  0.8177 -1.1697
10866SOL     OW33138   5.892   0.085   4.478 -0.1008  0.3032 -0.4807
10866SOL    HW133139   5.798   0.076   4.492 -0.1726  2.2315  0.6172
10866SOL    HW233140   5.903   0.076   4.383 -1.3953  0.1206 -0.6322
10867SOL     OW33141   4.551   4.502   3.751  0.1782 -0.5631 -0.2685
10867SOL    HW133142   4.579   4.588   3.721 -2.1544  0.7306  0.9688
10867SOL    HW233143   4.577   4.498   3.843  0.5906 -1.3542 -0.4089
10868SOL     OW33144   0.973   3.962   5.963  0.0173  0.3889 -0.5715
10868SOL    HW133145   0.911   3.946   5.893 -1.6135  1.1481  0.6412
10868SOL    HW233146   1.053   3.917   5.935 -1.6207 -2.2675 -1.3252
10869SOL     OW33147   4.587   6.863   4.257 -0.4461 -0.2234 -0.6228
10869SOL    HW133148   4.605   6.769   4.269  0.4465  0.1446  1.1365
10869SOL    HW233149   4.670   6.900   4.227 -0.7277  0.0707 -1.0598
10870SOL     OW33150   4.599   3.032   4.830  0.6759  0.3320  0.5308
10870SOL    HW133151   4.680   3.005   4.786 -0.1848  2.1738 -2.5346
10870SOL    HW233152   4.546   2.953   4.834  1.5309 -0.2937 -0.0613
10871SOL     OW33153   4.598   4.669   1.535 -0.0702 -0.5286 -0.2300
10871SOL    HW133154   4.592   4.617   1.455  0.0638 -2.0122  0.6826
10871SOL    HW233155   4.569   4.610   1.604  0.6977  0.4139  0.9425
10872SOL     OW33156   4.084   5.700   7.307  0.8040  0.1379 -0.6424
10872SOL    HW133157   4.134   5.620   7.290  0.8115 -0.6941  2.6073
10872SOL    HW233158   3.993   5.671   7.309  0.7464  0.3471 -0.1735
10873SOL     OW33159   2.883   2.377   4.165  0.3713  0.0445  0.4704
10873SOL    HW133160   2.801   2.417   4.193  0.6413 -0.0658  1.4666
10873SOL    HW233161   2.876   2.286   4.192 -0.2261 -0.6359 -1.7567
10874SOL     OW33162   5.400   2.231   3.785 -0.9794  0.0345  0.2697
10874SOL    HW133163   5.325   2.206   3.840  0.8337 -3.5739  1.3836
10874SOL    HW233164   5.464   2.265   3.847 -0.0862 -1.1318  0.0171
10875SOL     OW33165   3.659   7.029   5.726  0.3005 -0.5111  0.3987
10875SOL    HW133166   3.619   6.969   5.789 -0.6126 -0.7303 -0.3684
10875SOL    HW233167   3.591   7.045   5.661  0.2042  2.0219  1.0125
10876SOL     OW33168   1.856   0.154   3.399  0.1189 -0.4725 -0.2294
10876SOL    HW133169   1.773   0.142   3.352  0.8909 -1.4558 -1.3859
10876SOL    HW233170   1.888   0.239   3.369 -0.1191 -0.4182 -0.3358
10877SOL     OW33171   5.195   2.513   3.837 -0.3626 -0.1040  0.1345
10877SOL    HW133172   5.187   2.428   3.879 -0.2344  0.2929  0.9967
10877SOL    HW233173   5.234   2.495   3.752  0.3950 -0.8232  0.6171
10878SOL     OW33174   7.380   3.383   6.584 -0.5173 -0.4420  0.0807
10878SOL    HW133175   7.311   3.322   6.559 -0.5999 -1.1327  1.8729
10878SOL    HW233176   7.455   3.328   6.605 -0.4247  0.0827  1.2053
10879SOL     OW33177   1.801   4.331   4.963  0.0053 -0.2902 -0.2363
10879SOL    HW133178   1.746   4.395   5.008  1.3397  1.7132 -1.2746
10879SOL    HW233179   1.844   4.283   5.034 -0.6858  0.2768  0.5962
10880SOL     OW33180   0.784   5.848   6.550  0.0211  0.1005 -0.5175
10880SOL    HW133181   0.702   5.843   6.502 -1.6835 -2.5280  2.2786
10880SOL    HW233182   0.774   5.923   6.608 -0.6321 -0.4089  0.0545
10881SOL     OW33183   4.280   2.454   6.615 -0.1233  0.7116  0.0098
10881SOL    HW133184   4.361   2.404   6.623 -0.6957 -0.8779 -2.5945
10881SOL    HW233185   4.226   2.423   6.688  0.7364 -0.0614  0.3435
10882SOL     OW33186   5.678   1.979   4.124  0.3142 -0.0869  0.0309
10882SOL    HW133187   5.696   1.886   4.137 -1.2223 -0.5806 -1.1751
10882SOL    HW233188   5.650   1.987   4.033 -0.6985  1.3671  0.4141
10883SOL     OW33189   5.623   6.840   5.818 -0.1141  0.4081 -0.0890
10883SOL    HW133190   5.641   6.853   5.911  1.0529 -0.2686 -0.1913
10883SOL    HW233191   5.663   6.916   5.776 -0.3534  0.5476 -0.0658
10884SOL     OW33192   6.923   5.299   3.287 -0.1879 -0.7656  0.5139
10884SOL    HW133193   6.891   5.338   3.206 -0.2350  2.6299  2.0034
10884SOL    HW233194   7.011   5.335   3.298 -0.0992 -1.3199  1.8525
10885SOL     OW33195   2.979   2.006   4.071 -0.3175  0.2133  0.3540
10885SOL    HW133196   2.919   1.933   4.087  0.7004 -1.3304 -2.1819
10885SOL    HW233197   3.007   2.035   4.158 -3.7223  0.2172  1.5832
10886SOL     OW33198   4.673   3.509   3.487 -0.0301 -0.4103 -0.3827
10886SOL    HW133199   4.729   3.501   3.564 -0.3687  1.5358  0.1256
10886SOL    HW233200   4.629   3.593   3.498  0.7670  0.5182 -3.2399
10887SOL     OW33201   1.793   4.822   0.657  0.1409  0.0148  0.1451
10887SOL    HW133202   1.798   4.727   0.651  0.7521  0.1441 -1.9562
10887SOL    HW233203   1.702   4.843   0.635 -0.4618 -0.1241  2.2462
10888SOL     OW33204   0.250   7.172   5.611  0.2109 -0.7043  0.2028
10888SOL    HW133205   0.203   7.148   5.531 -1.2651  1.6470  0.2749
10888SOL    HW233206   0.185   7.217   5.664  2.0744  0.9646  1.1857
10889SOL     OW33207   0.098   6.978   7.575  0.2765  0.1954 -0.0645
10889SOL    HW133208   0.133   6.962   7.488  0.5278 -0.3453  0.1311
10889SOL    HW233209   0.051   7.061   7.567 -2.6217 -1.4116 -1.5919
10890SOL     OW33210   7.597   0.377   3.595  0.0417  0.5707 -0.6381
10890SOL    HW133211   7.616   0.461   3.637 -0.6968  0.8444 -0.8218
10890SOL    HW233212   7.682   0.341   3.572  0.4172  0.8094  0.3325
10891SOL     OW33213   2.988   5.384   2.242 -0.3673 -0.3717 -0.3455
10891SOL    HW133214   3.063   5.388   2.184  0.1247  1.4631  0.3402
10891SOL    HW233215   2.995   5.463   2.297 -2.5953 -0.2947 -0.0441
10892SOL     OW33216   2.541   4.156   1.745 -0.1090  0.3660  0.3351
10892SOL    HW133217   2.592   4.129   1.821  0.5620  1.2491  0.2150
10892SOL    HW233218   2.606   4.171   1.676 -0.8342 -2.9850 -1.2934
10893SOL     OW33219   3.655   7.593   5.777  0.1386  0.7094 -0.2654
10893SOL    HW133220   3.598   7.555   5.709  1.9804 -0.9031 -1.0178
10893SOL    HW233221   3.728   7.631   5.728  1.6482 -0.7432  0.7613
10894SOL     OW33222   1.996   2.020   3.041 -0.3318 -0.0819 -0.5384
10894SOL    HW133223   1.903   2.030   3.062 -0.0493 -0.6087  1.0978
10894SOL    HW233224   2.011   2.083   2.970 -1.6337  0.9769  0.0831
10895SOL     OW33225   7.542   2.283   2.530 -0.3264  0.1475  0.2648
10895SOL    HW133226   7.615   2.240   2.575 -1.1813 -0.1807  1.3986
10895SOL    HW233227   7.570   2.289   2.439  0.5352 -1.2578  0.3968
10896SOL     OW33228   6.938   0.154   4.480 -0.0410  0.0811  0.0468
10896SOL    HW133229   6.858   0.180   4.525  0.2554 -0.2133  0.7772
10896SOL    HW233230   6.998   0.228   4.492 -0.5027  0.6927 -1.3098
10897SOL     OW33231   3.618   7.027   1.731  0.2627 -0.2820  0.5481
10897SOL    HW133232   3.627   7.121   1.720  1.3194 -0.2616  1.4245
10897SOL    HW233233   3.542   7.017   1.789  0.7526  0.0818  1.2557
10898SOL     OW33234   4.841   2.915   4.279 -0.0585  0.0065 -0.0711
10898SOL    HW133235   4.931   2.901   4.249  0.6179  1.7158  0.9754
10898SOL    HW233236   4.836   2.867   4.362  0.1050  0.4258  0.1848
10899SOL     OW33237   3.737   0.904   2.376  0.3698  0.1664  0.0150
10899SOL    HW133238   3.821   0.937   2.342 -0.4470  0.1454 -2.2333
10899SOL    HW233239   3.712   0.966   2.444  0.9877  1.6989 -1.0818
10900SOL     OW33240   6.846   6.379   2.762 -0.2281  0.4951  0.4557
10900SOL    HW133241   6.891   6.314   2.708  0.5265 -0.5001  2.1826
10900SOL    HW233242   6.794   6.431   2.700  0.3864 -0.7418 -1.1587
10901SOL     OW33243   0.103   0.661   6.388  0.1113 -0.0805 -0.8110
10901SOL    HW133244   0.088   0.683   6.296 -0.1266  2.2809 -0.2600
10901SOL    HW233245   0.015   0.654   6.425  0.1379 -2.8155 -1.0693
10902SOL     OW33246   6.772   5.047   4.099  0.2172  0.2611 -0.1855
10902SOL    HW133247   6.852   5.060   4.047  0.9654 -0.6662  0.6987
10902SOL    HW233248   6.733   5.135   4.105  0.9383  0.6503 -0.9823
10903SOL     OW33249   3.854   3.594   1.858  0.3548  0.5009  0.5599
10903SOL    HW133250   3.787   3.643   1.906  0.4389  0.7381  0.4406
10903SOL    HW233251   3.854   3.507   1.898 -1.7373 -0.2976 -1.0181
10904SOL     OW33252   3.731   3.500   1.132  0.6608  0.3510 -0.1825
10904SOL    HW133253   3.653   3.532   1.178  0.5838  0.5530 -0.4508
10904SOL    HW233254   3.698   3.430   1.075  0.8411 -0.2771  0.4627
10905SOL     OW33255   5.010   2.727   3.784 -0.4106  0.2133 -0.3619
10905SOL    HW133256   5.102   2.698   3.788 -0.4945 -0.0046  2.8443
10905SOL    HW233257   4.983   2.730   3.876 -3.4027  1.0544 -1.1876
10906SOL     OW33258   1.769   4.011   2.506 -0.1249 -0.1968  0.3787
10906SOL    HW133259   1.699   3.989   2.567  0.1938 -0.3537  0.6952
10906SOL    HW233260   1.843   3.957   2.534 -0.5316 -1.7197 -1.3253
10907SOL     OW33261   6.626   1.457   6.139  0.4905  0.3851  0.4905
10907SOL    HW133262   6.637   1.536   6.192  2.2556 -0.1511  1.0076
10907SOL    HW233263   6.532   1.440   6.140  0.1222  2.2823  0.6314
10908SOL     OW33264   0.904   0.621   0.531  0.0181 -0.1871  0.5124
10908SOL    HW133265   0.852   0.658   0.460 -1.1878 -0.6014  1.1574
10908SOL    HW233266   0.972   0.570   0.486 -0.7474 -0.4759 -0.3522
10909SOL     OW33267   0.890   2.317   6.817 -0.2335 -0.0015  0.2448
10909SOL    HW133268   0.869   2.302   6.909 -0.5596  2.6218  0.6754
10909SOL    HW233269   0.806   2.315   6.772 -0.3874  1.1381  0.4428
10910SOL     OW33270   1.416   0.442   4.580  0.3709  0.0896  0.1374
10910SOL    HW133271   1.420   0.351   4.549  0.4993 -1.0513  3.1860
10910SOL    HW233272   1.496   0.482   4.546  1.2155 -1.4639  0.1984
10911SOL     OW33273   5.456   6.104   4.471  0.2880 -0.0097 -0.4526
10911SOL    HW133274   5.441   6.011   4.490  0.7813  0.1409  0.7278
10911SOL    HW233275   5.375   6.133   4.428 -1.5402 -0.0457  2.6731
10912SOL     OW33276   0.710   3.365   5.331  0.1957 -0.2683  0.0611
10912SOL    HW133277   0.638   3.339   5.274  1.6548 -0.4345 -1.7943
10912SOL    HW233278   0.734   3.286   5.379  1.7236 -1.3786 -2.3177
10913SOL     OW33279   2.675   1.925   6.713  0.2809  0.0801  0.8219
10913SOL    HW133280   2.633   1.983   6.649  0.9534  1.7084  1.7833
10913SOL    HW233281   2.630   1.943   6.795  0.0003 -1.3532  1.0051
10914SOL     OW33282   4.870   7.101   5.326  0.5647 -0.0236 -0.0960
10914SOL    HW133283   4.786   7.064   5.298  0.3195 -1.7574  2.6057
10914SOL    HW233284   4.936   7.042   5.289  0.3861 -0.6938  0.6326
10915SOL     OW33285   2.666   1.616   7.502 -0.5255 -1.0818  0.3552
10915SOL    HW133286   2.595   1.572   7.456 -1.0194 -0.4846  0.5495
10915SOL    HW233287   2.633   1.630   7.591 -1.6678  2.5553 -0.4979
10916SOL     OW33288   2.844   5.828   1.737 -0.1953 -0.0386 -0.2410
10916SOL    HW133289   2.936   5.808   1.718 -0.2544 -0.7088  0.1418
10916SOL    HW233290   2.848   5.904   1.794  0.0671  0.6528 -1.1627
10917SOL     OW33291   3.143   1.742   0.478  0.2220 -0.3761 -0.0467
10917SOL    HW133292   3.085   1.777   0.411 -1.4059  2.6853  2.7020
10917SOL    HW233293   3.219   1.801   0.477 -0.1524  0.1455  1.2331
10918SOL     OW33294   3.865   0.513   7.295 -0.1515  0.2084 -0.5228
10918SOL    HW133295   3.893   0.462   7.371 -3.4742 -0.2608  0.5487
10918SOL    HW233296   3.859   0.603   7.328 -0.9576  0.1109 -0.3833
10919SOL     OW33297   0.726   0.810   5.967  0.4253  0.2422  0.0118
10919SOL    HW133298   0.753   0.881   5.909 -0.9655  0.7663 -0.0479
10919SOL    HW233299   0.729   0.731   5.913  1.9336  0.2306  0.0640
10920SOL     OW33300   1.265   5.822   1.659  0.4077  0.1147 -0.0362
10920SOL    HW133301   1.358   5.813   1.683  0.7536 -3.3611 -2.0994
10920SOL    HW233302   1.267   5.855   1.570 -0.2753 -0.7891 -0.3951
10921SOL     OW33303   1.842   1.504   6.036 -0.0080 -0.1866 -0.7041
10921SOL    HW133304   1.873   1.420   6.071  0.4367  0.5593  0.7862
10921SOL    HW233305   1.747   1.493   6.029 -0.3703  0.1049  2.3480
10922SOL     OW33306   7.541   5.367   6.673 -0.4437  0.1579  0.5644
10922SOL    HW133307   7.452   5.391   6.700 -1.1419  0.8205 -2.0399
10922SOL    HW233308   7.542   5.383   6.579  2.5969  0.5606  0.5964
10923SOL     OW33309   1.276   3.289   7.079 -0.7096 -0.1171 -0.0570
10923SOL    HW133310   1.200   3.256   7.031 -0.0518  1.1086 -2.0594
10923SOL    HW233311   1.315   3.354   7.020  1.0057  0.3987  1.5649
10924SOL     OW33312   7.272   7.200   4.179  0.2220 -0.6621  0.3421
10924SOL    HW133313   7.251   7.285   4.139  0.4226  0.0418  1.6600
10924SOL    HW233314   7.357   7.177   4.140  0.0117 -0.4193 -0.2757
10925SOL     OW33315   0.281   3.676   4.064 -0.0554 -0.2400 -0.0552
10925SOL    HW133316   0.286   3.744   3.996  0.6903  0.0328  0.2641
10925SOL    HW233317   0.227   3.608   4.025 -1.0785  0.6660 -0.2721
10926SOL     OW33318   3.360   6.906   6.777 -0.6117 -0.0092  0.5105
10926SOL    HW133319   3.451   6.899   6.806 -1.3598 -0.4793  2.9653
10926SOL    HW233320   3.358   6.985   6.724  1.4008 -0.5154 -0.4216
10927SOL     OW33321   4.826   2.681   7.173  0.2255  0.6993  0.2364
10927SOL    HW133322   4.821   2.762   7.223  0.1338  0.0696  1.2736
10927SOL    HW233323   4.883   2.702   7.099 -0.1826  1.8298  0.2314
10928SOL     OW33324   6.750   5.741   6.633  0.5065 -0.2372 -0.0936
10928SOL    HW133325   6.665   5.783   6.648  0.9163 -0.2336  2.6539
10928SOL    HW233326   6.801   5.806   6.585 -0.4727  0.4371 -0.2489
10929SOL     OW33327   1.256   4.560   3.160 -0.4708  0.3109  0.1610
10929SOL    HW133328   1.191   4.494   3.137  0.1010 -0.2842  0.2277
10929SOL    HW233329   1.206   4.642   3.164 -1.4798 -0.3265  1.5102
10930SOL     OW33330   3.133   0.221   4.182  0.4007  0.0833  0.3377
10930SOL    HW133331   3.129   0.315   4.202  0.3211  0.2708 -0.5194
10930SOL    HW233332   3.106   0.215   4.091  2.4718 -0.5267 -0.2955
10931SOL     OW33333   1.193   6.951   2.592  0.1528 -0.2972 -0.7355
10931SOL    HW133334   1.116   6.957   2.648 -0.6070 -1.2048 -1.6276
10931SOL    HW233335   1.206   6.857   2.579  0.5704 -0.1179 -1.7103
10932SOL     OW33336   2.963   3.453   2.853 -0.3643  0.3937  0.1610
10932SOL    HW133337   2.999   3.486   2.771 -0.5063  0.5221  0.1511
10932SOL    HW233338   2.872   3.431   2.833  0.1421 -1.5042 -0.2584
10933SOL     OW33339   1.129   6.091   3.792 -0.1459  0.1896 -0.5155
10933SOL    HW133340   1.035   6.077   3.785 -0.6421  2.1261  1.2672
10933SOL    HW233341   1.144   6.177   3.752  0.4841  0.8330  0.9954
10934SOL     OW33342   2.323   3.671   6.366 -0.1843 -0.1160 -0.2467
10934SOL    HW133343   2.261   3.700   6.433 -0.0461 -0.4093  0.0047
10934SOL    HW233344   2.406   3.709   6.393  0.2236 -1.5925  0.6543
10935SOL     OW33345   5.813   2.706   1.260 -0.4120 -0.6209 -0.2270
10935SOL    HW133346   5.889   2.652   1.239 -1.2966 -2.3851  0.8020
10935SOL    HW233347   5.821   2.724   1.354 -0.0647  1.2329 -0.5795
10936SOL     OW33348   0.641   5.486   2.822  0.1379  0.2674 -0.1447
10936SOL    HW133349   0.678   5.568   2.855 -0.3223  0.5897 -0.4172
10936SOL    HW233350   0.568   5.513   2.767  0.5982 -0.2957 -1.0408
10937SOL     OW33351   0.896   2.179   3.978 -0.2764  0.5162 -0.4209
10937SOL    HW133352   0.982   2.214   3.954 -0.3066  0.9386  0.0586
10937SOL    HW233353   0.910   2.134   4.061 -0.3006 -0.3789 -0.8873
10938SOL     OW33354   1.780   7.380   6.161 -0.1066 -0.0061 -0.1056
10938SOL    HW133355   1.809   7.377   6.070 -0.1144  0.4919 -0.1277
10938SOL    HW233356   1.817   7.301   6.200  0.5561  0.1749 -0.3528
10939SOL     OW33357   4.070   3.536   3.912 -0.5763 -0.0767  0.3120
10939SOL    HW133358   4.038   3.452   3.945 -0.6512 -1.4023 -2.7581
10939SOL    HW233359   3.991   3.585   3.890 -0.6055 -0.9405 -1.7146
10940SOL     OW33360   3.899   5.659   3.861  0.5177 -0.3726  0.2998
10940SOL    HW133361   3.832   5.651   3.930  1.5892  0.0918  1.4307
10940SOL    HW233362   3.883   5.745   3.823 -0.8503 -1.1159 -0.9107
10941SOL     OW33363   0.773   2.412   1.339 -0.0815 -0.2679  0.0888
10941SOL    HW133364   0.821   2.332   1.319 -1.3661 -1.3392  1.1718
10941SOL    HW233365   0.695   2.383   1.385 -0.2268  1.6624  1.1753
10942SOL     OW33366   2.789   5.439   4.109  0.5516  0.4659  0.4411
10942SOL    HW133367   2.766   5.389   4.187  0.6435 -1.8477 -0.9066
10942SOL    HW233368   2.765   5.529   4.129  0.8648 -0.0060  3.2149
10943SOL     OW33369   0.286   0.938   5.139 -0.4840  0.0098  0.2279
10943SOL    HW133370   0.324   0.924   5.225 -0.1475 -0.1881  0.0490
10943SOL    HW233371   0.297   0.855   5.093 -0.6231  0.1251 -0.0200
10944SOL     OW33372   1.706   2.846   7.410 -0.0854 -0.2193 -0.2232
10944SOL    HW133373   1.643   2.913   7.436  1.3859  1.1450 -0.0385
10944SOL    HW233374   1.756   2.828   7.490 -0.0968 -1.1539 -0.4128
10945SOL     OW33375   2.258   2.165   1.713  0.1028  0.6204  0.1208
10945SOL    HW133376   2.303   2.081   1.706 -0.6860  0.2664 -0.7529
10945SOL    HW233377   2.241   2.175   1.807  0.3636 -0.0946  0.2476
10946SOL     OW33378   2.913   0.107   6.750 -0.2952 -0.4898 -0.4962
10946SOL    HW133379   2.897   0.061   6.833 -0.8763  0.6465  0.0481
10946SOL    HW233380   3.003   0.138   6.757 -1.1560  1.9580  0.9566
10947SOL     OW33381   6.338   4.357   2.145  0.0044  0.4265  0.3633
10947SOL    HW133382   6.256   4.311   2.162  0.1361  0.0838  0.0893
10947SOL    HW233383   6.313   4.429   2.087 -0.0142 -0.0229 -0.1927
10948SOL     OW33384   0.607   6.686   3.654  0.1379  0.0181  0.1833
10948SOL    HW133385   0.579   6.600   3.622 -0.7346  0.2445  0.2917
10948SOL    HW233386   0.689   6.704   3.608  1.3879 -1.7178  1.5920
10949SOL     OW33387   0.200   1.918   0.875 -0.3232 -0.6591  0.4514
10949SOL    HW133388   0.187   2.007   0.908  0.0328 -0.3962 -0.1040
10949SOL    HW233389   0.291   1.898   0.897 -0.0859 -0.4827 -0.3600
10950SOL     OW33390   5.459   4.120   6.891 -0.2490  0.2838  0.6169
10950SOL    HW133391   5.424   4.209   6.884 -0.8585  0.1233  1.4880
10950SOL    HW233392   5.410   4.070   6.825  0.6320  0.7425 -0.4070
10951SOL     OW33393   1.128   2.400   4.854 -0.5595  0.0138 -0.7401
10951SOL    HW133394   1.172   2.409   4.938 -2.9982 -1.3496  0.8007
10951SOL    HW233395   1.039   2.431   4.870 -1.6492 -2.1200 -2.2254
10952SOL     OW33396   4.020   5.092   0.165 -0.1567  0.2895 -0.1527
10952SOL    HW133397   3.938   5.083   0.115  0.3857  0.0472 -1.0195
10952SOL    HW233398   4.017   5.020   0.228 -1.1836  1.0204  0.6841
10953SOL     OW33399   1.452   7.442   7.039 -0.1546 -0.2310 -0.5771
10953SOL    HW133400   1.499   7.525   7.030 -1.9015  0.8645 -0.2043
10953SOL    HW233401   1.424   7.421   6.950  0.2223 -0.3743 -0.6618
10954SOL     OW33402   1.981   2.285   3.678  0.4941 -0.1406  0.2831
10954SOL    HW133403   2.061   2.243   3.712 -0.0954 -1.5523  0.0106
10954SOL    HW233404   1.974   2.255   3.588 -0.5043 -0.3035  0.3977
10955SOL     OW33405   6.217   6.835   0.083 -0.2071  0.4580  0.7305
10955SOL    HW133406   6.304   6.848   0.047 -0.0477 -1.3851  0.3082
10955SOL    HW233407   6.229   6.769   0.152 -1.2917 -0.1666  0.3628
10956SOL     OW33408   3.148   0.272   6.417  0.6349 -0.1562  0.1101
10956SOL    HW133409   3.060   0.233   6.423  1.0579 -1.0116  0.9212
10956SOL    HW233410   3.160   0.288   6.323  0.1805 -1.3694 -0.1749
10957SOL     OW33411   6.215   5.301   5.818  0.0154  0.4765  0.1173
10957SOL    HW133412   6.197   5.208   5.822 -1.6313  0.7582 -0.1039
10957SOL    HW233413   6.213   5.322   5.724  2.3840  0.4071 -0.0103
10958SOL     OW33414   2.835   5.459   6.390 -0.2763  0.0905 -0.0344
10958SOL    HW133415   2.910   5.444   6.332 -0.4915 -0.5164 -0.1660
10958SOL    HW233416   2.793   5.538   6.354 -0.9146 -0.7768 -1.2679
10959SOL     OW33417   1.739   2.012   3.141 -0.4553  0.8862  0.0697
10959SOL    HW133418   1.663   1.967   3.105 -0.0766 -0.0386  0.3731
10959SOL    HW233419   1.707   2.098   3.168 -1.0704  1.0383 -1.0811
10960SOL     OW33420   5.272   5.504   3.047 -0.2845  0.5116  0.3451
10960SOL    HW133421   5.268   5.594   3.014  0.0500  0.4345  0.0865
10960SOL    HW233422   5.225   5.453   2.981 -0.4503  0.4951  0.4778
10961SOL     OW33423   3.789   5.248   6.821 -0.1745 -0.2977  0.3641
10961SOL    HW133424   3.810   5.236   6.728 -2.7225 -1.1895 -0.1846
10961SOL    HW233425   3.737   5.171   6.844 -0.1815  0.2531  2.3448
10962SOL     OW33426   7.030   3.705   3.750  0.1958  0.3446 -0.3829
10962SOL    HW133427   7.010   3.755   3.829  2.3816  1.2535 -0.3347
10962SOL    HW233428   7.038   3.614   3.781 -0.1922  0.5069  0.2095
10963SOL     OW33429   3.878   4.805   1.087  0.5158  0.7494 -0.0390
10963SOL    HW133430   3.876   4.900   1.097 -0.4045  0.5245  3.4409
10963SOL    HW233431   3.949   4.776   1.145  0.2504 -0.7282 -0.3985
10964SOL     OW33432   7.146   4.274   3.444 -0.7112 -0.4009 -1.0656
10964SOL    HW133433   7.063   4.278   3.492 -1.5015 -4.1268 -1.7975
10964SOL    HW233434   7.125   4.231   3.362  2.0938 -2.8341 -0.6934
10965SOL     OW33435   6.042   2.567   6.094  0.3052 -0.3514  0.1462
10965SOL    HW133436   6.041   2.594   6.003 -0.8607  1.6023  0.6888
10965SOL    HW233437   6.134   2.549   6.114  0.6015 -0.4979 -1.3024
10966SOL     OW33438   5.977   1.193   3.525 -0.5561 -0.3194 -0.0543
10966SOL    HW133439   5.960   1.101   3.506 -1.1214 -0.3936  0.7553
10966SOL    HW233440   6.003   1.230   3.441  0.4361 -1.3780 -0.2314
10967SOL     OW33441   7.545   2.522   1.763 -0.0165  0.3542 -0.0671
10967SOL    HW133442   7.640   2.524   1.755 -0.1234 -0.8921 -2.2691
10967SOL    HW233443   7.524   2.430   1.780 -0.8724  0.4173 -0.7082
10968SOL     OW33444   6.366   3.216   0.505  0.0799 -0.3534  0.3165
10968SOL    HW133445   6.355   3.124   0.530 -1.1964 -0.0135  1.1243
10968SOL    HW233446   6.357   3.217   0.410  1.3523 -1.2161  0.1727
10969SOL     OW33447   2.308   5.357   6.257  0.2694  0.6032  0.5325
10969SOL    HW133448   2.233   5.300   6.241  1.8853 -1.0517 -1.7972
10969SOL    HW233449   2.269   5.441   6.283 -2.3002 -0.6305  0.9259
10970SOL     OW33450   7.013   3.525   6.262 -0.0162  0.6090 -0.3988
10970SOL    HW133451   7.089   3.469   6.246 -0.4742 -0.4319  0.7820
10970SOL    HW233452   6.974   3.538   6.176 -0.1142 -1.2754 -0.6942
10971SOL     OW33453   1.161   0.173   2.693  0.5405 -0.3230 -0.6129
10971SOL    HW133454   1.224   0.171   2.766 -0.5270  0.4659  0.3588
10971SOL    HW233455   1.099   0.104   2.714 -1.0118  1.3025  0.4178
10972SOL     OW33456   5.870   1.038   5.452  0.3255 -0.0099 -0.2134
10972SOL    HW133457   5.873   1.132   5.468 -0.5886  0.4140 -2.2605
10972SOL    HW233458   5.952   1.004   5.488  0.0652  1.3139  1.8154
10973SOL     OW33459   2.360   0.251   1.355  0.0877 -0.4175  0.2065
10973SOL    HW133460   2.303   0.207   1.418 -0.5854 -1.4655 -1.0778
10973SOL    HW233461   2.301   0.301   1.299  0.5396 -0.5497 -0.3975
10974SOL     OW33462   2.823   6.775   5.792  0.0004  0.0651  0.4669
10974SOL    HW133463   2.822   6.812   5.704  1.3301  1.6784  1.0813
10974SOL    HW233464   2.799   6.848   5.849 -0.2936 -0.8071  1.5053
10975SOL     OW33465   0.837   7.246   5.302 -0.1745 -0.1732  0.0261
10975SOL    HW133466   0.837   7.308   5.229 -0.2111  1.7503  1.5810
10975SOL    HW233467   0.763   7.187   5.285 -0.3006  0.3635 -1.3528
10976SOL     OW33468   2.501   5.596   1.610 -0.1296 -0.4682 -0.1290
10976SOL    HW133469   2.529   5.590   1.519  0.7162 -1.8441  0.1997
10976SOL    HW233470   2.485   5.506   1.637 -0.1092 -0.1126  1.1642
10977SOL     OW33471   7.230   2.280   4.533  0.2774  0.1058 -0.3163
10977SOL    HW133472   7.309   2.226   4.531 -0.5292 -1.2103  1.1667
10977SOL    HW233473   7.258   2.362   4.573  0.7197 -0.7256  1.1581
10978SOL     OW33474   7.413   3.311   2.669  0.0488  0.5205 -0.2047
10978SOL    HW133475   7.366   3.352   2.596 -2.1992 -0.2351  0.7305
10978SOL    HW233476   7.387   3.363   2.745  2.5220  1.4274  0.0853
10979SOL     OW33477   6.753   6.858   0.336  0.3303 -0.2234  0.3505
10979SOL    HW133478   6.818   6.894   0.276 -1.3648  0.0590 -1.4346
10979SOL    HW233479   6.738   6.769   0.305 -0.9715  0.1120 -0.0710
10980SOL     OW33480   6.231   6.838   3.552 -0.1525  0.5059 -0.3375
10980SOL    HW133481   6.326   6.826   3.557 -0.2252 -0.1059 -0.3328
10980SOL    HW233482   6.220   6.931   3.533  0.5213  0.1099 -3.0471
10981SOL     OW33483   7.152   5.320   3.563  0.4705  0.0866  0.2698
10981SOL    HW133484   7.165   5.348   3.472  0.0928  1.0837  0.5099
10981SOL    HW233485   7.140   5.402   3.612  0.1876 -0.4628  1.1383
10982SOL     OW33486   7.059   1.806   7.559  0.2013 -0.2591 -0.1957
10982SOL    HW133487   7.016   1.842   7.636  1.6458 -1.3232  1.1568
10982SOL    HW233488   7.101   1.880   7.517  1.1729  0.0290  1.2353
10983SOL     OW33489   1.498   7.101   5.885  0.2474 -0.4620  0.1001
10983SOL    HW133490   1.532   7.170   5.942  0.6021 -0.8190  0.3296
10983SOL    HW233491   1.557   7.100   5.810  0.6554 -0.9609  0.4139
10984SOL     OW33492   1.517   4.213   2.967 -0.5016 -0.0150  0.1996
10984SOL    HW133493   1.446   4.152   2.988 -0.3926 -0.4800 -0.7209
10984SOL    HW233494   1.475   4.299   2.967 -0.3406  0.1604  3.0709
10985SOL     OW33495   1.278   4.300   6.507 -0.1160 -0.1934  0.3903
10985SOL    HW133496   1.219   4.343   6.445  0.2394  1.3724  1.0722
10985SOL    HW233497   1.345   4.367   6.526 -0.2301 -0.6075  2.4671
10986SOL     OW33498   5.807   1.119   2.339 -0.3793  0.0546 -0.0847
10986SOL    HW133499   5.890   1.112   2.292 -0.1507  0.3297  0.2687
10986SOL    HW233500   5.827   1.086   2.427 -1.3757 -2.7160 -0.8001
10987SOL     OW33501   0.924   5.379   3.705  0.5011 -0.2883  0.4031
10987SOL    HW133502   0.876   5.404   3.784 -1.2709 -2.0949  0.0053
10987SOL    HW233503   0.917   5.283   3.702  1.7702 -0.3870 -1.1922
10988SOL     OW33504   7.039   2.021   1.468 -0.2094 -0.0417 -0.5670
10988SOL    HW133505   7.016   1.969   1.391 -1.7836 -1.5699  0.8322
10988SOL    HW233506   6.976   2.094   1.468  0.8163  0.8773 -1.5384
10989SOL     OW33507   6.364   0.904   0.201  0.3951 -0.3734 -0.3322
10989SOL    HW133508   6.402   0.846   0.135  1.0548  0.5818 -0.8149
10989SOL    HW233509   6.415   0.886   0.281  0.1663 -0.9070 -0.2982
10990SOL     OW33510   4.794   3.741   7.393 -0.3217  0.3466  0.2565
10990SOL    HW133511   4.803   3.651   7.425 -0.2303 -0.3074 -1.4852
10990SOL    HW233512   4.878   3.760   7.349 -1.0874  0.4631 -1.2422
10991SOL     OW33513   0.613   6.272   0.419  0.0493 -0.3512  0.3553
10991SOL    HW133514   0.533   6.305   0.459  0.9661  1.8235  0.5936
10991SOL    HW233515   0.684   6.311   0.472  1.2571 -1.5525 -0.3159
10992SOL     OW33516   0.074   3.470   6.767 -0.5129 -0.1257  0.0655
10992SOL    HW133517   0.060   3.384   6.729  2.6057 -0.3929 -0.7812
10992SOL    HW233518   0.075   3.455   6.862 -0.9138 -0.8492 -0.0445
10993SOL     OW33519   1.992   0.452   4.707 -0.3979 -0.4888 -0.2435
10993SOL    HW133520   1.978   0.527   4.649 -0.3557 -0.3420 -0.0679
10993SOL    HW233521   1.905   0.428   4.737 -0.2874  0.6134  1.0857
10994SOL     OW33522   0.309   1.582   0.477 -0.5905  0.3211  0.0655
10994SOL    HW133523   0.225   1.562   0.435  0.1091 -2.3174 -0.2553
10994SOL    HW233524   0.286   1.609   0.566 -1.8095  0.8480 -0.3825
10995SOL     OW33525   6.178   3.609   3.707 -0.7465 -0.0275  0.4621
10995SOL    HW133526   6.111   3.543   3.727  0.3590 -1.4967 -0.5481
10995SOL    HW233527   6.250   3.560   3.668 -0.2336  1.8807 -1.1683
10996SOL     OW33528   1.216   4.204   0.913 -0.0441 -0.0756  0.6273
10996SOL    HW133529   1.289   4.247   0.957 -1.5880  4.1936 -0.5563
10996SOL    HW233530   1.192   4.263   0.841 -0.9970 -4.1022 -2.8138
10997SOL     OW33531   1.615   0.506   1.526  0.0645  0.1300 -0.0510
10997SOL    HW133532   1.543   0.566   1.505  0.0940  0.0874 -0.2692
10997SOL    HW233533   1.615   0.442   1.455  0.6804  0.4600 -0.3553
10998SOL     OW33534   4.729   6.424   4.339 -0.3035  0.6555  0.2786
10998SOL    HW133535   4.823   6.408   4.351 -0.2501 -0.7123 -1.4558
10998SOL    HW233536   4.712   6.397   4.248 -2.5069  0.2434  0.7605
10999SOL     OW33537   5.188   2.393   1.224 -0.1904  0.3628  0.4756
10999SOL    HW133538   5.104   2.420   1.187  0.5694  0.9746 -0.9090
10999SOL    HW233539   5.195   2.442   1.306 -1.6337 -0.5104  1.1522
11000SOL     OW33540   5.734   6.242   1.945  0.2709  0.0506  0.2222
11000SOL    HW133541   5.693   6.164   1.984 -1.4264  0.7334 -0.0858
11000SOL    HW233542   5.702   6.315   1.999 -0.1861  0.7634 -0.9673
11001SOL     OW33543   2.084   2.799   2.879  0.4877  0.3389 -0.0493
11001SOL    HW133544   2.066   2.799   2.785 -0.5639  1.4364  0.1200
11001SOL    HW233545   2.100   2.891   2.900  1.3951  0.0156  0.7301
11002SOL     OW33546   4.840   5.572   0.558 -0.8143 -0.2529 -0.3058
11002SOL    HW133547   4.854   5.485   0.520  0.1427  0.3462 -1.3763
11002SOL    HW233548   4.819   5.555   0.650  3.4824 -1.4667  0.6571
11003SOL     OW33549   1.386   3.439   0.813  0.2048  0.2016 -0.1424
11003SOL    HW133550   1.309   3.384   0.821  1.0869 -1.5852 -2.7144
11003SOL    HW233551   1.356   3.526   0.842 -1.7498 -1.1160  2.1925
11004SOL     OW33552   5.523   1.842   5.273  0.2444 -0.5348  0.4179
11004SOL    HW133553   5.476   1.893   5.207  0.7509 -0.5624  0.0329
11004SOL    HW233554   5.613   1.873   5.268  0.6183 -1.6724 -0.0224
11005SOL     OW33555   1.298   6.980   1.658 -0.2699 -0.3869  0.0542
11005SOL    HW133556   1.355   6.905   1.641 -0.3663 -0.5396  0.3981
11005SOL    HW233557   1.230   6.946   1.717  1.1459  0.5897  2.3540
11006SOL     OW33558   7.423   4.582   5.235 -0.4034  0.3906  0.0778
11006SOL    HW133559   7.429   4.652   5.170 -1.6702  0.6911  0.2504
11006SOL    HW233560   7.366   4.618   5.304  2.3851  0.7967  2.3404
11007SOL     OW33561   3.392   2.203   5.831  0.3676 -0.3321  0.0390
11007SOL    HW133562   3.325   2.135   5.831  0.0975 -0.0767 -1.1630
11007SOL    HW233563   3.367   2.263   5.760  0.7349  0.8953  0.9018
11008SOL     OW33564   3.957   3.029   2.754  0.2459  0.6791  0.1972
11008SOL    HW133565   3.886   3.001   2.697 -0.3624  0.9802  0.7964
11008SOL    HW233566   4.028   2.967   2.736 -0.2021  0.3086 -0.3199
11009SOL     OW33567   7.371   3.272   4.007  0.0087  0.0656 -0.2582
11009SOL    HW133568   7.449   3.217   4.008  0.1668  0.2626  1.9161
11009SOL    HW233569   7.303   3.216   3.971  0.9496 -0.3576 -1.4566
11010SOL     OW33570   1.499   6.263   2.720  0.3578  0.3529  0.5088
11010SOL    HW133571   1.472   6.306   2.639 -1.0825  2.8220  2.1997
11010SOL    HW233572   1.523   6.334   2.779  0.5683 -1.3140  2.5514
11011SOL     OW33573   3.982   7.290   4.319  0.6567  0.0640  0.2078
11011SOL    HW133574   3.901   7.273   4.270  0.8773 -2.1666  0.5041
11011SOL    HW233575   3.966   7.251   4.405  2.4567 -1.6179 -0.1536
11012SOL     OW33576   6.621   2.806   2.998  0.1527 -0.2579 -0.0405
11012SOL    HW133577   6.554   2.785   2.933  0.2832  0.4424 -0.4088
11012SOL    HW233578   6.589   2.885   3.041 -0.0816 -0.8822  0.9740
11013SOL     OW33579   7.566   1.497   3.564  0.1410 -0.6008 -0.4096
11013SOL    HW133580   7.519   1.420   3.595 -0.7922 -0.9920 -2.6435
11013SOL    HW233581   7.614   1.468   3.487 -0.4972  1.0879 -1.5029
11014SOL     OW33582   6.103   3.695   6.346 -0.3967 -0.0351  0.4096
11014SOL    HW133583   6.156   3.759   6.393  0.6803  0.0437 -0.8525
11014SOL    HW233584   6.159   3.664   6.275 -1.5119 -1.0985 -0.0570
11015SOL     OW33585   1.872   1.082   4.897 -0.0284  0.0945  0.2773
11015SOL    HW133586   1.890   1.146   4.966  0.7699 -0.5155  0.6505
11015SOL    HW233587   1.925   1.006   4.921 -0.8462 -0.6563 -0.2387
11016SOL     OW33588   1.629   2.092   4.930  0.7449 -0.0374  0.6457
11016SOL    HW133589   1.717   2.055   4.919  0.5267 -1.5740  3.3233
11016SOL    HW233590   1.576   2.019   4.961 -0.5440  1.7201  2.8624
11017SOL     OW33591   1.376   2.643   3.378 -0.7353 -0.1852 -0.6623
11017SOL    HW133592   1.336   2.564   3.341  0.2428 -1.0257 -0.0058
11017SOL    HW233593   1.344   2.715   3.324 -0.5127 -1.1911 -2.2016
11018SOL     OW33594   2.142   2.706   6.659  0.4798 -0.3313  0.4544
11018SOL    HW133595   2.186   2.696   6.575 -1.8652 -0.5001 -0.8397
11018SOL    HW233596   2.149   2.800   6.678  0.1446 -0.1030 -0.4787
11019SOL     OW33597   6.780   5.339   1.904  0.1732 -0.3542 -0.4591
11019SOL    HW133598   6.844   5.348   1.974 -0.4991 -0.4905  0.1865
11019SOL    HW233599   6.750   5.428   1.887  1.2242 -0.1639 -1.4431
11020SOL     OW33600   5.478   1.194   4.704  0.1886 -0.3782 -0.7679
11020SOL    HW133601   5.546   1.213   4.638  1.3290 -1.3966  0.0695
11020SOL    HW233602   5.512   1.232   4.785 -0.8412  0.1833 -0.5833
11021SOL     OW33603   6.623   5.601   1.892 -0.3154 -0.6888 -0.1342
11021SOL    HW133604   6.708   5.629   1.926 -0.2471 -1.8233  0.6643
11021SOL    HW233605   6.577   5.565   1.967 -0.8297 -1.6593 -0.8833
11022SOL     OW33606   3.667   1.210   0.016 -0.1172 -0.2603 -0.5336
11022SOL    HW133607   3.627   1.145   0.073  1.7631 -0.2216  0.9093
11022SOL    HW233608   3.650   1.294   0.059  0.1669 -0.0968 -0.7326
11023SOL     OW33609   7.074   3.358   5.426  0.0448 -0.3063 -0.0524
11023SOL    HW133610   7.147   3.380   5.368  1.3697  0.9206  1.9723
11023SOL    HW233611   7.096   3.271   5.460  1.1707  0.4897  1.3567
11024SOL     OW33612   5.261   1.318   6.269  0.0673  0.1095  0.2658
11024SOL    HW133613   5.192   1.361   6.319 -0.5168  0.6056 -0.9375
11024SOL    HW233614   5.341   1.336   6.319 -0.4404  0.9493  0.8043
11025SOL     OW33615   2.365   3.309   7.499 -0.2800  0.2816  0.3865
11025SOL    HW133616   2.321   3.390   7.472  0.7665  1.1982  1.3479
11025SOL    HW233617   2.387   3.266   7.416 -0.6417  1.1030 -0.1526
11026SOL     OW33618   4.217   3.350   5.647  0.2465  0.2242  0.4033
11026SOL    HW133619   4.283   3.287   5.618  0.4226  0.8384 -0.5405
11026SOL    HW233620   4.257   3.435   5.635 -1.3890  0.7475 -2.1027
11027SOL     OW33621   1.132   4.489   0.342 -0.0162  1.0597 -0.0129
11027SOL    HW133622   1.199   4.497   0.274 -0.3593  0.2527 -0.4678
11027SOL    HW233623   1.169   4.428   0.406  0.0811  1.3866  0.2455
11028SOL     OW33624   1.266   4.585   2.084 -0.3997  0.0703  0.0669
11028SOL    HW133625   1.303   4.637   2.012  1.3863 -0.7155  0.3621
11028SOL    HW233626   1.191   4.636   2.114 -0.7445  0.7973 -1.8424
11029SOL     OW33627   1.104   4.156   4.968 -0.2413 -0.1441 -0.4551
11029SOL    HW133628   1.094   4.234   4.914 -1.9109  0.2082  0.2981
11029SOL    HW233629   1.133   4.189   5.053  0.8760 -0.5525 -0.6528
11030SOL     OW33630   1.817   0.744   2.100  0.1307 -0.1393  0.6506
11030SOL    HW133631   1.867   0.825   2.089 -1.0169  0.4660 -0.3223
11030SOL    HW233632   1.778   0.753   2.187 -1.5394  1.2930 -0.1795
11031SOL     OW33633   6.624   2.923   7.499 -0.1584  0.4010 -0.0587
11031SOL    HW133634   6.666   2.978   7.433 -0.0430 -1.4019 -1.5819
11031SOL    HW233635   6.696   2.892   7.554  0.1137 -0.1492 -0.7087
11032SOL     OW33636   7.485   6.858   1.392  0.2055 -0.1536  0.3732
11032SOL    HW133637   7.526   6.775   1.415  1.1512  0.6651  1.8024
11032SOL    HW233638   7.491   6.862   1.296  0.5000 -1.5355  0.3120
11033SOL     OW33639   5.372   0.851   5.685 -0.7906  0.5244  0.0151
11033SOL    HW133640   5.463   0.834   5.662 -0.6069  0.8978  0.4448
11033SOL    HW233641   5.373   0.936   5.729 -1.0887 -0.2109  1.5243
11034SOL     OW33642   6.095   3.864   2.085 -0.5106 -0.0234  0.4989
11034SOL    HW133643   6.144   3.929   2.136  0.5855  0.8824 -1.5877
11034SOL    HW233644   6.152   3.842   2.012 -2.2467 -0.7620 -0.7182
11035SOL     OW33645   6.372   5.780   4.512 -0.1467  0.5850  0.4018
11035SOL    HW133646   6.432   5.751   4.443  0.9564  1.9527  0.7451
11035SOL    HW233647   6.405   5.740   4.592 -1.2398 -0.7416  0.2265
11036SOL     OW33648   7.400   1.458   4.213  0.0344  0.3281 -0.5186
11036SOL    HW133649   7.438   1.545   4.225  0.7206 -0.0958  0.5230
11036SOL    HW233650   7.475   1.398   4.215 -0.5845 -0.4458  0.6645
11037SOL     OW33651   5.822   3.342   5.922  0.2702  0.4836 -0.2529
11037SOL    HW133652   5.851   3.433   5.917 -0.3266  0.8512  1.9330
11037SOL    HW233653   5.893   3.292   5.883  1.0591  1.8178 -0.5863
11038SOL     OW33654   5.763   3.807   2.631  0.4591  0.6818  0.0111
11038SOL    HW133655   5.768   3.854   2.548  1.8052  0.0105 -0.3266
11038SOL    HW233656   5.728   3.721   2.608 -1.8460  1.3999  0.6006
11039SOL     OW33657   5.392   6.073   3.116  0.0332 -0.2929  0.3481
11039SOL    HW133658   5.480   6.085   3.081  0.5297 -1.8794  0.9644
11039SOL    HW233659   5.399   6.096   3.208 -0.3129  0.0521  0.2880
11040SOL     OW33660   4.067   5.495   2.915 -0.2740 -0.1632  0.4257
11040SOL    HW133661   4.014   5.422   2.947 -0.2982  0.3884  1.7393
11040SOL    HW233662   4.008   5.545   2.858 -0.4719 -0.7817  0.0878
11041SOL     OW33663   5.353   5.326   7.326 -0.0464  0.0970 -0.1919
11041SOL    HW133664   5.355   5.293   7.415 -0.9356 -0.7395 -0.4691
11041SOL    HW233665   5.436   5.373   7.316  0.2445 -0.1538  0.9288
11042SOL     OW33666   3.463   3.015   3.644 -0.2135 -0.2983 -0.2590
11042SOL    HW133667   3.491   3.032   3.554  0.5245 -0.9923 -0.1736
11042SOL    HW233668   3.381   2.966   3.635 -0.8690  0.8312 -0.5283
11043SOL     OW33669   2.640   7.546   2.903  0.5816 -0.0271  0.7665
11043SOL    HW133670   2.684   7.504   2.829  0.8713 -0.6063  1.2584
11043SOL    HW233671   2.547   7.545   2.879  0.6443 -0.4338  0.5179
11044SOL     OW33672   2.144   0.204   7.549  0.6068  0.1490 -0.2129
11044SOL    HW133673   2.226   0.207   7.598 -0.2644  0.2300  1.2980
11044SOL    HW233674   2.141   0.115   7.513 -0.6074 -1.5092  3.4209
11045SOL     OW33675   4.762   2.007   3.605  0.1676 -0.0299  0.0574
11045SOL    HW133676   4.798   1.973   3.524 -0.1754  0.1331 -0.1676
11045SOL    HW233677   4.668   1.986   3.601 -0.3599  2.1880 -0.7744
11046SOL     OW33678   1.516   3.119   6.156  0.5471  0.3399 -1.2183
11046SOL    HW133679   1.593   3.156   6.113  1.5859 -1.9355 -1.4470
11046SOL    HW233680   1.453   3.106   6.084 -0.2252  2.4574 -0.9885
11047SOL     OW33681   6.645   4.126   0.898 -0.2986  0.1129  0.3296
11047SOL    HW133682   6.575   4.098   0.957 -0.0046 -2.1441 -0.3146
11047SOL    HW233683   6.666   4.048   0.846  2.5576  0.7468  0.3499
11048SOL     OW33684   6.726   3.649   1.907 -0.4645  0.7976 -0.0074
11048SOL    HW133685   6.687   3.571   1.946 -1.6439  0.8051 -1.0859
11048SOL    HW233686   6.818   3.647   1.935  0.1209 -2.1215 -1.6729
11049SOL     OW33687   5.938   1.716   5.442 -0.3590  0.1522 -0.1296
11049SOL    HW133688   5.842   1.713   5.437 -0.4340  2.1211 -0.6490
11049SOL    HW233689   5.957   1.801   5.480  1.1599 -1.4616  3.1093
11050SOL     OW33690   5.345   7.436   5.408  0.0872  0.2884 -0.2305
11050SOL    HW133691   5.422   7.379   5.407  0.2915  0.5548 -0.0121
11050SOL    HW233692   5.279   7.387   5.457  1.0216  1.1874  2.0430
11051SOL     OW33693   2.743   7.262   5.340 -0.0141 -0.1765 -0.6897
11051SOL    HW133694   2.816   7.282   5.281  0.1384  2.2674  0.1869
11051SOL    HW233695   2.666   7.296   5.294  0.1925  2.4053  0.6689
11052SOL     OW33696   3.884   7.271   0.299 -0.4555 -0.4450  0.2086
11052SOL    HW133697   3.912   7.255   0.209 -0.5736 -0.5063  0.1819
11052SOL    HW233698   3.884   7.184   0.340 -0.7466 -0.4671  0.1661
11053SOL     OW33699   1.014   2.497   1.422  0.1554 -0.1257  0.4734
11053SOL    HW133700   0.934   2.445   1.423  0.4561 -0.6006 -0.0183
11053SOL    HW233701   0.983   2.588   1.417 -0.3518 -0.3503 -0.8688
11054SOL     OW33702   3.283   2.374   5.606 -0.4569  0.8179 -0.1593
11054SOL    HW133703   3.252   2.397   5.518 -0.2165  2.9900  0.2525
11054SOL    HW233704   3.212   2.321   5.643  0.2938 -1.8928 -2.2880
11055SOL     OW33705   1.700   4.856   3.671 -0.1094 -0.0419  0.0868
11055SOL    HW133706   1.748   4.849   3.753  1.6410  0.0257 -0.8916
11055SOL    HW233707   1.767   4.864   3.604 -1.4923 -0.0935 -1.3726
11056SOL     OW33708   5.287   0.008   3.609 -0.0374  0.0221 -0.0671
11056SOL    HW133709   5.372  -0.023   3.640  1.0582  1.2046 -1.7333
11056SOL    HW233710   5.241  -0.071   3.583  0.9152 -0.5722 -0.0166
11057SOL     OW33711   3.819   5.784   1.809  0.1818 -0.0869  0.0669
11057SOL    HW133712   3.738   5.751   1.848 -0.2806 -1.7449 -2.0567
11057SOL    HW233713   3.813   5.758   1.717  2.0965  1.8031 -0.6671
11058SOL     OW33714   1.941   5.772   1.896  0.4179  0.1441 -0.4739
11058SOL    HW133715   1.905   5.713   1.830 -0.4642  0.6601 -0.4736
11058SOL    HW233716   1.967   5.715   1.968 -0.1050 -0.2784 -0.6171
11059SOL     OW33717   2.459   0.234   4.062  0.1066  0.3261  0.0858
11059SOL    HW133718   2.414   0.255   4.145 -1.2381  0.0615 -0.5441
11059SOL    HW233719   2.388   0.219   4.000  0.8563 -4.2764 -0.0095
11060SOL     OW33720   1.855   3.665   3.551  0.6786 -0.7688 -0.2751
11060SOL    HW133721   1.837   3.572   3.566  0.9290 -0.8495 -0.4734
11060SOL    HW233722   1.845   3.705   3.637  0.1017 -0.9037 -0.2783
11061SOL     OW33723   2.892   6.693   1.027 -0.5266 -0.2287  0.5089
11061SOL    HW133724   2.849   6.706   0.942 -0.4376 -0.1489  0.4759
11061SOL    HW233725   2.966   6.635   1.007  0.0192  0.4918  0.3712
11062SOL     OW33726   6.331   6.475   4.781  0.3006 -0.0037  0.3251
11062SOL    HW133727   6.392   6.419   4.829  1.0374  0.2681 -0.2775
11062SOL    HW233728   6.279   6.414   4.729 -0.0604 -0.2502  0.9581
11063SOL     OW33729   1.228   2.374   2.498 -0.6009 -0.5839  0.7122
11063SOL    HW133730   1.140   2.387   2.464  0.0049  3.5346  0.1907
11063SOL    HW233731   1.280   2.445   2.459  2.6109 -1.9129  2.1572
11064SOL     OW33732   6.046   5.112   6.262 -0.0373 -0.4653  0.5226
11064SOL    HW133733   6.084   5.173   6.325 -0.9095  0.2341  0.3892
11064SOL    HW233734   6.070   5.149   6.177 -0.1495 -0.5831  0.4412
11065SOL     OW33735   5.574   1.458   7.197  0.4846  0.0416  0.2391
11065SOL    HW133736   5.588   1.364   7.208  1.7996  0.3221  1.1990
11065SOL    HW233737   5.538   1.487   7.280 -0.6317  0.2802 -0.3141
11066SOL     OW33738   2.194   0.596   3.157 -0.1467  0.0378 -0.4810
11066SOL    HW133739   2.178   0.587   3.251  0.0023  0.5858 -0.3990
11066SOL    HW233740   2.134   0.534   3.116  1.6940 -2.2409  0.0840
11067SOL     OW33741   3.934   4.880   2.204 -0.1508 -0.0369  0.8669
11067SOL    HW133742   3.842   4.856   2.214  0.0559 -1.9289 -1.0543
11067SOL    HW233743   3.944   4.960   2.256 -2.4675 -0.6728  2.4313
11068SOL     OW33744   2.505   5.015   5.911 -0.1938 -0.0170 -0.3747
11068SOL    HW133745   2.469   5.087   5.859 -2.5585 -0.7620  0.0796
11068SOL    HW233746   2.469   5.029   5.999  2.5814  0.4418  0.7601
11069SOL     OW33747   3.961   7.205   6.949 -0.2255  0.3940  0.0191
11069SOL    HW133748   3.865   7.200   6.950 -0.1843 -0.8631  0.2270
11069SOL    HW233749   3.983   7.215   6.856 -0.5421 -0.6388 -0.1866
11070SOL     OW33750   6.462   0.363   1.640  0.1415  0.1119 -0.1990
11070SOL    HW133751   6.557   0.377   1.650 -0.0144  0.8735  0.2357
11070SOL    HW233752   6.449   0.272   1.668  0.7194  0.0581 -0.0812
11071SOL     OW33753   3.852   4.428   1.336  0.4322 -0.2807  0.3031
11071SOL    HW133754   3.838   4.499   1.399  1.5696 -1.8865  2.4883
11071SOL    HW233755   3.830   4.349   1.385 -1.5907 -1.4653 -2.3140
11072SOL     OW33756   2.936   5.981   5.725  0.2628 -0.3970 -0.2620
11072SOL    HW133757   2.985   6.054   5.689  0.1205 -0.0587  0.2252
11072SOL    HW233758   2.879   5.952   5.654  1.8305 -1.4233 -1.1705
11073SOL     OW33759   2.906   6.235   0.097  0.1526 -0.4501  0.1291
11073SOL    HW133760   2.870   6.152   0.065  0.0802 -0.6642  0.7623
11073SOL    HW233761   2.885   6.298   0.028 -2.0677 -0.4183  0.7402
11074SOL     OW33762   2.504   1.448   5.047 -0.2292 -0.1808  0.1175
11074SOL    HW133763   2.409   1.451   5.059 -0.0411 -1.0607  2.5030
11074SOL    HW233764   2.525   1.354   5.045  0.6378 -0.0016  0.3497
11075SOL     OW33765   1.281   2.108   5.058 -0.5410 -0.2195  0.0370
11075SOL    HW133766   1.349   2.085   5.121  1.0895 -1.0614 -1.8983
11075SOL    HW233767   1.272   2.203   5.066 -0.0061 -0.2527  1.1913
11076SOL     OW33768   0.068   6.310   0.430  0.4811 -0.4280 -0.2376
11076SOL    HW133769   0.071   6.216   0.444  0.3774 -0.3743  0.1529
11076SOL    HW233770   0.066   6.320   0.335 -1.4332 -0.8758 -0.2875
11077SOL     OW33771   5.786   1.212   6.231 -0.3965 -0.3699 -0.4866
11077SOL    HW133772   5.820   1.299   6.212 -3.3156  1.4958  2.0381
11077SOL    HW233773   5.861   1.165   6.268  1.4208  0.7166 -2.5607
11078SOL     OW33774   0.907   2.509   1.069 -0.4064  0.2693 -0.1316
11078SOL    HW133775   0.890   2.498   1.162  0.7920  0.3399  0.1134
11078SOL    HW233776   0.996   2.545   1.065  0.0517 -0.9298 -1.3359
11079SOL     OW33777   5.176   4.499   7.095 -0.5725  0.3307  0.2426
11079SOL    HW133778   5.098   4.526   7.142 -0.5379 -2.3310  2.0460
11079SOL    HW233779   5.150   4.500   7.003 -1.9647  1.6701  0.6075
11080SOL     OW33780   1.263   0.938   1.579  0.7802  0.4409 -0.8766
11080SOL    HW133781   1.188   0.978   1.622  1.2661  2.4314 -1.7673
11080SOL    HW233782   1.299   0.877   1.644 -0.6928  0.5744  0.0994
11081SOL     OW33783   6.066   5.076   3.376 -0.2210  0.1522  0.1260
11081SOL    HW133784   6.089   5.109   3.289 -0.6494 -0.0200 -0.0589
11081SOL    HW233785   5.987   5.124   3.400 -1.3964 -1.3285 -0.5449
11082SOL     OW33786   7.619   0.354   7.141 -0.0890  0.0425 -0.9501
11082SOL    HW133787   7.540   0.406   7.123 -0.4835 -0.1977  0.0355
11082SOL    HW233788   7.599   0.267   7.106  0.7329  0.6046 -2.9866
11083SOL     OW33789   1.993   7.382   4.075 -0.7557  0.1890 -0.3118
11083SOL    HW133790   1.995   7.466   4.030  3.3128 -0.2767 -1.3919
11083SOL    HW233791   1.989   7.405   4.168 -1.9163  1.4343 -0.6434
11084SOL     OW33792   6.458   4.955   1.435 -0.0615  0.5219  0.3493
11084SOL    HW133793   6.520   4.925   1.501  0.5851  1.4380  0.1696
11084SOL    HW233794   6.466   5.050   1.435 -1.0757  0.6244 -0.0613
11085SOL     OW33795   0.253   7.236   2.330 -0.0855 -0.4066 -0.5538
11085SOL    HW133796   0.250   7.327   2.302  0.3344 -0.5738 -1.1641
11085SOL    HW233797   0.314   7.235   2.403  0.5199 -0.3212 -1.0501
11086SOL     OW33798   0.281   4.721   5.513 -0.1955 -0.1182  0.3644
11086SOL    HW133799   0.203   4.675   5.480 -0.3974  0.0171  0.6555
11086SOL    HW233800   0.270   4.811   5.484 -0.6027  0.1033  1.2042
11087SOL     OW33801   0.001   4.575   6.095 -0.4202 -0.4396 -0.0723
11087SOL    HW133802  -0.087   4.541   6.114 -0.8623  0.3050 -0.7356
11087SOL    HW233803  -0.009   4.670   6.099  0.2566 -0.3428 -0.5760
11088SOL     OW33804   1.976   6.962   5.450 -0.4360 -0.3360 -0.1519
11088SOL    HW133805   2.023   7.028   5.501  0.7934 -2.5350  1.7545
11088SOL    HW233806   1.894   6.949   5.497 -0.3622 -0.6736 -0.1163
11089SOL     OW33807   4.420   6.292   5.640 -0.2737  0.2466 -0.2230
11089SOL    HW133808   4.357   6.246   5.585  0.1408  0.9324 -1.3130
11089SOL    HW233809   4.371   6.367   5.674 -0.4495 -0.0263  0.1420
11090SOL     OW33810   4.128   7.139   5.538 -0.3225  0.3776  0.2169
11090SOL    HW133811   4.172   7.132   5.453 -0.0969  1.6855  0.2036
11090SOL    HW233812   4.046   7.090   5.526 -1.0238  1.8030 -1.2927
11091SOL     OW33813   0.656   3.377   2.347  0.5592  0.3110 -0.1459
11091SOL    HW133814   0.663   3.282   2.360 -1.8566  0.1886  0.7614
11091SOL    HW233815   0.651   3.388   2.252 -0.0122 -0.5595 -0.2274
11092SOL     OW33816   3.793   0.593   3.574  0.4851 -0.2675 -0.3535
11092SOL    HW133817   3.793   0.521   3.637  1.2359 -0.4274 -0.5307
11092SOL    HW233818   3.775   0.671   3.627  0.1083 -0.5243 -0.0986
11093SOL     OW33819   0.829   1.681   5.778  0.8028 -0.3727  0.0827
11093SOL    HW133820   0.909   1.694   5.726  0.1940 -1.2792 -1.1287
11093SOL    HW233821   0.856   1.622   5.848  1.2940 -0.4063 -0.1278
11094SOL     OW33822   0.262   1.484   6.346 -0.2444 -0.4719 -0.5095
11094SOL    HW133823   0.255   1.578   6.329 -0.2759 -0.4501 -0.3756
11094SOL    HW233824   0.177   1.459   6.382 -1.1193 -1.0309 -2.7730
11095SOL     OW33825   0.964   1.069   0.133  0.2790  0.1336 -0.4641
11095SOL    HW133826   0.992   1.042   0.045 -0.1618  0.7004 -0.7829
11095SOL    HW233827   0.950   0.986   0.179 -0.3877 -0.1936 -1.2171
11096SOL     OW33828   3.081   5.780   7.333 -0.0456 -0.0461 -0.2684
11096SOL    HW133829   3.005   5.802   7.279  1.0768  1.7725 -1.2345
11096SOL    HW233830   3.101   5.861   7.380  1.2939 -0.4776 -0.0385
11097SOL     OW33831   3.353   4.518   4.751  0.1656 -0.0538 -0.7526
11097SOL    HW133832   3.342   4.466   4.672  3.3164 -0.0683 -1.3293
11097SOL    HW233833   3.297   4.476   4.816 -0.3888 -1.7333 -2.2466
11098SOL     OW33834   5.163   4.613   1.263  0.3664  0.1835 -0.0873
11098SOL    HW133835   5.144   4.705   1.246 -0.6834  0.9257  4.0136
11098SOL    HW233836   5.090   4.583   1.316  1.9616 -2.2803  0.9006
11099SOL     OW33837   7.077   5.048   5.657  0.2461 -0.0476 -0.2515
11099SOL    HW133838   7.053   5.140   5.640  0.0279  0.0321  0.4438
11099SOL    HW233839   7.015   5.020   5.724 -0.4778 -1.0835 -1.3050
11100SOL     OW33840   0.520   5.691   4.222  0.5277  0.4319  0.1736
11100SOL    HW133841   0.576   5.757   4.262 -0.0366 -0.6381  2.9458
11100SOL    HW233842   0.431   5.727   4.230  0.5700  1.6620 -3.2737
11101SOL     OW33843   2.745   3.078   3.402  0.3532  0.6224 -0.2485
11101SOL    HW133844   2.764   3.105   3.313 -2.2926  0.5503 -0.9158
11101SOL    HW233845   2.676   3.012   3.394  0.0561  0.5851  1.8429
11102SOL     OW33846   0.861   4.527   7.132 -0.7389  0.0287  0.7516
11102SOL    HW133847   0.900   4.608   7.164  1.3696  0.2920 -2.1027
11102SOL    HW233848   0.832   4.548   7.043 -0.0376 -2.3521 -0.1084
11103SOL     OW33849   3.406   3.562   6.685 -0.2276 -0.1375 -0.3114
11103SOL    HW133850   3.400   3.541   6.778 -0.5063 -0.3828 -0.3843
11103SOL    HW233851   3.462   3.494   6.648  0.3699  0.2979 -0.2193
11104SOL     OW33852   4.594   4.945   4.672  0.2549 -0.6415  0.3346
11104SOL    HW133853   4.507   4.912   4.649 -0.3966  0.4618  1.1274
11104SOL    HW233854   4.580   5.038   4.691  1.9210  0.0001 -1.2540
11105SOL     OW33855   5.970   5.301   4.931  0.5155 -0.1169  0.4746
11105SOL    HW133856   5.926   5.359   4.994 -1.2184  0.6859 -1.3689
11105SOL    HW233857   6.017   5.361   4.873  2.9685 -0.9067  1.5535
11106SOL     OW33858   5.792   5.797   3.505  0.1693 -0.4039 -0.0352
11106SOL    HW133859   5.885   5.777   3.518 -0.0673 -2.0223 -0.5606
11106SOL    HW233860   5.776   5.778   3.413 -1.0635 -1.9629  0.4531
11107SOL     OW33861   7.471   7.586   0.457 -0.0766 -0.0733  0.3751
11107SOL    HW133862   7.503   7.583   0.547 -0.2177  0.3385  0.4419
11107SOL    HW233863   7.468   7.680   0.436 -1.2003 -0.1017  0.3666
11108SOL     OW33864   1.752   5.729   0.635  0.4993  0.3141  0.6774
11108SOL    HW133865   1.767   5.636   0.618 -1.0185  0.1461  0.1417
11108SOL    HW233866   1.720   5.732   0.725  2.8145  0.6098  1.5803
11109SOL     OW33867   5.476   2.185   6.398 -0.2170  0.2150 -0.1359
11109SOL    HW133868   5.433   2.117   6.450 -0.2703  0.9301  0.7788
11109SOL    HW233869   5.476   2.150   6.309  1.4626 -1.8286  0.5814
11110SOL     OW33870   3.000   4.305   5.428 -0.9231 -0.4460 -0.2130
11110SOL    HW133871   3.049   4.295   5.510  0.5509 -1.1006 -1.1393
11110SOL    HW233872   2.928   4.364   5.451 -0.3944 -0.3950  1.4882
11111SOL     OW33873   7.153   5.773   7.036  1.1672 -0.0843  0.0352
11111SOL    HW133874   7.178   5.681   7.034 -1.9890 -1.0794 -2.5860
11111SOL    HW233875   7.145   5.799   6.945 -1.4517  1.6495  0.6159
11112SOL     OW33876   0.877   2.740   4.558  0.2566 -0.6076  0.2588
11112SOL    HW133877   0.970   2.747   4.581  0.0193 -1.5156  1.5977
11112SOL    HW233878   0.837   2.817   4.598  0.5811  0.5317 -1.4497
11113SOL     OW33879   3.878   3.472   5.382 -0.2867  0.4247  0.8608
11113SOL    HW133880   3.825   3.465   5.461 -0.3718  0.0678  0.7732
11113SOL    HW233881   3.929   3.391   5.380  0.8589  1.1083  1.3768
11114SOL     OW33882   2.305   5.908   3.980  0.1710  0.7112 -0.5580
11114SOL    HW133883   2.337   5.820   3.960 -2.1856 -0.4556  0.3659
11114SOL    HW233884   2.249   5.896   4.057  0.9185  3.3027  0.5083
11115SOL     OW33885   4.031   1.269   0.898 -0.4135  0.6081  0.6130
11115SOL    HW133886   4.095   1.323   0.851 -0.2390  0.7539  1.0061
11115SOL    HW233887   4.081   1.192   0.925 -0.8359 -0.0965 -0.5526
11116SOL     OW33888   6.263   0.438   3.417  0.0637  0.2551 -0.1609
11116SOL    HW133889   6.357   0.425   3.403  0.0668 -0.9930  0.8222
11116SOL    HW233890   6.257   0.481   3.502 -0.2468  0.3366 -0.2239
11117SOL     OW33891   3.248   4.488   5.530  0.0612 -0.2072  0.2571
11117SOL    HW133892   3.300   4.566   5.547 -0.6285  0.9777 -2.5229
11117SOL    HW233893   3.304   4.433   5.476 -0.8772  0.2859 -1.2785
11118SOL     OW33894   0.222   4.371   4.962  0.5316  0.2110  0.1205
11118SOL    HW133895   0.242   4.280   4.938  0.3273 -0.2569  1.6001
11118SOL    HW233896   0.210   4.416   4.879  2.6475 -0.6506 -0.7018
11119SOL     OW33897   0.454   4.333   2.104 -0.2776 -0.4930 -0.6327
11119SOL    HW133898   0.485   4.420   2.077  0.9031 -0.6843  0.0346
11119SOL    HW233899   0.534   4.283   2.120 -0.8897 -0.8284  1.7998
11120SOL     OW33900   1.762   3.310   0.518 -0.3325 -0.1746 -0.0979
11120SOL    HW133901   1.694   3.377   0.513  1.1631  1.4687  0.5885
11120SOL    HW233902   1.805   3.324   0.602 -0.5783 -2.6749  0.5416
11121SOL     OW33903   3.329   6.133   4.818  0.0665 -0.2300  0.1043
11121SOL    HW133904   3.255   6.098   4.870 -0.2472  1.0627  0.5615
11121SOL    HW233905   3.402   6.136   4.880 -0.4730  1.9257  0.7332
11122SOL     OW33906   0.861   2.193   7.062 -0.0828  0.1452 -0.0968
11122SOL    HW133907   0.784   2.137   7.062 -0.0774  0.1332  0.4348
11122SOL    HW233908   0.883   2.204   7.155 -0.0052  0.9138 -0.2007
11123SOL     OW33909   7.461   6.466   6.239  0.9554 -0.4435  1.0044
11123SOL    HW133910   7.475   6.560   6.244 -0.6646 -0.0254 -1.0337
11123SOL    HW233911   7.549   6.429   6.232  1.5534  1.0834 -0.0349
11124SOL     OW33912   2.668   3.530   6.568  0.0593  0.4626 -0.2879
11124SOL    HW133913   2.659   3.468   6.496 -0.8376 -1.3084  1.2518
11124SOL    HW233914   2.753   3.510   6.606 -0.3454 -0.0458  0.3752
11125SOL     OW33915   7.474   0.843   6.661 -0.3547 -0.7038 -0.1777
11125SOL    HW133916   7.461   0.922   6.609 -2.7918 -0.8845  0.0190
11125SOL    HW233917   7.455   0.771   6.601 -2.2855 -0.9399  0.6161
11126SOL     OW33918   1.072   0.965   5.834 -0.4282 -0.0950 -0.3160
11126SOL    HW133919   0.983   0.985   5.804  1.0006  2.8907 -3.2755
11126SOL    HW233920   1.105   0.903   5.769  1.1331  2.7869 -2.5814
11127SOL     OW33921   1.593   0.934   0.210  0.1141  0.0298 -0.1504
11127SOL    HW133922   1.572   0.872   0.279  3.1423 -1.1145 -0.1273
11127SOL    HW233923   1.683   0.914   0.186  0.6356  3.2739 -1.3878
11128SOL     OW33924   2.320   2.303   5.179  0.5507  0.1635  0.5088
11128SOL    HW133925   2.280   2.385   5.208  1.6467  0.5581  0.9613
11128SOL    HW233926   2.350   2.322   5.090  0.6077  0.1763  0.5310
11129SOL     OW33927   1.716   5.176   0.800 -0.5986  0.2218  0.0790
11129SOL    HW133928   1.773   5.104   0.828 -1.5254 -0.4970  0.1761
11129SOL    HW233929   1.716   5.170   0.704 -2.3783 -1.3416  0.1048
11130SOL     OW33930   2.354   2.487   6.036 -0.1473 -0.1328  0.6067
11130SOL    HW133931   2.393   2.447   6.113 -1.2842 -0.7723  0.8702
11130SOL    HW233932   2.267   2.448   6.030  0.3806 -1.0994 -1.7572
11131SOL     OW33933   0.236   5.138   4.419 -0.0481 -0.2823  0.4813
11131SOL    HW133934   0.184   5.076   4.469 -0.8796  0.1321  0.1417
11131SOL    HW233935   0.210   5.224   4.453  1.0859 -0.0992  0.9508
11132SOL     OW33936   2.027   1.495   2.424 -0.5182 -0.2441  0.0164
11132SOL    HW133937   2.052   1.587   2.413  0.2427 -0.2999  1.1450
11132SOL    HW233938   1.982   1.491   2.508  1.4572 -1.2603  1.0923
11133SOL     OW33939   2.282   5.269   5.105 -0.2226  0.4063  0.1522
11133SOL    HW133940   2.281   5.174   5.096 -0.6812  0.3904  0.3326
11133SOL    HW233941   2.366   5.289   5.146 -0.6368 -0.0229  1.2308
11134SOL     OW33942   6.749   1.102   5.892 -0.3929 -0.0493  0.4122
11134SOL    HW133943   6.786   1.081   5.977  1.2743  1.1111  0.0172
11134SOL    HW233944   6.741   1.197   5.892  2.7467  0.3679 -1.8412
11135SOL     OW33945   3.039   4.060   3.183  0.6612  0.2991 -0.1756
11135SOL    HW133946   3.072   4.029   3.267  0.8404 -1.3893 -0.8405
11135SOL    HW233947   3.106   4.121   3.152  1.1534  0.0413  0.3663
11136SOL     OW33948   7.136   3.914   3.411 -0.2694 -0.1519 -0.0188
11136SOL    HW133949   7.190   3.993   3.416  1.4483 -1.3101  0.4291
11136SOL    HW233950   7.050   3.946   3.386  0.3828  1.8654  0.1354
11137SOL     OW33951   3.499   6.688   6.648 -0.1523 -0.1886  0.0794
11137SOL    HW133952   3.439   6.755   6.683  1.4588  1.2796  0.1876
11137SOL    HW233953   3.468   6.672   6.559 -2.3694 -1.5872  1.0078
11138SOL     OW33954   4.289   1.027   2.116 -0.0650  0.4754  0.0095
11138SOL    HW133955   4.270   1.034   2.210 -0.1872 -0.5406  0.0740
11138SOL    HW233956   4.380   0.999   2.113  1.2774  4.2548 -0.2796
11139SOL     OW33957   3.475   3.642   4.191 -0.4653  0.6691 -0.3971
11139SOL    HW133958   3.444   3.556   4.162 -0.1160  0.4262 -0.0613
11139SOL    HW233959   3.505   3.627   4.280 -1.1556  1.3209 -0.0491
11140SOL     OW33960   7.198   3.194   0.778 -0.1646 -0.3750 -0.1227
11140SOL    HW133961   7.211   3.109   0.819  0.0437 -0.4218 -0.2857
11140SOL    HW233962   7.169   3.174   0.689 -1.3806 -0.2762  0.2363
11141SOL     OW33963   4.415   0.451   1.460  0.4677 -0.1035  0.2597
11141SOL    HW133964   4.436   0.541   1.434 -0.9969  0.0872 -0.3771
11141SOL    HW233965   4.427   0.451   1.555 -0.0764  0.9487  0.3486
11142SOL     OW33966   4.175   7.543   7.148  0.1872 -0.0527 -0.4308
11142SOL    HW133967   4.195   7.632   7.122  0.0910  0.0543 -0.1430
11142SOL    HW233968   4.207   7.489   7.076 -0.6618  0.2759 -1.0744
11143SOL     OW33969   6.284   5.999   7.110 -0.5076 -0.1687  0.0260
11143SOL    HW133970   6.358   6.012   7.169 -1.8140  0.5914  1.5699
11143SOL    HW233971   6.263   5.906   7.118  0.4285 -0.4477 -0.6314
11144SOL     OW33972   0.529   3.523   0.124  0.0806 -0.4735 -0.1865
11144SOL    HW133973   0.586   3.545   0.050 -0.8328 -1.9638 -1.3805
11144SOL    HW233974   0.531   3.601   0.180  0.1420  1.0311 -2.1895
11145SOL     OW33975   4.021   4.093   0.063  0.1512 -0.9850  0.1948
11145SOL    HW133976   4.010   4.111   0.157  0.2806 -0.5190  0.1226
11145SOL    HW233977   3.978   4.167   0.020  0.3961 -1.0223 -0.1124
11146SOL     OW33978   7.156   2.228   2.146 -0.6056 -0.5184  0.1523
11146SOL    HW133979   7.138   2.134   2.149 -2.3292 -0.2026  1.1869
11146SOL    HW233980   7.088   2.263   2.089  0.3565  0.0596 -0.6637
11147SOL     OW33981   0.124   1.581   4.713  0.2070 -0.2221  0.0108
11147SOL    HW133982   0.034   1.564   4.740  0.3750 -3.3316 -1.0139
11147SOL    HW233983   0.177   1.554   4.788  0.3645 -0.4318 -0.1776
11148SOL     OW33984   7.194   4.385   0.706 -0.6828 -0.2459 -0.4532
11148SOL    HW133985   7.135   4.425   0.642 -0.1148  2.7808  0.7006
11148SOL    HW233986   7.172   4.428   0.789  0.9113 -1.4590  0.6680
11149SOL     OW33987   1.083   6.786   1.820 -0.1025  0.4021 -0.2858
11149SOL    HW133988   1.082   6.861   1.879 -1.2396  0.4710 -0.3653
11149SOL    HW233989   1.014   6.728   1.854 -0.5461  0.2932 -1.3315
11150SOL     OW33990   2.432   3.222   2.404  0.0723 -0.1462  0.6901
11150SOL    HW133991   2.503   3.233   2.467  0.6235  0.5951 -0.0520
11150SOL    HW233992   2.425   3.127   2.392  0.1467 -0.2776  1.6466
11151SOL     OW33993   1.517   5.121   0.340  0.0915 -0.6883  0.3682
11151SOL    HW133994   1.438   5.073   0.319 -1.2479  1.5975 -0.2016
11151SOL    HW233995   1.527   5.184   0.269 -0.1789  2.0536  2.5633
11152SOL     OW33996   6.864   2.284   3.792  0.3588  0.4267 -0.4607
11152SOL    HW133997   6.922   2.210   3.776  0.1049  0.3596 -1.1418
11152SOL    HW233998   6.786   2.265   3.740 -1.3334 -0.6747  2.2778
11153SOL     OW33999   3.101   2.852   6.089  0.1152  0.0058  0.6542
11153SOL    HW134000   3.122   2.829   5.998 -2.3629 -0.9975  0.2412
11153SOL    HW234001   3.181   2.833   6.137  1.3626  0.1482 -1.2396
11154SOL     OW34002   3.687   6.492   3.930  0.4326 -0.3205  1.0790
11154SOL    HW134003   3.680   6.409   3.882 -0.4106  0.2184  0.2107
11154SOL    HW234004   3.762   6.481   3.987  2.4565 -0.5219 -1.4159
11155SOL     OW34005   1.342   6.127   0.077  0.0490  0.3683  0.1021
11155SOL    HW134006   1.431   6.146   0.108 -0.5035 -0.0418  2.0315
11155SOL    HW234007   1.330   6.034   0.095 -0.6323  0.3216 -0.5517
11156SOL     OW34008   1.493   6.354   3.731 -0.7582  0.4625  0.1771
11156SOL    HW134009   1.553   6.286   3.701 -1.1879 -0.1590  0.6964
11156SOL    HW234010   1.486   6.414   3.657  0.1675  0.3200 -0.0390
11157SOL     OW34011   6.844   7.551   6.418  0.2753 -0.4338  0.5076
11157SOL    HW134012   6.927   7.558   6.370 -0.2055  2.8370 -0.0576
11157SOL    HW234013   6.867   7.509   6.501  2.2519 -0.7106 -0.1395
11158SOL     OW34014   1.591   0.792   0.481  0.3681  0.0833  0.4400
11158SOL    HW134015   1.553   0.704   0.482 -1.3273  0.7704  0.0335
11158SOL    HW234016   1.544   0.839   0.549  0.5949  0.9432  0.0142
11159SOL     OW34017   1.834   2.449   6.977 -0.5483 -0.2521  0.7554
11159SOL    HW134018   1.833   2.536   6.938 -0.7415  1.0799  3.5083
11159SOL    HW234019   1.927   2.425   6.977 -0.6437 -0.8891 -1.5598
11160SOL     OW34020   4.075   3.031   6.291  0.0230 -0.0639  0.0768
11160SOL    HW134021   4.158   3.005   6.331  0.1711  0.8407  0.3730
11160SOL    HW234022   4.054   3.115   6.332  0.2027  0.9345 -1.7594
11161SOL     OW34023   1.451   6.907   5.423  0.7035 -0.4917  0.2430
11161SOL    HW134024   1.428   6.956   5.502  1.4325 -0.4403  0.4224
11161SOL    HW234025   1.448   6.815   5.450  2.2178 -0.4317  0.6812
11162SOL     OW34026   2.114   2.609   4.976 -1.1562  0.5448 -0.1730
11162SOL    HW134027   2.106   2.533   4.918  1.3320  1.1072 -1.3851
11162SOL    HW234028   2.157   2.575   5.054  0.3030  0.6967 -0.8670
11163SOL     OW34029   0.984   0.792   0.737 -0.2404 -0.2508 -0.3322
11163SOL    HW134030   0.944   0.742   0.666  2.9970 -1.7307 -1.2750
11163SOL    HW234031   1.052   0.735   0.772  0.9192  1.9822  1.3196
11164SOL     OW34032   5.711   3.203   2.183  0.1444  0.1660  0.3799
11164SOL    HW134033   5.684   3.285   2.224 -0.7497  0.0090  0.1251
11164SOL    HW234034   5.741   3.229   2.096 -3.2633 -0.0688 -1.0214
11165SOL     OW34035   3.775   5.766   1.346  0.4161  0.1787 -0.0668
11165SOL    HW134036   3.734   5.705   1.284  1.2088 -0.5689  0.1273
11165SOL    HW234037   3.842   5.811   1.294  0.1933  0.5104 -0.0735
11166SOL     OW34038   5.419   6.127   7.173  0.4842  0.1450 -0.0840
11166SOL    HW134039   5.465   6.043   7.172  1.1700  0.4957 -1.4230
11166SOL    HW234040   5.328   6.105   7.152  0.4490 -0.3504  0.5520
11167SOL     OW34041   4.564   1.519   1.289 -0.4198  0.0736  0.7342
11167SOL    HW134042   4.480   1.546   1.327 -0.1250  0.8129  0.8881
11167SOL    HW234043   4.629   1.545   1.354  0.0013  0.2929  0.2349
11168SOL     OW34044   6.758   2.523   0.539 -0.5183 -0.0074 -0.4079
11168SOL    HW134045   6.680   2.525   0.595 -0.6718 -2.1193 -0.4643
11168SOL    HW234046   6.724   2.511   0.450 -0.1623 -0.5814 -0.4751
11169SOL     OW34047   3.127   2.417   5.915 -0.1813 -0.0950  0.2378
11169SOL    HW134048   3.208   2.466   5.906  0.0566 -0.6473 -0.9340
11169SOL    HW234049   3.144   2.354   5.984  0.5496 -0.4865 -0.2833
11170SOL     OW34050   1.132   2.543   6.311 -0.2243 -0.2555 -0.0162
11170SOL    HW134051   1.106   2.579   6.226  0.6833  0.9036  0.1624
11170SOL    HW234052   1.219   2.507   6.296 -0.5881 -1.2156  0.1313
11171SOL     OW34053   4.505   5.663   3.005  0.3329 -0.1462 -0.7329
11171SOL    HW134054   4.582   5.618   2.971 -0.8845 -2.2170 -0.9609
11171SOL    HW234055   4.501   5.745   2.956  2.3816  0.0222 -0.6791
11172SOL     OW34056   4.735   5.274   2.098  0.0232  0.4831  0.2568
11172SOL    HW134057   4.763   5.268   2.007  2.1371 -0.1145  0.8849
11172SOL    HW234058   4.816   5.283   2.147 -1.1021  1.4675  2.0516
11173SOL     OW34059   3.896   4.730   2.640  0.2190 -0.4894 -0.4774
11173SOL    HW134060   3.820   4.783   2.617  0.0279 -0.8918 -0.7914
11173SOL    HW234061   3.969   4.793   2.641 -0.0885 -0.1310 -0.3231
11174SOL     OW34062   7.067   3.096   0.481  0.1840  0.0307  0.1748
11174SOL    HW134063   6.973   3.091   0.498  0.0672 -1.4152 -0.7210
11174SOL    HW234064   7.079   3.178   0.433 -0.3572  1.0147  1.6470
11175SOL     OW34065   2.160   6.456   3.860  0.7552 -0.0767 -0.5396
11175SOL    HW134066   2.246   6.435   3.896 -0.7466 -1.2605  2.7407
11175SOL    HW234067   2.137   6.540   3.899 -0.7150 -1.1468  1.0475
11176SOL     OW34068   3.492   3.594   3.521  0.0222 -0.1901  0.8584
11176SOL    HW134069   3.563   3.558   3.574 -0.4280 -1.1353  0.8493
11176SOL    HW234070   3.535   3.643   3.452  0.6519 -0.2187  1.2294
11177SOL     OW34071   2.511   5.534   3.363  0.5318 -0.3212 -0.4889
11177SOL    HW134072   2.547   5.556   3.277  0.2131 -1.3714 -0.9059
11177SOL    HW234073   2.570   5.468   3.398  1.9873  1.7005  1.1368
11178SOL     OW34074   4.037   4.730   5.122  0.1360 -0.1077 -0.2429
11178SOL    HW134075   4.036   4.738   5.027 -0.1143  0.3351 -0.2074
11178SOL    HW234076   4.128   4.744   5.147 -0.0339  1.3416 -0.3037
11179SOL     OW34077   3.588   5.631   2.422 -0.4162 -0.2957 -0.2204
11179SOL    HW134078   3.602   5.550   2.472 -0.7971 -1.2577 -1.5913
11179SOL    HW234079   3.497   5.654   2.440 -1.2752 -1.8877 -2.0898
11180SOL     OW34080   3.728   2.148   0.859 -0.4963  0.3643 -0.3501
11180SOL    HW134081   3.748   2.098   0.780  2.0705  1.5123 -0.5377
11180SOL    HW234082   3.779   2.105   0.928 -0.5686  0.9786  0.0988
11181SOL     OW34083   5.634   0.647   5.767  0.3230  0.2159 -0.5502
11181SOL    HW134084   5.621   0.578   5.702  1.9084  0.6824 -1.4094
11181SOL    HW234085   5.721   0.682   5.748  0.0705  1.6051  0.6733
11182SOL     OW34086   2.914   1.943   6.849  0.2261  0.0417  0.1590
11182SOL    HW134087   2.881   1.952   6.938 -0.6676 -0.4857 -0.1060
11182SOL    HW234088   2.836   1.952   6.793  0.5977 -0.7354 -0.5092
11183SOL     OW34089   2.204   6.889   0.281 -0.2476  0.9581 -0.0598
11183SOL    HW134090   2.120   6.898   0.326  1.0183  0.5050  2.5590
11183SOL    HW234091   2.244   6.811   0.319  2.1130  2.1452  0.1043
11184SOL     OW34092   2.145   5.152   5.791  0.8542  0.0425 -0.1869
11184SOL    HW134093   2.096   5.088   5.738  2.5633 -0.3384 -1.3893
11184SOL    HW234094   2.086   5.174   5.863 -1.9455  1.1779 -2.6231
11185SOL     OW34095   6.745   3.660   6.957  0.3845 -0.4245 -0.6305
11185SOL    HW134096   6.732   3.633   6.866  1.0949  0.9439 -1.1545
11185SOL    HW234097   6.812   3.601   6.991 -0.5327 -1.5397 -0.6898
11186SOL     OW34098   4.485   3.030   1.092  0.3460  0.0151 -0.0484
11186SOL    HW134099   4.537   3.010   1.170 -0.3540 -0.9111  0.1978
11186SOL    HW234100   4.530   3.104   1.052  1.1730 -0.0054  0.8015
11187SOL     OW34101   3.337   1.939   0.468  0.1878 -0.2843 -0.1307
11187SOL    HW134102   3.416   1.903   0.426 -0.3585  0.1150 -1.5297
11187SOL    HW234103   3.366   2.023   0.504  0.7352 -0.7667  0.6052
11188SOL     OW34104   5.842   2.912   3.851 -0.9350  0.5838  0.1138
11188SOL    HW134105   5.828   2.881   3.941 -1.9547 -0.6254 -0.4288
11188SOL    HW234106   5.937   2.907   3.838 -0.5761  2.3685  1.6366
11189SOL     OW34107   3.296   0.626   0.792 -0.5991 -0.0249  0.8148
11189SOL    HW134108   3.210   0.669   0.786 -1.0195 -0.9846 -0.2883
11189SOL    HW234109   3.313   0.620   0.886 -1.4722  0.7007  1.0331
11190SOL     OW34110   6.029   7.179   6.942  0.1007 -0.3797 -1.0871
11190SOL    HW134111   6.112   7.227   6.939  0.0749 -0.1065  0.9945
11190SOL    HW234112   6.005   7.166   6.850  1.6986  0.8263 -1.7176
11191SOL     OW34113   1.447   0.728   3.596 -0.1723 -0.3025  0.6449
11191SOL    HW134114   1.365   0.682   3.578  0.5926 -0.7389 -2.3325
11191SOL    HW234115   1.457   0.789   3.522  2.1817 -0.2926  0.8838
11192SOL     OW34116   5.219   0.104   3.333 -0.0524  0.3727  0.4117
11192SOL    HW134117   5.298   0.056   3.307 -0.1321  0.4397  0.0430
11192SOL    HW234118   5.220   0.101   3.428  0.2181  0.0826  0.4030
11193SOL     OW34119   2.769   2.805   2.326 -1.0308  0.0441  0.2424
11193SOL    HW134120   2.824   2.736   2.361 -1.1672 -0.7307 -0.9854
11193SOL    HW234121   2.818   2.886   2.341 -0.3529 -0.4428  0.6824
11194SOL     OW34122   4.222   7.139   6.482  0.4362 -0.0094  0.2876
11194SOL    HW134123   4.306   7.183   6.493 -0.1517  0.9777  1.0287
11194SOL    HW234124   4.157   7.209   6.492 -0.4447 -0.1436 -3.2265
11195SOL     OW34125   3.618   5.287   2.444 -0.1309  0.0987  0.0612
11195SOL    HW134126   3.678   5.230   2.492  0.7765  1.5370  0.6820
11195SOL    HW234127   3.579   5.343   2.511 -1.5841 -0.2617 -0.4461
11196SOL     OW34128   0.657   6.616   0.796 -0.1424  0.1264  0.0332
11196SOL    HW134129   0.713   6.575   0.730 -0.8551 -1.7863  0.5384
11196SOL    HW234130   0.713   6.624   0.873  0.5645  1.9676 -0.6181
11197SOL     OW34131   5.702   6.383   5.341  0.3122 -0.5137 -0.2144
11197SOL    HW134132   5.653   6.375   5.259 -0.3394  2.5187 -0.2522
11197SOL    HW234133   5.783   6.427   5.317  0.5241 -0.3992  0.6616
11198SOL     OW34134   0.839   4.521   0.343  0.1970  0.3521  0.0159
11198SOL    HW134135   0.931   4.498   0.348 -0.1125 -1.1446 -0.7447
11198SOL    HW234136   0.824   4.541   0.251 -0.5528 -0.9384 -0.1688
11199SOL     OW34137   6.475   1.420   0.157 -0.1054  0.2693  0.3286
11199SOL    HW134138   6.408   1.360   0.124  0.6729 -0.3113 -0.2343
11199SOL    HW234139   6.482   1.399   0.250  0.0769 -0.4539  0.1627
11200SOL     OW34140   7.489   4.717   5.846  0.1184  0.0448 -0.1411
11200SOL    HW134141   7.412   4.667   5.872 -0.0650 -0.2322 -1.1693
11200SOL    HW234142   7.474   4.805   5.879 -0.9605  0.1666 -0.9399
11201SOL     OW34143   0.492   0.316   4.844 -0.1519 -0.1967 -0.7344
11201SOL    HW134144   0.578   0.357   4.853 -1.1155  1.4602  2.1174
11201SOL    HW234145   0.441   0.379   4.793 -1.1666  1.6716  2.3077
11202SOL     OW34146   4.198   7.428   3.848 -0.0985  1.1552  0.1046
11202SOL    HW134147   4.190   7.460   3.759 -2.5916  2.3658  0.6577
11202SOL    HW234148   4.230   7.503   3.898  0.0190  0.8969  0.4202
11203SOL     OW34149   6.193   2.285   4.302  0.0712  0.1573 -0.1242
11203SOL    HW134150   6.212   2.284   4.396  0.4848 -0.0570 -0.2059
11203SOL    HW234151   6.098   2.292   4.296 -0.0260 -0.7592  0.3100
11204SOL     OW34152   1.269   1.680   3.174 -0.2135  0.0177 -0.1386
11204SOL    HW134153   1.211   1.748   3.207 -1.6688 -2.2028  2.2552
11204SOL    HW234154   1.353   1.696   3.218 -0.1629  0.9438 -0.5584
11205SOL     OW34155   0.569   1.670   6.202 -0.1708  0.4874  0.1207
11205SOL    HW134156   0.650   1.626   6.226 -0.6155  0.0866  0.9496
11205SOL    HW234157   0.546   1.722   6.280 -0.9746  0.1770  0.1028
11206SOL     OW34158   3.579   0.611   7.415 -0.6343  0.1346 -0.4316
11206SOL    HW134159   3.632   0.688   7.432  0.1785 -0.4134 -0.4039
11206SOL    HW234160   3.498   0.626   7.463 -0.3430  0.8076 -0.1383
11207SOL     OW34161   3.067   6.008   1.047  0.2356 -0.2622 -0.3830
11207SOL    HW134162   2.972   6.024   1.051  0.2665 -0.3082  1.1055
11207SOL    HW234163   3.076   5.927   0.999 -0.7837 -2.2841  2.5464
11208SOL     OW34164   5.351   6.833   5.877 -0.1377  0.0281 -0.0189
11208SOL    HW134165   5.436   6.835   5.833 -0.0204 -1.4840  0.0945
11208SOL    HW234166   5.299   6.899   5.830  0.9559  0.7052 -0.3330
11209SOL     OW34167   5.720   4.341   0.948 -0.1466 -0.1485  0.2259
11209SOL    HW134168   5.781   4.376   0.883  1.1402 -0.2194  1.3505
11209SOL    HW234169   5.750   4.378   1.031 -0.3317 -1.8668  1.1018
11210SOL     OW34170   7.583   0.687   6.849  0.2501  0.0042 -0.0752
11210SOL    HW134171   7.540   0.753   6.794 -3.1727  0.3641  2.6945
11210SOL    HW234172   7.559   0.604   6.809  1.6318  0.2796 -1.5864
11211SOL     OW34173   0.216   5.935   3.341 -0.2704  0.3462  0.7593
11211SOL    HW134174   0.243   5.901   3.256  0.9400  0.3736  1.1180
11211SOL    HW234175   0.280   6.002   3.362 -1.1293  1.0366  1.2602
11212SOL     OW34176   2.975   6.983   6.037  0.1977  0.4475  0.1176
11212SOL    HW134177   2.884   6.979   6.006  0.8377 -1.3367 -1.8440
11212SOL    HW234178   2.976   6.928   6.115 -0.5577  1.1874  0.6647
11213SOL     OW34179   4.686   4.711   4.473 -0.4395 -0.0129  0.0556
11213SOL    HW134180   4.604   4.675   4.442 -1.5002  2.2734 -0.0057
11213SOL    HW234181   4.685   4.803   4.445  2.9188 -0.2723 -1.4543
11214SOL     OW34182   2.649   1.774   3.604  0.5923 -0.2417  0.6413
11214SOL    HW134183   2.732   1.794   3.560  0.4214 -0.4697  0.2032
11214SOL    HW234184   2.586   1.764   3.532  0.5086 -1.5804  0.8852
11215SOL     OW34185   3.158   7.495   5.612  0.3007  0.3874  0.2166
11215SOL    HW134186   3.129   7.576   5.570 -1.3819  0.0138  0.5823
11215SOL    HW234187   3.201   7.446   5.542  0.1376  1.0252 -0.3439
11216SOL     OW34188   6.843   4.115   6.481  0.1500 -0.3144 -0.0980
11216SOL    HW134189   6.779   4.050   6.453 -0.3515 -1.0818  2.5200
11216SOL    HW234190   6.790   4.182   6.526  0.8525  0.9918 -1.1409
11217SOL     OW34191   6.780   2.927   5.717 -0.4187 -0.0710  0.5021
11217SOL    HW134192   6.785   2.860   5.786  0.0961  0.1298  0.6654
11217SOL    HW234193   6.762   2.878   5.637 -1.7720 -0.2379  0.8913
11218SOL     OW34194   3.639   1.745   1.997 -0.1410 -0.3977  0.2668
11218SOL    HW134195   3.634   1.830   1.953 -0.4104  0.6784  2.2205
11218SOL    HW234196   3.720   1.705   1.965  1.3811  1.7620  1.1716
11219SOL     OW34197   1.097   3.075   3.332 -0.0706  0.3800 -0.7344
11219SOL    HW134198   1.164   3.047   3.394  0.0683  2.1310 -0.0403
11219SOL    HW234199   1.016   3.036   3.365  0.1191  0.7112  0.1403
11220SOL     OW34200   1.636   5.057   3.154 -0.1776 -0.0762 -0.0631
11220SOL    HW134201   1.681   5.103   3.083 -0.7135  1.0754  0.3241
11220SOL    HW234202   1.588   5.126   3.200  0.0529 -0.8289  1.3369
11221SOL     OW34203   6.950   4.614   4.272  0.3673 -0.5438 -0.3553
11221SOL    HW134204   6.962   4.708   4.281 -0.8402 -0.1415 -2.3706
11221SOL    HW234205   7.038   4.581   4.253  1.2257 -0.2128  2.6091
11222SOL     OW34206   4.552   7.130   3.862 -0.2588 -0.5805 -0.0692
11222SOL    HW134207   4.602   7.150   3.784 -1.3939  0.2034 -0.6220
11222SOL    HW234208   4.481   7.073   3.832 -0.5551 -0.4885  0.4318
11223SOL     OW34209   7.334   4.636   6.628  0.4919 -0.2478  0.0617
11223SOL    HW134210   7.420   4.618   6.590  0.7629  0.8846  0.1053
11223SOL    HW234211   7.323   4.731   6.620 -0.4817 -0.2931  0.6343
11224SOL     OW34212   4.646   7.019   6.368  0.0225 -0.6211  0.0842
11224SOL    HW134213   4.630   6.986   6.456 -0.7482  0.9841  0.6047
11224SOL    HW234214   4.569   6.992   6.318 -0.0231 -0.6729  0.1827
11225SOL     OW34215   3.301   5.741   6.941  0.5028  0.4300 -0.4517
11225SOL    HW134216   3.336   5.656   6.966 -0.2594 -0.1072 -1.1616
11225SOL    HW234217   3.328   5.753   6.850  1.2271  1.2839 -0.1340
11226SOL     OW34218   1.606   7.015   2.696  0.5487 -0.5233  0.3049
11226SOL    HW134219   1.550   6.979   2.627 -2.5957  2.9076  0.7279
11226SOL    HW234220   1.685   7.044   2.650  0.2144 -1.7345 -1.1157
11227SOL     OW34221   7.066   3.510   1.943  0.3453  0.2575  0.5546
11227SOL    HW134222   7.052   3.603   1.925 -0.2571  0.1941  0.6752
11227SOL    HW234223   7.154   3.492   1.909 -0.0681  0.5485 -0.7458
11228SOL     OW34224   4.738   3.488   6.550  0.0958 -0.0923 -0.1555
11228SOL    HW134225   4.661   3.472   6.494  0.2616  0.1400 -0.4504
11228SOL    HW234226   4.787   3.555   6.504  0.1306  0.2488  0.3748
11229SOL     OW34227   2.681   4.433   2.571 -0.6529 -0.2362  0.2983
11229SOL    HW134228   2.738   4.370   2.614  1.0811  1.9176  1.3684
11229SOL    HW234229   2.632   4.474   2.643 -1.0403  0.3080 -0.2610
11230SOL     OW34230   2.830   0.314   1.762 -0.0827 -0.6165  0.3698
11230SOL    HW134231   2.801   0.226   1.736 -1.4467 -0.0123 -0.2510
11230SOL    HW234232   2.758   0.371   1.735  0.9958  0.7569  0.3300
11231SOL     OW34233   5.268   1.525   4.517 -0.3710 -0.2403 -0.5625
11231SOL    HW134234   5.222   1.605   4.543 -0.7223 -1.0302  1.4650
11231SOL    HW234235   5.201   1.457   4.521 -0.1047 -0.6575 -2.3721
11232SOL     OW34236   4.176   5.318   0.234 -0.3929 -0.2090 -0.5965
11232SOL    HW134237   4.114   5.251   0.205 -0.0157  0.0801 -2.2157
11232SOL    HW234238   4.237   5.326   0.161  1.8353 -0.7961  1.1130
11233SOL     OW34239   6.403   3.268   3.859 -0.2297 -0.3281 -0.2223
11233SOL    HW134240   6.329   3.215   3.887 -0.2366 -0.1500  0.1035
11233SOL    HW234241   6.460   3.272   3.936 -0.5714  0.7286 -0.0067
11234SOL     OW34242   6.251   4.610   3.564 -0.0067  0.0187  0.2293
11234SOL    HW134243   6.199   4.673   3.614 -1.8882 -2.0733  1.1349
11234SOL    HW234244   6.322   4.661   3.527 -1.1619  2.5544  1.2489
11235SOL     OW34245   7.502   0.662   4.258 -0.0637  0.1635 -0.1478
11235SOL    HW134246   7.488   0.711   4.177 -2.0487  1.2551  0.7925
11235SOL    HW234247   7.507   0.570   4.231 -0.4287  0.5312 -1.5156
11236SOL     OW34248   1.878   5.844   3.332  0.5218 -1.1370  0.2451
11236SOL    HW134249   1.788   5.869   3.352  0.4091 -1.3891  0.0414
11236SOL    HW234250   1.895   5.880   3.245  0.0509 -2.5550 -0.4617
11237SOL     OW34251   5.560   2.308   3.969  0.1490 -0.8709 -0.2316
11237SOL    HW134252   5.549   2.360   4.049  0.5692 -2.3160  0.8177
11237SOL    HW234253   5.654   2.294   3.962  0.0609 -1.3044 -0.5912
11238SOL     OW34254   2.365   5.748   3.423 -0.1173  0.0096 -0.1166
11238SOL    HW134255   2.417   5.670   3.405 -1.2994 -0.8880  0.2697
11238SOL    HW234256   2.380   5.804   3.347 -1.1683 -1.6439 -1.6332
11239SOL     OW34257   0.742   0.743   0.334  0.0205 -0.1235  0.1844
11239SOL    HW134258   0.760   0.783   0.249 -0.0883 -0.1673  0.1406
11239SOL    HW234259   0.666   0.688   0.319  0.8109 -1.2055 -0.0246
11240SOL     OW34260   1.152   3.302   0.883  0.5722 -0.0677 -0.3844
11240SOL    HW134261   1.110   3.344   0.958  0.4372  1.3822 -1.2335
11240SOL    HW234262   1.124   3.211   0.887  1.3181 -0.2566  1.8463
11241SOL     OW34263   3.084   0.032   1.726  0.5032 -0.2097 -0.1442
11241SOL    HW134264   3.063  -0.014   1.808 -1.0272  0.1062 -0.3333
11241SOL    HW234265   3.143   0.103   1.753  2.6494 -2.0008  0.2033
11242SOL     OW34266   0.009   6.502   2.864  0.2807  0.2958 -0.0688
11242SOL    HW134267   0.031   6.595   2.856  0.6047  0.5954  2.9355
11242SOL    HW234268   0.094   6.459   2.871  0.1022 -0.0715 -0.1614
11243SOL     OW34269   5.056   1.073   0.656  0.3692 -0.2184 -0.4172
11243SOL    HW134270   5.068   1.016   0.732 -0.4846  1.2159  0.8582
11243SOL    HW234271   5.129   1.134   0.660 -2.3175  3.3337  2.6049
11244SOL     OW34272   0.200   1.396   1.485 -0.1694 -0.0612 -0.2390
11244SOL    HW134273   0.150   1.477   1.484 -0.5722 -0.3002  0.5710
11244SOL    HW234274   0.194   1.364   1.574 -0.9836 -1.5879 -0.8063
11245SOL     OW34275   5.693   2.998   7.601  0.5109 -0.3064 -0.3535
11245SOL    HW134276   5.727   2.929   7.659  0.7359  0.1744  0.1023
11245SOL    HW234277   5.769   3.055   7.586  0.5273 -0.5932 -1.3770
11246SOL     OW34278   1.014   1.928   5.910  0.0632  0.1954  0.1875
11246SOL    HW134279   1.086   1.865   5.901  0.0751  0.0712  1.0600
11246SOL    HW234280   0.954   1.886   5.972 -0.7380  0.3278 -0.4731
11247SOL     OW34281   5.783   2.340   1.295  0.1384  0.0358 -0.5200
11247SOL    HW134282   5.871   2.329   1.258  0.8017 -0.4084  1.1084
11247SOL    HW234283   5.795   2.402   1.367 -0.8051 -0.3028 -0.0627
11248SOL     OW34284   7.471   4.388   0.298 -0.5557 -0.0189 -0.5702
11248SOL    HW134285   7.399   4.395   0.361 -0.0001 -1.1095  0.2297
11248SOL    HW234286   7.490   4.478   0.272 -2.8384  0.2550 -1.5694
11249SOL     OW34287   4.440   1.252   0.975 -0.1171  0.8117  0.0267
11249SOL    HW134288   4.497   1.265   1.051  0.4536  1.4915 -0.5033
11249SOL    HW234289   4.409   1.162   0.983 -0.2500  0.9525  1.1855
11250SOL     OW34290   5.342   1.377   5.360  0.0119  0.4984  0.1077
11250SOL    HW134291   5.257   1.344   5.389  0.2798 -0.8239 -0.5244
11250SOL    HW234292   5.332   1.391   5.266  0.8142 -0.8703 -0.2171
11251SOL     OW34293   4.291   1.868   1.993  0.2156 -0.3336 -0.7100
11251SOL    HW134294   4.278   1.782   1.953  1.3184 -0.9218  0.1422
11251SOL    HW234295   4.357   1.910   1.937  0.0296 -0.2247 -0.8495
11252SOL     OW34296   3.504   6.740   4.609  0.0195  0.3277  0.5343
11252SOL    HW134297   3.582   6.796   4.603  0.5453 -0.3877  0.6282
11252SOL    HW234298   3.434   6.800   4.635  0.6102  0.9172  0.7981
11253SOL     OW34299   5.694   5.692   4.053  0.4722 -0.4109  0.7860
11253SOL    HW134300   5.659   5.615   4.098 -0.0962 -0.0335  0.9850
11253SOL    HW234301   5.720   5.658   3.967  0.7992 -0.9556  1.0887
11254SOL     OW34302   0.542   0.743   4.492 -0.3045  0.0782  0.2895
11254SOL    HW134303   0.511   0.819   4.443  0.9222 -0.3518 -1.2545
11254SOL    HW234304   0.622   0.773   4.535  0.3471 -0.3815 -0.5657
11255SOL     OW34305   2.812   6.271   6.845  0.0219 -1.0079 -0.3467
11255SOL    HW134306   2.779   6.225   6.922 -2.3120  1.5580  0.3410
11255SOL    HW234307   2.747   6.254   6.777 -0.1522  0.1091 -0.4783
11256SOL     OW34308   5.620   0.782   1.370  0.5616  0.5353  0.8630
11256SOL    HW134309   5.704   0.784   1.417 -0.8916  1.7356  3.6789
11256SOL    HW234310   5.554   0.770   1.439 -1.5757 -1.9327 -1.3660
11257SOL     OW34311   5.661   6.704   2.208  0.2297  0.0127 -0.0328
11257SOL    HW134312   5.574   6.743   2.206  0.2608  0.0908  0.1528
11257SOL    HW234313   5.686   6.703   2.300 -0.0174 -1.0013  0.0419
11258SOL     OW34314   0.222   3.849   6.255 -0.1120 -0.8785  0.0009
11258SOL    HW134315   0.306   3.808   6.273 -0.3353 -0.2188  3.2338
11258SOL    HW234316   0.240   3.943   6.255 -0.9420 -0.6616  2.0092
11259SOL     OW34317   1.310   6.303   4.692 -0.0076 -0.5033 -0.2478
11259SOL    HW134318   1.261   6.383   4.713  0.8966  0.2620 -0.9302
11259SOL    HW234319   1.243   6.236   4.679 -0.8316  0.3241 -0.3665
11260SOL     OW34320   4.856   1.051   7.337 -0.4493 -0.7365  0.6393
11260SOL    HW134321   4.937   1.072   7.291 -1.8679  2.2546 -0.7904
11260SOL    HW234322   4.859   1.103   7.417 -0.4667 -1.5454  1.1808
11261SOL     OW34323   7.052   6.326   0.257 -0.5958 -0.6586  0.3809
11261SOL    HW134324   7.087   6.295   0.341 -1.4490 -0.3783  0.8468
11261SOL    HW234325   7.079   6.259   0.194  1.3543 -0.1261  0.5858
11262SOL     OW34326   0.792   1.648   3.201 -0.0704  0.0920 -0.4371
11262SOL    HW134327   0.775   1.652   3.107 -1.2688 -0.2866 -0.2508
11262SOL    HW234328   0.711   1.677   3.242  0.0733 -0.7422  0.4931
11263SOL     OW34329   1.892   1.840   1.648 -0.2785  0.2292 -0.3827
11263SOL    HW134330   1.895   1.854   1.553 -1.9029  2.8158 -0.1635
11263SOL    HW234331   1.807   1.798   1.663  0.5478 -1.4345 -0.1330
11264SOL     OW34332   0.533   0.991   4.124  0.1292  0.3051 -0.5514
11264SOL    HW134333   0.494   0.925   4.067 -1.0288  1.3887 -1.0361
11264SOL    HW234334   0.466   1.058   4.133 -0.8073 -0.8698  4.0434
11265SOL     OW34335   6.176   2.487   5.200 -0.3130  0.1046 -0.3956
11265SOL    HW134336   6.193   2.510   5.108 -0.1139  0.3288 -0.3055
11265SOL    HW234337   6.133   2.402   5.196  0.2999 -0.2009 -0.6725
11266SOL     OW34338   7.614   3.147   4.419  0.6561 -0.5204 -0.3444
11266SOL    HW134339   7.600   3.241   4.432  0.5841 -0.6133  0.2935
11266SOL    HW234340   7.666   3.120   4.494 -0.4551 -1.2450  0.1973
11267SOL     OW34341   6.881   2.423   6.291  0.4017 -0.5225  0.5517
11267SOL    HW134342   6.950   2.488   6.280 -0.8873  0.6345 -1.2264
11267SOL    HW234343   6.920   2.341   6.260  0.9826  0.1174 -0.4614
11268SOL     OW34344   3.421   3.158   4.716  0.3242 -0.5519 -0.6042
11268SOL    HW134345   3.332   3.191   4.732 -0.3554 -2.7578  0.6062
11268SOL    HW234346   3.461   3.223   4.659 -2.1847  0.3417 -1.4690
11269SOL     OW34347   2.783   4.751   2.405 -0.3320 -0.2334 -0.1155
11269SOL    HW134348   2.816   4.662   2.424 -1.3547 -0.8207 -0.9877
11269SOL    HW234349   2.689   4.740   2.396 -0.4571  0.9362 -0.3553
11270SOL     OW34350   1.686   2.506   7.495 -0.0511 -0.2073  0.4960
11270SOL    HW134351   1.724   2.545   7.417  1.6049 -0.7482  1.0071
11270SOL    HW234352   1.656   2.420   7.467  0.4394 -0.3556  0.4276
11271SOL     OW34353   0.608   1.797   4.068  0.1023  0.1914 -0.0381
11271SOL    HW134354   0.692   1.817   4.108  0.0564  0.4818 -0.0818
11271SOL    HW234355   0.604   1.702   4.065  1.0810  0.1573 -1.3844
11272SOL     OW34356   6.041   4.495   4.543 -0.0284 -0.2368  0.1359
11272SOL    HW134357   6.032   4.510   4.637  0.3787 -1.3614  0.3680
11272SOL    HW234358   6.056   4.401   4.535  0.6194 -0.0576 -1.0008
11273SOL     OW34359   0.276   1.266   2.263 -0.0745 -0.6704 -0.4563
11273SOL    HW134360   0.358   1.278   2.311 -1.0295  2.7543  0.6249
11273SOL    HW234361   0.228   1.201   2.315  0.8318 -0.6164  0.4927
11274SOL     OW34362   4.970   1.748   3.596 -0.3988  0.6333  0.5126
11274SOL    HW134363   4.959   1.811   3.667 -1.8199 -0.5625  1.4088
11274SOL    HW234364   4.977   1.802   3.517  1.8695  2.0167  1.5599
11275SOL     OW34365   3.507   3.154   6.536  0.1718  0.1299 -0.2701
11275SOL    HW134366   3.449   3.094   6.489  0.7156 -1.5352  1.0762
11275SOL    HW234367   3.559   3.195   6.467  0.7839 -2.0627 -1.1917
11276SOL     OW34368   4.219   2.158   6.474  0.0510  0.8959 -0.1566
11276SOL    HW134369   4.153   2.217   6.438 -0.5581  0.0785 -0.4196
11276SOL    HW234370   4.262   2.209   6.542 -0.3270  1.7055 -0.5031
11277SOL     OW34371   2.746   1.557   3.747  0.2013  0.8334  0.5328
11277SOL    HW134372   2.735   1.576   3.840 -0.4374  0.9870  0.4301
11277SOL    HW234373   2.710   1.633   3.702 -0.2956  0.3786  0.1522
11278SOL     OW34374   6.991   6.774   6.622  0.1447  0.8968 -0.0145
11278SOL    HW134375   6.908   6.777   6.575  0.9164 -0.7626 -1.5823
11278SOL    HW234376   7.054   6.817   6.564  0.7586  0.4975  0.3439
11279SOL     OW34377   3.864   0.138   1.416 -0.1401  0.2867 -0.1735
11279SOL    HW134378   3.950   0.180   1.416 -0.1315  0.3156  1.1300
11279SOL    HW234379   3.884   0.045   1.425 -0.1740 -0.0085 -2.6282
11280SOL     OW34380   5.935   7.118   2.517 -0.2426  0.3349 -0.1967
11280SOL    HW134381   5.962   7.092   2.429  0.5115  0.9694 -0.1673
11280SOL    HW234382   6.012   7.104   2.572 -1.3637 -2.1809  0.8530
11281SOL     OW34383   2.091   0.423   3.862 -0.2694 -0.4937  0.1479
11281SOL    HW134384   2.079   0.517   3.875  2.6639 -0.0035 -0.0268
11281SOL    HW234385   2.042   0.404   3.782  0.8062  1.3629 -1.0202
11282SOL     OW34386   6.496   5.988   5.576 -0.6072  0.2414 -0.4080
11282SOL    HW134387   6.533   5.908   5.612 -2.4258 -0.1397  0.7697
11282SOL    HW234388   6.423   5.959   5.521 -0.8314  1.0626 -0.5689
11283SOL     OW34389   0.894   4.634   1.186  0.1867  0.1319  0.7842
11283SOL    HW134390   0.827   4.698   1.162  0.3284 -0.7036 -2.2828
11283SOL    HW234391   0.845   4.563   1.228 -0.3406  0.9746  1.6382
11284SOL     OW34392   6.809   6.458   7.407  0.3864 -0.7342  0.0210
11284SOL    HW134393   6.865   6.384   7.384  0.9114 -0.7846  1.3454
11284SOL    HW234394   6.870   6.530   7.425 -0.1382  0.2679 -1.9454
11285SOL     OW34395   0.788   6.501   7.473 -0.3985  0.7631 -0.5459
11285SOL    HW134396   0.697   6.476   7.457  0.0299 -1.7411  0.4123
11285SOL    HW234397   0.811   6.457   7.555  1.3664  2.2222 -0.1948
11286SOL     OW34398   6.840   6.728   3.388  0.1072 -0.3828  0.0514
11286SOL    HW134399   6.766   6.684   3.346  0.5896 -0.9836 -0.1773
11286SOL    HW234400   6.916   6.674   3.367  0.8357  0.8906 -0.7944
11287SOL     OW34401   1.644   1.736   2.805  0.0245 -0.0937 -0.0988
11287SOL    HW134402   1.574   1.788   2.846  0.4493 -0.3336  0.9830
11287SOL    HW234403   1.668   1.672   2.872  2.3467  0.9711  0.1875
11288SOL     OW34404   1.371   1.746   6.524 -0.1408 -0.0954  0.0711
11288SOL    HW134405   1.411   1.785   6.602  0.5927 -0.3056 -0.1980
11288SOL    HW234406   1.340   1.822   6.474 -2.1209  0.0080  1.3200
11289SOL     OW34407   0.008   4.768   4.556  0.0089  0.1309 -0.2724
11289SOL    HW134408   0.073   4.709   4.517 -0.1776 -0.8678  0.8514
11289SOL    HW234409  -0.069   4.712   4.569  0.0645  0.4167  1.4739
11290SOL     OW34410   5.280   2.874   2.707 -0.0973 -0.2734  0.0413
11290SOL    HW134411   5.368   2.892   2.673  0.0239  1.2493  1.0366
11290SOL    HW234412   5.228   2.854   2.629  0.6883  0.8013 -0.8046
11291SOL     OW34413   0.535   2.284   6.026  0.4606  0.4569 -0.4625
11291SOL    HW134414   0.587   2.274   6.105 -0.3573  0.1729  0.0504
11291SOL    HW234415   0.564   2.213   5.969  1.4927  1.0368 -0.6831
11292SOL     OW34416   3.074   1.502   3.257 -0.2085 -0.4150  0.0182
11292SOL    HW134417   3.062   1.573   3.321  0.6452 -0.8065  0.6402
11292SOL    HW234418   3.145   1.532   3.201 -1.7645  0.4788 -1.5952
11293SOL     OW34419   6.459   2.894   6.092 -0.1384 -0.1093 -0.1121
11293SOL    HW134420   6.475   2.851   6.177 -0.4723  0.4634  0.2432
11293SOL    HW234421   6.515   2.972   6.094 -0.3664  0.0591 -0.2958
11294SOL     OW34422   4.141   3.224   2.688 -0.1849 -0.4072 -0.3464
11294SOL    HW134423   4.090   3.151   2.725 -0.0091 -0.2336  0.2414
11294SOL    HW234424   4.084   3.300   2.699 -1.5700 -0.8396 -3.4441
11295SOL     OW34425   1.259   6.280   5.038  0.0051  0.3416  0.5120
11295SOL    HW134426   1.202   6.209   5.008 -0.1717  0.1531  1.2665
11295SOL    HW234427   1.206   6.327   5.103  0.6378  0.2908  1.0684
11296SOL     OW34428   6.952   4.787   6.394 -0.3774 -0.0609  0.0378
11296SOL    HW134429   7.011   4.833   6.334  1.4924 -0.6313  1.3465
11296SOL    HW234430   6.878   4.760   6.339  1.7778 -1.5942 -2.3458
11297SOL     OW34431   2.422   0.898   5.737  0.1546 -0.4838  0.1105
11297SOL    HW134432   2.501   0.869   5.692 -0.0656  1.0769 -1.4084
11297SOL    HW234433   2.353   0.891   5.671 -0.9009 -1.3662  1.2670
11298SOL     OW34434   1.198   7.605   6.600  0.1323  0.4075  0.8826
11298SOL    HW134435   1.214   7.592   6.507 -0.5214  2.7896  0.3756
11298SOL    HW234436   1.146   7.685   6.605 -0.9510 -0.3314  3.2263
11299SOL     OW34437   6.999   3.861   4.233  0.5166  0.1647 -0.0412
11299SOL    HW134438   6.936   3.852   4.161  1.9946  0.5258 -1.4200
11299SOL    HW234439   7.056   3.785   4.225  1.1989  0.6366  0.2430
11300SOL     OW34440   4.769   0.496   0.289 -0.4117  0.4392  0.2849
11300SOL    HW134441   4.841   0.472   0.348 -0.2844  0.6433  0.2148
11300SOL    HW234442   4.775   0.591   0.282 -0.1542  0.3765 -0.4145
11301SOL     OW34443   0.161   5.310   5.426  0.2763 -0.2091  0.0599
11301SOL    HW134444   0.102   5.243   5.462 -0.2577  0.8039  1.1189
11301SOL    HW234445   0.106   5.387   5.416  1.3093  0.6176  0.5988
11302SOL     OW34446   1.507   7.069   4.487 -0.8283 -0.5942 -0.0213
11302SOL    HW134447   1.514   7.068   4.583 -0.8049  1.0007  0.0133
11302SOL    HW234448   1.414   7.053   4.470 -0.6928 -1.7554  0.2099
11303SOL     OW34449   6.417   0.595   1.886 -0.1270 -0.3470  0.4944
11303SOL    HW134450   6.380   0.551   1.809 -1.1442 -1.2718  1.4592
11303SOL    HW234451   6.353   0.577   1.956  0.6389  0.6785  1.4896
11304SOL     OW34452   7.385   0.100   1.622  0.5926  0.4718 -0.2249
11304SOL    HW134453   7.468   0.065   1.654  1.2969  0.0787 -2.3285
11304SOL    HW234454   7.396   0.105   1.527 -2.1160 -0.4563 -0.6759
11305SOL     OW34455   3.970   0.568   4.065  0.4002 -0.4399  0.2100
11305SOL    HW134456   4.039   0.504   4.050 -1.2139 -1.8988 -1.5329
11305SOL    HW234457   3.906   0.522   4.120 -0.9534 -0.5284 -1.3639
11306SOL     OW34458   0.966   6.868   2.841 -0.8495 -0.1695 -0.0703
11306SOL    HW134459   0.980   6.937   2.906  0.3065 -1.7048  1.3562
11306SOL    HW234460   0.927   6.915   2.766 -2.4440  1.6218  1.7451
11307SOL     OW34461   6.609   2.561   7.003 -0.4732  0.5176 -0.3728
11307SOL    HW134462   6.525   2.544   7.047 -0.1464 -1.0449 -0.2931
11307SOL    HW234463   6.635   2.648   7.033 -0.1186 -0.5759  2.8136
11308SOL     OW34464   0.818   6.293   5.582 -0.1373 -0.6283 -0.2308
11308SOL    HW134465   0.778   6.225   5.528  0.2310 -1.4469  0.5013
11308SOL    HW234466   0.761   6.369   5.571 -1.0978 -1.3417 -0.3105
11309SOL     OW34467   0.738   6.943   7.257  0.2049 -0.4204 -0.5642
11309SOL    HW134468   0.666   6.979   7.205 -0.3649  0.2322  0.6376
11309SOL    HW234469   0.696   6.880   7.315  0.8733 -1.3222 -1.0331
11310SOL     OW34470   6.054   0.207   5.021  0.4406  0.0840  0.1986
11310SOL    HW134471   6.091   0.285   5.062 -1.1383  1.4899 -0.9093
11310SOL    HW234472   6.090   0.134   5.071 -0.3962  1.6182  3.2647
11311SOL     OW34473   3.078   0.963   0.867 -0.0210  0.3196 -0.3733
11311SOL    HW134474   3.169   0.934   0.857  0.0792 -0.2041  1.6146
11311SOL    HW234475   3.064   1.023   0.794  2.1701  0.9810 -0.3389
11312SOL     OW34476   5.074   7.006   4.625 -0.2139  0.2726 -0.0815
11312SOL    HW134477   5.088   7.038   4.536 -0.4792 -0.0597 -0.2479
11312SOL    HW234478   5.141   7.049   4.678  1.9670 -1.7872 -0.9556
11313SOL     OW34479   6.873   1.187   3.328  0.3346  0.3422 -0.5974
11313SOL    HW134480   6.960   1.219   3.306  0.1317  2.0217  0.8377
11313SOL    HW234481   6.815   1.228   3.265  0.3464  0.9843 -0.1971
11314SOL     OW34482   5.519   6.473   7.203  0.1830  0.4480  0.4214
11314SOL    HW134483   5.538   6.396   7.150  3.1147  1.6952 -0.5285
11314SOL    HW234484   5.452   6.520   7.153 -1.5752 -1.3468  0.9744
11315SOL     OW34485   5.538   6.233   4.705  0.1845 -0.2879 -0.4833
11315SOL    HW134486   5.502   6.193   4.626 -2.1231 -0.1640  0.4274
11315SOL    HW234487   5.503   6.322   4.705 -2.0110 -1.0280  1.8761
11316SOL     OW34488   7.096   2.329   0.594  0.3175  0.2913  0.0826
11316SOL    HW134489   7.113   2.407   0.541  0.9295 -0.0285 -0.2106
11316SOL    HW234490   7.136   2.349   0.679 -1.5353  1.2070  0.7944
11317SOL     OW34491   5.306   2.807   4.348 -0.1484  0.0454  0.6377
11317SOL    HW134492   5.367   2.817   4.275 -1.8201 -0.7352 -0.9595
11317SOL    HW234493   5.348   2.852   4.421  1.0457  1.9679 -1.1230
11318SOL     OW34494   0.599   3.031   7.601 -0.1858  0.2962 -0.0981
11318SOL    HW134495   0.592   2.953   7.656  0.0521  0.0703 -0.3888
11318SOL    HW234496   0.579   3.104   7.660 -0.2935  0.0256  0.1998
11319SOL     OW34497   6.448   4.223   4.685  0.6359  0.3795 -0.0333
11319SOL    HW134498   6.513   4.156   4.666  0.6193  0.5529 -0.7258
11319SOL    HW234499   6.424   4.258   4.599  0.2949  0.9378  0.2844
11320SOL     OW34500   4.776   5.309   7.300  0.0852  0.7443 -0.3832
11320SOL    HW134501   4.728   5.285   7.379  0.4581  2.0759  0.2757
11320SOL    HW234502   4.795   5.402   7.311 -0.7302  1.2214 -2.4978
11321SOL     OW34503   3.048   2.714   2.401 -0.4638  0.5559 -0.1601
11321SOL    HW134504   3.118   2.649   2.401  0.5807  1.6242  0.6998
11321SOL    HW234505   3.023   2.723   2.493 -0.7927  1.1491 -0.3005
11322SOL     OW34506   2.828   0.551   0.475 -0.3426 -0.2051 -0.0428
11322SOL    HW134507   2.791   0.465   0.497  1.2760 -0.3222  2.6690
11322SOL    HW234508   2.840   0.594   0.559  1.3376  1.6522 -1.1417
11323SOL     OW34509   3.052   2.298   1.247  0.0326 -0.1032  0.1956
11323SOL    HW134510   3.008   2.214   1.233  0.4880 -0.0747 -1.6272
11323SOL    HW234511   2.982   2.358   1.273 -0.3995 -0.8581  0.8386
11324SOL     OW34512   0.350   5.756   6.998 -0.5709  0.2245 -0.1937
11324SOL    HW134513   0.334   5.782   6.907 -0.8928  1.0906  0.1024
11324SOL    HW234514   0.374   5.663   6.992 -4.0503 -0.7820 -0.8209
11325SOL     OW34515   5.133   5.876   6.498  0.0306  0.5117  0.6663
11325SOL    HW134516   5.179   5.939   6.553  0.7929  1.4824 -0.9987
11325SOL    HW234517   5.074   5.930   6.445 -2.2928 -0.5871  1.9365
11326SOL     OW34518   2.446   7.114   3.434  0.1416 -0.3980 -0.7605
11326SOL    HW134519   2.366   7.105   3.382 -0.3286 -0.4052 -0.0357
11326SOL    HW234520   2.484   7.198   3.405 -1.2656  0.7030  0.4230
11327SOL     OW34521   6.068   5.490   1.323  0.5589 -0.5436  0.3410
11327SOL    HW134522   6.053   5.511   1.416 -1.4279  0.3288 -0.1149
11327SOL    HW234523   6.159   5.515   1.307  0.2330  1.6298  1.4772
11328SOL     OW34524   3.015   1.556   7.196 -0.1507  0.0833  0.6778
11328SOL    HW134525   2.987   1.545   7.287  0.4081  1.9053  1.1070
11328SOL    HW234526   3.107   1.582   7.202  0.5501 -1.9297 -0.5344
11329SOL     OW34527   2.037   0.266   6.158  0.1474 -0.0837  0.5982
11329SOL    HW134528   2.094   0.189   6.165  1.0881  0.6229  0.9331
11329SOL    HW234529   1.958   0.233   6.115  0.9065 -1.0386 -0.1188
11330SOL     OW34530   5.563   3.745   6.448  0.1183 -0.5774  0.2052
11330SOL    HW134531   5.580   3.655   6.477  1.7214 -0.4715 -0.2763
11330SOL    HW234532   5.645   3.771   6.404 -0.5374  0.9072 -0.1811
11331SOL     OW34533   7.180   3.955   1.752  0.1774 -0.0855  0.3758
11331SOL    HW134534   7.234   4.004   1.690 -0.5677  0.7118  0.3429
11331SOL    HW234535   7.227   3.961   1.835  0.1316  0.6395  0.3570
11332SOL     OW34536   4.829   2.358   6.559  0.3804 -0.1975  0.2814
11332SOL    HW134537   4.923   2.361   6.573  0.3071  0.7372  0.6149
11332SOL    HW234538   4.803   2.271   6.590  0.7064  0.6085  3.0222
11333SOL     OW34539   1.249   5.396   3.178  0.0276  0.2385  0.4183
11333SOL    HW134540   1.168   5.375   3.132 -0.1031  0.2871  0.6255
11333SOL    HW234541   1.247   5.491   3.188 -0.3697  0.1432  1.3044
11334SOL     OW34542   3.688   1.078   2.609  0.4437  0.3009  0.1958
11334SOL    HW134543   3.617   1.126   2.650  0.4028 -0.5419  1.1523
11334SOL    HW234544   3.756   1.143   2.593 -0.2243  0.9618 -0.0052
11335SOL     OW34545   5.524   0.889   3.964  0.1120 -0.1929 -0.3261
11335SOL    HW134546   5.480   0.817   3.918  2.9920 -1.7256 -0.9068
11335SOL    HW234547   5.617   0.873   3.949  0.9068  2.9769  0.6549
11336SOL     OW34548   4.737   4.785   5.405 -0.4614  0.0082  0.2908
11336SOL    HW134549   4.783   4.860   5.367  0.1113 -1.0542 -1.2479
11336SOL    HW234550   4.745   4.797   5.499  3.9303 -0.5210  0.2151
11337SOL     OW34551   6.946   4.809   7.436 -0.4291 -0.4048 -0.2334
11337SOL    HW134552   6.902   4.750   7.376 -1.9914  0.6945 -0.2292
11337SOL    HW234553   6.948   4.762   7.519 -0.1848 -1.0843 -0.6168
11338SOL     OW34554   6.282   2.113   4.840 -0.5573  0.5333  0.3462
11338SOL    HW134555   6.308   2.022   4.824 -0.7004  0.6244 -0.3989
11338SOL    HW234556   6.329   2.136   4.921  1.4463  0.5880 -0.7648
11339SOL     OW34557   4.661   0.125   5.673 -0.4850  0.0505  0.5986
11339SOL    HW134558   4.609   0.205   5.674  0.6204  0.8786 -1.6659
11339SOL    HW234559   4.723   0.137   5.602  1.1439 -1.9598  1.5598
11340SOL     OW34560   3.514   2.472   4.026  0.1559 -0.6498  0.2494
11340SOL    HW134561   3.419   2.477   4.014 -0.1344 -1.7800  1.8438
11340SOL    HW234562   3.549   2.481   3.937 -1.3924  0.4012 -0.3017
11341SOL     OW34563   5.724   2.333   6.359 -0.5533  0.3118  0.2136
11341SOL    HW134564   5.674   2.258   6.390  0.1487 -1.1253 -1.8938
11341SOL    HW234565   5.689   2.408   6.408 -1.9964 -1.2094  1.6249
11342SOL     OW34566   7.197   1.181   0.929 -0.2001  0.0856 -0.2974
11342SOL    HW134567   7.218   1.143   1.014  0.6733 -0.2759 -0.6612
11342SOL    HW234568   7.125   1.128   0.895 -0.2421 -0.0588  0.0180
11343SOL     OW34569   0.194   5.689   2.837 -0.2064  0.0739 -0.1357
11343SOL    HW134570   0.114   5.641   2.860  1.2801 -2.6352 -0.1007
11343SOL    HW234571   0.258   5.620   2.818  2.0465  2.1213 -0.4620
11344SOL     OW34572   1.435   6.069   7.178 -0.1329 -0.4774 -0.0607
11344SOL    HW134573   1.460   6.000   7.239 -0.9699 -0.5649  0.1987
11344SOL    HW234574   1.413   6.144   7.235  1.1853  0.1611 -0.3520
11345SOL     OW34575   3.088   0.208   4.813  0.1412  0.1237  0.0694
11345SOL    HW134576   3.077   0.165   4.897  0.2849 -0.8997 -0.4218
11345SOL    HW234577   3.032   0.285   4.817 -0.2747 -0.2176  0.8918
11346SOL     OW34578   3.759   6.018   2.304  0.6742  0.2234 -0.5890
11346SOL    HW134579   3.776   6.109   2.279  1.2729  0.0349 -0.8997
11346SOL    HW234580   3.770   6.016   2.399 -0.5137  0.7152 -0.4324
11347SOL     OW34581   1.019   2.856   0.588  0.3346  0.6241 -0.8234
11347SOL    HW134582   0.973   2.784   0.544 -0.0654  0.0105  0.5284
11347SOL    HW234583   1.112   2.834   0.579  0.1949 -0.4531  0.1686
11348SOL     OW34584   0.170   0.736   0.911 -0.3278  0.2762 -0.2491
11348SOL    HW134585   0.246   0.791   0.895  0.3212 -0.0174  1.5853
11348SOL    HW234586   0.118   0.784   0.975  0.1437 -1.0770  1.2238
11349SOL     OW34587   2.399   2.013   5.041 -0.0387 -0.0587 -0.5824
11349SOL    HW134588   2.423   1.929   5.079 -0.0631 -0.7231 -1.9540
11349SOL    HW234589   2.478   2.067   5.047 -0.1739  0.0097  0.7575
11350SOL     OW34590   5.746   5.571   3.809  0.5978  0.3430 -0.5721
11350SOL    HW134591   5.815   5.504   3.806 -0.0145 -0.3605  0.4406
11350SOL    HW234592   5.686   5.546   3.738  1.7463  1.4251 -2.0034
11351SOL     OW34593   2.357   4.657   3.807 -0.5043 -0.1419  0.1425
11351SOL    HW134594   2.404   4.692   3.731 -0.7813 -1.5584 -0.7282
11351SOL    HW234595   2.267   4.689   3.796 -0.3661  0.3227  0.3290
11352SOL     OW34596   0.387   2.509   4.713 -0.2465  0.2271 -0.0157
11352SOL    HW134597   0.416   2.582   4.767 -0.3825  0.6157 -0.4627
11352SOL    HW234598   0.322   2.463   4.767 -1.0149  1.1102 -0.1717
11353SOL     OW34599   5.160   5.908   3.663 -0.0892  0.2447  0.7285
11353SOL    HW134600   5.119   5.900   3.577 -1.2047 -0.0724  1.2717
11353SOL    HW234601   5.124   5.834   3.713  0.8016  0.2307  1.3681
11354SOL     OW34602   4.354   5.475   7.022 -0.5225 -0.1966  0.0927
11354SOL    HW134603   4.392   5.392   6.992  0.2803 -0.3050  1.3382
11354SOL    HW234604   4.337   5.461   7.116  1.0142  1.5180  0.6783
11355SOL     OW34605   3.451   3.896   4.094 -0.5607  0.2932  0.5653
11355SOL    HW134606   3.520   3.944   4.139  0.1412  1.4687 -1.5928
11355SOL    HW234607   3.459   3.806   4.126  2.2020  0.3160  0.1899
11356SOL     OW34608   6.338   5.244   2.973 -0.3491  0.3632 -0.0391
11356SOL    HW134609   6.331   5.253   2.878  0.5954  0.7076 -0.0932
11356SOL    HW234610   6.399   5.171   2.986 -0.7016  0.1260  0.3094
11357SOL     OW34611   5.065   0.689   0.809 -0.2806 -0.0021  0.9555
11357SOL    HW134612   5.126   0.749   0.766 -2.7379  1.1115 -1.2907
11357SOL    HW234613   5.012   0.745   0.865 -1.4094 -0.3122  0.2405
11358SOL     OW34614   7.227   6.267   3.016  0.2177 -0.2305  0.6076
11358SOL    HW134615   7.257   6.356   3.031  0.0784 -0.2867  1.2426
11358SOL    HW234616   7.236   6.254   2.922 -1.5862  1.1360  0.1857
11359SOL     OW34617   5.397   1.174   3.221  0.2338 -0.5297  0.0194
11359SOL    HW134618   5.451   1.201   3.147  1.5021 -0.6523  0.8533
11359SOL    HW234619   5.311   1.157   3.184  1.2697 -2.3680 -1.7598
11360SOL     OW34620   0.180   5.055   4.144 -0.0628 -0.6200  0.3414
11360SOL    HW134621   0.206   5.061   4.236  2.7024  0.5003 -0.4176
11360SOL    HW234622   0.084   5.055   4.146 -0.0924 -1.2076  3.2157
11361SOL     OW34623   7.037   2.686   4.226  0.1159  0.2679  0.1222
11361SOL    HW134624   7.130   2.666   4.235 -0.0931  0.1132  3.0052
11361SOL    HW234625   7.020   2.752   4.294 -2.2186 -1.2059  1.0990
11362SOL     OW34626   0.387   2.248   7.245 -0.1304  0.8397 -0.7516
11362SOL    HW134627   0.451   2.210   7.185  0.0514  1.4462 -0.9540
11362SOL    HW234628   0.309   2.261   7.191 -0.0813  1.0607 -0.7708
11363SOL     OW34629   2.502   4.342   0.450 -0.7848  0.1654 -0.6138
11363SOL    HW134630   2.468   4.303   0.530  1.9321 -0.1711  0.5101
11363SOL    HW234631   2.465   4.289   0.380 -2.2536 -0.3230  0.4718
11364SOL     OW34632   1.013   3.396   2.611  0.0136  0.0351  0.1566
11364SOL    HW134633   0.922   3.419   2.592  0.1236  0.3008 -0.0604
11364SOL    HW234634   1.019   3.302   2.594 -0.0912  0.1177 -0.3307
11365SOL     OW34635   7.585   0.100   6.754  0.2323 -0.3050 -0.0355
11365SOL    HW134636   7.506   0.152   6.772 -0.0068 -0.4729 -0.6021
11365SOL    HW234637   7.593   0.099   6.659  0.7884 -0.4931  0.0069
11366SOL     OW34638   3.539   4.286   6.206  0.4808  0.4616  0.1160
11366SOL    HW134639   3.468   4.320   6.152 -0.5413 -0.4188  0.8609
11366SOL    HW234640   3.554   4.355   6.271  1.7344  1.5339 -1.2544
11367SOL     OW34641   7.137   4.617   3.701 -0.3720  0.1058 -0.0022
11367SOL    HW134642   7.149   4.585   3.612 -0.9108 -1.3257  0.4099
11367SOL    HW234643   7.135   4.712   3.692 -1.7239 -0.0315 -1.6893
11368SOL     OW34644   1.018   4.838   1.509  0.0801  0.5148 -0.7254
11368SOL    HW134645   1.075   4.769   1.476  0.2793  0.4102 -0.1866
11368SOL    HW234646   1.074   4.916   1.509  0.6698  0.1362  1.0642
11369SOL     OW34647   2.508   6.878   1.943  0.4202 -0.4027 -0.1682
11369SOL    HW134648   2.589   6.847   1.904  0.9540  0.5686  0.1380
11369SOL    HW234649   2.535   6.945   2.006 -0.6259  0.0630 -0.1908
11370SOL     OW34650   1.436   1.058   4.021 -0.3971 -0.3011 -0.3266
11370SOL    HW134651   1.419   1.126   4.087 -0.5052  0.8327 -1.4757
11370SOL    HW234652   1.412   0.976   4.064  1.4274  0.1604  1.7166
11371SOL     OW34653   7.216   7.585   2.025  0.5220  0.3783  0.0969
11371SOL    HW134654   7.291   7.622   2.073  0.9451 -2.4289  1.8439
11371SOL    HW234655   7.248   7.502   1.991 -1.6373 -0.6422  0.4142
11372SOL     OW34656   1.127   1.072   6.724  0.8138  0.2922 -0.7944
11372SOL    HW134657   1.041   1.028   6.720  0.8095  0.2921 -0.6926
11372SOL    HW234658   1.144   1.097   6.633  0.9055 -0.0931 -0.8855
11373SOL     OW34659   0.857   7.497   7.389  0.0393  0.0756 -0.6341
11373SOL    HW134660   0.897   7.548   7.318  1.3965  0.3833  0.3097
11373SOL    HW234661   0.898   7.411   7.382  0.7101  0.3118  0.1747
11374SOL     OW34662   2.029   4.971   2.488  0.4175 -0.0118 -0.6130
11374SOL    HW134663   2.059   4.890   2.447  1.9159  0.5655 -0.6928
11374SOL    HW234664   1.994   4.943   2.573  2.3092 -0.5964  0.0112
11375SOL     OW34665   4.352   5.046   3.620  0.7999 -0.0982 -0.2417
11375SOL    HW134666   4.376   5.005   3.703 -0.1829  0.6124  0.4198
11375SOL    HW234667   4.367   4.978   3.554 -0.1617 -1.3143  0.7386
11376SOL     OW34668   7.351   3.353   2.104 -0.8986  0.2146  0.0562
11376SOL    HW134669   7.290   3.279   2.098 -2.2394  1.1641  1.2127
11376SOL    HW234670   7.349   3.393   2.017 -0.8703 -0.5461 -0.3071
11377SOL     OW34671   7.537   4.440   7.470 -0.0308 -0.0407 -0.4322
11377SOL    HW134672   7.495   4.476   7.548 -0.3492 -0.4071 -0.4290
11377SOL    HW234673   7.531   4.345   7.482 -0.5774 -0.1029 -1.1656
11378SOL     OW34674   3.858   3.826   2.619  0.1013  0.0920 -0.4919
11378SOL    HW134675   3.884   3.763   2.552 -1.6241  0.9654 -2.0720
11378SOL    HW234676   3.933   3.885   2.628  1.9165 -2.2850  1.3001
11379SOL     OW34677   1.584   5.786   0.296  0.5801  0.0962 -0.5093
11379SOL    HW134678   1.673   5.803   0.325  1.2521 -2.0547 -1.0938
11379SOL    HW234679   1.545   5.735   0.368 -0.3186  1.3364 -0.0931
11380SOL     OW34680   7.433   4.440   4.383 -0.2271  0.6326  0.1038
11380SOL    HW134681   7.524   4.421   4.405 -0.5870 -1.0361  0.3189
11380SOL    HW234682   7.431   4.445   4.288 -0.2603 -1.6288 -0.0641
11381SOL     OW34683   1.581   4.384   7.331  0.8499  0.0956  0.1505
11381SOL    HW134684   1.550   4.390   7.241  3.3368  1.1604 -0.7323
11381SOL    HW234685   1.667   4.342   7.324  1.6097  1.2417  1.8663
11382SOL     OW34686   2.270   6.192   4.191 -0.1373  0.3344 -0.3052
11382SOL    HW134687   2.321   6.117   4.222 -2.9255 -1.4395  0.4145
11382SOL    HW234688   2.257   6.176   4.098  0.3486  0.6505 -0.4331
11383SOL     OW34689   6.931   5.272   0.710  0.1508 -0.3839 -0.2523
11383SOL    HW134690   6.848   5.314   0.731  0.3003  0.2712 -0.9602
11383SOL    HW234691   6.983   5.280   0.790 -0.6734 -1.3345  0.3975
11384SOL     OW34692   3.529   5.959   1.374 -0.3490  0.1769  0.3737
11384SOL    HW134693   3.577   5.880   1.347 -0.7630 -0.0835  0.3728
11384SOL    HW234694   3.535   5.960   1.469 -0.7424 -0.1239  0.4064
11385SOL     OW34695   1.239   7.386   2.602  0.1899 -0.3507 -0.5360
11385SOL    HW134696   1.321   7.336   2.600 -0.4594 -1.4687 -0.3202
11385SOL    HW234697   1.201   7.374   2.515 -0.4309 -1.0538 -0.1786
11386SOL     OW34698   6.520   5.635   6.942 -0.2996 -0.1603 -0.5856
11386SOL    HW134699   6.536   5.726   6.916 -1.2481  0.1932 -0.0064
11386SOL    HW234700   6.553   5.629   7.032 -0.3645 -0.3388 -0.5719
11387SOL     OW34701   1.402   1.819   7.578 -0.0326  0.0936 -0.2912
11387SOL    HW134702   1.469   1.887   7.584 -0.5488  0.5371  0.7004
11387SOL    HW234703   1.347   1.845   7.504  0.1872  0.3760 -0.3543
11388SOL     OW34704   4.435   5.946   6.861 -0.0370 -0.1810  0.4732
11388SOL    HW134705   4.530   5.963   6.857 -0.2266  0.8288 -0.6934
11388SOL    HW234706   4.421   5.878   6.796 -0.1455 -0.0998  0.4115
11389SOL     OW34707   2.003   2.399   1.260  0.0863 -0.5490 -0.1416
11389SOL    HW134708   2.049   2.341   1.321  0.3367 -2.4236 -2.0153
11389SOL    HW234709   1.911   2.395   1.287  0.3746 -0.2231  0.9386
11390SOL     OW34710   2.363   7.579   3.764  0.1046  0.1833 -0.3716
11390SOL    HW134711   2.331   7.647   3.823  1.0224 -0.5240  0.9909
11390SOL    HW234712   2.456   7.598   3.752 -0.0149  0.1847 -1.4299
11391SOL     OW34713   1.992   0.206   6.853 -0.6291 -0.0881  0.1721
11391SOL    HW134714   1.968   0.131   6.799 -1.2170 -0.3761  0.8034
11391SOL    HW234715   1.954   0.282   6.808  1.7664  0.1587 -1.6109
11392SOL     OW34716   4.430   5.118   5.015 -0.2509 -0.3810 -0.2557
11392SOL    HW134717   4.499   5.055   5.035  0.2012 -0.1191 -0.9713
11392SOL    HW234718   4.412   5.160   5.100 -0.2735 -1.1743  0.1422
11393SOL     OW34719   1.611   5.734   0.862  0.3070 -0.1009 -0.2690
11393SOL    HW134720   1.537   5.793   0.879 -0.9984 -1.5878 -0.5631
11393SOL    HW234721   1.603   5.667   0.929  1.9261  0.1578  0.2198
11394SOL     OW34722   2.385   0.404   7.554  0.6570  0.2675  0.1818
11394SOL    HW134723   2.347   0.483   7.593  0.0365  0.1136 -0.0968
11394SOL    HW234724   2.409   0.349   7.628 -2.1191 -0.7919  0.4052
11395SOL     OW34725   6.574   4.238   2.065 -0.3477  0.1465 -0.3408
11395SOL    HW134726   6.491   4.283   2.078 -0.6426 -0.6271  0.5922
11395SOL    HW234727   6.637   4.308   2.047 -0.7818  0.9480  1.0983
11396SOL     OW34728   5.558   5.640   7.243  0.5108 -0.3344 -0.1438
11396SOL    HW134729   5.587   5.553   7.217 -2.0737 -0.8651 -1.5474
11396SOL    HW234730   5.524   5.679   7.162  1.0860  1.8040  0.5704
11397SOL     OW34731   3.286   1.131   0.500  0.7151 -0.0425 -0.5064
11397SOL    HW134732   3.212   1.070   0.501  0.4358  0.2497  1.0700
11397SOL    HW234733   3.324   1.124   0.588  2.9446 -0.5875 -1.4576
11398SOL     OW34734   5.851   6.350   1.732  0.2237  1.0187  0.0056
11398SOL    HW134735   5.941   6.367   1.759  0.5171  1.2705 -1.0714
11398SOL    HW234736   5.811   6.305   1.806  0.6175  2.7700  1.3433
11399SOL     OW34737   6.289   2.117   4.101 -0.1686  0.0491  0.0577
11399SOL    HW134738   6.262   2.180   4.168  0.3827  0.0069  0.3267
11399SOL    HW234739   6.207   2.076   4.072 -0.3397 -0.6224  1.4037
11400SOL     OW34740   6.027   2.595   3.362 -0.0621  0.0789 -0.3811
11400SOL    HW134741   6.089   2.536   3.320 -1.9859 -1.2379 -1.5031
11400SOL    HW234742   5.996   2.546   3.438  0.2924  0.7517  0.2057
11401SOL     OW34743   4.782   4.835   3.010 -0.1579  0.0760 -0.1826
11401SOL    HW134744   4.807   4.893   2.938 -3.2457  0.6703 -0.9242
11401SOL    HW234745   4.732   4.765   2.968 -1.8447  0.3116  1.3398
11402SOL     OW34746   1.497   5.812   1.223  0.0086  0.3047 -0.2818
11402SOL    HW134747   1.434   5.743   1.203 -1.1801  1.5799 -1.1790
11402SOL    HW234748   1.532   5.788   1.309  0.7882 -2.1821 -1.2097
11403SOL     OW34749   1.703   3.965   0.500 -0.3670 -0.3162 -0.6995
11403SOL    HW134750   1.766   4.026   0.461 -1.3193  0.4335 -1.0767
11403SOL    HW234751   1.659   4.016   0.567 -0.8375 -0.7388 -0.6840
11404SOL     OW34752   3.722   1.144   1.140  0.0497  0.4499 -0.1984
11404SOL    HW134753   3.690   1.201   1.070 -1.7256 -0.1418  0.0613
11404SOL    HW234754   3.759   1.069   1.095  0.0460  0.6341 -0.5120
11405SOL     OW34755   5.595   3.597   1.425 -0.0746 -0.2054 -0.5948
11405SOL    HW134756   5.650   3.663   1.382  0.7195  0.2016  0.9586
11405SOL    HW234757   5.657   3.529   1.452 -0.4178 -0.0714  0.5801
11406SOL     OW34758   0.580   1.700   2.926 -0.2251  0.1851 -0.1455
11406SOL    HW134759   0.646   1.749   2.876 -1.8500  0.8187 -1.7556
11406SOL    HW234760   0.588   1.735   3.015  2.4216 -0.6437  0.0408
11407SOL     OW34761   5.937   5.818   4.541 -0.1838 -0.1718  0.1003
11407SOL    HW134762   6.032   5.807   4.550  1.0103  5.2397 -1.7535
11407SOL    HW234763   5.917   5.781   4.455  0.6431 -0.0332 -0.1692
11408SOL     OW34764   4.417   1.361   4.329 -0.1134 -0.1772 -0.1036
11408SOL    HW134765   4.382   1.285   4.375 -0.3441  0.5557  0.9537
11408SOL    HW234766   4.486   1.325   4.273  0.6979 -1.0030  1.3694
11409SOL     OW34767   2.576   4.719   7.555 -0.7399  0.8535  0.3226
11409SOL    HW134768   2.538   4.638   7.588 -0.0142  0.6195  0.6022
11409SOL    HW234769   2.641   4.743   7.621 -0.1921  1.0837 -0.2990
11410SOL     OW34770   2.626   3.486   6.077 -0.3189  0.3613  0.3565
11410SOL    HW134771   2.540   3.508   6.112  0.2384  3.9019 -0.0597
11410SOL    HW234772   2.615   3.495   5.982  0.6078  1.5537  0.3400
11411SOL     OW34773   4.983   1.073   6.919  0.8588  0.3406  0.4282
11411SOL    HW134774   4.907   1.126   6.943 -1.5901 -2.8423  0.3502
11411SOL    HW234775   4.995   1.089   6.826 -0.2222  0.3411  0.2790
11412SOL     OW34776   3.951   1.118   1.917  0.5355 -0.8445  0.0303
11412SOL    HW134777   3.881   1.053   1.928 -1.0648  1.1642  2.9430
11412SOL    HW234778   3.918   1.178   1.851  0.6577 -1.2464 -0.4062
11413SOL     OW34779   4.982   7.555   5.759  0.1853 -0.1092 -0.1620
11413SOL    HW134780   4.907   7.566   5.817 -0.8462 -0.4599 -1.3897
11413SOL    HW234781   5.006   7.644   5.734 -1.5428 -0.0668 -1.8583
11414SOL     OW34782   3.995   3.739   5.660 -0.0391 -0.7352  0.0988
11414SOL    HW134783   3.946   3.681   5.718 -0.2695 -0.1549  0.4951
11414SOL    HW234784   3.948   3.822   5.664  1.3642  0.0771  1.0841
11415SOL     OW34785   4.959   3.708   1.366  0.2719 -0.2036 -0.7972
11415SOL    HW134786   4.872   3.709   1.406  0.6210  0.5401 -0.0204
11415SOL    HW234787   4.946   3.744   1.279  0.0544  1.5058 -0.0992
11416SOL     OW34788   6.406   1.668   4.069  0.5791 -0.2852  0.1396
11416SOL    HW134789   6.312   1.665   4.050  0.6709  1.2406 -0.6596
11416SOL    HW234790   6.447   1.622   3.995  0.5311 -0.1407  0.0252
11417SOL     OW34791   4.745   2.743   1.559 -0.0463  0.1393  0.0107
11417SOL    HW134792   4.809   2.800   1.602  1.0727 -1.4701  0.5873
11417SOL    HW234793   4.796   2.666   1.532 -1.8450 -1.5575  1.1570
11418SOL     OW34794   7.591   1.514   7.086 -0.4089 -0.0978 -0.0697
11418SOL    HW134795   7.606   1.421   7.103 -0.8865 -0.6258 -2.1794
11418SOL    HW234796   7.499   1.528   7.109 -1.0333 -0.7840 -1.9530
11419SOL     OW34797   2.489   2.681   6.620  0.0904 -0.1291  0.1319
11419SOL    HW134798   2.550   2.614   6.589 -0.1900 -0.4836  0.3307
11419SOL    HW234799   2.424   2.689   6.551 -0.6164 -1.0241  0.6649
11420SOL     OW34800   0.348   7.071   1.935  0.1826  0.0053 -0.8297
11420SOL    HW134801   0.362   6.980   1.911 -0.9560 -0.4008 -0.0546
11420SOL    HW234802   0.270   7.098   1.886 -0.5480 -0.0082  0.2761
11421SOL     OW34803   2.587   7.021   0.421  0.3906 -0.4684 -0.0867
11421SOL    HW134804   2.558   7.015   0.512  1.2686  0.4270  0.2725
11421SOL    HW234805   2.564   6.936   0.383 -2.9193  0.2158  0.0620
11422SOL     OW34806   3.454   1.251   0.343  0.1168 -0.3043  0.3328
11422SOL    HW134807   3.479   1.186   0.278 -1.5613  0.5267 -1.2486
11422SOL    HW234808   3.408   1.202   0.411 -0.7119 -0.8431 -0.6060
11423SOL     OW34809   1.825   4.451   0.962 -0.1608 -0.0037  0.1467
11423SOL    HW134810   1.798   4.492   0.880  4.8288  0.7983 -1.4150
11423SOL    HW234811   1.823   4.522   1.026 -1.2793  0.0946  0.0146
11424SOL     OW34812   4.669   2.083   4.432  0.3984  0.3391 -0.7547
11424SOL    HW134813   4.700   2.032   4.506 -1.2524  0.1062 -0.1804
11424SOL    HW234814   4.645   2.018   4.366  0.1745  0.4566 -0.7927
11425SOL     OW34815   2.710   0.841   7.564 -0.1305  0.2462 -0.4652
11425SOL    HW134816   2.718   0.772   7.630  2.2926 -0.0575 -0.9840
11425SOL    HW234817   2.650   0.805   7.499 -1.1195 -0.1868  0.6715
11426SOL     OW34818   6.053   3.441   7.144  0.2969 -0.2044 -0.0954
11426SOL    HW134819   6.098   3.506   7.197  0.7046 -0.9218  0.4622
11426SOL    HW234820   6.096   3.446   7.058 -1.0963  1.7217 -0.7360
11427SOL     OW34821   2.473   4.219   5.083  0.1493  0.1468 -0.1156
11427SOL    HW134822   2.415   4.168   5.140  0.0009  0.5142  0.0662
11427SOL    HW234823   2.555   4.169   5.082  0.2427  0.2641  0.6424
11428SOL     OW34824   0.096   2.346   7.355 -0.1642 -0.3537 -0.7365
11428SOL    HW134825   0.102   2.361   7.261  0.6134  0.7388 -0.5234
11428SOL    HW234826   0.061   2.257   7.363 -1.4985  0.0132 -2.0447
11429SOL     OW34827   2.618   7.557   7.509 -0.1238  0.2607  0.4536
11429SOL    HW134828   2.685   7.570   7.442  0.3951  3.2249  1.4222
11429SOL    HW234829   2.535   7.571   7.464  0.1019  0.0834 -0.0193
11430SOL     OW34830   0.680   2.906   6.907  0.5197  0.4810  0.3708
11430SOL    HW134831   0.656   2.959   6.983  2.2438  0.3787  1.0418
11430SOL    HW234832   0.775   2.896   6.914  0.3631 -2.0249 -0.1705
11431SOL     OW34833   1.193   7.591   1.658  1.0178 -0.5578  0.8217
11431SOL    HW134834   1.235   7.587   1.744 -0.2779 -2.5449  1.4335
11431SOL    HW234835   1.105   7.556   1.673 -0.2667  1.7058 -0.7739
11432SOL     OW34836   6.422   3.312   6.312 -0.0126  0.4243 -0.1448
11432SOL    HW134837   6.433   3.220   6.335 -0.4307  0.5932  0.7596
11432SOL    HW234838   6.493   3.330   6.250 -0.5544 -0.7757 -1.1636
11433SOL     OW34839   1.972   3.444   1.740 -0.3163 -0.2645 -0.0650
11433SOL    HW134840   1.958   3.480   1.828  2.3841  0.2229  0.2403
11433SOL    HW234841   1.947   3.515   1.681 -0.5862 -0.0116  0.3461
11434SOL     OW34842   6.164   5.339   5.553  0.5093 -0.0958 -0.1024
11434SOL    HW134843   6.158   5.402   5.481 -0.3215  1.6219  1.3930
11434SOL    HW234844   6.200   5.260   5.512 -0.8945  0.4464 -2.5975
11435SOL     OW34845   6.233   6.789   7.177 -0.2641  0.1849  0.1809
11435SOL    HW134846   6.232   6.869   7.123  1.7643 -0.5141 -0.9909
11435SOL    HW234847   6.145   6.753   7.167 -0.8002  1.5496 -0.3688
11436SOL     OW34848   0.166   1.729   5.890 -0.2675 -0.6203  0.0903
11436SOL    HW134849   0.244   1.707   5.838  0.9949  1.1716  1.0853
11436SOL    HW234850   0.172   1.673   5.967  1.3212  0.9765  1.2147
11437SOL     OW34851   4.305   6.684   3.760  0.2677 -0.3184  0.0605
11437SOL    HW134852   4.343   6.720   3.680 -1.9599  0.2371 -0.8266
11437SOL    HW234853   4.240   6.621   3.730  0.7442 -1.5672  1.5127
11438SOL     OW34854   1.928   1.601   2.672 -0.3779  0.2011  0.5458
11438SOL    HW134855   1.839   1.612   2.705 -0.1531  2.0902  0.6591
11438SOL    HW234856   1.980   1.582   2.750 -0.7572 -1.7153  0.3792
11439SOL     OW34857   1.511   7.118   1.895 -0.0949 -0.0754  0.0612
11439SOL    HW134858   1.539   7.104   1.985 -1.3654  0.7999  0.6286
11439SOL    HW234859   1.505   7.030   1.858  3.0852 -0.3418 -0.0837
11440SOL     OW34860   0.779   3.968   1.976 -0.1447  0.6722  0.2627
11440SOL    HW134861   0.774   3.918   2.057  1.2080  1.4884  0.8871
11440SOL    HW234862   0.861   3.940   1.935 -0.2696  1.0711 -0.2758
11441SOL     OW34863   0.789   1.035   6.580 -0.0968 -0.2473 -0.8515
11441SOL    HW134864   0.841   1.070   6.508  2.3830  0.9039  1.3491
11441SOL    HW234865   0.833   0.952   6.602  0.8113  0.6618  0.9313
11442SOL     OW34866   3.121   5.512   4.342 -0.0039 -0.3159  0.5632
11442SOL    HW134867   3.058   5.496   4.412 -0.1719 -0.5478  0.3625
11442SOL    HW234868   3.199   5.545   4.387 -0.4337  0.4465  0.7635
11443SOL     OW34869   3.503   5.769   5.373  0.0896  0.6275 -0.9064
11443SOL    HW134870   3.574   5.750   5.311 -0.5230  1.2711 -1.8067
11443SOL    HW234871   3.532   5.848   5.418  1.3580 -0.7679  0.9277
11444SOL     OW34872   1.310   6.110   0.715 -0.1781  0.0262 -0.2709
11444SOL    HW134873   1.249   6.173   0.676 -0.1162  0.7331  0.7276
11444SOL    HW234874   1.361   6.162   0.777  0.2251 -0.9159  0.2037
11445SOL     OW34875   1.116   7.550   6.286  0.4194 -0.4750 -0.4238
11445SOL    HW134876   1.040   7.550   6.344  2.1056 -1.8479  1.9914
11445SOL    HW234877   1.154   7.638   6.296  0.0084 -0.2982 -0.4232
11446SOL     OW34878   1.209   3.106   4.112 -0.0706  0.3253 -0.4238
11446SOL    HW134879   1.237   3.075   4.198  1.8748 -1.2349 -1.5381
11446SOL    HW234880   1.247   3.194   4.105 -1.8810  1.2980  0.9996
11447SOL     OW34881   2.805   4.832   1.306 -0.1617  0.1120  0.0179
11447SOL    HW134882   2.787   4.743   1.275  0.2933  0.4314 -1.2469
11447SOL    HW234883   2.803   4.826   1.401  2.0325 -1.7545  0.0345
11448SOL     OW34884   1.480   3.407   7.302  0.0851 -0.0002  0.6522
11448SOL    HW134885   1.440   3.491   7.324 -1.6412 -0.0684 -1.8055
11448SOL    HW234886   1.421   3.368   7.237  2.5688 -1.5594 -0.8580
11449SOL     OW34887   2.736   6.274   4.322 -0.5641  0.2478  0.3470
11449SOL    HW134888   2.745   6.368   4.329  0.3799  0.1192  0.9690
11449SOL    HW234889   2.654   6.254   4.368 -0.8580  0.7707  0.0579
11450SOL     OW34890   2.776   3.151   1.887  0.0838 -1.1321  0.3563
11450SOL    HW134891   2.820   3.236   1.888  1.1305 -1.6423 -0.5282
11450SOL    HW234892   2.696   3.165   1.938 -0.7281  0.8901 -1.3556
11451SOL     OW34893   5.694   6.076   3.474  0.5171  0.2688 -0.4405
11451SOL    HW134894   5.691   6.013   3.546  0.7959 -1.0077 -1.5074
11451SOL    HW234895   5.604   6.081   3.442  0.3874  0.8586 -0.0109
11452SOL     OW34896   5.748   5.145   7.436 -0.3142  0.3976  0.2191
11452SOL    HW134897   5.723   5.090   7.362 -0.7353  0.3521  0.3941
11452SOL    HW234898   5.841   5.165   7.420 -0.4206  0.4524 -0.3554
11453SOL     OW34899   0.806   6.784   1.497 -0.4679  0.3506 -0.1447
11453SOL    HW134900   0.875   6.849   1.482 -0.6345  0.5055 -0.2504
11453SOL    HW234901   0.757   6.818   1.572 -0.5520  0.3440 -0.1965
11454SOL     OW34902   4.432   0.008   4.608  0.1936  0.3140 -0.2324
11454SOL    HW134903   4.387  -0.074   4.627  1.1807 -0.4560 -1.0370
11454SOL    HW234904   4.509   0.007   4.664  0.1406  0.7558 -0.1472
11455SOL     OW34905   2.926   1.089   4.467 -0.5530  0.6145 -0.2312
11455SOL    HW134906   2.977   1.110   4.546  2.9102 -0.6218 -1.9238
11455SOL    HW234907   2.852   1.037   4.500  0.0042  1.2418  2.2742
11456SOL     OW34908   2.644   2.252   0.828  0.1634  0.0523  1.2058
11456SOL    HW134909   2.689   2.335   0.811 -0.6772  0.3967  0.6084
11456SOL    HW234910   2.694   2.212   0.899  3.7530 -1.3986 -1.8426
11457SOL     OW34911   0.868   4.026   3.116 -0.0371 -0.2697  0.3603
11457SOL    HW134912   0.953   3.989   3.092 -1.1644 -3.2939  0.6070
11457SOL    HW234913   0.829   3.962   3.176 -3.0517  0.2771 -0.8056
11458SOL     OW34914   0.628   3.512   5.637  0.2439 -0.7158 -0.2984
11458SOL    HW134915   0.559   3.489   5.700 -0.1738  2.4648  0.5889
11458SOL    HW234916   0.709   3.506   5.688  0.0341  0.6316  0.2278
11459SOL     OW34917   3.636   5.280   0.066 -0.0364  0.0758 -0.2628
11459SOL    HW134918   3.559   5.302   0.014 -1.0301  0.4305  1.3115
11459SOL    HW234919   3.603   5.229   0.139  1.2605  0.0448  0.3350
11460SOL     OW34920   0.502   6.292   5.763  0.2774  0.4585 -0.1169
11460SOL    HW134921   0.433   6.356   5.748  0.9555  1.2928  0.2294
11460SOL    HW234922   0.528   6.264   5.675 -0.1461  0.5268 -0.2637
11461SOL     OW34923   3.586   2.065   5.995  0.1312  0.3447 -0.5455
11461SOL    HW134924   3.604   2.003   5.924 -0.8125 -1.2534  0.5365
11461SOL    HW234925   3.532   2.133   5.955 -1.8460 -1.4298 -1.0300
11462SOL     OW34926   1.997   1.376   0.463  0.3395  0.2354  0.2725
11462SOL    HW134927   1.944   1.455   0.452  0.0273  0.1410  1.0070
11462SOL    HW234928   1.994   1.359   0.558  0.6537 -0.4823  0.1579
11463SOL     OW34929   0.906   3.729   5.156  0.0775 -0.0474  0.1499
11463SOL    HW134930   0.902   3.716   5.251  1.0314 -0.5783  0.1215
11463SOL    HW234931   0.847   3.662   5.121 -0.6874  0.4834  0.3775
11464SOL     OW34932   1.778   6.719   6.199 -0.0465 -0.2710 -0.1162
11464SOL    HW134933   1.777   6.628   6.171  0.5542 -0.8771  1.6863
11464SOL    HW234934   1.806   6.716   6.291 -0.4069  1.6945  0.1101
11465SOL     OW34935   0.869   4.799   0.250 -0.1113 -0.3141  0.4938
11465SOL    HW134936   0.913   4.880   0.276  1.2911 -1.2465  1.1166
11465SOL    HW234937   0.880   4.740   0.325 -0.8140 -1.2090 -0.0783
11466SOL     OW34938   5.466   4.959   0.190 -0.2669  0.1032 -0.1736
11466SOL    HW134939   5.460   4.975   0.096 -1.4032  0.6789 -0.0154
11466SOL    HW234940   5.398   5.014   0.228 -0.3216 -0.7021  0.9246
11467SOL     OW34941   4.044   1.560   6.632 -0.3365  0.5777 -0.3709
11467SOL    HW134942   4.070   1.595   6.717  2.2005 -1.2037 -0.2905
11467SOL    HW234943   4.039   1.465   6.646  0.8234  0.1789 -2.3410
11468SOL     OW34944   7.418   6.001   5.526 -0.0561  0.9197  0.2024
11468SOL    HW134945   7.446   6.060   5.597  0.2786 -0.3529  1.1668
11468SOL    HW234946   7.372   5.930   5.571 -1.0794  0.7874 -1.0058
11469SOL     OW34947   0.621   3.780   0.054  0.1304 -0.3917  0.1973
11469SOL    HW134948   0.684   3.791  -0.018  0.0538 -0.2233  0.1572
11469SOL    HW234949   0.594   3.869   0.076 -0.3888 -0.4866 -0.0470
11470SOL     OW34950   0.154   1.747   5.028 -0.1627  0.6380 -0.6588
11470SOL    HW134951   0.166   1.831   5.071 -1.4514  0.4157  0.1635
11470SOL    HW234952   0.065   1.750   4.993 -1.5555 -1.5911  2.2591
11471SOL     OW34953   4.927   4.690   2.693  0.1583  0.2766 -0.0005
11471SOL    HW134954   5.018   4.699   2.666 -0.0824  2.0810 -0.3094
11471SOL    HW234955   4.876   4.694   2.612 -0.1924 -1.2194  0.1182
11472SOL     OW34956   4.332   5.264   3.403 -0.1055 -0.5660 -0.3688
11472SOL    HW134957   4.369   5.182   3.434  0.4737  0.6557  2.4691
11472SOL    HW234958   4.263   5.237   3.342  1.3058 -3.0534 -1.0016
11473SOL     OW34959   4.149   3.361   0.923  0.0705  0.1783  0.7655
11473SOL    HW134960   4.101   3.360   0.841 -0.6402 -0.4433  1.1741
11473SOL    HW234961   4.091   3.408   0.984  0.5710  0.6005  0.9221
11474SOL     OW34962   0.676   4.706   0.036  0.1068  0.0394  0.5700
11474SOL    HW134963   0.615   4.769  -0.003  2.4740  0.6971 -2.5213
11474SOL    HW234964   0.727   4.757   0.098 -0.0445  0.3987  0.4036
11475SOL     OW34965   4.595   4.734   2.616  0.2794  0.2517  0.0798
11475SOL    HW134966   4.616   4.643   2.593 -0.4352  0.6106 -2.2954
11475SOL    HW234967   4.667   4.785   2.579 -0.6168  0.8190 -0.9656
11476SOL     OW34968   3.247   0.014   4.698  0.1970  0.0526 -0.4027
11476SOL    HW134969   3.193   0.093   4.709  1.3711  0.7637  0.5130
11476SOL    HW234970   3.281   0.021   4.609 -1.7421 -0.7751 -1.2601
11477SOL     OW34971   5.002   3.189   5.410 -0.5063 -0.3083  0.2015
11477SOL    HW134972   4.984   3.186   5.316  0.0620 -0.5420  0.1015
11477SOL    HW234973   5.041   3.104   5.430  0.7870  0.2988  0.3550
11478SOL     OW34974   5.320   7.551   2.840 -0.7067  0.3996 -0.4272
11478SOL    HW134975   5.278   7.634   2.820 -2.3593 -0.3188 -0.1446
11478SOL    HW234976   5.323   7.505   2.756  0.6370  0.8964 -0.6767
11479SOL     OW34977   1.922   1.670   5.825  0.4673 -0.0244  0.0552
11479SOL    HW134978   1.998   1.724   5.844  0.1533  0.0136  1.3126
11479SOL    HW234979   1.903   1.625   5.907 -0.8729 -0.0245 -0.2216
11480SOL     OW34980   6.309   0.554   0.224 -0.2529  0.4171  0.2521
11480SOL    HW134981   6.325   0.475   0.172 -1.6443 -1.5306  2.5515
11480SOL    HW234982   6.228   0.590   0.188 -1.7585 -1.4721  1.5279
11481SOL     OW34983   0.263   1.224   0.674  0.4314  0.7726  0.0330
11481SOL    HW134984   0.272   1.178   0.757 -0.3187 -0.9439 -0.7740
11481SOL    HW234985   0.197   1.291   0.689  0.9489  1.0702  1.0315
11482SOL     OW34986   2.858   3.028   2.482  0.0174 -0.1889 -0.5337
11482SOL    HW134987   2.939   3.077   2.490  1.4517 -2.4525 -0.2831
11482SOL    HW234988   2.838   2.999   2.571 -0.7001 -0.2465 -0.7053
11483SOL     OW34989   5.667   0.329   0.030  0.1263 -0.6159 -0.7839
11483SOL    HW134990   5.681   0.423   0.044 -1.4492 -0.0022 -2.6986
11483SOL    HW234991   5.734   0.286   0.082  0.5716  1.5560  0.5629
11484SOL     OW34992   0.929   2.066   5.051 -0.9546  0.3636  0.2422
11484SOL    HW134993   0.856   2.125   5.070 -1.8643 -0.4954 -0.5038
11484SOL    HW234994   0.977   2.061   5.134 -2.9434 -0.7225  1.4141
11485SOL     OW34995   1.814   5.555   1.350 -0.6480  0.8255 -0.0899
11485SOL    HW134996   1.737   5.562   1.406 -0.2543 -0.4788  0.6687
11485SOL    HW234997   1.888   5.549   1.411 -0.2194 -0.6751 -0.7112
11486SOL     OW34998   2.224   4.275   2.941 -0.1955  0.7520  0.1075
11486SOL    HW134999   2.304   4.231   2.911 -1.0540 -0.6804 -0.1791
11486SOL    HW235000   2.221   4.357   2.891  1.1652  0.9176  0.2552
11487SOL     OW35001   5.929   1.963   3.006  0.0382 -0.3240  0.2616
11487SOL    HW135002   5.935   1.976   2.911 -1.7233  1.4025  0.3117
11487SOL    HW235003   5.858   1.899   3.016 -0.2114 -0.0270  0.4119
11488SOL     OW35004   0.582   6.805   2.180  0.2995 -0.1497 -0.3798
11488SOL    HW135005   0.533   6.887   2.176 -0.5036 -0.5909  0.2408
11488SOL    HW235006   0.519   6.738   2.156  0.8326 -0.6398 -0.4334
11489SOL     OW35007   3.586   6.747   3.576  0.4294  0.6853 -0.0573
11489SOL    HW135008   3.606   6.775   3.666  0.1567  0.8019 -0.0305
11489SOL    HW235009   3.560   6.828   3.531 -0.0619  0.5314 -0.0638
11490SOL     OW35010   0.298   6.262   3.617 -0.3310  0.2198 -0.3183
11490SOL    HW135011   0.272   6.177   3.654  0.2602  0.0206 -0.3411
11490SOL    HW235012   0.219   6.315   3.621 -1.0426 -0.7185 -1.4332
11491SOL     OW35013   6.568   7.072   3.465 -0.5178  0.5679  0.1732
11491SOL    HW135014   6.545   7.157   3.428  0.6199 -0.1226 -2.3571
11491SOL    HW235015   6.651   7.049   3.424 -0.5566 -1.5756  1.1292
11492SOL     OW35016   1.214   5.016   3.289 -0.4440  0.0466  0.4229
11492SOL    HW135017   1.166   5.085   3.335 -0.4082 -0.1971  0.8286
11492SOL    HW235018   1.284   4.991   3.349  0.1388  0.3302 -0.1258
11493SOL     OW35019   3.640   6.204   3.765  0.5801  0.0139  0.3833
11493SOL    HW135020   3.552   6.170   3.780  0.7265  0.5225  2.7386
11493SOL    HW235021   3.658   6.184   3.673 -1.6001 -0.9535  0.1077
11494SOL     OW35022   6.012   3.328   1.618  0.2802 -0.2614  0.4399
11494SOL    HW135023   5.981   3.252   1.669  0.0512 -1.3538 -1.2627
11494SOL    HW235024   6.055   3.290   1.542  2.6817  1.2989  0.9006
11495SOL     OW35025   3.050   1.093   4.241  0.1274  0.3821  0.1123
11495SOL    HW135026   3.028   1.102   4.334  2.6664  0.6798  0.7673
11495SOL    HW235027   3.124   1.153   4.229  1.5410 -1.5676 -1.4533
11496SOL     OW35028   4.545   1.308   2.822  0.3166 -0.0538 -0.0951
11496SOL    HW135029   4.616   1.343   2.876  0.4091  0.1745 -0.3628
11496SOL    HW235030   4.552   1.213   2.832  0.4809 -0.0202  0.1089
11497SOL     OW35031   0.138   7.430   7.393  0.0396 -0.6394 -0.7745
11497SOL    HW135032   0.069   7.370   7.363 -0.9817 -0.5144  1.1550
11497SOL    HW235033   0.132   7.505   7.334 -0.0407 -1.5453 -1.9446
11498SOL     OW35034   1.569   4.387   5.774  0.0672 -0.2659  0.2626
11498SOL    HW135035   1.477   4.410   5.786 -0.0620 -1.3099  1.5458
11498SOL    HW235036   1.576   4.358   5.683 -0.3076  2.1228 -0.6095
11499SOL     OW35037   6.197   0.567   2.046  0.2981 -0.3627 -0.2712
11499SOL    HW135038   6.207   0.651   2.091 -1.2123 -0.3158  0.0051
11499SOL    HW235039   6.104   0.547   2.051  0.3972 -1.3273 -1.6651
11500SOL     OW35040   5.442   0.525   2.886  0.3379  0.1811 -0.4380
11500SOL    HW135041   5.432   0.440   2.928  0.8101  0.6148  0.5808
11500SOL    HW235042   5.530   0.524   2.848  0.5207  0.3760 -0.0277
11501SOL     OW35043   6.485   5.399   3.262 -0.3556 -0.5158 -0.1490
11501SOL    HW135044   6.519   5.329   3.317  0.2571 -0.9189 -1.0181
11501SOL    HW235045   6.470   5.472   3.322  1.1490 -0.6361  0.3998
11502SOL     OW35046   0.516   1.011   0.188 -0.1724 -0.4062  0.0241
11502SOL    HW135047   0.507   1.101   0.220  0.2785 -0.1179 -0.6468
11502SOL    HW235048   0.426   0.978   0.185 -0.3617  0.0881  0.0813
11503SOL     OW35049   6.935   0.544   3.769 -0.5016 -0.0668 -0.3158
11503SOL    HW135050   6.897   0.533   3.682  0.3833 -1.8920 -0.5088
11503SOL    HW235051   7.012   0.598   3.755 -0.6288  0.0459 -0.5900
11504SOL     OW35052   2.059   4.531   7.540  0.3865 -0.2331 -0.0511
11504SOL    HW135053   1.993   4.473   7.578 -0.2636  0.0909 -0.6751
11504SOL    HW235054   2.099   4.574   7.615  0.1447 -0.7042  0.3539
11505SOL     OW35055   2.262   5.969   1.823 -0.2993 -0.6473  0.2326
11505SOL    HW135056   2.266   5.897   1.760  1.0960 -1.6499  1.3934
11505SOL    HW235057   2.173   6.001   1.816 -0.5512 -1.5338 -1.3526
11506SOL     OW35058   6.522   4.221   5.105  0.1451 -0.2543 -0.1651
11506SOL    HW135059   6.544   4.130   5.123  0.5154 -0.1889 -0.2725
11506SOL    HW235060   6.604   4.269   5.120 -0.2941  0.2078  0.9027
11507SOL     OW35061   5.526   3.032   2.115 -0.4865 -0.7704 -0.0956
11507SOL    HW135062   5.582   3.098   2.155  1.3482 -2.2852 -0.0275
11507SOL    HW235063   5.476   3.079   2.049  0.7011  0.6923 -0.0022
11508SOL     OW35064   3.025   0.233   7.513 -0.0319 -0.0612  0.6609
11508SOL    HW135065   3.081   0.308   7.528  0.8886 -0.1768 -1.7123
11508SOL    HW235066   2.958   0.238   7.581  2.2982  0.5792  3.0493
11509SOL     OW35067   1.980   7.433   5.696  0.1360 -0.2129  0.5226
11509SOL    HW135068   2.047   7.490   5.734 -1.3234  1.2237  1.0485
11509SOL    HW235069   1.991   7.443   5.601 -0.6613  1.7168  0.5887
11510SOL     OW35070   1.373   3.061   5.936 -0.1330  0.5434  0.8527
11510SOL    HW135071   1.319   2.997   5.982 -0.7695  0.5176  0.0819
11510SOL    HW235072   1.375   3.031   5.846 -0.5453  1.6572  0.4452
11511SOL     OW35073   6.328   7.276   0.393  0.7305  0.4399 -0.0412
11511SOL    HW135074   6.375   7.356   0.417 -2.8270  2.7693 -0.0972
11511SOL    HW235075   6.281   7.252   0.473  1.9782 -1.8945  0.0624
11512SOL     OW35076   4.923   1.583   4.497  0.5200  0.0867 -0.4407
11512SOL    HW135077   4.929   1.511   4.433  0.3328 -0.5462  0.2498
11512SOL    HW235078   4.864   1.551   4.564  0.0106  1.1069 -0.3875
11513SOL     OW35079   1.617   5.481   0.278  0.0767  0.4410  0.4017
11513SOL    HW135080   1.632   5.401   0.228 -0.0591  0.8269 -0.2704
11513SOL    HW235081   1.695   5.490   0.332  0.0934 -0.1448  0.4835
11514SOL     OW35082   1.011   5.732   6.163 -0.1439  0.0428  0.1045
11514SOL    HW135083   1.101   5.701   6.178 -0.0851  0.9352  1.7877
11514SOL    HW235084   1.022   5.808   6.106 -0.1220 -1.5886 -2.2153
11515SOL     OW35085   6.511   3.204   1.414  0.4838 -0.3688  0.0733
11515SOL    HW135086   6.579   3.261   1.377  0.4197 -0.3395  0.0009
11515SOL    HW235087   6.502   3.235   1.504 -0.9622  1.0744 -0.5109
11516SOL     OW35088   1.140   2.668   1.063  0.2864 -0.0636 -0.0192
11516SOL    HW135089   1.201   2.715   1.006 -0.1809  0.2361 -0.2708
11516SOL    HW235090   1.170   2.689   1.152  1.3845 -1.0041 -0.1310
11517SOL     OW35091   7.385   0.770   0.814  0.0396  0.8054  0.0144
11517SOL    HW135092   7.406   0.710   0.743 -0.6205  1.2237 -0.5427
11517SOL    HW235093   7.427   0.852   0.791 -0.0082  0.8862  0.2045
11518SOL     OW35094   3.961   3.160   1.740 -0.3200 -0.4303  0.7504
11518SOL    HW135095   3.897   3.169   1.670 -1.4476  1.6299  1.9514
11518SOL    HW235096   3.958   3.244   1.787  2.0053 -0.9197  1.9139
11519SOL     OW35097   7.396   4.493   3.064 -0.0969  0.5759  0.5372
11519SOL    HW135098   7.352   4.503   3.148 -1.4346  1.0310 -0.1796
11519SOL    HW235099   7.340   4.434   3.014  0.2368  0.9566 -0.3202
11520SOL     OW35100   1.538   0.260   1.716  0.1826  0.0387  0.0591
11520SOL    HW135101   1.528   0.271   1.621  0.1099  2.1915  0.2758
11520SOL    HW235102   1.600   0.328   1.742 -0.6998  0.2716  1.7017
11521SOL     OW35103   6.812   5.401   5.483  0.7461  0.1769 -0.2210
11521SOL    HW135104   6.805   5.331   5.418  0.5629 -0.1242  0.1191
11521SOL    HW235105   6.879   5.459   5.448 -0.3093  0.7530 -1.3551
11522SOL     OW35106   1.833   5.898   3.954  0.1922  0.2472  0.4440
11522SOL    HW135107   1.887   5.838   4.006  0.2332 -0.6335 -0.5768
11522SOL    HW235108   1.870   5.892   3.866  0.3794  2.0077  0.3724
11523SOL     OW35109   0.902   6.494   6.952  0.2373  0.2396  0.6109
11523SOL    HW135110   0.950   6.504   7.034 -0.9514  0.9323  1.2414
11523SOL    HW235111   0.851   6.574   6.944  1.4793  0.8935 -1.6024
11524SOL     OW35112   3.953   0.812   1.328  0.2714 -0.3773  0.4980
11524SOL    HW135113   4.006   0.748   1.376  1.2022  0.8500  1.1733
11524SOL    HW235114   4.017   0.874   1.292 -0.4196 -1.0872 -2.1683
11525SOL     OW35115   6.549   1.243   0.927  0.1222  0.1590 -0.0673
11525SOL    HW135116   6.520   1.268   1.015  1.7362 -1.9293  1.1537
11525SOL    HW235117   6.468   1.242   0.875 -1.1755 -0.1722  1.8178
11526SOL     OW35118   4.749   3.041   3.420  0.2614 -0.4349 -0.0540
11526SOL    HW135119   4.786   2.988   3.349  0.1611  0.8017 -1.0492
11526SOL    HW235120   4.795   3.011   3.498  1.1911 -1.0237 -0.8057
11527SOL     OW35121   4.903   3.922   7.091  0.1411  0.3061  0.1227
11527SOL    HW135122   4.898   3.826   7.086 -0.2037  0.3809 -1.1768
11527SOL    HW235123   4.857   3.953   7.013 -0.7528  1.5654  1.1089
11528SOL     OW35124   0.967   3.376   5.041 -0.0382 -0.0503 -0.1328
11528SOL    HW135125   0.873   3.390   5.030  0.2716  0.7042 -2.0933
11528SOL    HW235126   0.996   3.338   4.959  1.6235  1.1427 -0.1544
11529SOL     OW35127   5.795   2.535   2.720 -0.5486 -0.3723  0.4641
11529SOL    HW135128   5.834   2.600   2.661 -1.5200  0.5710  0.8387
11529SOL    HW235129   5.869   2.481   2.748  0.3463  0.7779  0.4073
11530SOL     OW35130   4.812   1.668   4.151 -0.2931 -0.2712  0.7234
11530SOL    HW135131   4.895   1.653   4.196 -0.8597 -0.0921  1.8516
11530SOL    HW235132   4.829   1.641   4.060  1.4795  1.2636  0.5283
11531SOL     OW35133   1.773   5.797   6.441  0.2054 -0.5177  0.5133
11531SOL    HW135134   1.757   5.888   6.417 -1.1551 -1.1572 -1.2685
11531SOL    HW235135   1.686   5.757   6.441  0.8428 -1.9650  0.6173
11532SOL     OW35136   1.501   7.458   1.567 -0.4461  0.1825  0.1596
11532SOL    HW135137   1.527   7.500   1.649 -0.4595 -0.8288  0.6931
11532SOL    HW235138   1.433   7.395   1.593 -1.4812  0.8455 -0.8254
11533SOL     OW35139   2.463   3.597   5.463  0.0446 -0.7497  0.2434
11533SOL    HW135140   2.371   3.590   5.436  0.0050 -0.1723  0.2186
11533SOL    HW235141   2.461   3.653   5.540  0.4528 -0.1917 -0.1503
11534SOL     OW35142   2.853   4.600   5.782 -0.0512 -0.1602 -0.6553
11534SOL    HW135143   2.938   4.629   5.815  0.2553 -0.5884 -1.0592
11534SOL    HW235144   2.814   4.678   5.743 -1.2881  0.9009  2.3898
11535SOL     OW35145   2.435   6.340   0.792 -0.2752 -0.3823  0.1632
11535SOL    HW135146   2.488   6.325   0.870 -1.2721 -0.0330  0.9321
11535SOL    HW235147   2.409   6.252   0.763 -1.1139 -0.4617  1.1060
11536SOL     OW35148   4.507   5.319   1.762 -0.0252 -0.2655 -0.3204
11536SOL    HW135149   4.431   5.373   1.783  0.6154  0.2556  0.7694
11536SOL    HW235150   4.474   5.230   1.759 -0.5312 -0.1406  1.0220
11537SOL     OW35151   6.428   1.492   7.269  0.0633 -0.3658  0.1889
11537SOL    HW135152   6.393   1.440   7.196 -0.2949 -2.3474  1.7088
11537SOL    HW235153   6.466   1.569   7.226 -2.6090 -0.0370 -1.8758
11538SOL     OW35154   6.996   3.108   5.204  0.3050 -0.1145 -0.4674
11538SOL    HW135155   6.992   3.046   5.132  0.3746  0.8365 -1.3058
11538SOL    HW235156   7.084   3.095   5.241  0.2262 -0.6854 -0.4638
11539SOL     OW35157   0.548   3.467   6.329  0.1167  0.4225 -0.3698
11539SOL    HW135158   0.558   3.562   6.321 -1.3027  0.5837 -0.5609
11539SOL    HW235159   0.584   3.446   6.415  1.1534  1.0096 -0.6439
11540SOL     OW35160   4.801   3.692   0.352  1.1882  0.0476 -0.0046
11540SOL    HW135161   4.779   3.650   0.268  1.4368  0.9334 -0.5215
11540SOL    HW235162   4.883   3.738   0.334  0.4703  1.4895  0.3033
11541SOL     OW35163   7.624   6.203   7.606 -0.2429  0.2292  0.0454
11541SOL    HW135164   7.584   6.264   7.668  2.2414  0.1684  1.8656
11541SOL    HW235165   7.705   6.246   7.580  1.6389 -2.2381  1.4330
11542SOL     OW35166   5.042   2.858   1.399  0.2513 -0.1235  0.5638
11542SOL    HW135167   5.019   2.875   1.491  0.4680 -0.5355  0.6970
11542SOL    HW235168   5.032   2.943   1.356  1.0747  0.2915  1.1546
11543SOL     OW35169   0.429   6.175   7.459  0.5037  0.0053  0.3550
11543SOL    HW135170   0.464   6.112   7.523 -0.8611  0.6804  1.8451
11543SOL    HW235171   0.469   6.149   7.376 -0.4538 -3.2002  0.7526
11544SOL     OW35172   0.219   3.540   1.563  0.1524 -0.8963  0.0898
11544SOL    HW135173   0.224   3.565   1.470 -2.1226  0.6615  0.2942
11544SOL    HW235174   0.291   3.588   1.604 -0.9389  1.2919 -0.3878
11545SOL     OW35175   3.838   5.454   0.188 -0.0982  0.2668  0.6269
11545SOL    HW135176   3.833   5.505   0.107  1.4218 -2.3364 -1.2877
11545SOL    HW235177   3.762   5.395   0.184  0.0343  0.0678  1.0163
11546SOL     OW35178   2.870   2.417   3.231  0.9178  0.2786  0.9289
11546SOL    HW135179   2.838   2.507   3.230  1.5570  0.5562  2.4630
11546SOL    HW235180   2.926   2.413   3.309 -0.6273 -1.9626  2.0196
11547SOL     OW35181   3.274   2.503   7.001 -0.2378 -0.7788  0.1785
11547SOL    HW135182   3.251   2.586   6.959  0.0440  0.0346  1.5637
11547SOL    HW235183   3.204   2.489   7.065  0.3162 -1.0198  0.7377
11548SOL     OW35184   3.668   6.648   4.203  0.5008  0.2734  0.2273
11548SOL    HW135185   3.710   6.564   4.182 -0.1882  0.3393 -1.6484
11548SOL    HW235186   3.576   6.626   4.215  0.5892  0.5385  1.4966
11549SOL     OW35187   7.222   4.760   4.441 -1.3531  0.5687  0.0734
11549SOL    HW135188   7.290   4.720   4.496 -1.3509  1.3683  0.6683
11549SOL    HW235189   7.196   4.690   4.381  1.0162  0.6056 -1.1543
11550SOL     OW35190   6.570   4.502   3.504 -0.1907  0.1681  0.3507
11550SOL    HW135191   6.480   4.472   3.509  0.4272 -1.8656  0.2784
11550SOL    HW235192   6.592   4.527   3.593 -0.8855  0.8885  0.3258
11551SOL     OW35193   2.051   7.616   3.471 -0.4045  0.7338  0.8497
11551SOL    HW135194   2.032   7.526   3.442  0.4283  1.0278 -0.7389
11551SOL    HW235195   1.973   7.665   3.449 -0.4539  0.5979  0.7164
11552SOL     OW35196   6.924   4.877   0.112 -0.5242 -0.2517  0.0944
11552SOL    HW135197   6.831   4.876   0.087 -0.8261  1.5909  0.9575
11552SOL    HW235198   6.948   4.970   0.109  1.0943 -0.6324  0.5940
11553SOL     OW35199   5.863   2.953   0.857 -0.5831 -0.3252 -0.7718
11553SOL    HW135200   5.877   2.994   0.943  0.4610  0.0107 -1.0869
11553SOL    HW235201   5.776   2.983   0.831 -0.1275  1.1859 -0.6868
11554SOL     OW35202   6.070   4.425   2.638 -0.0684  0.5574  0.6451
11554SOL    HW135203   6.093   4.507   2.681  2.9716  0.7002 -0.9400
11554SOL    HW235204   6.142   4.366   2.660 -2.6791 -2.1538  2.6424
11555SOL     OW35205   4.749   3.479   1.814  0.2637 -0.1022  0.3705
11555SOL    HW135206   4.712   3.505   1.898  3.0004 -0.7398  1.8839
11555SOL    HW235207   4.751   3.383   1.817  1.3068 -0.1105  0.0536
11556SOL     OW35208   7.414   5.439   3.313  0.1921  0.1089 -0.2563
11556SOL    HW135209   7.487   5.416   3.370  0.0452  2.4776  0.9604
11556SOL    HW235210   7.454   5.446   3.226  1.5598  1.8186  0.4517
11557SOL     OW35211   6.597   4.476   5.998 -0.5371 -0.7829 -0.5944
11557SOL    HW135212   6.608   4.419   6.075  0.6568 -0.5119 -0.5445
11557SOL    HW235213   6.513   4.519   6.012  0.4297  0.6039  1.4940
11558SOL     OW35214   7.026   6.932   6.214  0.1619 -0.1880 -0.1939
11558SOL    HW135215   6.983   6.856   6.175  0.2229 -0.5897  0.5048
11558SOL    HW235216   6.954   6.993   6.234 -0.1179 -0.8778  1.0187
11559SOL     OW35217   1.448   1.304   5.045 -0.3533  0.3266 -0.7632
11559SOL    HW135218   1.447   1.299   4.950  1.5490  0.1146 -0.8243
11559SOL    HW235219   1.428   1.215   5.074  0.7180 -0.0086 -1.0229
11560SOL     OW35220   6.803   7.104   1.079 -0.2256 -0.5841 -0.0006
11560SOL    HW135221   6.881   7.135   1.034  0.0174  1.7010  1.8445
11560SOL    HW235222   6.826   7.106   1.172 -1.9007 -1.6443  0.4923
11561SOL     OW35223   1.320   2.411   5.073 -0.5816 -0.1679  0.5419
11561SOL    HW135224   1.402   2.456   5.056  0.0040 -1.2341  0.4553
11561SOL    HW235225   1.319   2.398   5.168 -1.0530  0.5778  0.6451
11562SOL     OW35226   2.751   4.846   6.341  0.1205  0.0568 -0.5095
11562SOL    HW135227   2.664   4.866   6.307  0.4929  0.4751 -1.2341
11562SOL    HW235228   2.780   4.926   6.385  0.1329 -0.0936 -0.2345
11563SOL     OW35229   2.009   6.091   1.724  0.0705  0.0136 -0.1602
11563SOL    HW135230   1.921   6.084   1.761  0.1389  0.6247  0.1237
11563SOL    HW235231   1.994   6.089   1.629 -0.2122 -0.2444 -0.1150
11564SOL     OW35232   4.887   2.145   4.944 -0.5734 -0.1322 -0.5112
11564SOL    HW135233   4.872   2.093   5.024 -0.2310  1.1330  0.4064
11564SOL    HW235234   4.974   2.118   4.914 -0.7968 -0.7810 -0.5955
11565SOL     OW35235   2.211   4.334   2.498  0.3902 -0.4739 -1.0284
11565SOL    HW135236   2.118   4.348   2.516  0.7044 -0.8565  1.2409
11565SOL    HW235237   2.229   4.247   2.533  1.5422 -0.5344 -1.7305
11566SOL     OW35238   6.099   2.156   7.079  0.5810  0.4916 -0.2685
11566SOL    HW135239   6.101   2.234   7.024  0.2193  1.2174  0.7382
11566SOL    HW235240   6.190   2.124   7.077  0.2792 -0.4538 -2.5882
11567SOL     OW35241   1.461   4.897   3.936  0.2365 -0.6286  0.1900
11567SOL    HW135242   1.531   4.837   3.963  0.4328 -0.6771 -0.4168
11567SOL    HW235243   1.391   4.881   4.000  0.7083 -0.6982  0.7039
11568SOL     OW35244   5.616   3.322   6.884 -0.3938  0.0705  0.3299
11568SOL    HW135245   5.708   3.347   6.882 -0.1062 -0.8995  0.9264
11568SOL    HW235246   5.609   3.258   6.955 -0.8626 -2.4121 -1.7714
11569SOL     OW35247   2.793   1.608   6.890  0.2997 -0.1079 -0.5135
11569SOL    HW135248   2.781   1.660   6.969  1.1229  0.3092 -0.6573
11569SOL    HW235249   2.717   1.550   6.888 -1.3882  2.0185 -1.1086
11570SOL     OW35250   3.583   7.041   6.076 -0.0051  0.2940  0.5344
11570SOL    HW135251   3.564   6.981   6.003 -1.5248  1.6324 -0.2281
11570SOL    HW235252   3.520   7.112   6.065  1.6518  1.9724  1.4928
11571SOL     OW35253   2.710   1.155   2.641 -0.0837  0.2389  0.6132
11571SOL    HW135254   2.706   1.239   2.595  1.9415  0.4343  0.6957
11571SOL    HW235255   2.690   1.090   2.573  0.0977  0.6861  0.1239
11572SOL     OW35256   1.003   5.733   5.602 -0.5915  0.3962 -0.4136
11572SOL    HW135257   1.013   5.697   5.690 -1.9403  1.8773  0.4027
11572SOL    HW235258   1.088   5.720   5.560 -0.2137 -1.1928  0.7583
11573SOL     OW35259   0.572   7.103   4.041  0.3704  0.9862 -0.2341
11573SOL    HW135260   0.563   7.024   3.988  2.5384  0.2009  0.4332
11573SOL    HW235261   0.599   7.071   4.127 -1.2592  2.3403  0.8399
11574SOL     OW35262   1.569   5.220   4.532  0.0393 -0.3564  0.0281
11574SOL    HW135263   1.493   5.200   4.587  0.0891 -2.5947 -0.6392
11574SOL    HW235264   1.643   5.181   4.578  0.2222 -1.4093 -1.1180
11575SOL     OW35265   0.777   3.186   1.241 -0.3191  0.0201  0.1538
11575SOL    HW135266   0.737   3.256   1.190 -0.3878  0.0341  0.2271
11575SOL    HW235267   0.716   3.171   1.312 -2.2242 -2.6826 -1.8588
11576SOL     OW35268   6.251   7.086   4.314  0.6235  0.1989  0.0945
11576SOL    HW135269   6.297   7.004   4.332  0.9696 -0.0517 -1.8150
11576SOL    HW235270   6.285   7.147   4.380  1.8627 -0.6443  0.2667
11577SOL     OW35271   3.656   6.478   6.581 -0.3201 -0.2280 -0.0272
11577SOL    HW135272   3.635   6.564   6.616  0.4826 -1.0549  2.8009
11577SOL    HW235273   3.719   6.494   6.512 -0.3731  1.4695  0.2903
11578SOL     OW35274   0.520   7.422   3.137  0.6601 -0.1705 -0.2745
11578SOL    HW135275   0.536   7.483   3.209 -0.9496  0.6870 -0.5882
11578SOL    HW235276   0.567   7.458   3.062 -0.5838  0.9555 -0.5554
11579SOL     OW35277   0.480   6.354   1.254 -0.2313 -0.2839 -0.2763
11579SOL    HW135278   0.402   6.360   1.308 -0.3977 -2.5841 -0.2010
11579SOL    HW235279   0.552   6.370   1.315 -0.5039 -1.1759  0.2976
11580SOL     OW35280   3.513   5.840   2.952 -0.2318  0.2067 -0.2323
11580SOL    HW135281   3.525   5.924   2.907 -1.2996 -0.1036 -1.1118
11580SOL    HW235282   3.421   5.839   2.978 -1.0237 -1.8367 -2.6906
11581SOL     OW35283   7.486   7.550   5.668  0.5476 -0.1179 -0.7526
11581SOL    HW135284   7.418   7.485   5.652  0.5486 -0.4789  0.6237
11581SOL    HW235285   7.448   7.633   5.637  0.0149 -0.5330 -1.2335
11582SOL     OW35286   1.706   1.836   7.094  0.0810  0.0873 -0.0774
11582SOL    HW135287   1.744   1.824   7.007 -1.2826 -0.3410 -0.6509
11582SOL    HW235288   1.772   1.885   7.143  0.3278  1.5539 -1.7710
11583SOL     OW35289   1.273   5.795   3.149  0.6707  0.3167 -0.3035
11583SOL    HW135290   1.358   5.753   3.134  1.0844  0.7496  0.7668
11583SOL    HW235291   1.219   5.726   3.190  0.8708  0.3738  0.0615
11584SOL     OW35292   1.521   3.148   0.569 -0.0576 -0.0538 -0.4597
11584SOL    HW135293   1.469   3.190   0.501 -0.8146 -1.6457 -0.9005
11584SOL    HW235294   1.612   3.164   0.543 -0.3288  0.5393 -1.0712
11585SOL     OW35295   2.243   5.609   2.831  0.5446 -0.4171  0.5755
11585SOL    HW135296   2.293   5.543   2.783 -0.3602  0.2662 -1.4130
11585SOL    HW235297   2.205   5.664   2.763 -1.3111  0.2601  2.0808
11586SOL     OW35298   0.599   6.522   3.160  0.2688 -0.1484 -0.5389
11586SOL    HW135299   0.552   6.540   3.079  1.2016  1.4742 -0.7748
11586SOL    HW235300   0.536   6.541   3.230  0.3456  1.4685 -0.8631
11587SOL     OW35301   5.947   1.752   4.086  0.0425  0.1516 -0.1144
11587SOL    HW135302   6.008   1.753   4.160 -1.3097  1.1494  1.0415
11587SOL    HW235303   5.871   1.704   4.118 -0.3618  0.1535 -1.0375
11588SOL     OW35304   4.276   5.009   0.069  0.0046 -0.3777  0.1439
11588SOL    HW135305   4.286   4.916   0.086 -0.4645 -0.3475  0.5989
11588SOL    HW235306   4.206   5.037   0.127 -0.8728 -0.0401 -1.0439
11589SOL     OW35307   3.643   6.219   7.180 -0.2727  0.4823  0.5955
11589SOL    HW135308   3.683   6.135   7.159 -0.2657  0.4874  0.5877
11589SOL    HW235309   3.667   6.276   7.107 -0.4955  0.4204  0.4747
11590SOL     OW35310   0.484   2.209   4.111 -0.8564  0.4014  0.4702
11590SOL    HW135311   0.460   2.261   4.188 -0.0799 -0.0256  1.0234
11590SOL    HW235312   0.548   2.146   4.144  0.8435  1.3420 -0.8651
11591SOL     OW35313   7.243   0.693   5.645  0.1773  0.6116  0.3636
11591SOL    HW135314   7.262   0.638   5.569 -0.9399  0.6879  0.0203
11591SOL    HW235315   7.206   0.773   5.608  0.3949  0.9875  0.9498
11592SOL     OW35316   0.253   3.895   1.201  0.2400  0.0639 -0.6994
11592SOL    HW135317   0.181   3.846   1.162  0.8172 -1.1747 -0.2640
11592SOL    HW235318   0.312   3.915   1.128  1.2491 -2.1232 -0.5639
11593SOL     OW35319   0.531   1.166   7.288  0.7497  0.4716  0.3107
11593SOL    HW135320   0.560   1.102   7.222  1.0225 -0.1940  1.0571
11593SOL    HW235321   0.512   1.245   7.238  0.8450 -0.0553 -0.5827
11594SOL     OW35322   0.602   2.143   0.660  0.6853  0.4163  0.3273
11594SOL    HW135323   0.621   2.130   0.753  3.1291 -1.3164 -0.3276
11594SOL    HW235324   0.573   2.057   0.629 -0.8634  1.1578 -0.4077
11595SOL     OW35325   1.617   3.933   1.412  0.1009  0.0051  0.4197
11595SOL    HW135326   1.613   3.873   1.338  1.5706  2.4028 -1.7707
11595SOL    HW235327   1.597   4.019   1.375  0.9217  1.3236  2.8080
11596SOL     OW35328   0.402   5.514   0.130  0.2947  0.1013 -0.3452
11596SOL    HW135329   0.435   5.435   0.172  0.4196 -0.5547 -1.6085
11596SOL    HW235330   0.449   5.517   0.046 -1.5152  0.1408 -1.3976
11597SOL     OW35331   0.231   4.919   4.931  0.0641 -0.1505 -0.4035
11597SOL    HW135332   0.264   4.873   4.854  0.5501  1.2481 -1.0583
11597SOL    HW235333   0.297   4.903   4.998  2.1254  2.4137 -1.6280
11598SOL     OW35334   6.163   1.495   3.458 -0.4595 -0.0304  0.2083
11598SOL    HW135335   6.207   1.538   3.531 -0.7075  2.6055 -1.0780
11598SOL    HW235336   6.072   1.488   3.485 -0.4216  0.2761  0.4149
11599SOL     OW35337   4.479   7.590   1.596  0.5452 -0.2359 -0.2465
11599SOL    HW135338   4.559   7.545   1.567  1.1573  1.1212 -0.7784
11599SOL    HW235339   4.461   7.555   1.683  1.1830 -1.2470 -0.5099
11600SOL     OW35340   5.613   7.492   6.973  0.8350 -0.3394  0.4230
11600SOL    HW135341   5.648   7.554   7.038 -0.3327  1.6427 -0.7462
11600SOL    HW235342   5.553   7.437   7.023 -0.8456  1.8131  0.9853
11601SOL     OW35343   1.297   5.387   1.365  0.4708 -0.1508 -0.0918
11601SOL    HW135344   1.362   5.349   1.423  1.1257 -1.3579 -1.5652
11601SOL    HW235345   1.226   5.322   1.362 -0.5931  0.8982  1.0584
11602SOL     OW35346   5.535   5.042   0.983  0.9181  0.3602 -0.0589
11602SOL    HW135347   5.500   4.954   0.998 -1.2798  0.9115 -1.4528
11602SOL    HW235348   5.532   5.053   0.888 -0.5425  2.5489  0.1771
11603SOL     OW35349   0.526   1.625   4.700 -0.0388  0.4956 -0.0135
11603SOL    HW135350   0.574   1.697   4.660  1.0658  0.1896  0.7272
11603SOL    HW235351   0.524   1.557   4.632 -0.2833  0.8675 -0.3846
11604SOL     OW35352   1.049   0.108   0.064  0.3776 -0.0436 -0.0080
11604SOL    HW135353   1.101   0.070  -0.007 -0.5155  0.4320 -0.9475
11604SOL    HW235354   1.083   0.067   0.143  0.5561 -1.5458 -0.8293
11605SOL     OW35355   5.669   6.091   1.132  0.2494 -0.3812 -0.0913
11605SOL    HW135356   5.655   5.998   1.149 -0.5474 -0.8511 -2.7874
11605SOL    HW235357   5.729   6.093   1.057 -0.7181  1.2142 -0.8762
11606SOL     OW35358   5.871   3.614   7.520  0.5111 -0.0096  0.2097
11606SOL    HW135359   5.956   3.656   7.507 -0.1478  1.3618  0.2145
11606SOL    HW235360   5.807   3.675   7.484 -0.4065 -1.6204 -1.0670
11607SOL     OW35361   1.969   0.661   5.270  0.0271  0.2615 -0.7498
11607SOL    HW135362   1.882   0.621   5.272 -0.4021  1.1131 -1.5750
11607SOL    HW235363   1.952   0.755   5.260  1.0273  0.5600  0.1490
11608SOL     OW35364   1.689   4.480   5.375  0.1194  0.2380 -0.0712
11608SOL    HW135365   1.753   4.422   5.416  1.6209  0.9043 -1.3611
11608SOL    HW235366   1.607   4.430   5.376  0.6304 -0.6346  1.6311
11609SOL     OW35367   4.359   0.855   0.341 -0.0995  0.3424  0.6522
11609SOL    HW135368   4.415   0.931   0.325 -0.5017  0.2080 -1.7266
11609SOL    HW235369   4.418   0.789   0.377  0.9587  0.7290 -0.3022
11610SOL     OW35370   2.218   7.168   3.259 -0.0548 -0.4952  0.2796
11610SOL    HW135371   2.179   7.081   3.262  2.0222 -1.5928 -1.4370
11610SOL    HW235372   2.191   7.203   3.174 -0.9248  0.6022  0.9820
11611SOL     OW35373   2.986   7.299   6.342  0.1386 -0.3831  0.7871
11611SOL    HW135374   3.021   7.274   6.428 -0.9596 -1.8450  0.8455
11611SOL    HW235375   2.906   7.247   6.333  0.0339  0.0356 -0.9716
11612SOL     OW35376   6.121   0.951   0.344  0.3182  0.1877 -0.1654
11612SOL    HW135377   6.192   0.955   0.280  0.0899 -1.4019 -0.5553
11612SOL    HW235378   6.156   0.900   0.417  0.0721  0.7138  0.3357
11613SOL     OW35379   6.210   1.197   0.522 -0.1577  0.4101  0.0484
11613SOL    HW135380   6.141   1.210   0.587 -0.6109  1.3974 -0.6046
11613SOL    HW235381   6.167   1.155   0.448 -0.3806  2.1725 -0.8724
11614SOL     OW35382   0.196   5.622   5.836  0.1815  0.2577 -0.3094
11614SOL    HW135383   0.261   5.555   5.814  0.5325  0.6398 -0.4268
11614SOL    HW235384   0.119   5.571   5.863  1.3554 -0.2316  2.3874
11615SOL     OW35385   0.837   2.843   7.557  0.6970 -0.2586 -0.1560
11615SOL    HW135386   0.887   2.916   7.594  1.6497 -0.5214 -0.8873
11615SOL    HW235387   0.904   2.779   7.533 -0.1439 -1.5065  0.7302
11616SOL     OW35388   4.348   3.520   4.020 -0.1028  0.0788 -0.1334
11616SOL    HW135389   4.305   3.573   4.087 -1.4170 -1.3414  0.2211
11616SOL    HW235390   4.295   3.532   3.942 -0.4561 -0.7212 -0.0314
11617SOL     OW35391   2.836   0.996   6.292  0.2503  0.1925 -0.1051
11617SOL    HW135392   2.788   1.050   6.229 -2.2391 -0.6919  0.9150
11617SOL    HW235393   2.768   0.946   6.338  2.0876 -0.3269  2.2379
11618SOL     OW35394   1.499   6.221   0.972  0.4736 -0.6046  0.3402
11618SOL    HW135395   1.586   6.256   0.954  0.4900 -1.6158 -1.8322
11618SOL    HW235396   1.480   6.249   1.062  2.2435  1.1984  0.2204
11619SOL     OW35397   4.946   4.975   4.674 -0.0453  0.3355  0.2042
11619SOL    HW135398   4.971   5.051   4.726 -1.8680  0.8565  0.4056
11619SOL    HW235399   5.016   4.964   4.611  0.9494  1.2916  1.1070
11620SOL     OW35400   6.885   3.065   1.340  0.3765  0.4473 -0.0529
11620SOL    HW135401   6.844   2.990   1.297  1.4056 -0.1257 -0.0764
11620SOL    HW235402   6.834   3.141   1.310 -0.6261 -0.2297 -0.0879
11621SOL     OW35403   4.639   1.847   0.973 -0.4639 -0.7245  0.0361
11621SOL    HW135404   4.624   1.921   0.914 -0.1048  1.6085  2.6490
11621SOL    HW235405   4.723   1.811   0.944 -1.1040 -0.7896 -1.9005
11622SOL     OW35406   5.750   5.828   1.017 -0.2808  0.5139  0.2593
11622SOL    HW135407   5.742   5.777   0.936  0.7269 -0.1101  0.5362
11622SOL    HW235408   5.842   5.853   1.022 -0.2133  0.1192  1.4529
11623SOL     OW35409   2.071   6.404   4.204  0.4386  0.2762 -0.5666
11623SOL    HW135410   2.154   6.358   4.217 -0.5409 -1.2183  0.8270
11623SOL    HW235411   2.027   6.356   4.135  0.1476  0.1893 -0.3236
11624SOL     OW35412   7.130   5.825   6.731  0.8574 -0.5086 -0.1197
11624SOL    HW135413   7.216   5.798   6.698 -0.1131 -1.4043 -2.0961
11624SOL    HW235414   7.073   5.752   6.708 -0.5982  0.4423  0.4030
11625SOL     OW35415   4.922   4.586   6.286  0.0584  0.8491  0.4568
11625SOL    HW135416   4.989   4.641   6.327  0.4944 -0.0834  1.0255
11625SOL    HW235417   4.890   4.531   6.358 -0.3128  0.3010 -0.1225
11626SOL     OW35418   6.640   3.282   7.141  0.5374  0.2430  0.5426
11626SOL    HW135419   6.715   3.282   7.082  0.5558  1.4280  0.5341
11626SOL    HW235420   6.571   3.328   7.092 -0.5223 -1.6346  0.1801
11627SOL     OW35421   0.229   4.649   3.747  0.2778 -0.2386  0.6507
11627SOL    HW135422   0.205   4.720   3.807 -1.9038 -0.3491 -0.0017
11627SOL    HW235423   0.184   4.573   3.782  1.4878 -1.0296  0.5500
11628SOL     OW35424   5.982   4.760   5.832  0.1234 -0.3478  0.0281
11628SOL    HW135425   5.996   4.667   5.850  0.7178 -0.2341  0.1855
11628SOL    HW235426   5.918   4.761   5.761 -0.6558 -0.8506  0.7079
11629SOL     OW35427   7.432   3.125   6.370  0.1244  0.1908  0.0545
11629SOL    HW135428   7.456   3.069   6.296  1.1208  0.8377 -0.1336
11629SOL    HW235429   7.453   3.073   6.448 -1.0029 -0.5253 -0.0966
11630SOL     OW35430   0.601   4.615   1.736  0.4234 -0.1271  0.1689
11630SOL    HW135431   0.643   4.684   1.683  0.1021 -0.0572  0.0034
11630SOL    HW235432   0.627   4.534   1.693 -1.2769 -0.0058 -1.1756
11631SOL     OW35433   0.891   4.130   0.525  0.1305 -0.2470 -0.2643
11631SOL    HW135434   0.907   4.039   0.501  2.5249  0.8769 -3.8473
11631SOL    HW235435   0.838   4.165   0.453 -0.8614  1.1878  1.1093
11632SOL     OW35436   4.993   2.287   7.025 -0.1350  0.2890  0.3933
11632SOL    HW135437   4.905   2.311   6.996  0.8915  1.4097 -2.0333
11632SOL    HW235438   5.006   2.339   7.105 -1.4893  0.4172  0.5625
11633SOL     OW35439   7.450   1.788   3.503 -0.1363  0.4888 -0.1039
11633SOL    HW135440   7.531   1.840   3.502  0.5338 -0.4686 -2.3818
11633SOL    HW235441   7.470   1.715   3.562 -0.4574  1.7748  1.7003
11634SOL     OW35442   5.078   5.090   1.296 -0.0106  0.9187 -0.6147
11634SOL    HW135443   5.067   5.126   1.384  2.8501  1.7510 -0.5080
11634SOL    HW235444   5.046   5.159   1.238 -1.9413  0.3519 -0.3166
11635SOL     OW35445   3.520   4.997   6.444 -0.0242  0.3467  0.1723
11635SOL    HW135446   3.436   4.950   6.444 -0.0289  0.3540  0.0500
11635SOL    HW235447   3.498   5.083   6.410  0.4038 -0.3327 -1.9499
11636SOL     OW35448   0.110   5.518   1.707  0.0039  0.2272  0.1428
11636SOL    HW135449   0.197   5.495   1.674 -0.7172 -2.0981 -0.3780
11636SOL    HW235450   0.070   5.569   1.636  0.1087 -0.7716 -0.6595
11637SOL     OW35451   3.609   1.426   2.955 -0.3531  0.1930 -0.0105
11637SOL    HW135452   3.683   1.439   2.894 -1.6233 -2.8926 -2.5200
11637SOL    HW235453   3.571   1.513   2.965  2.1864  1.4719 -0.5546
11638SOL     OW35454   1.554   6.183   3.241  0.0770 -0.3010  0.0699
11638SOL    HW135455   1.525   6.094   3.264 -0.5897  0.3022  1.7683
11638SOL    HW235456   1.510   6.239   3.305  1.7602  1.0995  0.0615
11639SOL     OW35457   1.147   1.120   7.281  0.2334  0.2534  0.2136
11639SOL    HW135458   1.228   1.123   7.333  0.2479  0.9381  0.1527
11639SOL    HW235459   1.157   1.190   7.217 -0.3480  0.2448  0.1130
11640SOL     OW35460   1.388   3.019   1.424  0.0441 -0.1051  0.6343
11640SOL    HW135461   1.448   3.088   1.451 -0.0357  0.7039 -1.1267
11640SOL    HW235462   1.336   3.058   1.354 -0.6159 -1.6776  0.1981
11641SOL     OW35463   7.290   5.817   5.216 -0.0080  0.2789 -0.3319
11641SOL    HW135464   7.327   5.772   5.140 -0.1897 -2.3153  0.9995
11641SOL    HW235465   7.366   5.838   5.270 -0.1013 -1.2452  0.4431
11642SOL     OW35466   1.590   7.150   7.359  0.6258  0.0565  0.2077
11642SOL    HW135467   1.524   7.082   7.345 -1.1036  1.4136  1.4254
11642SOL    HW235468   1.543   7.221   7.403  1.8198  3.0039 -2.8891
11643SOL     OW35469   5.603   3.107   0.446 -0.0453 -0.0244 -0.1564
11643SOL    HW135470   5.627   3.131   0.536 -1.2319  2.1667 -0.3611
11643SOL    HW235471   5.634   3.180   0.393 -1.2124 -0.3068 -1.2636
11644SOL     OW35472   5.043   3.121   3.050  0.2675 -0.0267  0.5950
11644SOL    HW135473   5.020   3.028   3.044 -0.5858  0.2399 -0.8083
11644SOL    HW235474   5.042   3.151   2.959  0.1903  1.4403  1.0621
11645SOL     OW35475   0.753   1.299   1.654 -0.2798  0.0576 -0.0715
11645SOL    HW135476   0.694   1.369   1.626 -1.9493 -1.4144 -0.3680
11645SOL    HW235477   0.814   1.342   1.714 -0.3242  2.0565 -1.3896
11646SOL     OW35478   0.705   4.806   0.668  0.1486  0.1008 -0.2334
11646SOL    HW135479   0.788   4.786   0.625  0.6006 -1.0875  1.1089
11646SOL    HW235480   0.697   4.740   0.737 -2.0957 -0.0360 -0.5585
11647SOL     OW35481   6.986   5.642   5.106 -0.0038  0.3699 -0.3162
11647SOL    HW135482   7.073   5.631   5.067 -0.6917 -1.7332 -1.3698
11647SOL    HW235483   6.960   5.731   5.081  1.5556  0.8021 -0.5192
11648SOL     OW35484   5.946   0.189   4.749  0.1692 -0.2577 -0.2393
11648SOL    HW135485   5.852   0.196   4.766  0.1011  0.5276 -0.9012
11648SOL    HW235486   5.987   0.207   4.834 -0.2798 -1.1388  0.1772
11649SOL     OW35487   1.911   2.846   7.019 -0.0439  0.4825  0.2702
11649SOL    HW135488   1.841   2.814   7.077  0.1397  1.1847  0.9001
11649SOL    HW235489   1.902   2.794   6.939  0.0693 -0.9401  1.1483
11650SOL     OW35490   5.155   5.373   7.115  0.2717 -0.0350 -0.2444
11650SOL    HW135491   5.215   5.371   7.189 -0.0376 -2.4233 -0.0063
11650SOL    HW235492   5.090   5.306   7.134 -1.7203  1.5119 -1.1734
11651SOL     OW35493   2.750   5.663   0.109 -0.6658 -0.0747 -0.2417
11651SOL    HW135494   2.772   5.750   0.143 -2.0158 -0.4058  1.6612
11651SOL    HW235495   2.669   5.677   0.059 -1.2248 -0.3064  0.5788
11652SOL     OW35496   6.930   2.706   1.697 -0.1414 -0.1281 -0.2473
11652SOL    HW135497   6.859   2.769   1.708  0.7901  0.7182  1.4561
11652SOL    HW235498   7.010   2.758   1.711  0.6689 -1.5563  0.7000
11653SOL     OW35499   1.091   5.431   0.855  0.4211  0.2279  0.2881
11653SOL    HW135500   1.127   5.508   0.899  0.1116  1.2826 -1.2282
11653SOL    HW235501   1.033   5.392   0.919  0.5130  1.3134  1.0595
11654SOL     OW35502   3.397   2.013   3.632  0.3631 -0.2812 -0.8242
11654SOL    HW135503   3.447   2.093   3.648  0.6092 -0.6998  0.6989
11654SOL    HW235504   3.307   2.042   3.623  0.2741  0.0956  0.9270
11655SOL     OW35505   3.833   0.417   0.597 -0.0130 -0.3377 -0.0474
11655SOL    HW135506   3.773   0.415   0.672  0.7610 -0.9218  0.5688
11655SOL    HW235507   3.788   0.472   0.533 -0.2963  0.9252  1.1864
11656SOL     OW35508   7.527   0.610   0.168  0.4998 -0.0232 -0.0016
11656SOL    HW135509   7.523   0.575   0.079  0.5797 -0.7864  0.2892
11656SOL    HW235510   7.601   0.565   0.209  1.7106  1.7607 -0.1507
11657SOL     OW35511   4.758   2.099   3.206 -0.4507  0.3358 -0.9845
11657SOL    HW135512   4.667   2.100   3.233 -1.4226 -0.2402 -3.8276
11657SOL    HW235513   4.767   2.176   3.149  0.9782  0.6463 -0.3771
11658SOL     OW35514   7.261   3.844   7.547  0.1507 -0.2153  0.3432
11658SOL    HW135515   7.212   3.887   7.617 -0.3565  0.8042 -0.5983
11658SOL    HW235516   7.194   3.824   7.480  0.7412 -0.3973 -0.2011
11659SOL     OW35517   2.332   3.637   5.068  0.2442  0.4107  0.1434
11659SOL    HW135518   2.403   3.579   5.094 -1.1090 -1.0811  0.6993
11659SOL    HW235519   2.284   3.654   5.149 -0.1260  1.2756 -0.2456
11660SOL     OW35520   0.430   4.196   6.812  0.0047  0.0417 -0.1037
11660SOL    HW135521   0.345   4.157   6.794  0.0411  0.5237 -1.4305
11660SOL    HW235522   0.459   4.155   6.893 -1.6042  0.0721  0.5090
11661SOL     OW35523   5.648   1.478   1.593  0.0234  0.2061 -0.7442
11661SOL    HW135524   5.587   1.431   1.650 -1.5104  1.7340 -1.0580
11661SOL    HW235525   5.614   1.463   1.504  0.5326  0.4732 -0.9884
11662SOL     OW35526   4.518   5.757   2.738  0.3216 -0.3025 -0.0678
11662SOL    HW135527   4.453   5.719   2.678 -0.4527  1.5230 -0.4499
11662SOL    HW235528   4.596   5.702   2.726  0.1590 -0.0971 -2.6794
11663SOL     OW35529   6.621   3.440   2.137 -0.3852 -0.3337 -0.6817
11663SOL    HW135530   6.558   3.431   2.209  0.3889 -1.2508 -0.0949
11663SOL    HW235531   6.706   3.430   2.179  0.2950  2.3262 -1.2095
11664SOL     OW35532   3.565   3.298   5.382  0.5784  0.5585 -0.1500
11664SOL    HW135533   3.552   3.289   5.476 -0.5672 -0.4461 -0.3934
11664SOL    HW235534   3.654   3.265   5.367  1.1260  1.5830  0.6760
11665SOL     OW35535   6.211   1.969   0.690 -0.5348  0.1437 -0.1613
11665SOL    HW135536   6.216   2.043   0.750 -0.3977 -0.8769  1.1247
11665SOL    HW235537   6.118   1.948   0.685 -0.6024  0.5887 -0.7561
11666SOL     OW35538   6.316   4.562   4.589 -0.0980  1.0384  0.1662
11666SOL    HW135539   6.223   4.572   4.571 -1.1410 -1.7106  3.1117
11666SOL    HW235540   6.344   4.490   4.532  0.0251  1.2564 -0.0529
11667SOL     OW35541   2.704   0.347   7.509  0.1870 -0.2825 -0.0671
11667SOL    HW135542   2.757   0.396   7.447  0.9310 -0.0437  0.7364
11667SOL    HW235543   2.614   0.371   7.488  0.4587  0.2199 -0.6886
11668SOL     OW35544   4.773   2.704   6.175 -0.0191 -0.1483 -0.0081
11668SOL    HW135545   4.723   2.769   6.125 -0.6484 -1.5141 -1.2426
11668SOL    HW235546   4.750   2.620   6.135  3.8502 -0.8398 -1.1910
11669SOL     OW35547   5.531   3.399   5.546  0.3398  0.1178 -0.9130
11669SOL    HW135548   5.462   3.401   5.480 -0.1618  0.3073 -0.3820
11669SOL    HW235549   5.489   3.428   5.627  1.5724  2.6568 -1.0801
11670SOL     OW35550   5.508   6.013   2.488 -0.0497  0.0726  0.0068
11670SOL    HW135551   5.423   6.055   2.476 -0.2834 -0.3421  0.1538
11670SOL    HW235552   5.508   5.985   2.579 -1.1637 -2.8543 -0.7651
11671SOL     OW35553   6.971   0.874   6.338  0.1415  0.0504 -0.5318
11671SOL    HW135554   7.020   0.817   6.279 -1.3555 -1.5366 -0.3087
11671SOL    HW235555   7.037   0.929   6.379  1.6010 -1.2586 -1.0457
11672SOL     OW35556   1.723   4.761   3.979 -0.3388 -0.4225 -0.1906
11672SOL    HW135557   1.715   4.670   4.008  1.3382 -0.4974  0.1365
11672SOL    HW235558   1.806   4.791   4.015 -0.6391  1.1058 -0.6848
11673SOL     OW35559   1.517   5.689   6.396  0.1852  0.3292  0.2408
11673SOL    HW135560   1.525   5.631   6.321  0.3557 -0.2860  0.7292
11673SOL    HW235561   1.429   5.726   6.389 -0.2499 -0.6543  0.3955
11674SOL     OW35562   0.242   6.077   0.642  0.7068 -0.0797  0.2427
11674SOL    HW135563   0.323   6.123   0.659  0.2021  0.8151  0.2591
11674SOL    HW235564   0.235   6.013   0.713 -0.1447  1.9510  2.0761
11675SOL     OW35565   6.173   4.707   5.597 -0.2741 -0.2977 -0.4384
11675SOL    HW135566   6.088   4.750   5.588 -0.8754 -1.5486 -0.8795
11675SOL    HW235567   6.223   4.737   5.521 -1.2844 -1.6855 -1.6900
11676SOL     OW35568   5.733   1.517   5.357 -0.0970 -0.4990  0.1594
11676SOL    HW135569   5.688   1.544   5.277  1.2333 -1.1128 -0.8181
11676SOL    HW235570   5.687   1.438   5.385  0.6226 -1.3628 -1.0665
11677SOL     OW35571   4.101   2.426   2.254  0.3174  0.1468  0.1612
11677SOL    HW135572   4.100   2.380   2.170  0.7324  0.0565  0.2034
11677SOL    HW235573   4.058   2.366   2.315  1.4725 -0.4893  0.3665
11678SOL     OW35574   5.499   4.208   0.038 -0.2699  0.2887 -0.3409
11678SOL    HW135575   5.493   4.290   0.088  0.0787  0.8088 -1.1234
11678SOL    HW235576   5.591   4.204   0.010  0.2527 -1.4187  1.3806
11679SOL     OW35577   3.438   2.339   6.601  0.5495  0.5009 -0.1236
11679SOL    HW135578   3.454   2.300   6.516 -1.2027 -0.8096  0.0853
11679SOL    HW235579   3.487   2.285   6.662  0.3808  0.3547 -0.1185
11680SOL     OW35580   0.118   7.038   4.644  0.4003  0.2661 -0.5340
11680SOL    HW135581   0.211   7.056   4.638  0.4917 -0.2017 -0.6127
11680SOL    HW235582   0.113   6.948   4.676 -0.0180  0.1720 -0.8489
11681SOL     OW35583   1.186   4.489   3.803  0.1014  0.1539 -0.4406
11681SOL    HW135584   1.280   4.489   3.819  0.3175 -1.0053 -1.5076
11681SOL    HW235585   1.161   4.397   3.806 -0.4267  0.1168 -3.0294
11682SOL     OW35586   1.430   1.560   2.501  0.1696  0.2369  0.4104
11682SOL    HW135587   1.353   1.505   2.506  0.4570 -0.2936 -0.6543
11682SOL    HW235588   1.500   1.508   2.541  0.6459 -0.6027 -1.4041
11683SOL     OW35589   6.142   7.119   0.302  0.2730  0.1885 -0.0766
11683SOL    HW135590   6.223   7.167   0.317 -0.8280  1.9208  0.5122
11683SOL    HW235591   6.152   7.083   0.214  1.8715 -0.0618  0.1757
11684SOL     OW35592   2.087   2.879   5.009  0.6556 -0.3714 -0.6796
11684SOL    HW135593   2.050   2.791   5.012  2.4681 -1.2115 -1.6688
11684SOL    HW235594   2.180   2.867   5.025  1.1114  1.2289 -1.8653
11685SOL     OW35595   1.410   6.872   4.928 -0.5168  0.3427  0.3304
11685SOL    HW135596   1.412   6.777   4.927 -0.6903  0.3345 -0.6414
11685SOL    HW235597   1.404   6.896   5.020 -1.9542 -0.6254  0.5149
11686SOL     OW35598   1.378   3.263   3.836  0.5074  0.8331  0.1829
11686SOL    HW135599   1.397   3.355   3.850  1.0893  0.4750  1.9498
11686SOL    HW235600   1.457   3.217   3.866 -0.5634 -0.3459  1.2999
11687SOL     OW35601   4.702   2.813   7.583  0.2922  0.5820  0.6099
11687SOL    HW135602   4.680   2.864   7.506  0.7207 -0.2658 -0.0933
11687SOL    HW235603   4.636   2.838   7.648 -0.8597  0.3573 -0.4397
11688SOL     OW35604   1.010   5.863   3.316 -0.3500  0.2729 -0.1199
11688SOL    HW135605   1.054   5.934   3.364  2.0139 -1.6868  0.8352
11688SOL    HW235606   0.954   5.908   3.253  0.1032  2.9677  1.2435
11689SOL     OW35607   2.100   0.624   2.159  0.0151  0.8819  0.0298
11689SOL    HW135608   2.069   0.686   2.093 -0.4259  1.3689  0.6879
11689SOL    HW235609   2.091   0.670   2.242 -2.4416 -0.8159  0.7983
11690SOL     OW35610   1.168   0.161   7.359 -0.3256 -0.3574 -0.7296
11690SOL    HW135611   1.226   0.136   7.431  0.0092  0.4683 -0.6992
11690SOL    HW235612   1.179   0.091   7.294 -0.5436 -1.0444 -0.0395
11691SOL     OW35613   4.437   5.301   3.672  0.1117 -0.0347  0.1827
11691SOL    HW135614   4.417   5.344   3.589 -3.3424 -1.1394  0.2805
11691SOL    HW235615   4.425   5.208   3.654  0.1940 -0.3750  1.7281
11692SOL     OW35616   1.869   7.459   5.096  0.2643  0.1219  0.1752
11692SOL    HW135617   1.861   7.442   5.190  0.4330  1.1359  0.3861
11692SOL    HW235618   1.925   7.389   5.063 -0.0803 -0.4397  0.7687
11693SOL     OW35619   0.765   6.186   1.660  0.2507 -0.6584 -0.5252
11693SOL    HW135620   0.788   6.234   1.739 -0.8820 -1.5740  0.3912
11693SOL    HW235621   0.849   6.168   1.617  0.8139  0.5200  0.0427
11694SOL     OW35622   2.604   6.359   1.629  0.0689  0.2815  0.3015
11694SOL    HW135623   2.554   6.277   1.634 -0.1234  0.2927 -1.0066
11694SOL    HW235624   2.622   6.370   1.535  1.2943  1.0227  0.6061
11695SOL     OW35625   1.460   7.400   0.498 -0.0582  0.6547  0.4617
11695SOL    HW135626   1.404   7.383   0.422 -0.8698 -0.1366  1.2182
11695SOL    HW235627   1.401   7.394   0.573  0.6947  1.6179  1.1569
11696SOL     OW35628   4.638   7.608   0.614 -0.5955 -0.5527 -0.4027
11696SOL    HW135629   4.673   7.626   0.526 -0.1060  0.3612 -0.0353
11696SOL    HW235630   4.638   7.693   0.658  0.6744 -1.2508  1.0264
11697SOL     OW35631   1.191   6.392   1.854 -0.0941 -0.1311  0.0887
11697SOL    HW135632   1.181   6.309   1.902 -0.8041 -0.2535 -0.2598
11697SOL    HW235633   1.183   6.367   1.762  2.1461 -0.0252 -0.1687
11698SOL     OW35634   2.053   1.653   1.428 -0.1249  0.1076  0.2428
11698SOL    HW135635   2.099   1.618   1.505 -0.7865  0.1743  0.6703
11698SOL    HW235636   2.019   1.575   1.384  2.4959 -0.2017 -1.4876
11699SOL     OW35637   1.826   2.572   2.830  0.0594  0.6944 -0.0816
11699SOL    HW135638   1.748   2.517   2.833 -0.0464  0.7116 -1.7911
11699SOL    HW235639   1.804   2.644   2.771  1.7766 -0.0556 -1.7851
11700SOL     OW35640   2.527   6.610   1.631 -0.2665 -0.0277  0.3061
11700SOL    HW135641   2.541   6.609   1.537 -4.2474 -2.3665 -0.5076
11700SOL    HW235642   2.531   6.518   1.657  0.4195  0.5351  2.4325
11701SOL     OW35643   1.875   1.774   1.120  0.1585  0.5923 -0.2973
11701SOL    HW135644   1.949   1.825   1.088  1.2219 -1.0248 -0.5271
11701SOL    HW235645   1.808   1.784   1.053  1.0557  0.1837 -1.2879
11702SOL     OW35646   3.003   6.303   3.476 -0.0959  0.2230  0.4922
11702SOL    HW135647   2.938   6.372   3.462  1.5930  2.3815  2.4516
11702SOL    HW235648   2.972   6.230   3.424 -3.3928  1.5669  0.3496
11703SOL     OW35649   2.865   0.661   3.149  0.6499 -0.2162 -0.4889
11703SOL    HW135650   2.869   0.609   3.068  3.0165 -0.9490  0.0068
11703SOL    HW235651   2.903   0.745   3.125  1.3631 -0.4367 -0.1750
11704SOL     OW35652   6.944   6.218   1.026  0.0480 -0.4951 -0.0227
11704SOL    HW135653   6.978   6.144   0.975  0.2089 -0.1996 -0.3552
11704SOL    HW235654   7.022   6.267   1.051 -0.0172 -0.7411  0.6787
11705SOL     OW35655   0.437   5.587   3.058  0.0165  0.1386 -0.4383
11705SOL    HW135656   0.359   5.544   3.092  1.0096  0.0774  1.9035
11705SOL    HW235657   0.464   5.532   2.984 -0.9092 -1.0648  0.0832
11706SOL     OW35658   4.167   3.468   7.124 -0.6694  0.7933 -0.7213
11706SOL    HW135659   4.129   3.458   7.211  2.2238  0.9440  0.6869
11706SOL    HW235660   4.221   3.547   7.131  1.8352 -0.7131 -1.6858
11707SOL     OW35661   1.239   6.700   1.598 -0.3372 -0.1178  0.2195
11707SOL    HW135662   1.287   6.618   1.604 -1.2688 -0.6492  0.7043
11707SOL    HW235663   1.179   6.698   1.673 -1.7611  0.0786 -0.8698
11708SOL     OW35664   4.373   1.227   4.752  0.1581 -0.2748  0.3442
11708SOL    HW135665   4.371   1.249   4.846 -1.0302 -1.3055  0.5898
11708SOL    HW235666   4.304   1.282   4.714  0.0220 -0.5265  0.2293
11709SOL     OW35667   2.031   4.833   1.095 -0.1269 -0.1449  0.2068
11709SOL    HW135668   2.044   4.856   1.187 -1.7735  0.2812  0.3620
11709SOL    HW235669   2.077   4.902   1.047  0.8899 -0.4627  0.6800
11710SOL     OW35670   0.902   0.783   5.556  0.2827 -0.7373  0.4934
11710SOL    HW135671   0.871   0.694   5.569  0.9142 -1.0479 -0.0761
11710SOL    HW235672   0.995   0.780   5.578  0.4797 -0.3929 -0.2539
11711SOL     OW35673   3.062   3.262   4.482 -0.6912 -0.1251  0.0604
11711SOL    HW135674   3.025   3.311   4.408 -0.4621  0.7922  0.5380
11711SOL    HW235675   3.018   3.177   4.479 -0.6712 -0.1059 -1.1357
11712SOL     OW35676   0.895   5.023   3.056 -0.1343 -0.6529 -0.3537
11712SOL    HW135677   0.974   4.992   3.012  0.5385  2.0214 -1.2727
11712SOL    HW235678   0.847   5.069   2.987  1.5141  4.7728  1.5585
11713SOL     OW35679   2.262   1.146   0.563  0.1508  0.0510 -0.5358
11713SOL    HW135680   2.327   1.088   0.601  0.3407  0.6101  0.0140
11713SOL    HW235681   2.312   1.220   0.529 -0.0196 -0.4280 -1.8675
11714SOL     OW35682   3.366   7.484   3.301 -0.1508 -0.4773 -0.3022
11714SOL    HW135683   3.376   7.452   3.391  0.3153  0.1419 -0.1208
11714SOL    HW235684   3.362   7.405   3.248  1.6949 -0.8773  0.0567
11715SOL     OW35685   0.660   5.224   1.666 -0.0559  0.5025  0.0073
11715SOL    HW135686   0.715   5.152   1.696  0.0809  0.3973 -0.4890
11715SOL    HW235687   0.719   5.300   1.665 -0.1734  0.5995  0.4302
11716SOL     OW35688   0.284   4.589   6.932  0.1633 -0.1078 -1.2776
11716SOL    HW135689   0.363   4.544   6.900 -0.9766 -0.8832 -3.1471
11716SOL    HW235690   0.297   4.680   6.908  0.5814 -0.1911 -1.3832
11717SOL     OW35691   3.124   6.056   7.391  0.1634  0.2121 -0.6855
11717SOL    HW135692   3.056   6.049   7.323  1.1096 -0.1272 -1.6209
11717SOL    HW235693   3.193   6.109   7.350  1.1068 -0.6903 -0.2972
11718SOL     OW35694   6.331   6.097   2.983 -0.4996 -0.4448  0.2088
11718SOL    HW135695   6.288   6.026   2.935 -1.1115 -0.1724  0.3560
11718SOL    HW235696   6.368   6.153   2.914 -1.4208 -0.0279  0.0464
11719SOL     OW35697   3.626   6.450   1.294 -0.6981 -0.4342  0.2241
11719SOL    HW135698   3.650   6.476   1.383  0.4639 -0.8485  0.0506
11719SOL    HW235699   3.553   6.390   1.305 -0.1182 -1.0131  0.9512
11720SOL     OW35700   6.612   3.639   6.464  0.0345 -0.0214 -0.2570
11720SOL    HW135701   6.537   3.600   6.509 -0.4011  0.9501 -0.1327
11720SOL    HW235702   6.671   3.665   6.535  0.7089 -1.1934 -0.3689
11721SOL     OW35703   0.864   6.265   2.354  0.1883 -0.1579 -0.8044
11721SOL    HW135704   0.922   6.192   2.332 -0.0665 -0.2408 -1.2186
11721SOL    HW235705   0.922   6.340   2.366  0.5298 -0.5844  0.3740
11722SOL     OW35706   6.184   4.821   3.335  0.0050 -0.1653  0.0732
11722SOL    HW135707   6.268   4.819   3.382  0.6242  1.2215 -0.8907
11722SOL    HW235708   6.157   4.913   3.339 -1.9186 -0.7164  1.0602
11723SOL     OW35709   1.800   1.484   0.280  0.2417  0.2421 -0.4872
11723SOL    HW135710   1.739   1.463   0.351  1.4478 -1.8678  0.0182
11723SOL    HW235711   1.772   1.426   0.208  0.5530  0.5703 -0.8752
11724SOL     OW35712   5.921   3.912   0.089  0.2196  0.0352  0.0151
11724SOL    HW135713   5.839   3.872   0.118  0.9386 -2.7283 -1.4491
11724SOL    HW235714   5.985   3.841   0.092  2.5942  2.0453  0.9157
11725SOL     OW35715   3.505   5.853   2.197 -0.3201  0.1578  0.0435
11725SOL    HW135716   3.581   5.911   2.206 -0.9716  1.3901 -1.9157
11725SOL    HW235717   3.523   5.782   2.258  2.4403  0.3700 -0.3922
11726SOL     OW35718   1.196   0.688   5.280 -0.0771  0.2470 -0.0165
11726SOL    HW135719   1.218   0.652   5.194 -1.2657 -1.7908  0.4669
11726SOL    HW235720   1.183   0.611   5.335  0.9426  1.5051  2.0959
11727SOL     OW35721   6.967   4.510   6.700  0.4158 -0.1616  0.1834
11727SOL    HW135722   7.053   4.489   6.736  0.8785  2.9420  1.1774
11727SOL    HW235723   6.918   4.546   6.774 -1.2683 -0.5906 -0.6736
11728SOL     OW35724   1.032   6.112   0.257  0.3701  0.3690  0.4027
11728SOL    HW135725   1.094   6.060   0.309 -0.5892 -0.0756  1.1235
11728SOL    HW235726   1.088   6.166   0.201  1.3909 -1.2431 -0.2040
11729SOL     OW35727   2.982   3.528   5.791  0.2496 -0.0573  0.3698
11729SOL    HW135728   3.043   3.602   5.782  0.8165 -0.3900  1.3857
11729SOL    HW235729   2.916   3.544   5.724  0.1652  1.5581  0.7963
11730SOL     OW35730   5.489   4.687   1.955  0.2990  0.1823 -0.4900
11730SOL    HW135731   5.540   4.677   1.874  2.2780  1.7611  0.4767
11730SOL    HW235732   5.546   4.738   2.013 -1.2165 -0.5730  1.7836
11731SOL     OW35733   1.030   3.806   6.592 -0.1897 -0.6680 -0.0512
11731SOL    HW135734   1.030   3.723   6.546 -0.0173 -0.2960 -0.7378
11731SOL    HW235735   1.100   3.857   6.550 -0.6446  0.0139 -0.0029
11732SOL     OW35736   3.081   7.144   2.794  0.1365  0.3154  0.1117
11732SOL    HW135737   3.059   7.159   2.886 -0.7299 -1.0036  0.1459
11732SOL    HW235738   3.144   7.072   2.796  1.4236  1.3866 -0.2522
11733SOL     OW35739   5.764   5.661   2.883  0.4706 -0.0006  0.3704
11733SOL    HW135740   5.674   5.628   2.872  0.6885 -0.5536  0.2209
11733SOL    HW235741   5.818   5.600   2.832  1.0385 -0.2270  1.2272
11734SOL     OW35742   2.966   6.007   3.772 -0.2321  0.1825 -0.5474
11734SOL    HW135743   2.973   5.915   3.800  1.3567  1.2508  3.1585
11734SOL    HW235744   2.880   6.035   3.805 -0.1821  0.3570 -0.5671
11735SOL     OW35745   0.935   5.310   2.509 -0.4075 -0.7252  0.4315
11735SOL    HW135746   1.028   5.329   2.524 -0.2814 -0.9097 -0.0714
11735SOL    HW235747   0.936   5.236   2.448 -0.8703  0.2210 -0.7656
11736SOL     OW35748   6.842   0.526   5.982  0.2138 -0.5344  0.0052
11736SOL    HW135749   6.760   0.481   6.003 -0.5217  0.8617  0.2087
11736SOL    HW235750   6.890   0.529   6.064 -0.9343  1.4206  0.6590
11737SOL     OW35751   1.724   0.110   1.052 -0.4284 -0.1607  0.0556
11737SOL    HW135752   1.735   0.102   1.147 -2.2171 -1.0030  0.2233
11737SOL    HW235753   1.744   0.202   1.034  0.6264 -0.1420  1.1184
11738SOL     OW35754   7.076   7.006   1.652  0.8583 -0.2185 -0.0490
11738SOL    HW135755   7.159   7.041   1.683  1.7624 -0.6857 -1.8497
11738SOL    HW235756   7.100   6.929   1.600 -0.3841  1.5409 -3.4780
11739SOL     OW35757   5.186   1.811   2.649  0.2564 -0.1903  0.0264
11739SOL    HW135758   5.114   1.841   2.705  0.6727  0.6318  0.1507
11739SOL    HW235759   5.265   1.827   2.702  0.7419  1.5491 -1.1433
11740SOL     OW35760   5.287   2.345   0.443 -0.3412 -0.0542 -0.0784
11740SOL    HW135761   5.272   2.416   0.381 -1.9403 -0.1517  0.1602
11740SOL    HW235762   5.332   2.387   0.517  0.5660  0.2800 -0.8008
11741SOL     OW35763   2.718   5.003   5.347  0.1768 -0.5066  0.0360
11741SOL    HW135764   2.732   4.986   5.440 -0.2824 -2.2783 -0.1935
11741SOL    HW235765   2.803   4.987   5.306 -0.0910 -1.6616 -0.0899
11742SOL     OW35766   0.543   1.320   3.175 -0.1036 -1.0927  0.0514
11742SOL    HW135767   0.507   1.239   3.210 -2.1738  0.7294  2.5245
11742SOL    HW235768   0.599   1.354   3.245  1.7817 -0.9386 -1.4458
11743SOL     OW35769   6.914   5.627   0.772 -0.3143 -0.0031 -0.0585
11743SOL    HW135770   6.960   5.601   0.692 -2.0202  0.0575 -1.1062
11743SOL    HW235771   6.980   5.673   0.824  1.3667 -1.7767 -0.5058
11744SOL     OW35772   5.559   6.191   5.583 -0.0307 -0.5646  0.1461
11744SOL    HW135773   5.633   6.230   5.537 -0.3371 -0.2353 -0.0740
11744SOL    HW235774   5.482   6.223   5.536 -0.3598 -0.0602  1.0031
11745SOL     OW35775   0.774   0.857   7.326  0.5832 -0.0803  0.0285
11745SOL    HW135776   0.814   0.934   7.365 -1.3067  1.1961 -0.4249
11745SOL    HW235777   0.844   0.815   7.277  1.9898  0.5435  1.4227
11746SOL     OW35778   5.160   5.367   5.352 -0.0031  0.3046  0.3391
11746SOL    HW135779   5.139   5.277   5.324 -0.0979  0.6062 -0.5853
11746SOL    HW235780   5.253   5.364   5.374  0.0556  0.0365  0.0657
11747SOL     OW35781   5.279   3.432   1.692  0.2230 -0.2073 -0.1972
11747SOL    HW135782   5.281   3.517   1.648 -1.1935 -0.2494 -0.3774
11747SOL    HW235783   5.371   3.406   1.697  0.4832  0.0144 -2.7001
11748SOL     OW35784   0.716   6.466   2.575 -0.1659 -0.8275  0.3224
11748SOL    HW135785   0.717   6.438   2.484 -0.4338 -0.8550  0.3290
11748SOL    HW235786   0.801   6.437   2.610  0.6556  0.6413 -0.3541
11749SOL     OW35787   2.988   3.782   4.732 -0.1509  0.3083  0.1523
11749SOL    HW135788   2.946   3.696   4.743 -0.9422  0.8764  1.8584
11749SOL    HW235789   3.030   3.799   4.816 -0.5567  1.8676  0.0696
11750SOL     OW35790   6.299   0.765   1.490  0.1160 -0.2215 -0.3108
11750SOL    HW135791   6.375   0.774   1.432  0.4488  0.3982  0.2063
11750SOL    HW235792   6.278   0.671   1.488  0.8727 -0.3924 -0.4904
11751SOL     OW35793   6.552   5.299   4.561 -0.1552  0.4982 -0.2983
11751SOL    HW135794   6.646   5.283   4.573 -0.6507 -1.3502  1.7775
11751SOL    HW235795   6.527   5.242   4.488 -0.1650 -1.4422  1.1344
11752SOL     OW35796   6.148   4.122   0.712  0.3748 -0.3545  0.4733
11752SOL    HW135797   6.119   4.133   0.803  0.4253 -1.6576  0.6703
11752SOL    HW235798   6.233   4.166   0.709 -0.0951  0.6217  0.7580
11753SOL     OW35799   1.097   0.264   6.577 -0.6140 -0.1741 -1.2262
11753SOL    HW135800   1.003   0.260   6.594 -0.6576  1.1211 -1.0031
11753SOL    HW235801   1.113   0.356   6.556  0.9726  0.1515  1.0394
11754SOL     OW35802   6.053   7.394   4.926  0.3339 -0.2069 -0.2647
11754SOL    HW135803   6.141   7.418   4.952 -0.1216  0.6669  0.4973
11754SOL    HW235804   6.033   7.315   4.977  0.9456 -0.8739 -1.0226
11755SOL     OW35805   5.413   2.515   5.573 -0.3560  0.0705 -0.2460
11755SOL    HW135806   5.425   2.431   5.530 -2.4818  0.4584 -1.7468
11755SOL    HW235807   5.384   2.493   5.662 -2.8708 -0.9041 -1.2056
11756SOL     OW35808   3.253   7.257   6.339 -0.0672  0.4834 -0.0511
11756SOL    HW135809   3.266   7.345   6.376 -0.2552  0.2141  0.6846
11756SOL    HW235810   3.159   7.253   6.321 -0.2223  0.1291  0.7618
11757SOL     OW35811   2.789   4.517   4.643 -0.4412 -0.0163 -0.1950
11757SOL    HW135812   2.771   4.423   4.645 -0.1276 -0.0706  0.2539
11757SOL    HW235813   2.711   4.555   4.603 -0.6034 -0.4615 -0.3084
11758SOL     OW35814   5.763   1.572   6.233  0.9002  0.6194 -0.0282
11758SOL    HW135815   5.679   1.529   6.215 -0.1506  2.0564  1.1717
11758SOL    HW235816   5.785   1.616   6.151  0.1462  0.7458 -0.1717
11759SOL     OW35817   2.394   3.776   2.490  0.0969 -0.0267 -0.0692
11759SOL    HW135818   2.384   3.871   2.483 -1.6040 -0.1829 -0.2376
11759SOL    HW235819   2.479   3.758   2.449 -1.0364  1.0902 -3.1916
11760SOL     OW35820   5.476   5.341   4.746  0.4285 -0.2065 -0.4609
11760SOL    HW135821   5.425   5.398   4.804  0.5390 -0.2117 -0.3587
11760SOL    HW235822   5.549   5.311   4.800  0.3577 -0.4632 -0.5059
11761SOL     OW35823   5.093   3.482   6.036  0.2553 -0.2178  0.6901
11761SOL    HW135824   5.155   3.409   6.031  1.0546  0.5033 -0.7631
11761SOL    HW235825   5.086   3.513   5.946 -0.8445  0.8622  1.1226
11762SOL     OW35826   1.040   4.711   7.229  0.5273  0.3595  0.5091
11762SOL    HW135827   1.126   4.702   7.271  1.2935  2.1600 -0.5606
11762SOL    HW235828   1.048   4.788   7.174 -1.0359 -0.8129 -1.5059
11763SOL     OW35829   6.046   2.798   1.783 -0.0239  0.0143 -0.2029
11763SOL    HW135830   6.028   2.704   1.794  0.9503  0.0105  1.7726
11763SOL    HW235831   5.960   2.839   1.780 -0.5050 -0.6225  2.6007
11764SOL     OW35832   4.885   6.717   2.229  0.0985 -0.5506 -0.1353
11764SOL    HW135833   4.888   6.803   2.269 -1.3307 -0.5816  0.0913
11764SOL    HW235834   4.965   6.711   2.177  0.6304  0.5604  0.5335
11765SOL     OW35835   3.782   5.651   4.330  0.1699 -0.2171  0.5521
11765SOL    HW135836   3.777   5.585   4.262  0.0984  2.1626 -1.9222
11765SOL    HW235837   3.867   5.694   4.316 -0.0372  0.6272  1.6766
11766SOL     OW35838   4.504   1.860   3.918  0.8144 -0.1042 -0.1417
11766SOL    HW135839   4.507   1.799   3.992  0.1138 -0.6957 -0.5926
11766SOL    HW235840   4.536   1.809   3.844  2.1974  0.6975 -0.1208
11767SOL     OW35841   0.573   4.939   1.780 -0.4455  0.0302 -0.4054
11767SOL    HW135842   0.563   4.917   1.687  0.4092 -1.1533 -0.2412
11767SOL    HW235843   0.667   4.946   1.793 -0.4279 -1.6865  0.7487
11768SOL     OW35844   0.446   3.429   3.130 -0.1744  0.2073 -0.4339
11768SOL    HW135845   0.465   3.424   3.224  2.4297 -1.6599 -0.9637
11768SOL    HW235846   0.420   3.340   3.106 -0.8125  0.6642 -1.5109
11769SOL     OW35847   5.771   7.455   5.083 -0.3107  0.8195  0.1951
11769SOL    HW135848   5.732   7.533   5.045  0.6131  1.1116 -0.1560
11769SOL    HW235849   5.827   7.487   5.154  0.2702  0.5088 -0.1131
11770SOL     OW35850   5.684   2.159   0.872 -0.6933 -0.1920  0.4272
11770SOL    HW135851   5.589   2.153   0.863 -0.7269 -0.8365  1.1330
11770SOL    HW235852   5.710   2.223   0.806 -1.7651  1.0979  1.2064
11771SOL     OW35853   6.954   1.689   2.992  0.5522 -0.3188 -0.0665
11771SOL    HW135854   7.031   1.653   3.038  0.2571 -0.4515  0.3272
11771SOL    HW235855   6.980   1.779   2.971  1.6881 -1.0249 -1.9560
11772SOL     OW35856   7.350   6.979   5.292  0.0564 -0.4434 -0.2694
11772SOL    HW135857   7.415   6.964   5.223  0.1844  0.0964 -0.2691
11772SOL    HW235858   7.267   6.948   5.255 -0.0010  0.4753 -0.9314
11773SOL     OW35859   6.815   3.800   1.527 -0.3593  0.4951 -0.3282
11773SOL    HW135860   6.740   3.809   1.586  0.1332  1.9302  0.1455
11773SOL    HW235861   6.777   3.779   1.442 -1.2807  0.8577 -0.0206
11774SOL     OW35862   6.107   3.764   4.517  0.6912 -0.0018 -0.1107
11774SOL    HW135863   6.183   3.706   4.521  0.9154  0.3056  4.3217
11774SOL    HW235864   6.129   3.826   4.447  3.6209 -1.0712 -0.2949
11775SOL     OW35865   6.704   0.950   6.437  0.2856  0.5959  0.0691
11775SOL    HW135866   6.718   1.032   6.483  0.7388  1.0951 -0.9288
11775SOL    HW235867   6.790   0.908   6.436  0.2008  0.4221 -0.0119
11776SOL     OW35868   6.958   3.804   5.818 -0.5527 -0.1778  0.2435
11776SOL    HW135869   7.014   3.880   5.832 -2.1646  1.0025  0.6441
11776SOL    HW235870   6.870   3.841   5.809 -1.6106 -2.0730  1.9115
11777SOL     OW35871   2.980   0.480   1.408 -0.0743  0.2919  0.3767
11777SOL    HW135872   2.956   0.390   1.389 -3.8718  1.1683  0.1866
11777SOL    HW235873   3.023   0.477   1.493  1.2877 -1.7977 -0.3139
11778SOL     OW35874   5.742   7.120   6.295  0.8174  0.4571 -0.2731
11778SOL    HW135875   5.676   7.070   6.342  0.7793  0.8602  0.1103
11778SOL    HW235876   5.737   7.208   6.332 -0.5837  1.3443 -2.3636
11779SOL     OW35877   7.185   1.772   3.625 -0.3509 -0.1684  0.4479
11779SOL    HW135878   7.269   1.796   3.586  0.6661 -2.3660  1.1103
11779SOL    HW235879   7.122   1.780   3.554  0.5837  0.6700 -0.3019
11780SOL     OW35880   6.663   1.822   2.003 -0.1468 -0.1612  0.0587
11780SOL    HW135881   6.710   1.878   1.942 -0.2127  0.1506  0.2919
11780SOL    HW235882   6.731   1.768   2.044 -0.2707 -1.6964 -1.6078
11781SOL     OW35883   6.779   6.677   2.961 -0.7655 -0.3244 -0.7017
11781SOL    HW135884   6.752   6.605   3.018 -1.2070  1.9718  2.2906
11781SOL    HW235885   6.711   6.744   2.973  1.8573  2.4044  0.5362
11782SOL     OW35886   6.335   3.593   4.502 -0.1583 -0.0860 -0.9548
11782SOL    HW135887   6.303   3.523   4.446 -2.4365 -0.1017  0.2307
11782SOL    HW235888   6.326   3.559   4.591  2.3663  0.3206 -0.4651
11783SOL     OW35889   7.472   1.997   2.448 -0.3587 -0.7271 -0.3405
11783SOL    HW135890   7.533   1.924   2.437  0.3675 -0.2382  0.3394
11783SOL    HW235891   7.510   2.050   2.517 -0.6788  0.5097 -1.0839
11784SOL     OW35892   0.537   0.881   7.460 -0.4241  0.2227 -0.6180
11784SOL    HW135893   0.620   0.859   7.418 -0.3826 -2.3039  0.6100
11784SOL    HW235894   0.470   0.844   7.402 -0.5369 -0.1504 -0.2555
11785SOL     OW35895   7.560   1.925   6.153 -0.1080 -0.1347  0.2099
11785SOL    HW135896   7.647   1.954   6.128 -1.0076  1.0262 -1.8071
11785SOL    HW235897   7.520   2.001   6.196 -0.1396 -0.6597  1.1308
11786SOL     OW35898   6.255   7.063   4.026  0.1969 -0.0413  0.2875
11786SOL    HW135899   6.277   7.078   4.118  0.7664 -1.1006  0.3386
11786SOL    HW235900   6.294   7.138   3.980  0.6311  0.0631  0.8135
11787SOL     OW35901   0.712   5.189   4.937 -0.2614 -0.6022  0.0202
11787SOL    HW135902   0.747   5.256   4.878  1.6601 -0.8642  0.7780
11787SOL    HW235903   0.643   5.232   4.986 -1.5712 -0.2359 -2.0285
11788SOL     OW35904   5.339   3.894   3.371  0.2788  0.0213 -0.3698
11788SOL    HW135905   5.278   3.964   3.395  0.7257  0.3091 -0.0500
11788SOL    HW235906   5.305   3.816   3.415 -0.4142 -0.0472 -1.0034
11789SOL     OW35907   3.179   0.251   2.604 -0.1056 -0.1986 -0.6139
11789SOL    HW135908   3.107   0.224   2.661  1.0251  0.8422  1.3920
11789SOL    HW235909   3.139   0.315   2.544 -0.5566  1.8386  1.7033
11790SOL     OW35910   6.911   3.562   5.543 -0.4335 -0.0769 -0.1165
11790SOL    HW135911   6.946   3.560   5.632 -2.0028 -1.3210  0.5292
11790SOL    HW235912   6.981   3.528   5.488 -0.1164 -1.1799  0.9372
11791SOL     OW35913   6.682   4.831   3.310 -0.1398  0.4330 -0.1299
11791SOL    HW135914   6.690   4.739   3.285 -2.1412  0.6497 -1.8062
11791SOL    HW235915   6.764   4.851   3.356 -0.9858 -3.0619  3.3884
11792SOL     OW35916   2.543   1.003   0.131 -0.2593  0.2917  0.2935
11792SOL    HW135917   2.609   0.973   0.193  0.7391 -3.2368 -2.2047
11792SOL    HW235918   2.592   1.054   0.067 -0.7044  1.0224  0.5166
11793SOL     OW35919   3.456   0.335   1.358  0.1312 -0.5307 -0.4115
11793SOL    HW135920   3.551   0.332   1.370  0.1415 -0.2316 -0.4080
11793SOL    HW235921   3.444   0.367   1.269  0.0424 -1.6227 -0.7969
11794SOL     OW35922   1.399   2.396   0.052 -0.1349 -0.1221 -0.2248
11794SOL    HW135923   1.350   2.332   0.105 -0.1705 -0.8156 -1.0726
11794SOL    HW235924   1.490   2.386   0.082 -0.2637  0.0447  0.2420
11795SOL     OW35925   1.004   1.746   3.406 -0.1803  0.0805  0.2147
11795SOL    HW135926   0.972   1.802   3.477 -0.0570 -3.1566  3.0792
11795SOL    HW235927   0.926   1.703   3.372 -0.0591  0.5035 -0.6220
11796SOL     OW35928   0.248   0.979   0.491 -0.0430  0.4849 -0.1086
11796SOL    HW135929   0.239   1.036   0.568  0.8659  1.0862 -0.4350
11796SOL    HW235930   0.241   1.038   0.416 -0.0106  0.0293 -0.4733
11797SOL     OW35931   0.160   7.298   3.791  0.7307 -0.3943 -0.1753
11797SOL    HW135932   0.183   7.383   3.828  0.2879  0.3662 -1.5588
11797SOL    HW235933   0.082   7.314   3.738 -0.3646 -2.0192  0.8487
11798SOL     OW35934   1.485   6.833   1.840 -0.1317  0.0996  0.0219
11798SOL    HW135935   1.431   6.760   1.869 -1.8187  1.1033 -0.4658
11798SOL    HW235936   1.573   6.811   1.870 -1.1159 -0.6633  2.6209
11799SOL     OW35937   5.018   2.497   5.621  0.1722 -0.1241  0.5487
11799SOL    HW135938   5.104   2.527   5.651  0.4042  2.1459 -1.9823
11799SOL    HW235939   4.958   2.567   5.645 -0.4358 -0.3885 -0.1744
11800SOL     OW35940   2.483   6.940   3.199  0.1155 -0.3283 -0.2423
11800SOL    HW135941   2.450   6.885   3.270  0.9555 -0.8437 -0.2329
11800SOL    HW235942   2.576   6.950   3.217  0.1427  0.3800 -0.7265
11801SOL     OW35943   2.341   0.365   4.263  0.2822 -0.4639 -0.3430
11801SOL    HW135944   2.344   0.459   4.279  1.5657 -0.2787 -1.4808
11801SOL    HW235945   2.279   0.331   4.327  0.4448  1.0441  0.6429
11802SOL     OW35946   1.625   0.890   6.283 -0.3736  0.5658 -0.1672
11802SOL    HW135947   1.640   0.795   6.282 -1.5435  0.3007  2.0678
11802SOL    HW235948   1.551   0.903   6.223 -0.3675  0.0446 -0.2943
11803SOL     OW35949   5.722   7.188   0.826  0.4886  0.0346 -0.1154
11803SOL    HW135950   5.705   7.276   0.860  2.1188  0.5214 -0.4626
11803SOL    HW235951   5.756   7.140   0.901  1.3915  0.2688 -0.3692
11804SOL     OW35952   5.771   0.475   7.086  0.1791  0.1559  0.4097
11804SOL    HW135953   5.824   0.403   7.053 -0.7498 -0.5939  0.5129
11804SOL    HW235954   5.750   0.528   7.009  1.3352  0.6488  0.4174
11805SOL     OW35955   2.766   2.824   2.044 -0.5290 -0.5490 -0.0899
11805SOL    HW135956   2.726   2.805   2.128  1.0290 -3.1605  0.1804
11805SOL    HW235957   2.693   2.832   1.983 -1.5823 -1.7420  0.9787
11806SOL     OW35958   2.008   5.831   2.855 -0.3473 -0.0543 -1.0500
11806SOL    HW135959   2.023   5.878   2.772  0.6224 -0.2745 -1.0166
11806SOL    HW235960   2.074   5.868   2.915  0.7794 -1.7698 -1.1682
11807SOL     OW35961   2.872   4.148   4.982  0.1106  0.0177  0.2533
11807SOL    HW135962   2.810   4.204   4.936  0.5448 -0.1198 -0.5082
11807SOL    HW235963   2.870   4.179   5.073 -0.1865  0.7902 -0.0138
11808SOL     OW35964   0.533   4.140   5.877  0.6186 -0.6040 -0.3266
11808SOL    HW135965   0.536   4.171   5.968 -0.4426 -0.1526 -0.4318
11808SOL    HW235966   0.600   4.072   5.873  1.7607  0.4499  0.3769
11809SOL     OW35967   7.587   5.458   5.887 -0.1135 -0.3161 -0.0363
11809SOL    HW135968   7.593   5.491   5.977 -0.0824  2.9546 -1.1078
11809SOL    HW235969   7.647   5.384   5.885  1.4005  0.7385  2.1576
11810SOL     OW35970   0.639   3.913   2.883 -0.0654 -0.0386  0.0160
11810SOL    HW135971   0.680   3.829   2.904 -1.7829 -0.6008  1.4158
11810SOL    HW235972   0.669   3.972   2.953 -0.0337  0.1086 -0.1215
11811SOL     OW35973   2.752   1.072   4.001  0.5384  0.0421 -0.1269
11811SOL    HW135974   2.697   0.997   4.023 -1.7684  1.7232  0.2408
11811SOL    HW235975   2.746   1.080   3.906 -1.8763  1.5289  0.0570
11812SOL     OW35976   3.891   4.446   0.453  0.4474 -0.1967 -0.2419
11812SOL    HW135977   3.926   4.468   0.540  3.1386 -2.0546 -0.7271
11812SOL    HW235978   3.863   4.355   0.462  0.4626 -0.3050 -1.2510
11813SOL     OW35979   0.071   4.431   0.869 -0.2970 -0.5846 -0.3109
11813SOL    HW135980   0.055   4.342   0.837  1.8405 -1.5097  0.9397
11813SOL    HW235981   0.014   4.440   0.945 -0.9272 -0.6537 -0.7641
11814SOL     OW35982   5.234   3.451   2.462  0.2108 -0.7049 -0.1058
11814SOL    HW135983   5.162   3.449   2.398  0.3961 -0.1970 -0.3335
11814SOL    HW235984   5.195   3.492   2.540  0.3544 -0.0450 -0.3687
11815SOL     OW35985   0.537   7.368   6.733 -0.4609  0.1259  0.0576
11815SOL    HW135986   0.604   7.437   6.728  0.0370 -0.1606  1.9642
11815SOL    HW235987   0.469   7.404   6.790 -0.3720 -0.7773  0.7722
11816SOL     OW35988   2.847   4.104   0.817  0.2848 -0.0248 -0.1442
11816SOL    HW135989   2.771   4.051   0.794 -0.0568  0.5209 -0.3111
11816SOL    HW235990   2.816   4.162   0.887  0.6813 -0.1192  0.1137
11817SOL     OW35991   3.472   5.410   3.823  0.3591 -0.6410 -0.0896
11817SOL    HW135992   3.421   5.396   3.744  0.8822 -2.0793 -0.2000
11817SOL    HW235993   3.549   5.354   3.812  1.5916  0.8819  0.4122
11818SOL     OW35994   5.609   5.239   3.511 -0.2207 -0.6988  0.6018
11818SOL    HW135995   5.685   5.278   3.469 -1.6209  0.1074 -1.3213
11818SOL    HW235996   5.624   5.252   3.605  1.2386  0.8479  0.2017
11819SOL     OW35997   0.681   2.095   2.424  0.1596  0.1368  0.2329
11819SOL    HW135998   0.727   2.152   2.362  0.7730 -0.2562  0.3186
11819SOL    HW235999   0.735   2.016   2.428 -0.8537 -0.5876 -0.1342
11820SOL     OW36000   7.287   6.306   0.933  0.2014 -0.6110  0.0100
11820SOL    HW136001   7.220   6.238   0.921 -0.6858  0.4932 -1.7389
11820SOL    HW236002   7.317   6.294   1.023  0.2538 -3.4486 -0.2882
11821SOL     OW36003   1.399   1.924   3.525  0.4173  0.6934 -0.0295
11821SOL    HW136004   1.398   1.828   3.528  0.0936  0.6898 -0.2333
11821SOL    HW236005   1.422   1.950   3.614 -0.7551  0.4472  0.3585
11822SOL     OW36006   7.282   1.734   4.192  0.2282  0.2991  0.2401
11822SOL    HW136007   7.264   1.749   4.099 -1.0283  0.2922  0.4565
11822SOL    HW236008   7.374   1.756   4.202  0.6956 -0.8258 -1.2379
11823SOL     OW36009   4.440   5.615   6.488 -0.6040  0.7284 -0.7252
11823SOL    HW136010   4.497   5.635   6.413  0.7900 -0.3316 -0.0093
11823SOL    HW236011   4.414   5.524   6.474  0.0398  0.3706  0.2705
11824SOL     OW36012   6.730   4.602   4.098  0.1180  0.8102 -0.0832
11824SOL    HW136013   6.776   4.659   4.035  1.7487  0.0425  0.3395
11824SOL    HW236014   6.790   4.597   4.173 -1.9493  2.0071  1.7573
11825SOL     OW36015   3.309   5.207   1.877  0.4597 -0.2175  0.6374
11825SOL    HW136016   3.404   5.219   1.876  0.6303 -1.3603  0.9524
11825SOL    HW236017   3.292   5.165   1.962 -0.2615 -0.4415  0.3890
11826SOL     OW36018   5.102   6.391   0.189 -0.8847 -0.3825 -0.3432
11826SOL    HW136019   5.184   6.360   0.151 -0.0713 -1.5518  2.1366
11826SOL    HW236020   5.060   6.312   0.222 -1.1651  0.5830  1.7562
11827SOL     OW36021   5.826   1.091   7.020 -0.5873  0.4160 -0.0243
11827SOL    HW136022   5.765   1.155   6.983  0.9109  3.1886  1.9090
11827SOL    HW236023   5.912   1.133   7.012  0.4057 -1.1012  1.8723
11828SOL     OW36024   1.502   2.295   5.502  1.0138  0.6124  0.0124
11828SOL    HW136025   1.506   2.199   5.502  2.0917  0.6443  0.8250
11828SOL    HW236026   1.594   2.323   5.505  0.6800  1.6707  0.9090
11829SOL     OW36027   6.596   3.764   4.176  0.1016  0.0645 -0.4760
11829SOL    HW136028   6.597   3.847   4.223 -2.3250 -0.4518  0.6271
11829SOL    HW236029   6.514   3.765   4.126  0.5857 -1.1905 -1.3722
11830SOL     OW36030   7.511   4.634   0.725 -0.0687 -0.0238  0.1425
11830SOL    HW136031   7.451   4.630   0.799 -1.7716 -0.7162 -1.1889
11830SOL    HW236032   7.591   4.590   0.756 -1.7006 -2.8106  0.7791
11831SOL     OW36033   4.871   6.398   2.580 -0.6365  0.0888  0.2167
11831SOL    HW136034   4.959   6.416   2.614 -0.3339  0.2480 -0.6413
11831SOL    HW236035   4.836   6.485   2.558 -0.9124  0.0022  0.3095
11832SOL     OW36036   6.975   5.410   4.342 -0.4431  0.3327 -0.5145
11832SOL    HW136037   7.011   5.357   4.413 -0.4036 -1.3814 -1.7372
11832SOL    HW236038   7.013   5.496   4.354  2.9576 -0.9767 -0.8408
11833SOL     OW36039   4.887   3.709   3.883  0.5345  0.2035  0.1658
11833SOL    HW136040   4.902   3.756   3.964 -0.5566 -2.4105  2.0260
11833SOL    HW236041   4.792   3.706   3.874  0.5828 -1.2517 -0.0810
11834SOL     OW36042   6.333   7.371   5.124  0.2380 -0.3296 -0.8345
11834SOL    HW136043   6.283   7.359   5.205  1.2457 -3.1327 -0.5038
11834SOL    HW236044   6.396   7.441   5.145  0.5192 -1.0298  0.8643
11835SOL     OW36045   5.035   1.830   2.990 -0.4176  0.0338  0.0177
11835SOL    HW136046   5.028   1.736   3.011 -1.0211 -0.1301 -0.8454
11835SOL    HW236047   5.005   1.836   2.899  0.0261  1.0111 -0.0740
11836SOL     OW36048   7.002   1.019   0.844 -0.7749 -0.1954  0.2014
11836SOL    HW136049   7.005   1.004   0.749 -1.7517  2.0907 -0.2668
11836SOL    HW236050   6.909   1.035   0.862 -0.4828  0.2120  1.4000
11837SOL     OW36051   5.129   3.592   2.671  0.0044  0.5417 -0.5307
11837SOL    HW136052   5.175   3.557   2.747 -0.8839  0.9955  0.2390
11837SOL    HW236053   5.051   3.634   2.707 -0.6213  0.4660 -1.7246
11838SOL     OW36054   3.490   2.825   7.311  0.2933 -0.0175 -0.1055
11838SOL    HW136055   3.507   2.845   7.219 -2.4124 -1.7300 -1.0920
11838SOL    HW236056   3.498   2.910   7.356 -0.6033  1.3290 -2.3190
11839SOL     OW36057   3.200   3.955   0.438  0.0795 -0.0768  0.3129
11839SOL    HW136058   3.159   4.002   0.511  1.6092  2.2433 -0.2223
11839SOL    HW236059   3.288   3.935   0.469  0.0171 -1.0508 -0.1197
11840SOL     OW36060   5.743   0.343   3.101 -0.2208 -0.4354  0.2926
11840SOL    HW136061   5.824   0.374   3.062 -0.6816 -1.1733 -1.3889
11840SOL    HW236062   5.770   0.290   3.176  0.9504 -1.5213 -0.8343
11841SOL     OW36063   6.837   6.768   3.656 -0.3625 -0.0520 -0.4829
11841SOL    HW136064   6.839   6.759   3.561  1.7429  0.1122 -0.4919
11841SOL    HW236065   6.839   6.677   3.688 -0.3272 -0.0889 -0.5884
11842SOL     OW36066   3.388   7.252   3.512  0.0015 -0.0940 -0.5386
11842SOL    HW136067   3.451   7.242   3.441 -0.6545  2.1793 -1.5209
11842SOL    HW236068   3.437   7.292   3.583 -0.1484  1.0227 -1.0500
11843SOL     OW36069   5.412   6.697   5.619  0.3201 -0.1678  0.3604
11843SOL    HW136070   5.436   6.659   5.535  1.2869 -0.2247  0.6462
11843SOL    HW236071   5.385   6.787   5.599  1.8280  0.2571  0.1232
11844SOL     OW36072   1.310   6.657   1.970  0.7495  0.0894  0.2892
11844SOL    HW136073   1.252   6.705   2.029 -1.4414 -0.4627 -1.2980
11844SOL    HW236074   1.251   6.612   1.910  2.7387 -3.2893  0.6521
11845SOL     OW36075   5.216   6.385   5.568  0.4886 -0.5687 -0.6223
11845SOL    HW136076   5.147   6.335   5.612  1.6388 -0.7239  1.0950
11845SOL    HW236077   5.257   6.322   5.509 -0.7246 -0.5062 -1.5748
11846SOL     OW36078   1.899   0.122   6.427 -0.9535 -0.3116 -0.2854
11846SOL    HW136079   1.989   0.145   6.405 -0.9521 -1.1872 -1.2606
11846SOL    HW236080   1.904   0.082   6.514 -0.4654 -0.0013 -0.1706
11847SOL     OW36081   2.836   3.743   1.103 -0.2431  0.0315  0.2239
11847SOL    HW136082   2.759   3.748   1.160 -1.3090 -0.2530 -1.1409
11847SOL    HW236083   2.892   3.677   1.143 -2.4568 -2.6171 -0.7230
11848SOL     OW36084   0.674   5.444   0.443 -0.0910 -0.0984 -0.4139
11848SOL    HW136085   0.647   5.434   0.352 -0.2128  0.9974 -0.5043
11848SOL    HW236086   0.755   5.495   0.438 -0.4361  0.5182  0.1217
11849SOL     OW36087   0.725   5.614   4.512  0.3376 -0.2179  0.1178
11849SOL    HW136088   0.765   5.541   4.464  0.4788 -0.5606  0.7488
11849SOL    HW236089   0.631   5.595   4.509  0.1642  0.7369 -1.6073
11850SOL     OW36090   4.527   3.399   5.630  0.2066 -1.0962  0.2896
11850SOL    HW136091   4.621   3.401   5.651  1.1607  0.8548 -3.4309
11850SOL    HW236092   4.494   3.484   5.660  0.6637 -0.0321 -2.0250
11851SOL     OW36093   3.440   0.317   6.573  0.4789  0.1624  0.0860
11851SOL    HW136094   3.378   0.244   6.581  2.8188 -1.9695 -0.0253
11851SOL    HW236095   3.415   0.361   6.492 -0.0628 -1.5031 -0.7034
11852SOL     OW36096   6.946   4.720   1.255 -0.1881  0.2666 -0.3079
11852SOL    HW136097   6.942   4.630   1.224 -0.6213  0.9431 -2.3890
11852SOL    HW236098   6.877   4.766   1.205  0.3123  1.8356  0.3661
11853SOL     OW36099   4.823   1.407   6.100 -0.5890 -0.1265 -0.1768
11853SOL    HW136100   4.879   1.355   6.043  0.2769  0.4280  0.1371
11853SOL    HW236101   4.844   1.376   6.188  0.4650  1.1976  0.0761
11854SOL     OW36102   6.009   6.375   6.078  0.1171  0.0623  0.4002
11854SOL    HW136103   6.013   6.471   6.078  1.5556  0.1018  3.4178
11854SOL    HW236104   5.927   6.354   6.122  0.5282 -0.0574  1.1198
11855SOL     OW36105   6.738   6.456   0.729 -0.2480 -0.8259 -0.0129
11855SOL    HW136106   6.663   6.476   0.672  0.5297  0.0888 -0.7629
11855SOL    HW236107   6.727   6.365   0.753 -0.6887 -1.1980 -1.5323
11856SOL     OW36108   5.592   0.838   6.946 -0.0961  0.0655 -0.7586
11856SOL    HW136109   5.572   0.922   6.905  0.1904  1.3758  1.6225
11856SOL    HW236110   5.512   0.813   6.990  1.0237  1.4489  2.3223
11857SOL     OW36111   0.197   7.280   0.859 -0.0437 -0.6871 -0.7131
11857SOL    HW136112   0.202   7.357   0.803 -1.6371  0.7970  1.0500
11857SOL    HW236113   0.280   7.279   0.906  0.3717 -0.6262 -1.4321
11858SOL     OW36114   2.141   5.476   1.686 -0.5377 -0.4526  0.2759
11858SOL    HW136115   2.072   5.443   1.744 -0.5373 -1.5445 -0.3167
11858SOL    HW236116   2.134   5.423   1.607  1.5802 -1.2279  0.5422
11859SOL     OW36117   0.601   1.901   5.990  0.0868  0.2192  0.1534
11859SOL    HW136118   0.648   1.834   6.040 -0.0153  1.3001  1.7545
11859SOL    HW236119   0.615   1.982   6.039  0.9697  1.5906 -2.2173
11860SOL     OW36120   5.367   5.574   3.831 -0.7056  0.0300 -0.5634
11860SOL    HW136121   5.441   5.524   3.797 -1.1082 -2.2657  1.6442
11860SOL    HW236122   5.304   5.508   3.860 -2.6845  1.8824 -0.3731
11861SOL     OW36123   5.583   0.391   5.944  0.4157 -0.2073 -0.0695
11861SOL    HW136124   5.560   0.483   5.956 -1.2374 -0.2625 -2.1829
11861SOL    HW236125   5.673   0.384   5.976  0.2017  1.8551  1.1951
11862SOL     OW36126   0.985   3.378   2.893 -0.3956 -0.7778 -0.3820
11862SOL    HW136127   1.013   3.422   2.813 -1.4145  0.8710  0.1281
11862SOL    HW236128   0.893   3.403   2.903 -0.4001 -1.3057  1.0749
11863SOL     OW36129   6.258   0.573   3.672  0.3639 -0.1782 -0.0187
11863SOL    HW136130   6.198   0.634   3.715  0.0763 -0.1517 -0.4457
11863SOL    HW236131   6.312   0.539   3.742  1.7140  1.8896  0.0298
11864SOL     OW36132   3.700   3.540   3.727 -0.3055  0.3702  0.0934
11864SOL    HW136133   3.738   3.611   3.779 -0.0467  0.1402  0.2172
11864SOL    HW236134   3.753   3.463   3.748 -1.4766 -0.2111  1.0697
11865SOL     OW36135   0.489   1.465   5.246  0.1219 -0.3836  0.2714
11865SOL    HW136136   0.482   1.451   5.152 -0.1714  0.1022  0.2148
11865SOL    HW236137   0.400   1.448   5.279  0.0213  0.2756  0.3427
11866SOL     OW36138   0.657   5.968   4.696 -0.1002  0.1277 -0.0877
11866SOL    HW136139   0.602   5.890   4.703 -1.6507  1.3141  2.3058
11866SOL    HW236140   0.742   5.935   4.666 -0.9144 -2.3583  0.1308
11867SOL     OW36141   0.602   3.366   3.613  0.0747 -0.3001  0.6283
11867SOL    HW136142   0.542   3.292   3.628 -0.0100 -0.2325  0.6252
11867SOL    HW236143   0.686   3.325   3.592 -0.6575 -0.4570 -2.5117
11868SOL     OW36144   4.570   3.400   7.307 -0.2202  0.1695 -0.1085
11868SOL    HW136145   4.636   3.358   7.252 -0.1870  0.4443 -0.2851
11868SOL    HW236146   4.559   3.487   7.268  1.8723  1.4888  1.9513
11869SOL     OW36147   4.236   1.120   0.622 -0.0413  0.5384  0.0221
11869SOL    HW136148   4.309   1.071   0.661 -0.4509 -0.2769 -0.2088
11869SOL    HW236149   4.238   1.205   0.666  1.6480  0.9050 -0.6798
11870SOL     OW36150   3.217   6.427   0.741  0.2567  0.3219  0.4409
11870SOL    HW136151   3.170   6.448   0.821 -0.1278 -0.1867  0.3547
11870SOL    HW236152   3.181   6.343   0.713  2.0205 -0.6701  0.9904
11871SOL     OW36153   7.521   4.627   3.352 -0.4770 -0.1898  0.1446
11871SOL    HW136154   7.465   4.552   3.369 -0.2767 -0.2962  0.3502
11871SOL    HW236155   7.609   4.597   3.375 -0.3439 -0.0066 -0.1132
11872SOL     OW36156   1.551   2.518   5.194 -0.0481  0.2377 -0.1217
11872SOL    HW136157   1.557   2.610   5.167 -2.3887  0.1787 -1.1140
11872SOL    HW236158   1.576   2.518   5.286 -1.3291  2.1296  0.2811
11873SOL     OW36159   1.542   4.497   3.736 -0.2665 -0.2193  0.3271
11873SOL    HW136160   1.490   4.561   3.688  0.2593  0.8242  1.1270
11873SOL    HW236161   1.508   4.501   3.826 -0.1343 -0.9643  0.4169
11874SOL     OW36162   5.860   6.879   3.045 -1.1120  0.4914 -0.2399
11874SOL    HW136163   5.886   6.960   3.001  0.9305 -0.3475 -0.6862
11874SOL    HW236164   5.779   6.901   3.091 -1.0460  2.5422 -1.0309
11875SOL     OW36165   2.317   4.237   5.786 -0.3527 -0.7569  0.0939
11875SOL    HW136166   2.271   4.287   5.853 -0.2520 -0.9265  0.2921
11875SOL    HW236167   2.347   4.302   5.724  0.3423 -0.5002  0.6869
11876SOL     OW36168   4.642   1.769   2.385 -0.2560 -0.0655 -0.8872
11876SOL    HW136169   4.551   1.758   2.359 -0.9288  0.6715  1.0237
11876SOL    HW236170   4.692   1.753   2.305 -2.0900  0.2708 -2.1485
11877SOL     OW36171   6.674   3.033   7.243  0.2244 -0.4946  0.6970
11877SOL    HW136172   6.671   3.120   7.203  0.1810 -1.5858 -1.9138
11877SOL    HW236173   6.583   3.017   7.270 -0.0306 -0.1655  0.0855
11878SOL     OW36174   4.097   5.058   6.657 -0.3250 -0.0560 -0.0875
11878SOL    HW136175   4.070   5.084   6.745 -0.2067 -0.3185  0.0279
11878SOL    HW236176   4.172   5.113   6.636  0.5584 -0.9847  0.5555
11879SOL     OW36177   0.325   4.982   1.925  0.6487 -0.1565 -0.0121
11879SOL    HW136178   0.417   4.971   1.903  0.7992 -1.4498  1.1380
11879SOL    HW236179   0.325   5.040   2.001  0.2502  2.5982 -1.9287
11880SOL     OW36180   3.291   7.585   5.842 -0.0722 -0.3163 -0.5655
11880SOL    HW136181   3.337   7.650   5.789 -1.0895 -0.2475 -1.3892
11880SOL    HW236182   3.241   7.534   5.779 -2.1669  0.4521  0.3982
11881SOL     OW36183   3.211   6.027   3.138  0.1443  1.0721  0.8339
11881SOL    HW136184   3.235   5.975   3.215  2.2134 -1.2278 -1.2004
11881SOL    HW236185   3.212   5.964   3.066  2.9438  3.8880 -1.8733
11882SOL     OW36186   0.861   5.118   2.064 -0.1239 -0.0836  0.2616
11882SOL    HW136187   0.774   5.159   2.067 -0.4618 -0.7851  0.3297
11882SOL    HW236188   0.921   5.188   2.087 -0.8727 -0.1565  2.7523
11883SOL     OW36189   2.436   2.982   5.042  0.5641  0.0927  0.2771
11883SOL    HW136190   2.443   2.894   5.080  0.8534  0.3713  0.8864
11883SOL    HW236191   2.429   2.967   4.948 -0.1281 -0.6144  0.4335
11884SOL     OW36192   2.819   1.141   4.753 -0.4632  0.1238 -0.2279
11884SOL    HW136193   2.763   1.065   4.738  1.6135 -1.7215  0.7797
11884SOL    HW236194   2.848   1.131   4.844  0.9629  1.3548 -0.5140
11885SOL     OW36195   0.871   2.524   3.201 -0.5248  0.8251 -0.5181
11885SOL    HW136196   0.875   2.619   3.196 -1.7575  0.8851 -0.7839
11885SOL    HW236197   0.950   2.499   3.249  0.3918  1.8857 -1.4163
11886SOL     OW36198   5.847   5.346   4.599  0.5736  0.6234  0.1218
11886SOL    HW136199   5.926   5.295   4.581 -0.0098  0.2084 -1.3636
11886SOL    HW236200   5.823   5.384   4.515 -2.1846 -1.2624 -0.0885
11887SOL     OW36201   1.971   1.762   4.968 -0.3342  0.2136  0.2170
11887SOL    HW136202   1.921   1.726   5.041  0.3105 -1.6103 -0.1827
11887SOL    HW236203   1.911   1.757   4.893  0.1561 -1.3430 -0.1169
11888SOL     OW36204   5.478   6.787   0.652 -0.2975  0.4095  0.0871
11888SOL    HW136205   5.552   6.771   0.711  0.5250 -0.6950 -1.1911
11888SOL    HW236206   5.423   6.850   0.699 -0.7211 -1.8831  2.9157
11889SOL     OW36207   4.282   7.467   2.058  0.1187 -0.4330  0.5929
11889SOL    HW136208   4.223   7.496   2.128  0.4573 -1.6648  1.4103
11889SOL    HW236209   4.314   7.382   2.086  0.5786 -0.7903 -0.8881
11890SOL     OW36210   6.227   2.776   2.949  0.0736  0.0980 -0.1467
11890SOL    HW136211   6.257   2.687   2.930  2.5222  0.5252  1.2925
11890SOL    HW236212   6.173   2.767   3.028  0.0479 -0.1660 -0.1938
11891SOL     OW36213   4.104   5.946   7.168  0.0255 -0.0832  0.5401
11891SOL    HW136214   4.184   5.992   7.192 -0.1129 -1.2597  3.6194
11891SOL    HW236215   4.102   5.869   7.224 -1.5839 -1.9393 -1.8655
11892SOL     OW36216   5.579   5.809   4.518  0.2518 -0.3467  0.3556
11892SOL    HW136217   5.533   5.729   4.539  2.4182 -1.2984  1.8629
11892SOL    HW236218   5.634   5.827   4.595  1.8138  1.0881 -0.9947
11893SOL     OW36219   3.843   1.398   1.353 -0.3483 -0.2551 -0.1000
11893SOL    HW136220   3.843   1.493   1.365 -2.7119 -0.4550  2.3999
11893SOL    HW236221   3.904   1.383   1.280  1.0748  3.0275  0.2359
11894SOL     OW36222   5.005   4.297   2.892 -0.6232 -0.1557 -0.7043
11894SOL    HW136223   4.999   4.210   2.853 -0.8980  0.0080 -1.0392
11894SOL    HW236224   5.098   4.315   2.899 -0.5712 -0.2813 -1.0800
11895SOL     OW36225   3.410   2.369   4.636 -0.4398  0.1334  0.3261
11895SOL    HW136226   3.458   2.451   4.620  0.0594  0.1565  1.7944
11895SOL    HW236227   3.477   2.305   4.659 -0.8455 -0.6560 -0.6406
11896SOL     OW36228   3.762   2.993   7.367 -0.3419  0.3528 -0.1057
11896SOL    HW136229   3.740   2.922   7.427 -1.9774  0.9269  0.0224
11896SOL    HW236230   3.856   3.009   7.381 -0.5240 -0.0444  1.7424
11897SOL     OW36231   0.218   6.309   7.407  0.1135 -0.0478 -0.2984
11897SOL    HW136232   0.287   6.245   7.428 -0.0411 -0.7404 -1.8030
11897SOL    HW236233   0.238   6.384   7.464  1.4290 -0.6856  0.1374
11898SOL     OW36234   4.660   4.200   5.965  0.0374 -0.2388  0.8976
11898SOL    HW136235   4.695   4.288   5.979 -1.0765 -0.0054  2.5582
11898SOL    HW236236   4.604   4.207   5.888  3.3399 -0.5976 -1.7840
11899SOL     OW36237   1.319   4.626   0.130  0.2852 -0.3071 -0.1690
11899SOL    HW136238   1.223   4.630   0.122  0.3730  3.9861 -1.7206
11899SOL    HW236239   1.345   4.564   0.061 -1.3106  1.3583 -2.4322
11900SOL     OW36240   0.169   6.789   6.792  0.2191 -0.0310 -0.4075
11900SOL    HW136241   0.194   6.846   6.720 -0.0362  2.7483  1.5223
11900SOL    HW236242   0.103   6.839   6.840  1.3079 -1.1246  2.4852
11901SOL     OW36243   7.122   7.324   2.220 -0.2425 -0.6848  0.4848
11901SOL    HW136244   7.164   7.379   2.286 -1.8467 -0.0899  1.0464
11901SOL    HW236245   7.122   7.377   2.140  0.7121 -0.9853  0.2669
11902SOL     OW36246   7.067   0.032   2.560  0.4792  0.0367  0.2892
11902SOL    HW136247   6.982  -0.001   2.529 -0.0056  0.5315  1.0696
11902SOL    HW236248   7.051   0.057   2.651  1.0500  1.6364 -0.0295
11903SOL     OW36249   0.902   3.640   5.783 -0.2839  0.1809 -0.1847
11903SOL    HW136250   0.921   3.603   5.869  0.6724  2.5551  0.7212
11903SOL    HW236251   0.936   3.576   5.721  0.2926 -0.9362  1.2367
11904SOL     OW36252   5.594   2.946   1.032 -0.1067  0.4513  0.1525
11904SOL    HW136253   5.595   2.851   1.041 -0.9356  0.3830 -0.4284
11904SOL    HW236254   5.504   2.968   1.009  0.0934  1.3719  0.1903
11905SOL     OW36255   1.236   2.261   1.209 -0.4734 -0.0044 -0.4481
11905SOL    HW136256   1.294   2.337   1.219 -0.1454 -0.3547  0.4712
11905SOL    HW236257   1.198   2.249   1.296 -2.3910  0.5575 -1.1493
11906SOL     OW36258   6.192   6.376   3.482 -0.4808  0.2187 -0.3042
11906SOL    HW136259   6.173   6.470   3.483  3.6950  1.2740  1.0967
11906SOL    HW236260   6.288   6.371   3.489 -0.3550 -4.1597 -2.0052
11907SOL     OW36261   6.292   6.586   4.165 -0.4495  0.6893 -0.2157
11907SOL    HW136262   6.353   6.533   4.216 -0.9995 -0.3226 -0.5853
11907SOL    HW236263   6.342   6.614   4.088  0.6977  3.0289  1.2441
11908SOL     OW36264   0.223   5.499   3.229 -0.0543  0.3689 -0.1994
11908SOL    HW136265   0.225   5.411   3.266  0.9690 -0.3785 -1.9102
11908SOL    HW236266   0.135   5.507   3.190  0.6654 -0.9707 -2.3191
11909SOL     OW36267   3.819   5.022   7.611  0.3385  0.0116 -0.2422
11909SOL    HW136268   3.812   5.105   7.564  1.2379 -0.0413 -0.4949
11909SOL    HW236269   3.797   4.956   7.545  2.2427 -0.1092 -0.8362
11910SOL     OW36270   4.108   6.111   6.261  0.7589 -0.0914 -0.0169
11910SOL    HW136271   4.049   6.164   6.208 -0.5750 -0.9162  0.5826
11910SOL    HW236272   4.107   6.152   6.347 -0.0879 -0.9220  0.3836
11911SOL     OW36273   4.733   7.595   0.337 -0.3923 -0.5013 -0.1743
11911SOL    HW136274   4.799   7.574   0.271 -1.4118 -0.5657 -1.2081
11911SOL    HW236275   4.698   7.680   0.311 -2.6678 -1.6916 -1.3385
11912SOL     OW36276   0.617   1.368   6.938 -0.0005  0.3140 -0.6410
11912SOL    HW136277   0.677   1.431   6.898 -1.7282  1.0412 -2.2800
11912SOL    HW236278   0.630   1.287   6.890 -1.6804  1.0361 -2.4644
11913SOL     OW36279   4.573   1.142   2.213 -0.0363  0.4135 -0.0681
11913SOL    HW136280   4.648   1.186   2.174 -0.2476 -0.2906 -1.3252
11913SOL    HW236281   4.592   1.049   2.203 -1.6471  0.2060 -1.5996
11914SOL     OW36282   4.329   0.081   1.388 -0.2054 -0.4757 -0.1668
11914SOL    HW136283   4.345   0.039   1.473  0.6296 -1.8102 -0.9473
11914SOL    HW236284   4.400   0.143   1.379 -1.0944  0.7227  0.7160
11915SOL     OW36285   2.376   5.446   2.648 -0.4038 -0.6240 -0.3415
11915SOL    HW136286   2.368   5.381   2.579 -0.7702 -1.0483  0.1000
11915SOL    HW236287   2.460   5.489   2.630  0.3731 -1.9486 -0.0070
11916SOL     OW36288   3.156   5.555   0.549 -0.1833  0.3141  0.1532
11916SOL    HW136289   3.249   5.554   0.529 -0.0982  2.0420  0.3146
11916SOL    HW236290   3.148   5.508   0.632 -0.0029 -3.1776 -1.6101
11917SOL     OW36291   3.341   6.972   6.283  0.1997  0.2562 -0.1257
11917SOL    HW136292   3.343   6.973   6.188 -1.7555  0.0479 -0.2188
11917SOL    HW236293   3.305   7.058   6.307  0.5127  0.2387  0.4081
11918SOL     OW36294   6.183   4.826   7.237  0.1833  0.2217  0.4561
11918SOL    HW136295   6.095   4.805   7.208  0.7718  0.8097 -2.0432
11918SOL    HW236296   6.232   4.744   7.227  0.8522  0.8490 -2.4908
11919SOL     OW36297   1.273   2.627   1.577  0.1645 -0.0711 -0.5196
11919SOL    HW136298   1.330   2.606   1.651 -0.5818  1.0924  0.4278
11919SOL    HW236299   1.212   2.554   1.572 -1.3037  0.9059  1.6053
11920SOL     OW36300   3.123   4.776   6.251  0.9062 -0.1929  0.1430
11920SOL    HW136301   3.150   4.818   6.333  0.7947  1.4713 -0.6228
11920SOL    HW236302   3.064   4.840   6.210 -0.6020 -1.8266 -0.3424
11921SOL     OW36303   0.903   5.674   0.467 -0.0905  0.3659  0.6724
11921SOL    HW136304   0.928   5.685   0.558 -0.2374 -1.2091  0.9281
11921SOL    HW236305   0.985   5.681   0.418  0.0435  0.8145  0.9562
11922SOL     OW36306   5.513   6.435   1.874  0.3628 -0.1591 -0.2261
11922SOL    HW136307   5.535   6.410   1.784 -1.9503  0.4883 -1.0240
11922SOL    HW236308   5.436   6.382   1.895  0.6545 -0.0223  1.2542
11923SOL     OW36309   2.092   7.124   5.944 -0.4004 -0.6891  0.6311
11923SOL    HW136310   2.143   7.088   6.016  0.4096 -0.7968  0.0184
11923SOL    HW236311   2.002   7.099   5.964  0.0356 -2.4351  0.6064
11924SOL     OW36312   7.106   4.897   1.974 -0.0319 -1.1130 -0.2290
11924SOL    HW136313   7.049   4.852   1.911  0.1829 -2.6876  0.6521
11924SOL    HW236314   7.133   4.828   2.035  2.5530 -0.3408 -0.4088
11925SOL     OW36315   2.701   2.561   0.543  0.4489  0.3175  0.1965
11925SOL    HW136316   2.641   2.487   0.535  1.7368 -0.6163 -1.7354
11925SOL    HW236317   2.656   2.633   0.500 -0.0372  0.1084  0.3527
11926SOL     OW36318   0.149   7.156   6.290 -0.1238 -0.5970  0.1977
11926SOL    HW136319   0.189   7.071   6.273 -1.8266 -1.5008  0.4639
11926SOL    HW236320   0.096   7.174   6.212 -1.1732 -0.6727  0.8603
11927SOL     OW36321   6.760   6.998   6.596 -0.0408  0.1858  0.7773
11927SOL    HW136322   6.762   6.943   6.517 -0.4138 -1.5590  1.9204
11927SOL    HW236323   6.732   7.084   6.565  0.4780 -0.2751 -1.0845
11928SOL     OW36324   6.339   5.002   7.060 -0.2420  0.2014 -0.4840
11928SOL    HW136325   6.326   4.922   7.111  1.7817 -0.3906 -0.8066
11928SOL    HW236326   6.294   5.070   7.109 -0.6368 -0.8480  0.6449
11929SOL     OW36327   0.538   6.185   4.978 -0.1802 -0.5958  1.2212
11929SOL    HW136328   0.617   6.173   4.925  0.2828 -0.6032  1.9057
11929SOL    HW236329   0.466   6.167   4.918  0.3081  0.1487  0.3849
11930SOL     OW36330   1.417   6.981   6.739 -0.3591  0.0435 -0.4123
11930SOL    HW136331   1.371   6.932   6.807 -0.9088  0.1208 -0.7213
11930SOL    HW236332   1.454   7.056   6.784 -1.1492  0.3658 -0.2834
11931SOL     OW36333   3.817   3.609   2.888 -1.4294  0.8858  0.4473
11931SOL    HW136334   3.754   3.661   2.938 -1.0013  2.0554 -0.1774
11931SOL    HW236335   3.869   3.674   2.840 -1.2369 -0.1497 -0.8125
11932SOL     OW36336   3.271   2.958   4.129 -0.3762  0.3622  0.7301
11932SOL    HW136337   3.178   2.948   4.108 -0.3695  0.3233  0.7187
11932SOL    HW236338   3.272   3.020   4.202 -0.3747  0.7930  0.3715
11933SOL     OW36339   3.679   3.651   6.390 -0.3470  0.0618  0.7630
11933SOL    HW136340   3.767   3.632   6.424 -0.6761 -0.4926  1.3343
11933SOL    HW236341   3.621   3.597   6.444 -0.9514 -0.3743 -0.3016
11934SOL     OW36342   5.470   4.437   2.120 -0.1328 -0.2693  0.2996
11934SOL    HW136343   5.447   4.521   2.081  0.1340 -0.1793  0.3415
11934SOL    HW236344   5.403   4.423   2.188 -0.0031  0.0434  0.4898
11935SOL     OW36345   5.269   5.755   5.244  0.2812 -0.2050  0.2308
11935SOL    HW136346   5.232   5.842   5.253  1.1417  0.1867  0.1167
11935SOL    HW236347   5.340   5.766   5.181 -0.3494 -1.2263 -0.7065
11936SOL     OW36348   7.366   2.003   1.930 -0.3058  0.2691 -0.0983
11936SOL    HW136349   7.350   1.991   2.023  0.3271 -0.5458 -0.0804
11936SOL    HW236350   7.279   2.001   1.890 -0.4755 -1.7623  0.2326
11937SOL     OW36351   2.864   0.633   3.487 -0.1765  0.4765  0.5375
11937SOL    HW136352   2.825   0.645   3.573 -0.4319 -0.3402  0.5463
11937SOL    HW236353   2.958   0.636   3.502 -0.2169  0.0138  0.9032
11938SOL     OW36354   6.654   7.554   4.383 -0.2247 -0.1054 -0.3065
11938SOL    HW136355   6.696   7.515   4.460 -0.2578 -0.1988 -0.3361
11938SOL    HW236356   6.561   7.555   4.405 -0.2410 -0.1919 -0.3727
11939SOL     OW36357   7.575   5.518   3.121  0.6349 -0.0189 -0.2793
11939SOL    HW136358   7.582   5.521   3.026  2.7114 -0.1122 -0.1850
11939SOL    HW236359   7.527   5.597   3.144 -0.8678 -0.5485 -1.4463
11940SOL     OW36360   6.570   3.386   6.084 -0.3407  0.9144 -0.0342
11940SOL    HW136361   6.552   3.480   6.087 -0.4697  0.9222 -0.7436
11940SOL    HW236362   6.507   3.352   6.020 -1.5082  0.0543  1.5125
11941SOL     OW36363   5.054   2.775   0.839 -0.2175 -0.2411  0.4661
11941SOL    HW136364   5.041   2.791   0.932 -0.3079  0.4140  0.3511
11941SOL    HW236365   5.035   2.860   0.798  1.1976 -0.1233 -0.0116
11942SOL     OW36366   3.682   4.840   7.410 -0.0740 -0.1581 -0.3752
11942SOL    HW136367   3.611   4.884   7.457  0.4497  0.5878 -0.2685
11942SOL    HW236368   3.687   4.884   7.325 -0.7377 -1.2234 -0.9854
11943SOL     OW36369   5.316   0.370   6.766 -0.7521 -0.1711  0.2114
11943SOL    HW136370   5.363   0.416   6.697 -0.1722  1.4542  1.6091
11943SOL    HW236371   5.384   0.344   6.829 -1.2140 -1.9491  0.0436
11944SOL     OW36372   4.954   5.609   3.285 -0.3763 -0.1558  0.2846
11944SOL    HW136373   4.949   5.514   3.276 -2.0563 -0.1689  0.9649
11944SOL    HW236374   4.871   5.634   3.324  0.2211  1.5594  0.5635
11945SOL     OW36375   5.328   6.321   3.850  0.0748 -0.3577  0.1535
11945SOL    HW136376   5.353   6.241   3.805 -0.0926 -0.8546  0.9252
11945SOL    HW236377   5.363   6.311   3.939  1.0167  0.9098 -0.0419
11946SOL     OW36378   4.915   2.079   5.421  0.5398  0.1010 -0.6510
11946SOL    HW136379   4.884   2.167   5.444 -0.7657 -0.5319  0.0994
11946SOL    HW236380   5.007   2.092   5.396  0.7310  1.4978  0.6454
11947SOL     OW36381   2.683   2.599   4.990 -0.8383  0.1981 -0.1338
11947SOL    HW136382   2.609   2.540   5.002 -0.2547 -0.5476 -0.1666
11947SOL    HW236383   2.760   2.543   4.993 -0.3935  0.4174 -3.4522
11948SOL     OW36384   7.368   6.934   7.521 -0.4643 -0.0080 -0.7872
11948SOL    HW136385   7.393   6.955   7.611  0.3187 -1.7205 -0.5474
11948SOL    HW236386   7.360   7.018   7.477 -1.7374  0.9071  1.0995
11949SOL     OW36387   1.981   3.160   0.985  0.1652 -0.2341  0.1670
11949SOL    HW136388   1.923   3.106   1.038  0.8181 -2.0287 -0.8468
11949SOL    HW236389   2.014   3.227   1.045 -1.7909 -0.0387  1.0997
11950SOL     OW36390   2.450   0.226   3.026 -0.3029  0.2277  0.6503
11950SOL    HW136391   2.458   0.198   3.117  0.3271  0.9278  0.8216
11950SOL    HW236392   2.365   0.270   3.022 -0.2174  0.4205  0.9608
11951SOL     OW36393   0.720   0.443   1.007 -0.3436 -0.8711 -0.8642
11951SOL    HW136394   0.779   0.445   0.931  0.1633  2.0333 -0.5000
11951SOL    HW236395   0.769   0.397   1.074  0.1480 -1.4051 -1.5678
11952SOL     OW36396   4.644   5.725   7.439  0.3261 -0.0489  0.2459
11952SOL    HW136397   4.645   5.811   7.481  0.4473 -0.6450  1.4935
11952SOL    HW236398   4.591   5.670   7.496 -0.9055 -0.4860 -1.2502
11953SOL     OW36399   2.150   7.406   2.913  0.1948 -0.2776 -0.2907
11953SOL    HW136400   2.058   7.399   2.887 -0.1580 -0.5152  0.9291
11953SOL    HW236401   2.161   7.337   2.979  1.2779 -0.3129 -0.4915
11954SOL     OW36402   3.913   7.484   4.885  0.4930  0.4744 -0.1049
11954SOL    HW136403   3.837   7.448   4.932  0.7766 -0.8194 -0.5841
11954SOL    HW236404   3.901   7.578   4.889  0.0669  0.3794  1.8319
11955SOL     OW36405   2.569   3.500   5.073 -0.3515 -0.2001  0.0311
11955SOL    HW136406   2.624   3.452   5.135 -0.3969 -1.1903 -0.6732
11955SOL    HW236407   2.592   3.464   4.987 -1.1561  0.2971 -0.4087
11956SOL     OW36408   3.370   2.913   6.464 -0.2494 -0.1996 -0.1610
11956SOL    HW136409   3.292   2.895   6.516  0.3745  0.6156  1.0901
11956SOL    HW236410   3.345   2.888   6.375 -1.8670 -0.1279  0.2408
11957SOL     OW36411   3.050   3.554   6.289 -0.5726  0.3585  0.1460
11957SOL    HW136412   3.000   3.556   6.207  1.8121 -1.8021 -1.5191
11957SOL    HW236413   3.025   3.470   6.330 -1.5900  1.3238  1.6208
11958SOL     OW36414   1.274   3.037   7.270  0.7505 -0.2350  0.2636
11958SOL    HW136415   1.281   3.118   7.220 -0.5362  1.0895  2.0935
11958SOL    HW236416   1.270   2.968   7.203  1.7509  1.1826 -1.3463
11959SOL     OW36417   0.585   6.044   4.188 -0.0262 -0.1560  0.4326
11959SOL    HW136418   0.642   6.055   4.112 -0.9501 -0.6660 -0.3519
11959SOL    HW236419   0.645   6.038   4.262  0.9519 -0.7498 -0.3810
11960SOL     OW36420   3.905   2.827   5.328 -0.0856  0.1704  0.5674
11960SOL    HW136421   3.867   2.865   5.407 -1.2787  1.8007 -0.7240
11960SOL    HW236422   3.873   2.737   5.327 -2.2681  0.8866  0.6057
11961SOL     OW36423   6.142   6.308   1.094 -0.3298  0.2030 -0.8121
11961SOL    HW136424   6.153   6.218   1.063 -0.4138 -0.7590  1.7351
11961SOL    HW236425   6.218   6.355   1.059 -1.2170 -0.3106 -3.7372
11962SOL     OW36426   2.267   2.449   2.612  0.1208  0.0018 -0.2675
11962SOL    HW136427   2.271   2.540   2.638 -0.2505 -0.1089  0.1926
11962SOL    HW236428   2.186   2.442   2.561 -0.1720 -0.1943  0.2142
11963SOL     OW36429   0.020   0.886   2.868 -0.1867 -0.0563 -0.2981
11963SOL    HW136430   0.102   0.842   2.890 -0.6194 -2.1056 -2.4561
11963SOL    HW236431   0.038   0.930   2.785 -0.9654  0.4043 -0.2348
11964SOL     OW36432   1.532   0.235   5.734 -0.0400  0.3919  0.4812
11964SOL    HW136433   1.591   0.168   5.699 -0.9322  0.1709 -0.7053
11964SOL    HW236434   1.484   0.191   5.804 -0.4515 -0.1591 -0.1325
11965SOL     OW36435   0.528   6.999   1.571 -0.3536 -0.2996  0.0517
11965SOL    HW136436   0.595   6.957   1.624  1.4708  0.5839 -1.4614
11965SOL    HW236437   0.461   6.931   1.559  0.4055 -1.3172  1.3078
11966SOL     OW36438   0.105   3.329   6.249  0.0453 -0.5586 -0.4568
11966SOL    HW136439   0.179   3.294   6.298 -0.1563 -0.5664 -0.1497
11966SOL    HW236440   0.056   3.381   6.313  0.8965  1.1617 -1.1453
11967SOL     OW36441   0.687   1.929   1.990 -0.8619 -0.1284 -0.5032
11967SOL    HW136442   0.598   1.896   2.003  0.0876 -2.5821  0.3574
11967SOL    HW236443   0.741   1.850   1.986  1.5378  1.3265  0.9926
11968SOL     OW36444   3.826   0.593   6.299  0.0992  0.3435  0.0344
11968SOL    HW136445   3.852   0.681   6.326 -0.3958  0.7054 -0.6400
11968SOL    HW236446   3.800   0.602   6.207  1.5843 -0.8179 -0.5577
11969SOL     OW36447   3.512   1.505   5.738  0.7535  0.2554  0.2775
11969SOL    HW136448   3.507   1.411   5.719  0.8384  0.0646  1.1552
11969SOL    HW236449   3.605   1.527   5.729  0.5085  0.6455 -1.6404
11970SOL     OW36450   0.222   7.014   5.367 -0.0220  0.1629 -0.7839
11970SOL    HW136451   0.160   6.949   5.400 -0.5226  1.7140  1.5985
11970SOL    HW236452   0.307   6.984   5.398 -0.3927  1.1676  1.4271
11971SOL     OW36453   4.361   0.826   4.264  0.1872 -0.6320  0.3216
11971SOL    HW136454   4.430   0.867   4.212 -1.6193  1.8328 -0.3055
11971SOL    HW236455   4.364   0.733   4.239  2.3225 -0.3298 -0.7146
11972SOL     OW36456   2.661   0.013   4.003 -0.1108  0.0334  0.1175
11972SOL    HW136457   2.689   0.009   4.095  0.2904  0.3047  0.0068
11972SOL    HW236458   2.584   0.070   4.004  0.5896  0.9982  0.1172
11973SOL     OW36459   0.239   4.869   2.540  0.0300 -0.2405  0.3120
11973SOL    HW136460   0.222   4.947   2.488 -1.8889 -0.6499  0.2555
11973SOL    HW236461   0.266   4.903   2.626 -0.1060  0.4766  0.0778
11974SOL     OW36462   2.692   6.564   4.322  0.8370 -0.1502 -0.4040
11974SOL    HW136463   2.728   6.647   4.293  2.7152 -0.1729  1.5533
11974SOL    HW236464   2.628   6.587   4.389  0.8184 -0.2502 -0.3868
11975SOL     OW36465   3.421   4.527   0.577  0.0041 -1.0169 -0.3065
11975SOL    HW136466   3.456   4.612   0.550 -0.9643 -0.9523 -1.5061
11975SOL    HW236467   3.447   4.517   0.668  1.8419 -0.3450 -0.7230
11976SOL     OW36468   7.538   3.738   2.210  0.2121  0.1303 -0.3117
11976SOL    HW136469   7.565   3.647   2.208  0.5650  0.2171  0.2394
11976SOL    HW236470   7.615   3.785   2.242 -0.2979  0.4876  0.4186
11977SOL     OW36471   4.150   5.376   4.812 -0.3390 -0.0151  0.6530
11977SOL    HW136472   4.147   5.452   4.871 -0.9484 -0.7273  1.5843
11977SOL    HW236473   4.143   5.301   4.871 -0.2373 -0.7764 -0.2910
11978SOL     OW36474   1.427   4.509   2.499  0.5809  0.4011 -0.2850
11978SOL    HW136475   1.369   4.491   2.425  1.9975  0.3753 -1.4190
11978SOL    HW236476   1.383   4.468   2.574 -0.7860  0.2703 -1.1314
11979SOL     OW36477   6.968   0.845   5.524 -0.2542 -0.1725  0.1219
11979SOL    HW136478   6.938   0.754   5.524 -0.3797 -0.1932  2.6740
11979SOL    HW236479   6.932   0.883   5.604  3.1253  0.9305  1.2935
11980SOL     OW36480   1.764   2.119   5.290 -0.0900  0.0656  0.1864
11980SOL    HW136481   1.783   2.129   5.196  2.6942  0.6302  0.7116
11980SOL    HW236482   1.771   2.208   5.325 -0.3489 -0.2522  1.0547
11981SOL     OW36483   1.873   0.168   2.545 -0.4538  0.7003  0.3366
11981SOL    HW136484   1.872   0.093   2.605 -1.7582  0.2130 -0.2409
11981SOL    HW236485   1.862   0.244   2.602  0.7917  0.4538  0.9248
11982SOL     OW36486   4.365   0.542   0.197 -0.0396 -0.4265  0.2829
11982SOL    HW136487   4.422   0.549   0.273 -2.4554  0.6609  2.1394
11982SOL    HW236488   4.407   0.597   0.130  1.9710 -1.1501  0.8864
11983SOL     OW36489   2.047   5.294   6.681  0.1297  0.3918  0.3187
11983SOL    HW136490   2.078   5.243   6.756 -0.6674  0.6969  0.8724
11983SOL    HW236491   2.062   5.385   6.707 -1.3166  0.5549  0.6675
11984SOL     OW36492   5.102   1.038   3.448 -0.0627 -0.1455 -0.5501
11984SOL    HW136493   5.092   1.040   3.353  0.3334  1.4198 -0.5890
11984SOL    HW236494   5.087   1.128   3.476  2.7155  0.1046  0.5136
11985SOL     OW36495   1.278   5.660   4.668 -0.2451  0.3477 -0.3968
11985SOL    HW136496   1.350   5.722   4.654  0.4641 -0.1560  0.8198
11985SOL    HW236497   1.317   5.591   4.722 -1.0951 -1.0142 -1.4514
11986SOL     OW36498   6.598   2.812   6.604 -0.3938 -0.2340  0.2689
11986SOL    HW136499   6.629   2.877   6.667  0.2585 -1.0814  0.8297
11986SOL    HW236500   6.524   2.769   6.648 -1.6771  0.9673 -0.6010
11987SOL     OW36501   1.488   4.997   2.319  0.3130 -0.1537 -0.1007
11987SOL    HW136502   1.432   4.919   2.319  0.3912 -0.2086 -0.1834
11987SOL    HW236503   1.532   4.996   2.235  1.9157 -1.1691  0.7073
11988SOL     OW36504   3.952   0.772   5.723  0.2472  0.4747 -0.3399
11988SOL    HW136505   3.893   0.848   5.722  0.4619  0.7383  1.8266
11988SOL    HW236506   4.020   0.794   5.660 -1.2569  0.7207 -1.9649
11989SOL     OW36507   0.885   7.231   1.989 -0.2720  0.5604 -0.4475
11989SOL    HW136508   0.881   7.284   2.069 -0.5854 -0.2262  0.0667
11989SOL    HW236509   0.874   7.295   1.918  1.0400  1.4161  0.0656
11990SOL     OW36510   3.186   7.554   0.307  0.8468 -0.3903  0.2619
11990SOL    HW136511   3.207   7.640   0.270  2.7146 -0.7322  0.4142
11990SOL    HW236512   3.210   7.561   0.399 -2.3386 -0.0259  1.1928
11991SOL     OW36513   6.449   7.508   0.486  0.1397  0.1082  0.2539
11991SOL    HW136514   6.488   7.595   0.492 -2.4749  1.3808  0.3757
11991SOL    HW236515   6.448   7.476   0.576  0.4251  0.2901  0.3219
11992SOL     OW36516   4.478   4.365   2.380 -0.2564  0.0288  0.0799
11992SOL    HW136517   4.387   4.395   2.381  0.5188  2.9377 -2.8751
11992SOL    HW236518   4.490   4.328   2.293  1.2908 -0.8233  0.6194
11993SOL     OW36519   2.260   0.872   0.904  0.3876 -0.4887  0.1155
11993SOL    HW136520   2.195   0.806   0.929 -1.9005  1.2953 -0.8079
11993SOL    HW236521   2.304   0.835   0.828 -1.5535 -0.6244 -1.0082
11994SOL     OW36522   6.173   4.956   2.934 -0.4083 -0.2155 -0.3931
11994SOL    HW136523   6.082   4.947   2.906 -0.6439 -1.7991  0.6981
11994SOL    HW236524   6.169   5.002   3.018 -0.4148 -1.8031  0.5230
11995SOL     OW36525   6.102   5.497   4.804  0.0404  0.4085 -0.2823
11995SOL    HW136526   6.145   5.475   4.722 -1.9668 -2.2987 -0.7341
11995SOL    HW236527   6.028   5.552   4.778 -0.8205 -0.7640 -0.3937
11996SOL     OW36528   0.072   1.556   3.011 -0.2470  0.0725  0.0151
11996SOL    HW136529   0.128   1.492   3.055 -3.1070 -1.1799  2.1167
11996SOL    HW236530   0.080   1.635   3.065 -0.1777  0.0418  0.0508
11997SOL     OW36531   1.451   6.928   4.220  0.3000 -0.5890 -0.2394
11997SOL    HW136532   1.539   6.953   4.192  0.8937 -0.6111  1.4929
11997SOL    HW236533   1.464   6.852   4.276 -0.8564 -0.7181 -0.1221
11998SOL     OW36534   1.935   1.372   6.550  0.4595  0.5243  0.0600
11998SOL    HW136535   1.840   1.383   6.541  0.5242  0.6340 -0.5396
11998SOL    HW236536   1.956   1.300   6.491  0.4668 -0.8941  1.7349
11999SOL     OW36537   2.912   5.447   0.742 -0.6256 -0.3857 -0.5062
11999SOL    HW136538   2.928   5.532   0.784 -1.1799 -0.0215 -1.0235
11999SOL    HW236539   2.991   5.396   0.763 -0.1608  0.3397 -0.4157
12000SOL     OW36540   5.300   4.357   6.835 -1.0708  0.0178  0.0729
12000SOL    HW136541   5.208   4.376   6.814 -0.6317 -0.8243 -3.2624
12000SOL    HW236542   5.349   4.417   6.779  0.3180 -2.3432 -1.4364
12001SOL     OW36543   0.215   1.578   7.402  0.2371 -0.1455  0.1444
12001SOL    HW136544   0.205   1.643   7.472  0.3884  0.6823 -0.5888
12001SOL    HW236545   0.203   1.628   7.321  1.3292 -0.8352 -0.4666
12002SOL     OW36546   6.425   1.484   2.632  0.4161  0.0445 -0.2017
12002SOL    HW136547   6.443   1.399   2.590 -0.1897 -0.0874 -0.2046
12002SOL    HW236548   6.338   1.507   2.600  0.9528  1.1248 -0.9476
12003SOL     OW36549   3.093   0.637   3.642 -0.0476  0.0688  0.2254
12003SOL    HW136550   3.179   0.615   3.607 -0.2821 -0.2382 -0.1565
12003SOL    HW236551   3.049   0.553   3.651 -0.7930  0.3332 -0.8362
12004SOL     OW36552   0.434   3.912   0.962  0.7653  0.0158 -0.0169
12004SOL    HW136553   0.490   3.949   0.893  2.5185  1.4447  2.0586
12004SOL    HW236554   0.484   3.923   1.042 -0.2488 -3.6105  1.2800
12005SOL     OW36555   4.285   0.088   2.275 -0.2684  0.4527  0.2319
12005SOL    HW136556   4.199   0.051   2.257  0.1119  0.7757 -2.7635
12005SOL    HW236557   4.347   0.020   2.250  0.3713  1.0093  0.2459
12006SOL     OW36558   0.231   5.086   6.198  0.2288 -0.2212 -0.3555
12006SOL    HW136559   0.307   5.028   6.187  0.0896 -0.1498 -1.9436
12006SOL    HW236560   0.171   5.061   6.127 -0.2944  1.1540 -0.4344
12007SOL     OW36561   2.986   7.474   2.902 -0.2653 -0.1630  0.1159
12007SOL    HW136562   3.056   7.461   2.837  0.3924 -0.1826  0.8149
12007SOL    HW236563   2.909   7.497   2.850  0.4037  0.4356 -0.6350
12008SOL     OW36564   6.922   3.535   1.541 -0.3304 -0.7777  0.1181
12008SOL    HW136565   6.903   3.627   1.560  2.9198  0.1867 -0.5334
12008SOL    HW236566   6.968   3.538   1.456  1.9088 -2.6359  1.1577
12009SOL     OW36567   4.846   3.248   3.246 -0.4140  0.3956 -0.1436
12009SOL    HW136568   4.913   3.190   3.209 -2.5822 -1.9264 -0.7154
12009SOL    HW236569   4.839   3.220   3.337 -1.7784 -0.6061 -0.5340
12010SOL     OW36570   2.140   2.370   4.625 -0.6438 -0.4140 -0.5250
12010SOL    HW136571   2.051   2.382   4.592 -0.8415  2.8501  0.8501
12010SOL    HW236572   2.131   2.358   4.719  0.3385 -0.8654 -0.4678
12011SOL     OW36573   6.728   0.789   4.893  0.5127  0.0854  0.6083
12011SOL    HW136574   6.722   0.836   4.976  3.1551 -1.7050  1.9497
12011SOL    HW236575   6.679   0.708   4.908 -1.3321  0.9046 -0.6080
12012SOL     OW36576   5.301   7.015   4.062  0.4733 -0.6807  0.6119
12012SOL    HW136577   5.295   6.939   4.119  0.9356 -0.4249  1.0044
12012SOL    HW236578   5.227   7.070   4.086 -0.0568 -1.1589  0.0961
12013SOL     OW36579   4.208   2.325   2.661 -0.0075  0.1137  0.2069
12013SOL    HW136580   4.222   2.379   2.739 -0.4745  0.5397 -0.0000
12013SOL    HW236581   4.209   2.235   2.694  2.1106  0.1475  0.3643
12014SOL     OW36582   2.894   7.522   1.952 -0.2239 -0.2155  0.0792
12014SOL    HW136583   2.849   7.559   2.029 -2.6325  0.5131 -1.5420
12014SOL    HW236584   2.948   7.452   1.987  0.4129  1.4341  2.6710
12015SOL     OW36585   6.674   0.229   7.166  0.3314 -0.6187 -0.1578
12015SOL    HW136586   6.654   0.166   7.234 -0.3751  1.2498  1.4478
12015SOL    HW236587   6.750   0.277   7.199  1.6959 -1.4163 -1.9423
12016SOL     OW36588   2.944   7.277   1.476  0.2263  0.0256 -0.2759
12016SOL    HW136589   2.860   7.246   1.441  0.4179 -0.8564  0.0053
12016SOL    HW236590   3.003   7.203   1.462  0.9627  0.6528 -0.4888
12017SOL     OW36591   3.244   4.769   2.432  0.2779 -0.2963 -0.2022
12017SOL    HW136592   3.264   4.857   2.465 -0.0326 -0.0933 -0.5458
12017SOL    HW236593   3.285   4.710   2.496 -2.3770  0.0176  1.9976
12018SOL     OW36594   2.582   6.759   0.415 -0.5679  0.0429  0.0129
12018SOL    HW136595   2.558   6.670   0.387 -1.7536  0.0627  0.8578
12018SOL    HW236596   2.531   6.772   0.495 -0.6447  1.6053 -0.2702
12019SOL     OW36597   1.159   4.767   3.746  0.3440  0.0548  0.6245
12019SOL    HW136598   1.166   4.807   3.833 -0.9911 -0.0567  0.8083
12019SOL    HW236599   1.158   4.673   3.762  0.6403  0.0164  0.4333
12020SOL     OW36600   5.509   3.989   4.157 -0.3242 -0.4781  0.0713
12020SOL    HW136601   5.497   4.072   4.111  0.9376 -0.5975 -0.5240
12020SOL    HW236602   5.563   4.012   4.233  0.7634 -0.8547 -0.5546
12021SOL     OW36603   1.290   6.289   0.464  0.1276  0.3037 -0.5807
12021SOL    HW136604   1.306   6.370   0.416 -0.4000  1.2326  0.7425
12021SOL    HW236605   1.370   6.238   0.452  1.2053  1.7817 -0.0302
12022SOL     OW36606   2.131   6.280   7.338 -0.4129 -0.4079  0.1934
12022SOL    HW136607   2.139   6.184   7.334 -0.9727 -0.4109 -2.8416
12022SOL    HW236608   2.214   6.312   7.303  0.1390  0.3227  2.0229
12023SOL     OW36609   3.538   2.348   7.081  0.2859  0.5436  0.2908
12023SOL    HW136610   3.591   2.402   7.139  0.0022  0.4890  0.6065
12023SOL    HW236611   3.460   2.400   7.064  0.4463  0.6344 -0.1900
12024SOL     OW36612   3.421   4.615   4.055 -0.3301  0.5065  0.0579
12024SOL    HW136613   3.455   4.703   4.072 -0.5786  0.6064  0.0361
12024SOL    HW236614   3.408   4.611   3.960 -2.1144  1.1092  0.2383
12025SOL     OW36615   2.836   0.775   5.974  0.4462 -0.1094 -0.2696
12025SOL    HW136616   2.852   0.712   6.044 -0.5286  0.0354  0.1101
12025SOL    HW236617   2.896   0.750   5.904  0.6705 -0.9260  0.2027
12026SOL     OW36618   0.234   0.234   4.054 -0.3237  0.4222 -0.1664
12026SOL    HW136619   0.146   0.221   4.088 -0.6300  2.0845 -0.2483
12026SOL    HW236620   0.289   0.244   4.131 -0.2971 -0.0253 -0.1240
12027SOL     OW36621   4.437   0.996   2.645  0.3048  0.0047 -0.1337
12027SOL    HW136622   4.529   0.989   2.669  1.2955 -4.2017 -3.8570
12027SOL    HW236623   4.392   0.935   2.703  0.7440 -1.3824 -1.1925
12028SOL     OW36624   1.944   4.837   5.916  0.0598  0.4254 -0.0104
12028SOL    HW136625   1.873   4.864   5.858  0.2834  1.3121  0.1229
12028SOL    HW236626   1.900   4.811   5.997 -0.1177  0.9465  0.0638
12029SOL     OW36627   1.792   5.052   7.315  0.0885 -0.4290 -0.4720
12029SOL    HW136628   1.843   4.989   7.366 -1.5049 -0.6227  0.9928
12029SOL    HW236629   1.768   5.120   7.378 -0.5859  0.1788 -1.3575
12030SOL     OW36630   0.365   1.871   2.668 -0.2848 -0.6683  0.0351
12030SOL    HW136631   0.403   1.954   2.639 -0.9797  0.2983  1.7238
12030SOL    HW236632   0.273   1.877   2.641 -0.4987 -0.5614  0.7610
12031SOL     OW36633   7.215   3.997   4.500 -0.3195  0.0134  0.0651
12031SOL    HW136634   7.174   3.912   4.483 -1.2034  0.2869  0.7269
12031SOL    HW236635   7.146   4.061   4.481  0.0347  0.5325  0.4953
12032SOL     OW36636   0.576   3.927   4.845  0.2158 -0.2917 -0.5188
12032SOL    HW136637   0.583   4.020   4.863 -0.0826 -0.7535  2.3871
12032SOL    HW236638   0.485   3.914   4.820 -0.3581 -0.0842  1.3380
12033SOL     OW36639   2.471   2.864   1.968  0.0498  0.4472  0.4145
12033SOL    HW136640   2.492   2.950   2.005 -0.1460 -0.2153  2.1608
12033SOL    HW236641   2.386   2.877   1.926  0.1022  1.1616  0.5061
12034SOL     OW36642   5.389   5.804   0.274 -0.1662 -1.1856 -0.1909
12034SOL    HW136643   5.366   5.890   0.240  1.1297 -0.9733 -0.5508
12034SOL    HW236644   5.305   5.757   0.279 -0.8379 -0.0231 -0.2830
12035SOL     OW36645   2.430   1.243   4.227  0.1433 -0.4104 -0.2015
12035SOL    HW136646   2.419   1.155   4.191 -0.4265 -0.9708  1.3058
12035SOL    HW236647   2.353   1.291   4.197 -1.2140 -1.3531  1.5800
12036SOL     OW36648   7.601   0.557   3.017 -0.2680  0.1167  0.3040
12036SOL    HW136649   7.674   0.576   3.076 -0.1970 -0.0534  0.2711
12036SOL    HW236650   7.593   0.461   3.017  0.0926  0.0789 -0.3986
12037SOL     OW36651   5.854   0.102   4.107  0.3179  0.5916 -0.0070
12037SOL    HW136652   5.866   0.012   4.138  1.1427  0.4786 -0.5986
12037SOL    HW236653   5.795   0.094   4.032  0.5603  0.5068 -0.1921
12038SOL     OW36654   5.023   3.827   1.898 -0.6224 -0.1877 -0.5295
12038SOL    HW136655   5.082   3.891   1.857 -2.1357  1.3198 -0.4721
12038SOL    HW236656   5.056   3.818   1.987 -0.0989  0.1486 -0.6827
12039SOL     OW36657   0.170   6.831   4.354 -0.5105 -0.1378  0.0652
12039SOL    HW136658   0.222   6.909   4.370 -0.1587 -0.3235 -0.1660
12039SOL    HW236659   0.178   6.815   4.260 -1.2297  0.0053 -0.0313
12040SOL     OW36660   4.920   7.201   2.392  0.0676  0.2041 -0.5305
12040SOL    HW136661   4.935   7.277   2.336 -2.6392 -0.1980 -1.9861
12040SOL    HW236662   4.827   7.206   2.415  0.5514 -0.9465  2.0606
12041SOL     OW36663   2.821   7.401   4.496  0.7755 -0.3335 -0.2429
12041SOL    HW136664   2.777   7.319   4.472  1.5413 -0.7808 -0.1586
12041SOL    HW236665   2.803   7.410   4.590  2.8217 -1.7893  0.3549
12042SOL     OW36666   2.969   7.622   5.812 -0.1974  0.0395  0.0295
12042SOL    HW136667   3.011   7.552   5.762 -0.1722  1.4264 -1.9797
12042SOL    HW236668   3.019   7.625   5.894  1.2585 -0.7685 -0.7853
12043SOL     OW36669   0.711   4.847   3.160 -0.0134 -0.2618 -0.3226
12043SOL    HW136670   0.646   4.903   3.201 -0.5412 -1.2754  0.2568
12043SOL    HW236671   0.773   4.908   3.120 -1.6589  0.7443 -1.4711
12044SOL     OW36672   7.243   5.726   2.214 -0.0656  0.2926  0.1292
12044SOL    HW136673   7.293   5.679   2.280  0.7864  0.4203 -0.4049
12044SOL    HW236674   7.277   5.695   2.130 -1.6079 -0.3816 -0.2837
12045SOL     OW36675   4.651   0.705   2.370 -0.0341 -0.2811 -0.1925
12045SOL    HW136676   4.696   0.705   2.455  0.0378 -0.2506 -0.2306
12045SOL    HW236677   4.654   0.614   2.341 -1.2006 -0.5383  0.4416
12046SOL     OW36678   4.122   3.755   4.529 -0.2815 -1.0568 -0.1031
12046SOL    HW136679   4.074   3.708   4.460 -0.2331 -0.4575 -0.5551
12046SOL    HW236680   4.178   3.688   4.569 -0.0120 -1.3329 -0.9103
12047SOL     OW36681   0.660   5.176   6.765  0.3236 -0.3654  0.1934
12047SOL    HW136682   0.709   5.203   6.686  1.2759  0.2989  0.9825
12047SOL    HW236683   0.574   5.217   6.754  0.9847  1.1324  0.2489
12048SOL     OW36684   3.349   3.277   1.222  0.1229 -0.1836  0.1782
12048SOL    HW136685   3.436   3.237   1.214  0.4214  0.1168  1.7374
12048SOL    HW236686   3.366   3.365   1.255 -0.7908 -0.3138  1.0431
12049SOL     OW36687   0.934   2.146   1.371 -0.4765 -0.4679  0.2194
12049SOL    HW136688   0.996   2.072   1.370 -0.3218 -0.3369 -0.3122
12049SOL    HW236689   0.916   2.161   1.464  1.8822  0.8164  0.5450
12050SOL     OW36690   5.328   6.489   0.793 -0.4038  0.0288 -0.2971
12050SOL    HW136691   5.413   6.478   0.751 -0.0720  3.2054 -0.6402
12050SOL    HW236692   5.344   6.546   0.867 -2.1339  0.0768  0.0974
12051SOL     OW36693   0.558   4.049   6.295  0.0073  0.5810 -0.1019
12051SOL    HW136694   0.600   4.047   6.381 -1.4105  2.3866  0.7039
12051SOL    HW236695   0.629   4.030   6.233  1.5382  1.4132  1.3233
12052SOL     OW36696   1.787   6.523   4.489  0.1972  0.4213  0.0308
12052SOL    HW136697   1.770   6.608   4.528 -1.5587  0.3177 -0.3998
12052SOL    HW236698   1.735   6.462   4.541  1.0011 -0.3056 -0.0048
12053SOL     OW36699   6.028   0.648   4.473  0.9327 -0.0730 -0.0288
12053SOL    HW136700   6.049   0.730   4.428  2.2064  0.5417  1.5945
12053SOL    HW236701   6.077   0.581   4.424  0.0642  0.1166 -1.2241
12054SOL     OW36702   1.626   5.827   3.461  0.4301  0.2518  1.1990
12054SOL    HW136703   1.552   5.887   3.465  0.1142 -0.1973  3.2464
12054SOL    HW236704   1.594   5.746   3.501  2.0658  0.1364  2.3669
12055SOL     OW36705   0.517   7.534   4.067 -0.0419  0.1602 -0.0828
12055SOL    HW136706   0.556   7.586   4.137 -1.2752 -0.8431  1.4097
12055SOL    HW236707   0.592   7.501   4.017  0.8518  1.0752  0.6218
12056SOL     OW36708   5.070   4.605   4.977 -0.5233  0.3198 -0.3304
12056SOL    HW136709   5.012   4.676   4.948 -1.0222 -0.4491 -1.2597
12056SOL    HW236710   5.029   4.573   5.058 -1.4068 -0.1886 -0.9534
12057SOL     OW36711   1.025   7.474   4.751 -0.2041 -0.1686 -0.2825
12057SOL    HW136712   1.064   7.545   4.802  0.5813 -0.5033 -0.3836
12057SOL    HW236713   1.062   7.394   4.791 -2.9824 -0.6998  1.4718
12058SOL     OW36714   6.969   5.252   0.028 -0.3735  0.4043  0.2914
12058SOL    HW136715   6.908   5.200   0.081  0.9879  0.8886  2.4831
12058SOL    HW236716   6.915   5.320  -0.011 -1.4540  0.0194  1.0521
12059SOL     OW36717   3.868   4.567   5.577 -0.0850 -0.0462  0.7401
12059SOL    HW136718   3.950   4.617   5.585 -0.0555  0.5846 -2.3809
12059SOL    HW236719   3.859   4.550   5.483 -3.2686 -0.5806  1.0291
12060SOL     OW36720   0.805   6.105   7.370  0.3359 -0.0904 -0.3743
12060SOL    HW136721   0.786   6.053   7.448 -0.4198 -0.9428 -1.0880
12060SOL    HW236722   0.747   6.068   7.303  2.6995 -1.0436 -2.0029
12061SOL     OW36723   5.503   6.008   5.274  0.4705 -0.8220  0.2872
12061SOL    HW136724   5.462   5.939   5.221  0.1794  0.6372 -1.4382
12061SOL    HW236725   5.543   6.068   5.211 -0.2530  1.2144  1.6622
12062SOL     OW36726   6.779   6.809   4.246 -0.5398 -0.5110  0.1032
12062SOL    HW136727   6.708   6.771   4.196  0.3585 -0.2610 -1.4252
12062SOL    HW236728   6.804   6.887   4.196 -0.2078  0.2745  1.4384
12063SOL     OW36729   5.335   1.550   2.597  0.1260 -0.0200 -0.1864
12063SOL    HW136730   5.368   1.639   2.609  1.4631 -0.6645  1.2606
12063SOL    HW236731   5.349   1.531   2.504  1.0240  0.8235 -0.2383
12064SOL     OW36732   0.795   3.260   7.563  0.6612 -0.2685 -0.7942
12064SOL    HW136733   0.735   3.331   7.541  1.5117  0.3904 -1.0620
12064SOL    HW236734   0.764   3.185   7.513 -0.4016 -0.1578 -0.3118
12065SOL     OW36735   6.092   6.901   6.955 -0.2061  0.0263 -0.0656
12065SOL    HW136736   6.009   6.949   6.948 -0.6332 -0.7601 -0.4638
12065SOL    HW236737   6.155   6.956   6.909 -0.2571  1.1402  1.1029
12066SOL     OW36738   4.485   6.550   7.055  0.3440  0.4226 -0.1095
12066SOL    HW136739   4.487   6.630   7.108  0.5739  1.1607 -1.2008
12066SOL    HW236740   4.407   6.560   7.001 -1.1100 -1.2989  1.5050
12067SOL     OW36741   7.471   2.030   5.307  0.1697  0.0899 -1.2883
12067SOL    HW136742   7.496   2.109   5.259  1.1661 -0.2333 -1.3278
12067SOL    HW236743   7.398   2.057   5.363  1.4472  1.4133 -0.2138
12068SOL     OW36744   6.939   5.400   3.976 -0.2517 -0.3170  0.7973
12068SOL    HW136745   7.020   5.442   4.003  0.3460 -0.8881 -0.0285
12068SOL    HW236746   6.917   5.442   3.893  2.0210 -3.5092 -1.7043
12069SOL     OW36747   0.812   2.090   2.710  0.1993  0.1528  0.2884
12069SOL    HW136748   0.777   2.050   2.789  2.4363 -1.3328  0.6573
12069SOL    HW236749   0.852   2.171   2.739  0.0970  0.1276  0.4988
12070SOL     OW36750   1.816   0.064   0.562  0.3452 -0.7171  0.1280
12070SOL    HW136751   1.805   0.104   0.476  0.9778 -0.6971  0.0498
12070SOL    HW236752   1.898   0.015   0.555  1.4101  0.7957  1.2827
12071SOL     OW36753   5.267   5.035   5.636 -0.3103 -0.1173  0.2686
12071SOL    HW136754   5.222   5.119   5.635 -0.7044 -0.2694 -2.0402
12071SOL    HW236755   5.303   5.027   5.547  0.2956 -2.0810  0.6422
12072SOL     OW36756   3.312   0.649   0.501  0.2360 -0.0934 -0.3402
12072SOL    HW136757   3.344   0.668   0.589 -1.3375 -0.2196  0.2920
12072SOL    HW236758   3.325   0.554   0.491 -0.9387 -0.3526  0.3663
12073SOL     OW36759   5.012   6.400   7.100  0.3757  0.0065 -0.7755
12073SOL    HW136760   4.996   6.450   7.021  1.1385  1.4661 -0.0442
12073SOL    HW236761   5.062   6.459   7.157 -0.1879 -0.9695  0.8136
12074SOL     OW36762   5.892   3.752   5.670  0.5080 -0.2413  0.1489
12074SOL    HW136763   5.861   3.837   5.639  0.2690 -0.6315 -0.7281
12074SOL    HW236764   5.987   3.756   5.660  0.3446 -0.9398 -2.2916
12075SOL     OW36765   5.943   0.707   5.825  0.3612  0.3293 -0.2804
12075SOL    HW136766   5.881   0.761   5.874 -1.5837 -1.0972 -1.0130
12075SOL    HW236767   6.001   0.670   5.892 -0.5164  0.5487  0.6274
12076SOL     OW36768   4.649   6.904   2.616 -0.2215 -0.2140  0.0142
12076SOL    HW136769   4.614   6.992   2.604  1.1182  0.0896 -2.2299
12076SOL    HW236770   4.676   6.901   2.708 -1.8396  1.0841  0.5696
12077SOL     OW36771   4.071   5.897   2.826 -0.4226  0.1153  0.0752
12077SOL    HW136772   4.074   5.989   2.800 -1.2775  0.0726 -0.2269
12077SOL    HW236773   3.983   5.886   2.863  0.1527 -0.2575  1.3947
12078SOL     OW36774   1.343   3.741   4.046  0.4854  0.4628  0.3956
12078SOL    HW136775   1.337   3.830   4.079 -0.5138  0.2295  0.8566
12078SOL    HW236776   1.253   3.714   4.029  0.8211 -0.1788 -0.5205
12079SOL     OW36777   5.849   6.136   6.428 -0.1100 -0.2226 -0.1866
12079SOL    HW136778   5.837   6.064   6.367 -1.7114  0.0181 -0.1933
12079SOL    HW236779   5.939   6.126   6.459  0.5351 -0.7105 -2.0854
12080SOL     OW36780   0.290   6.998   0.140 -0.0568 -0.0772 -0.2206
12080SOL    HW136781   0.284   6.907   0.168 -2.4879  0.0946 -0.0442
12080SOL    HW236782   0.230   7.005   0.066  0.6202  1.2325 -0.6724
12081SOL     OW36783   7.448   6.803   1.133 -0.9387  0.0430 -0.1961
12081SOL    HW136784   7.492   6.833   1.053  0.2780 -1.2152 -0.0262
12081SOL    HW236785   7.502   6.730   1.165 -1.9695 -0.1422  1.2186
12082SOL     OW36786   0.381   6.448   5.084  0.1765  0.4262 -0.5312
12082SOL    HW136787   0.403   6.364   5.044 -0.3650 -0.1121  0.2607
12082SOL    HW236788   0.431   6.449   5.166 -1.4582 -0.1300  0.5370
12083SOL     OW36789   0.845   3.802   3.306  0.3377 -0.5232 -0.1058
12083SOL    HW136790   0.908   3.799   3.377 -0.6458  0.1725  0.8432
12083SOL    HW236791   0.760   3.797   3.349 -0.2805 -0.5604 -1.2725
12084SOL     OW36792   6.604   2.127   0.347 -0.3360  0.5492  0.8123
12084SOL    HW136793   6.510   2.116   0.362 -0.5126 -0.1368 -0.6635
12084SOL    HW236794   6.644   2.107   0.432 -1.4364 -0.3791  1.1386
12085SOL     OW36795   4.230   3.887   1.731  0.4072 -0.5183  0.7050
12085SOL    HW136796   4.313   3.839   1.732 -1.1862 -3.8070 -2.2906
12085SOL    HW236797   4.236   3.944   1.655  0.3793  0.3304  1.3191
12086SOL     OW36798   1.955   4.716   2.684 -0.4240  0.2644  0.4275
12086SOL    HW136799   1.922   4.797   2.723 -0.5302 -0.6204  2.2740
12086SOL    HW236800   1.922   4.717   2.595 -1.0741  1.8767  0.6516
12087SOL     OW36801   3.525   3.260   0.428 -0.1475 -0.4113 -0.3117
12087SOL    HW136802   3.462   3.287   0.494 -0.4981 -0.8661 -0.4565
12087SOL    HW236803   3.484   3.285   0.345 -1.7466 -3.7201 -0.6634
12088SOL     OW36804   7.197   4.767   2.412  0.1029  0.3438 -0.3394
12088SOL    HW136805   7.250   4.744   2.335 -1.0283 -0.1327 -0.9997
12088SOL    HW236806   7.195   4.688   2.465 -1.2877 -0.1816 -1.1304
12089SOL     OW36807   7.373   2.686   1.017 -0.6280  0.8187 -0.1487
12089SOL    HW136808   7.432   2.736   0.959 -0.5773  1.3903  0.3800
12089SOL    HW236809   7.305   2.652   0.959 -1.3011  2.4549 -0.3822
12090SOL     OW36810   7.580   1.167   2.131  0.0658  0.0877  0.1031
12090SOL    HW136811   7.652   1.110   2.101 -0.0962 -0.1379  0.1389
12090SOL    HW236812   7.501   1.124   2.097  0.0161  0.9300 -0.8892
12091SOL     OW36813   6.902   0.852   6.661 -0.1501  0.1128 -0.2620
12091SOL    HW136814   6.856   0.770   6.645  2.1093 -1.0122 -1.5582
12091SOL    HW236815   6.992   0.825   6.683  0.2706  2.2018  0.8500
12092SOL     OW36816   4.283   3.780   5.019  0.1618  0.0908  0.4964
12092SOL    HW136817   4.378   3.787   5.009  0.2398 -0.1534  1.0421
12092SOL    HW236818   4.270   3.696   5.063 -0.3180  0.0659  0.3150
12093SOL     OW36819   7.327   1.180   6.302 -0.1603 -0.0158 -0.0885
12093SOL    HW136820   7.311   1.272   6.319 -2.9334 -0.5099  0.4907
12093SOL    HW236821   7.258   1.154   6.241 -0.3992 -2.0189  0.9341
12094SOL     OW36822   3.350   2.617   3.531  0.8081  0.3739  0.3491
12094SOL    HW136823   3.319   2.546   3.587 -0.0734 -0.1119 -0.7221
12094SOL    HW236824   3.363   2.577   3.445 -1.1148  1.7795 -0.6673
12095SOL     OW36825   5.785   2.847   5.650  0.1043 -0.1187  0.7728
12095SOL    HW136826   5.765   2.856   5.743 -0.1215 -0.7412  0.7919
12095SOL    HW236827   5.880   2.856   5.645  0.3000 -1.5958  1.2791
12096SOL     OW36828   0.454   7.109   7.392  0.6254 -0.3475  0.0422
12096SOL    HW136829   0.506   7.107   7.312 -0.1279 -1.0122 -0.4551
12096SOL    HW236830   0.376   7.057   7.371 -0.0696  0.3221  0.8726
12097SOL     OW36831   7.195   6.501   3.221 -0.2784  0.1386 -0.2710
12097SOL    HW136832   7.137   6.426   3.223  0.6654 -0.6793 -1.9741
12097SOL    HW236833   7.140   6.573   3.189 -0.9704 -0.0034  0.5677
12098SOL     OW36834   6.379   4.227   0.777  0.4713  0.2593 -0.4025
12098SOL    HW136835   6.431   4.307   0.780  1.5596 -0.4475  0.4004
12098SOL    HW236836   6.367   4.202   0.869  1.2780 -1.1962 -0.6567
12099SOL     OW36837   0.242   2.807   7.612 -0.7444  0.7031  0.0071
12099SOL    HW136838   0.269   2.864   7.540  1.4405  2.5785  2.1379
12099SOL    HW236839   0.307   2.736   7.612 -1.8425 -0.3547 -0.9309
12100SOL     OW36840   4.226   6.950   6.862 -0.1478  0.1253  0.4260
12100SOL    HW136841   4.291   6.950   6.791  0.6629  1.1627  1.1454
12100SOL    HW236842   4.142   6.952   6.817  0.2668 -1.6225 -0.5421
12101SOL     OW36843   3.512   2.508   5.330  0.1521  0.5039  0.2099
12101SOL    HW136844   3.464   2.530   5.251 -0.3758  1.0142  0.6613
12101SOL    HW236845   3.532   2.415   5.322 -2.6774 -0.2385  0.9432
12102SOL     OW36846   7.364   5.139   4.137 -0.3258  0.2628 -0.0119
12102SOL    HW136847   7.410   5.147   4.053 -1.7113  0.3315 -0.7941
12102SOL    HW236848   7.412   5.197   4.196  1.1389 -0.3629 -0.5364
12103SOL     OW36849   7.220   5.742   4.746  0.1134  0.3060  0.1098
12103SOL    HW136850   7.205   5.664   4.800 -1.4826 -0.2560 -1.0757
12103SOL    HW236851   7.239   5.812   4.810 -0.3346 -0.6307  1.3093
12104SOL     OW36852   3.491   2.336   1.015  0.4287 -0.2126 -0.0849
12104SOL    HW136853   3.566   2.343   1.075  1.2537  0.9022 -1.1990
12104SOL    HW236854   3.466   2.427   0.998  1.9328 -0.2785 -3.4649
12105SOL     OW36855   6.189   1.037   4.188 -0.3309  0.0462  0.0168
12105SOL    HW136856   6.209   0.953   4.147  0.2299  0.2082 -0.0517
12105SOL    HW236857   6.269   1.088   4.178  0.5123 -0.5193  2.9366
12106SOL     OW36858   0.099   0.812   7.440  0.3142 -0.2226  0.1821
12106SOL    HW136859   0.141   0.765   7.512  0.8894  0.0932  0.0621
12106SOL    HW236860   0.089   0.902   7.473  0.5617 -0.0816 -0.1196
12107SOL     OW36861   7.171   7.466   0.852  0.5279  0.2739 -0.0820
12107SOL    HW136862   7.216   7.382   0.864  1.3720  0.4027 -1.8810
12107SOL    HW236863   7.115   7.452   0.776 -1.1271  0.6811  1.0243
12108SOL     OW36864   2.247   1.473   1.173 -0.4516  0.5432 -0.4225
12108SOL    HW136865   2.320   1.421   1.207  0.3271  0.4765 -2.0969
12108SOL    HW236866   2.172   1.448   1.226 -0.3750 -3.1704 -1.8081
12109SOL     OW36867   2.898   3.399   6.648  0.5489 -0.6170  0.0149
12109SOL    HW136868   2.974   3.423   6.702  0.5063 -0.3460 -0.0416
12109SOL    HW236869   2.929   3.412   6.558  0.4831 -0.6519 -0.0120
12110SOL     OW36870   4.691   3.587   4.505 -0.3271  0.3682  0.4064
12110SOL    HW136871   4.725   3.677   4.503 -1.3011  0.7481 -0.3332
12110SOL    HW236872   4.767   3.532   4.489  0.5129  0.9746  2.1398
12111SOL     OW36873   4.912   6.198   1.786 -0.2344 -0.6087  0.0625
12111SOL    HW136874   4.969   6.174   1.859  0.0033 -0.8355 -0.1961
12111SOL    HW236875   4.896   6.116   1.740  2.0243 -0.0481 -1.8665
12112SOL     OW36876   5.070   7.554   4.355  0.0868 -0.5835  0.0814
12112SOL    HW136877   5.149   7.605   4.340 -1.1535  2.0305  1.8010
12112SOL    HW236878   5.074   7.529   4.447 -2.1137  1.6945  0.9091
12113SOL     OW36879   3.711   4.344   0.806  0.5100  0.1239  0.4664
12113SOL    HW136880   3.647   4.407   0.836  0.5426 -0.2565  1.3844
12113SOL    HW236881   3.738   4.298   0.886  1.4447 -0.1517  0.0062
12114SOL     OW36882   3.579   2.160   2.413  0.1393 -0.0994 -0.3455
12114SOL    HW136883   3.617   2.200   2.335 -1.0055  1.5452 -0.1181
12114SOL    HW236884   3.493   2.130   2.385  0.6701 -1.7717 -0.2990
12115SOL     OW36885   5.921   1.255   3.949 -0.2695  0.0554 -0.1412
12115SOL    HW136886   5.850   1.288   4.005 -0.2949  2.6033 -1.4978
12115SOL    HW236887   5.996   1.312   3.971  1.3174 -2.2942  0.9512
12116SOL     OW36888   6.394   5.557   3.060 -0.8836  0.5132 -0.1020
12116SOL    HW136889   6.412   5.484   3.119 -0.5583  0.1686 -0.6192
12116SOL    HW236890   6.464   5.620   3.078 -0.2117 -0.0200 -0.8040
12117SOL     OW36891   6.587   2.158   3.899 -0.2454  0.6666 -0.4417
12117SOL    HW136892   6.510   2.112   3.933 -0.7472 -0.6671 -3.1521
12117SOL    HW236893   6.552   2.239   3.861 -0.3872  0.0181 -1.7549
12118SOL     OW36894   2.622   0.656   5.104 -0.1233  0.0621 -0.0516
12118SOL    HW136895   2.542   0.692   5.065 -0.1149  0.1886  0.0459
12118SOL    HW236896   2.595   0.573   5.142 -0.1958  0.0770 -0.0695
12119SOL     OW36897   2.160   0.566   0.275  0.5765  0.0181  0.4505
12119SOL    HW136898   2.113   0.509   0.214  0.2276  1.6326 -0.8421
12119SOL    HW236899   2.125   0.653   0.258  1.1434  0.6634  2.3405
12120SOL     OW36900   3.047   2.213   6.532 -0.0166  0.0515  0.7686
12120SOL    HW136901   3.025   2.203   6.625 -0.5055  0.9801  0.7636
12120SOL    HW236902   3.086   2.301   6.526  1.5463 -0.6361  0.3683
12121SOL     OW36903   7.042   3.822   6.259 -0.1120  0.0067  0.3555
12121SOL    HW136904   7.125   3.789   6.292  0.2943 -0.9545 -1.4828
12121SOL    HW236905   6.984   3.746   6.258  0.0979 -0.1774 -1.6544
12122SOL     OW36906   0.271   4.333   2.319  0.3415  0.4113 -0.6237
12122SOL    HW136907   0.314   4.278   2.385  0.1819  0.2223 -0.6750
12122SOL    HW236908   0.337   4.343   2.250  0.3785  0.3010 -0.6055
12123SOL     OW36909   0.195   3.774   3.782  0.0636  0.0453  0.3393
12123SOL    HW136910   0.204   3.681   3.761 -0.6375 -0.0591  0.4731
12123SOL    HW236911   0.219   3.820   3.701 -0.6039 -0.2887 -0.0556
12124SOL     OW36912   0.476   2.489   6.491  0.7079 -0.0637  0.5871
12124SOL    HW136913   0.461   2.466   6.582  0.0146 -0.7642  0.3066
12124SOL    HW236914   0.570   2.476   6.478  0.9072  0.6202  1.3558
12125SOL     OW36915   0.646   2.361   0.067 -0.0393 -0.0891  0.3366
12125SOL    HW136916   0.731   2.326   0.041  0.1937  1.1159 -0.6480
12125SOL    HW236917   0.594   2.359  -0.014 -0.2847  0.9953  0.4553
12126SOL     OW36918   5.352   5.255   1.014 -0.0597 -0.3635  0.7538
12126SOL    HW136919   5.413   5.183   1.028  0.3255 -1.1333 -3.4968
12126SOL    HW236920   5.406   5.334   1.018  0.4195 -0.6955  0.9058
12127SOL     OW36921   6.629   2.010   2.876 -0.5484 -0.2079 -0.1968
12127SOL    HW136922   6.695   2.019   2.807 -0.1757  0.3778  0.2205
12127SOL    HW236923   6.567   1.946   2.842 -1.9435  2.0758 -2.3355
12128SOL     OW36924   5.406   4.102   0.649 -0.4291  0.1380 -0.4190
12128SOL    HW136925   5.464   4.029   0.669 -0.7621 -0.5940 -1.9612
12128SOL    HW236926   5.452   4.179   0.681  0.0959 -0.6833  0.9160
12129SOL     OW36927   2.030   6.343   1.019  0.1510 -0.3841 -0.0710
12129SOL    HW136928   2.062   6.265   0.974  0.9712  0.5059 -1.0923
12129SOL    HW236929   2.003   6.312   1.105  0.1002 -1.8558 -0.5918
12130SOL     OW36930   3.245   0.092   6.627  0.1230  0.0177  0.0923
12130SOL    HW136931   3.180   0.130   6.568 -0.6093 -0.7507  0.3698
12130SOL    HW236932   3.227   0.134   6.712  1.1865  1.1359 -0.2134
12131SOL     OW36933   0.941   5.208   7.076  0.5394 -0.4196 -0.3076
12131SOL    HW136934   1.019   5.247   7.116 -0.4145  1.4926 -0.2162
12131SOL    HW236935   0.930   5.125   7.122  1.0641  0.4597  1.4991
12132SOL     OW36936   5.133   2.215   5.315 -0.5843  0.2351 -0.2305
12132SOL    HW136937   5.227   2.204   5.329 -0.4026  0.7792 -0.9447
12132SOL    HW236938   5.120   2.310   5.318 -1.3831  0.1048  1.4653
12133SOL     OW36939   0.542   5.030   2.598  0.4458  0.2243  0.3445
12133SOL    HW136940   0.534   5.011   2.505 -0.4930 -0.5747  0.5754
12133SOL    HW236941   0.461   5.075   2.621  0.1461 -0.6311  1.0182
12134SOL     OW36942   7.384   4.043   1.594  0.2700  0.3346  0.0922
12134SOL    HW136943   7.467   4.043   1.641 -0.2855 -1.1390  1.1455
12134SOL    HW236944   7.407   4.011   1.506  0.6041 -1.7757  0.8882
12135SOL     OW36945   3.990   2.475   1.616  0.5322 -0.3811 -0.2253
12135SOL    HW136946   3.956   2.435   1.536  2.1068  1.2872 -1.8358
12135SOL    HW236947   4.005   2.402   1.675 -2.2060 -1.5241 -0.7834
12136SOL     OW36948   6.341   6.474   1.007  0.1181  0.2624 -0.1896
12136SOL    HW136949   6.380   6.561   1.012 -1.4284  1.0081 -0.3653
12136SOL    HW236950   6.368   6.440   0.921  3.2156 -0.7483  1.0551
12137SOL     OW36951   1.283   5.105   3.009 -0.8876  0.2952  0.2934
12137SOL    HW136952   1.280   5.091   3.104 -1.0721 -3.0031 -0.0794
12137SOL    HW236953   1.254   5.195   2.997  1.5611  1.6905  3.5008
12138SOL     OW36954   5.013   5.715   2.829  0.5227  0.0136 -0.3744
12138SOL    HW136955   4.951   5.740   2.760 -0.5106 -1.7530 -0.1422
12138SOL    HW236956   5.078   5.785   2.829 -2.1173  2.6939  0.1973
12139SOL     OW36957   1.523   6.242   5.107  0.1713 -0.6309 -0.3965
12139SOL    HW136958   1.539   6.176   5.174 -0.4739  0.0255  0.4243
12139SOL    HW236959   1.431   6.233   5.086 -0.0208  0.2510  0.0104
12140SOL     OW36960   7.279   2.575   3.407  0.0944  0.1212 -0.1745
12140SOL    HW136961   7.271   2.481   3.423 -3.8715  0.2402 -0.4224
12140SOL    HW236962   7.331   2.582   3.326 -1.3102 -2.0207 -1.3437
12141SOL     OW36963   2.765   4.231   7.348 -0.3177  0.0510 -0.3897
12141SOL    HW136964   2.746   4.290   7.421  0.1414 -0.1851 -0.0705
12141SOL    HW236965   2.744   4.281   7.270  0.0153  0.6147 -0.1206
12142SOL     OW36966   2.774   0.289   2.541  0.2407  0.4964 -0.3398
12142SOL    HW136967   2.802   0.201   2.567 -0.6275  0.2878 -0.0897
12142SOL    HW236968   2.847   0.346   2.566  0.4259 -0.0332  0.3399
12143SOL     OW36969   1.975   2.034   5.621  0.1459  0.4485  0.6010
12143SOL    HW136970   2.007   2.021   5.532  1.0628 -1.2800  1.1295
12143SOL    HW236971   1.887   1.997   5.620 -0.7341  2.4447 -0.0983
12144SOL     OW36972   6.483   2.330   4.124 -0.2367  0.0265 -0.3761
12144SOL    HW136973   6.436   2.328   4.041 -0.0086 -0.3191 -0.4977
12144SOL    HW236974   6.575   2.326   4.100 -0.1693 -0.0757 -0.1089
12145SOL     OW36975   3.302   6.974   0.866  0.0203 -0.1852  0.3967
12145SOL    HW136976   3.340   7.040   0.924 -1.1478  1.3481 -0.4947
12145SOL    HW236977   3.208   6.991   0.869 -0.1253 -0.4864 -1.4136
12146SOL     OW36978   2.930   2.255   6.105 -0.1847  0.6539  0.3084
12146SOL    HW136979   3.021   2.228   6.113  0.4482  2.1876 -1.1816
12146SOL    HW236980   2.915   2.314   6.179 -0.3069 -0.3817  1.1345
12147SOL     OW36981   1.075   5.793   0.107  0.4196 -0.5864  0.4601
12147SOL    HW136982   0.987   5.803   0.142  0.6882  1.8832  0.5983
12147SOL    HW236983   1.132   5.827   0.176  1.2408  0.5235 -0.7138
12148SOL     OW36984   5.900   0.831   6.963  0.1400 -0.1737  0.4566
12148SOL    HW136985   5.820   0.782   6.983 -0.3673 -0.1963 -1.4272
12148SOL    HW236986   5.882   0.920   6.994 -1.8082  0.5421 -2.3972
12149SOL     OW36987   5.079   7.037   6.903  0.2732  0.3422  0.2043
12149SOL    HW136988   5.128   7.105   6.949 -0.6198  0.7188  0.6240
12149SOL    HW236989   5.043   6.982   6.973  1.5379 -0.9945 -0.1399
12150SOL     OW36990   4.955   0.205   0.918  0.1409 -0.2007 -1.0359
12150SOL    HW136991   5.006   0.286   0.915  0.2036 -0.1765  0.1936
12150SOL    HW236992   4.868   0.231   0.886  0.2226  0.3088 -0.8530
12151SOL     OW36993   0.015   0.755   5.946 -0.1553  0.2842  0.1302
12151SOL    HW136994   0.107   0.773   5.928 -0.3212 -0.3764 -1.5452
12151SOL    HW236995  -0.031   0.832   5.915 -0.2321  0.3128  0.3126
12152SOL     OW36996   5.268   6.844   6.157  0.3738 -0.2287  0.3247
12152SOL    HW136997   5.311   6.816   6.076  1.6071  0.8182  0.6032
12152SOL    HW236998   5.311   6.925   6.181 -1.5388  0.7018  0.8213
12153SOL     OW36999   3.225   1.672   0.894 -0.6417 -0.8325 -0.1455
12153SOL    HW137000   3.168   1.658   0.969 -0.4208  0.6347  0.3439
12153SOL    HW237001   3.312   1.687   0.932 -1.1851  4.3161 -0.1220
12154SOL     OW37002   2.844   0.412   4.177  0.5390  0.1500 -0.6301
12154SOL    HW137003   2.820   0.339   4.235  1.6009 -1.2819 -1.9071
12154SOL    HW237004   2.781   0.481   4.199 -0.6094 -1.1906  0.5346
12155SOL     OW37005   4.570   1.841   7.499 -0.6213 -0.4714  0.0443
12155SOL    HW137006   4.540   1.912   7.556 -0.6439 -0.7686  0.4005
12155SOL    HW237007   4.490   1.801   7.466 -0.6078 -0.2507 -0.2566
12156SOL     OW37008   7.342   0.257   6.272  0.3332  0.1728 -0.0162
12156SOL    HW137009   7.298   0.185   6.227  0.1865  0.3518 -0.1628
12156SOL    HW237010   7.284   0.277   6.346  0.0935  0.5069 -0.2952
12157SOL     OW37011   7.158   4.407   1.126  0.1076 -0.0982  0.1749
12157SOL    HW137012   7.156   4.398   1.221  0.6228  1.0323  0.3097
12157SOL    HW237013   7.072   4.444   1.104  0.0379 -0.2320  0.2232
12158SOL     OW37014   5.922   6.709   2.836  0.3014  0.1718  0.3209
12158SOL    HW137015   5.924   6.757   2.918  2.8134  3.2693 -1.3528
12158SOL    HW237016   6.014   6.687   2.818 -0.4559 -2.8278 -0.4411
12159SOL     OW37017   5.926   3.227   2.562  0.6410 -0.1196  0.0225
12159SOL    HW137018   5.875   3.164   2.611  0.3687 -0.4403 -0.6663
12159SOL    HW237019   6.010   3.232   2.608  0.5239 -0.6955  0.2935
12160SOL     OW37020   6.671   3.280   2.419  0.2838 -0.2484 -0.3061
12160SOL    HW137021   6.616   3.212   2.382 -0.2640 -1.7683  2.9707
12160SOL    HW237022   6.759   3.241   2.422  0.0872 -0.6527  0.9992
12161SOL     OW37023   1.172   0.097   5.524 -0.5221 -0.3147 -0.0396
12161SOL    HW137024   1.115   0.082   5.600 -0.4268 -1.8721 -0.2489
12161SOL    HW237025   1.128   0.053   5.452  0.7959 -1.2897 -0.2706
12162SOL     OW37026   7.405   3.629   3.194 -0.3894 -0.2492  0.2989
12162SOL    HW137027   7.454   3.682   3.132 -1.8013 -1.1136 -1.6564
12162SOL    HW237028   7.433   3.539   3.177 -2.0790 -0.6875 -0.3994
12163SOL     OW37029   3.253   5.954   2.456 -0.0152  0.2492  0.5595
12163SOL    HW137030   3.229   5.924   2.368  1.1460 -1.6029  0.8134
12163SOL    HW237031   3.343   5.985   2.447  0.0538  0.2043  1.0571
12164SOL     OW37032   5.161   3.021   4.041 -0.7091 -0.0809 -0.3527
12164SOL    HW137033   5.245   3.058   4.015 -1.1238  1.6169  0.5598
12164SOL    HW237034   5.174   2.926   4.037  0.8597  0.1432 -1.3822
12165SOL     OW37035   6.003   4.135   3.068 -0.0098  0.1095  0.2847
12165SOL    HW137036   5.975   4.132   3.160  1.0023  0.0433  0.5992
12165SOL    HW237037   6.046   4.219   3.058 -0.4699  0.2910 -0.2466
12166SOL     OW37038   0.831   6.309   2.894  0.3526  0.1121  0.0273
12166SOL    HW137039   0.864   6.315   2.805  0.5073 -0.2293  0.0609
12166SOL    HW237040   0.833   6.399   2.926 -0.1855  0.3116 -0.4839
12167SOL     OW37041   6.658   4.040   4.654  0.1870 -0.0691  0.0546
12167SOL    HW137042   6.593   3.984   4.613  0.6066 -1.8344  1.6858
12167SOL    HW237043   6.671   4.003   4.742  0.8285  2.3139  1.0527
12168SOL     OW37044   5.663   3.176   4.815  0.2754 -0.2858  0.0718
12168SOL    HW137045   5.606   3.109   4.853 -0.4631  1.7899  3.0009
12168SOL    HW237046   5.614   3.212   4.742 -0.5065 -1.0691  0.2006
12169SOL     OW37047   6.513   2.095   4.273  0.1039  0.2037 -0.5483
12169SOL    HW137048   6.461   2.144   4.210 -1.5046 -1.6690 -0.7662
12169SOL    HW237049   6.591   2.068   4.225 -0.3738  0.1112 -1.2736
12170SOL     OW37050   2.774   1.020   2.887 -0.1263 -0.2254 -0.4437
12170SOL    HW137051   2.760   1.042   2.795  0.8203 -1.3095 -0.8624
12170SOL    HW237052   2.696   0.972   2.912 -1.2934  1.7531 -0.0923
12171SOL     OW37053   6.784   6.006   4.031  0.3790  0.3118  0.1727
12171SOL    HW137054   6.810   6.098   4.026 -0.4413  0.5031 -0.9506
12171SOL    HW237055   6.693   6.008   4.060  0.2197 -0.1230 -0.2770
12172SOL     OW37056   3.663   3.971   1.728 -0.0192  0.4701  0.1216
12172SOL    HW137057   3.640   3.919   1.805  0.8124  1.1537  0.8563
12172SOL    HW237058   3.756   3.952   1.714 -0.6426 -1.4137 -2.1306
12173SOL     OW37059   5.917   3.865   2.863  0.2227  0.1411  0.8611
12173SOL    HW137060   5.991   3.805   2.864  1.4092  1.5329  0.0668
12173SOL    HW237061   5.876   3.851   2.778 -1.7189 -2.0309  2.0195
12174SOL     OW37062   2.269   2.661   1.474 -0.3581 -0.4847  0.0033
12174SOL    HW137063   2.261   2.609   1.394  0.4278 -2.6463  1.2374
12174SOL    HW237064   2.362   2.654   1.498 -0.4889  0.5052  0.8636
12175SOL     OW37065   0.507   6.711   6.807 -0.0972 -0.0487 -0.1817
12175SOL    HW137066   0.483   6.714   6.900  1.3257 -0.3349  0.2167
12175SOL    HW237067   0.507   6.803   6.780  0.0572  0.0840  0.2545
12176SOL     OW37068   6.985   3.465   7.453 -0.1917 -0.3511 -0.1530
12176SOL    HW137069   6.941   3.546   7.425  0.1817  0.3215  1.1283
12176SOL    HW237070   7.046   3.445   7.381  0.0757  0.7994 -0.2750
12177SOL     OW37071   4.114   4.331   3.071  0.3793  0.0157 -0.3307
12177SOL    HW137072   4.165   4.289   3.002  1.9770  1.7095 -0.2486
12177SOL    HW237073   4.171   4.329   3.148 -0.6101 -0.1106  0.4208
12178SOL     OW37074   5.673   7.115   4.274  0.2005 -0.6579 -0.2502
12178SOL    HW137075   5.598   7.104   4.332 -1.5706  4.3292 -1.0945
12178SOL    HW237076   5.749   7.116   4.333 -1.4758  3.9138  2.3044
12179SOL     OW37077   5.607   0.262   7.359  0.3538  0.0652 -0.0479
12179SOL    HW137078   5.568   0.237   7.442 -1.2502  0.6300 -0.6025
12179SOL    HW237079   5.671   0.330   7.382  1.7545 -1.5027  0.9672
12180SOL     OW37080   5.845   3.986   5.063  0.0131 -0.1545 -0.3241
12180SOL    HW137081   5.938   3.977   5.085  0.0969  0.3564 -0.4618
12180SOL    HW237082   5.799   3.939   5.132  0.2878  1.1677  0.7950
12181SOL     OW37083   6.449   2.123   6.584 -0.8063 -0.4103 -0.0207
12181SOL    HW137084   6.506   2.189   6.546 -1.4134  0.5331  0.6841
12181SOL    HW237085   6.421   2.070   6.509 -0.3589  0.1506 -0.5972
12182SOL     OW37086   1.625   2.136   6.722  0.2085  0.4338  0.1003
12182SOL    HW137087   1.698   2.122   6.782  0.3307 -0.8737 -0.3351
12182SOL    HW237088   1.548   2.108   6.771  0.1757  0.3932  0.0251
12183SOL     OW37089   6.513   5.029   5.302  0.4479  0.1183  0.3523
12183SOL    HW137090   6.553   4.950   5.266 -0.2858  0.3122 -0.9437
12183SOL    HW237091   6.530   5.097   5.236 -1.6747  0.2930 -0.0858
12184SOL     OW37092   6.075   6.044   4.277  0.4659  0.7126  0.1699
12184SOL    HW137093   6.059   5.970   4.219  1.2316 -0.3361  1.2363
12184SOL    HW237094   6.158   6.081   4.246  0.7978  0.2471  0.4842
12185SOL     OW37095   2.766   2.255   6.473  0.3805  0.1872  0.1815
12185SOL    HW137096   2.845   2.205   6.450 -0.8122 -0.9181 -1.9013
12185SOL    HW237097   2.711   2.193   6.521 -1.1297 -0.7427 -2.4599
12186SOL     OW37098   6.683   6.586   5.946 -0.3143  0.2113  0.0417
12186SOL    HW137099   6.611   6.539   5.990  0.3709 -0.7239  0.1961
12186SOL    HW237100   6.731   6.517   5.900  0.0500  0.9374 -0.6797
12187SOL     OW37101   1.545   7.284   4.331 -0.5413 -0.3820 -0.2042
12187SOL    HW137102   1.584   7.245   4.253 -0.4962  1.1104 -0.9671
12187SOL    HW237103   1.535   7.211   4.392  1.3705 -1.2280 -0.8140
12188SOL     OW37104   0.723   2.955   7.281 -0.1506 -0.4511 -0.1328
12188SOL    HW137105   0.708   2.932   7.372  2.6687 -0.1476  0.4842
12188SOL    HW237106   0.751   2.874   7.239  0.9426 -0.1100 -0.1043
12189SOL     OW37107   2.825   1.831   5.224 -0.1727 -0.4392 -0.0734
12189SOL    HW137108   2.817   1.836   5.319  1.7167  1.2504  0.0783
12189SOL    HW237109   2.828   1.737   5.205 -2.2251 -0.8557  1.3070
12190SOL     OW37110   5.646   4.626   1.267  0.1528  0.0292 -0.3382
12190SOL    HW137111   5.724   4.597   1.315 -1.1510 -0.1295  1.8069
12190SOL    HW237112   5.604   4.545   1.238  0.3218  0.0858 -0.7547
12191SOL     OW37113   3.387   5.701   7.588  0.0427  0.1626  0.4919
12191SOL    HW137114   3.329   5.631   7.556 -1.1674  1.5703 -0.4940
12191SOL    HW237115   3.329   5.776   7.602  1.3123  0.9924  1.5321
12192SOL     OW37116   1.601   3.854   1.929 -0.2747  0.2826  0.3079
12192SOL    HW137117   1.633   3.787   1.990 -0.3928 -0.3012 -0.2565
12192SOL    HW237118   1.523   3.890   1.972 -0.0372  0.2696  0.7540
12193SOL     OW37119   6.680   5.108   3.260  0.4574  0.1487  0.2180
12193SOL    HW137120   6.773   5.101   3.282  0.1761 -0.3181  1.3610
12193SOL    HW237121   6.648   5.018   3.266 -0.5677  0.5850  2.3392
12194SOL     OW37122   6.479   7.435   7.186 -0.5411  0.1939  0.3315
12194SOL    HW137123   6.543   7.365   7.175  0.5331  1.0925  0.6856
12194SOL    HW237124   6.413   7.399   7.244 -0.1863 -0.6377  0.2321
12195SOL     OW37125   4.334   5.986   7.429  0.1054  0.2590  0.6680
12195SOL    HW137126   4.379   6.039   7.364  0.1900  0.5886  0.9917
12195SOL    HW237127   4.340   5.896   7.396  1.9677  0.1307  1.2495
12196SOL     OW37128   4.694   2.413   3.572 -0.3009  0.1218  0.2968
12196SOL    HW137129   4.635   2.348   3.534  2.9486 -1.6512 -2.3628
12196SOL    HW237130   4.737   2.368   3.644 -0.1990  0.3840  0.4019
12197SOL     OW37131   4.010   6.150   2.762  0.2123  0.3833  0.2016
12197SOL    HW137132   4.093   6.187   2.732 -0.5386  1.3998 -0.6900
12197SOL    HW237133   3.968   6.221   2.810  0.4693 -0.5762  1.9160
12198SOL     OW37134   4.546   4.593   0.761  0.3020 -0.6055 -0.9787
12198SOL    HW137135   4.544   4.653   0.835  1.7593  0.2149 -1.5671
12198SOL    HW237136   4.455   4.563   0.752 -0.2659  0.7379 -0.0554
12199SOL     OW37137   3.991   1.290   6.680  0.0650 -0.8755 -0.2731
12199SOL    HW137138   3.948   1.236   6.614  0.2453  0.1052 -1.2419
12199SOL    HW237139   4.078   1.253   6.689 -0.6159 -2.2626  0.9602
12200SOL     OW37140   2.920   0.949   3.109  0.2516  0.5988 -0.4550
12200SOL    HW137141   2.880   0.956   3.023  1.1936  3.2152 -0.7865
12200SOL    HW237142   2.934   1.040   3.136  2.1686 -0.1518  1.4004
12201SOL     OW37143   7.502   4.921   5.346  0.5345 -0.0698 -0.9831
12201SOL    HW137144   7.441   4.899   5.416  1.2452 -0.7890 -0.5728
12201SOL    HW237145   7.481   4.860   5.275  0.7876 -0.3454 -0.8263
12202SOL     OW37146   5.462   3.967   4.469 -0.4585 -0.3069 -0.4470
12202SOL    HW137147   5.542   3.978   4.417  0.0156 -0.0846  0.3051
12202SOL    HW237148   5.494   3.950   4.558 -1.2450 -1.0562 -0.2885
12203SOL     OW37149   4.485   6.804   2.898 -0.5135 -0.1712 -0.2691
12203SOL    HW137150   4.505   6.714   2.922  0.9487  0.0936 -0.4289
12203SOL    HW237151   4.569   6.850   2.902 -0.9680  0.8633 -1.5963
12204SOL     OW37152   6.062   2.457   2.530  0.0196 -0.0289 -0.2456
12204SOL    HW137153   6.011   2.492   2.457  1.4554  0.4236 -1.0769
12204SOL    HW237154   6.151   2.446   2.494  0.9091  0.7836  1.5879
12205SOL     OW37155   0.078   4.267   0.276  0.5127 -0.0712  0.5056
12205SOL    HW137156  -0.004   4.313   0.293 -0.0697 -1.0743  0.4856
12205SOL    HW237157   0.122   4.265   0.361  2.3048  3.6765 -0.0937
12206SOL     OW37158   7.333   2.853   0.215  0.1093 -0.0968  0.2386
12206SOL    HW137159   7.294   2.872   0.130 -1.9587  0.6559  1.2950
12206SOL    HW237160   7.265   2.806   0.263  0.8282  0.4590  1.8761
12207SOL     OW37161   2.069   3.617   1.043  0.0351  0.2290  0.4081
12207SOL    HW137162   2.086   3.538   1.095  0.6198 -0.7438 -1.1860
12207SOL    HW237163   1.974   3.622   1.037 -0.0109 -0.2285  0.7215
12208SOL     OW37164   2.896   3.515   4.790 -0.0085 -0.7130  0.3885
12208SOL    HW137165   2.943   3.520   4.873 -0.8232 -0.7867  0.8682
12208SOL    HW237166   2.818   3.463   4.810 -1.0267  0.6052 -0.0288
12209SOL     OW37167   6.493   5.857   1.325 -0.1871  0.2317  0.1592
12209SOL    HW137168   6.455   5.880   1.409 -0.2993 -1.9787  0.7658
12209SOL    HW237169   6.570   5.804   1.347 -0.4429 -0.7200 -1.1020
12210SOL     OW37170   0.608   3.502   2.063  0.2897  0.5739 -0.3067
12210SOL    HW137171   0.600   3.582   2.114 -0.5385  0.6966 -0.6156
12210SOL    HW237172   0.633   3.532   1.976 -3.0238  0.8065 -1.2844
12211SOL     OW37173   5.164   5.382   6.600 -0.1677 -0.1735  0.0275
12211SOL    HW137174   5.143   5.473   6.578 -0.8979 -0.3688 -0.1063
12211SOL    HW237175   5.259   5.382   6.614  0.0989  0.2813 -1.5544
12212SOL     OW37176   3.136   5.168   7.370  0.0248  0.4494  0.0835
12212SOL    HW137177   3.142   5.078   7.400 -0.9224  1.0293  2.1684
12212SOL    HW237178   3.129   5.220   7.450 -0.4349  2.3004 -1.0953
12213SOL     OW37179   3.537   1.202   6.460 -0.3072 -0.8936 -0.3227
12213SOL    HW137180   3.464   1.205   6.398  1.2835  1.3181 -2.2314
12213SOL    HW237181   3.548   1.292   6.490  1.5836 -1.1666 -0.0422
12214SOL     OW37182   4.963   5.344   3.251 -0.6024 -0.2101 -0.0881
12214SOL    HW137183   4.979   5.318   3.160 -2.6276  0.3214 -0.6329
12214SOL    HW237184   4.874   5.314   3.270 -0.0771 -0.6716  1.8743
12215SOL     OW37185   5.688   0.015   7.576  0.0263  0.0653 -0.2257
12215SOL    HW137186   5.728   0.022   7.663 -1.3175  1.5840  0.3244
12215SOL    HW237187   5.760   0.030   7.515  0.7131  0.4550  0.6623
12216SOL     OW37188   6.441   0.417   7.408  0.0265  0.0744  0.2106
12216SOL    HW137189   6.535   0.412   7.390 -0.1400  1.8163 -1.3716
12216SOL    HW237190   6.401   0.368   7.336 -0.4133  2.8209 -1.5366
12217SOL     OW37191   0.844   4.322   0.012 -0.1058  0.0659 -0.2217
12217SOL    HW137192   0.823   4.391  -0.050  0.1479  2.0896  1.8208
12217SOL    HW237193   0.934   4.296  -0.010 -0.3561  0.0580 -1.2748
12218SOL     OW37194   5.528   1.391   4.007 -0.4862 -0.3000 -0.5215
12218SOL    HW137195   5.439   1.427   4.011 -1.2316 -2.1371  0.9078
12218SOL    HW237196   5.565   1.428   3.927 -2.6478  0.2780 -1.3279
12219SOL     OW37197   2.394   1.459   5.339  0.0735  0.1512 -0.1341
12219SOL    HW137198   2.432   1.372   5.325  1.8290  1.1636 -2.2056
12219SOL    HW237199   2.446   1.495   5.411 -0.0737 -0.1813  0.1438
12220SOL     OW37200   5.100   6.135   5.020 -0.3811 -0.7037  0.3682
12220SOL    HW137201   5.020   6.184   5.039 -0.1270 -0.3043  0.4359
12220SOL    HW237202   5.123   6.161   4.931 -1.0035 -1.7778 -0.1210
12221SOL     OW37203   2.970   2.483   5.683 -0.0912  0.0620  0.7491
12221SOL    HW137204   3.045   2.459   5.738  1.5662 -0.8252 -1.7177
12221SOL    HW237205   2.924   2.400   5.669 -1.6163  0.6056  2.2613
12222SOL     OW37206   6.145   1.939   0.016  0.3025 -0.0871  0.3361
12222SOL    HW137207   6.199   1.928  -0.062  1.1262  0.6124  0.7937
12222SOL    HW237208   6.084   2.009  -0.006 -0.0701 -0.5014  0.0168
12223SOL     OW37209   7.110   3.790   1.952  0.3516 -0.4043 -0.1618
12223SOL    HW137210   7.172   3.801   1.881 -0.4206 -0.6471 -0.8961
12223SOL    HW237211   7.038   3.850   1.931  1.0005  1.0523  1.4882
12224SOL     OW37212   0.153   1.750   6.280  0.3836 -0.1201  0.2033
12224SOL    HW137213   0.067   1.792   6.288 -0.0393 -0.9487  0.1341
12224SOL    HW237214   0.203   1.809   6.223 -0.6558 -0.3879 -1.0478
12225SOL     OW37215   5.452   2.091   4.238  0.0909  0.2702  1.1731
12225SOL    HW137216   5.524   2.041   4.200 -1.2379  0.1118 -1.3613
12225SOL    HW237217   5.479   2.182   4.229 -0.5689  0.3124 -1.2772
12226SOL     OW37218   5.746   4.598   6.184 -1.0234 -0.1592 -0.1635
12226SOL    HW137219   5.823   4.655   6.190 -0.3228 -1.1208  0.2833
12226SOL    HW237220   5.723   4.599   6.091 -0.9323  0.7303 -0.1817
12227SOL     OW37221   6.678   3.750   5.234  0.1597 -0.2669  0.4919
12227SOL    HW137222   6.736   3.677   5.214  1.1057  0.3040  1.0743
12227SOL    HW237223   6.734   3.828   5.228 -0.4776  0.2751  1.3330
12228SOL     OW37224   1.992   0.779   7.524 -0.6630  0.0221 -0.6327
12228SOL    HW137225   2.043   0.823   7.592 -1.2943 -1.0019  0.5512
12228SOL    HW237226   2.046   0.783   7.446  1.3587 -1.2203  0.6202
12229SOL     OW37227   2.544   4.889   2.926  0.1327  0.1677 -0.1438
12229SOL    HW137228   2.491   4.964   2.897 -0.6328  0.4971  1.9230
12229SOL    HW237229   2.537   4.826   2.854 -0.8425  1.2999 -1.0871
12230SOL     OW37230   4.658   5.089   6.847  0.7992  0.4963  0.3346
12230SOL    HW137231   4.645   4.995   6.855  1.1779  0.5182  1.3736
12230SOL    HW237232   4.724   5.110   6.913 -0.1738  1.6693  0.9770
12231SOL     OW37233   4.455   0.217   6.417  0.5613 -0.0390 -0.6807
12231SOL    HW137234   4.391   0.186   6.353 -2.3686 -0.0574  1.9503
12231SOL    HW237235   4.505   0.138   6.440 -0.0785 -0.6011 -1.1525
12232SOL     OW37236   0.079   4.425   5.490 -0.1147 -0.0824 -0.1141
12232SOL    HW137237   0.164   4.381   5.498  1.1823  2.2336 -0.2100
12232SOL    HW237238   0.046   4.428   5.580 -0.2993 -1.3125 -0.1208
12233SOL     OW37239   3.565   3.191   3.294  0.4153 -0.3492  0.1945
12233SOL    HW137240   3.549   3.197   3.200  1.2216  0.0351  0.0691
12233SOL    HW237241   3.636   3.128   3.302 -0.4940 -1.3424  0.6579
12234SOL     OW37242   0.705   7.169   1.416  0.1334 -0.4284 -0.0104
12234SOL    HW137243   0.632   7.137   1.470 -0.0651  1.2339  0.7999
12234SOL    HW237244   0.761   7.217   1.478  0.7505  0.1743 -1.0036
12235SOL     OW37245   7.223   1.659   2.141  0.3549 -0.7710  0.2513
12235SOL    HW137246   7.193   1.743   2.177  0.3956  0.0819 -1.5634
12235SOL    HW237247   7.166   1.594   2.180 -0.2175  0.1912  1.0837
12236SOL     OW37248   2.210   7.595   4.499 -0.0751  0.5950  0.4746
12236SOL    HW137249   2.167   7.587   4.414  0.5016 -0.4337  0.2695
12236SOL    HW237250   2.147   7.559   4.561  0.4628 -0.8985  0.1769
12237SOL     OW37251   3.039   4.631   6.682  0.0412 -0.1246 -0.8838
12237SOL    HW137252   2.962   4.613   6.629 -1.1944  0.9498  0.4673
12237SOL    HW237253   3.051   4.726   6.677 -1.5415  0.3933  2.4841
12238SOL     OW37254   4.253   3.720   2.221  0.4532 -0.2684  0.0349
12238SOL    HW137255   4.203   3.801   2.207  0.1461 -0.6354 -1.0176
12238SOL    HW237256   4.239   3.700   2.314 -0.1644  0.4219  0.1026
12239SOL     OW37257   6.170   1.471   7.451 -0.3993 -0.4139 -0.2090
12239SOL    HW137258   6.156   1.402   7.387  1.4494 -0.1776 -0.9275
12239SOL    HW237259   6.228   1.533   7.407 -1.7685  1.4882  0.5073
12240SOL     OW37260   3.361   0.571   4.182 -0.8451 -0.6035 -0.4090
12240SOL    HW137261   3.385   0.632   4.252  0.7167 -1.0243 -0.5314
12240SOL    HW237262   3.267   0.558   4.193 -1.0276  0.9915  0.2685
12241SOL     OW37263   6.084   7.544   3.557 -0.6030 -0.2641 -0.2038
12241SOL    HW137264   6.096   7.634   3.527  2.4161 -0.9096 -1.2098
12241SOL    HW237265   6.054   7.496   3.480 -1.6417 -0.2701  0.1855
12242SOL     OW37266   4.981   7.291   3.423  0.6137 -0.1544  0.3303
12242SOL    HW137267   4.911   7.333   3.373 -0.5868 -1.3937  0.9071
12242SOL    HW237268   4.992   7.347   3.500 -2.0631 -1.5839  1.8943
12243SOL     OW37269   0.577   3.060   7.102 -0.4854  0.0808 -0.0672
12243SOL    HW137270   0.598   3.003   7.176  2.3047  1.8458  0.6641
12243SOL    HW237271   0.596   3.148   7.134 -1.9215  1.1777 -2.0386
12244SOL     OW37272   7.356   6.129   0.693 -0.0635  0.8246  0.4662
12244SOL    HW137273   7.325   6.180   0.768 -1.6191  1.0866 -0.3132
12244SOL    HW237274   7.323   6.041   0.708 -0.1342  0.8109  0.2425
12245SOL     OW37275   4.578   5.424   0.874 -0.1348 -0.3502  0.4140
12245SOL    HW137276   4.495   5.470   0.883 -0.0779 -0.4570  1.7557
12245SOL    HW237277   4.560   5.336   0.908 -0.3735 -1.5554 -2.5352
12246SOL     OW37278   3.502   4.285   7.125  0.0735  0.0924  0.3933
12246SOL    HW137279   3.565   4.357   7.114  0.7705 -0.7767 -2.1192
12246SOL    HW237280   3.460   4.278   7.039 -0.6876 -1.8529  0.8839
12247SOL     OW37281   4.930   0.334   1.367 -0.1943 -0.4623  0.0199
12247SOL    HW137282   4.866   0.293   1.309 -0.9557 -1.3355  1.4080
12247SOL    HW237283   4.880   0.403   1.412  0.7371  1.1573 -1.3160
12248SOL     OW37284   2.404   5.605   5.012  0.4884  0.2225  0.3463
12248SOL    HW137285   2.399   5.697   5.036  0.6696  0.0204  1.2008
12248SOL    HW237286   2.339   5.594   4.942  0.7991  1.0871 -0.0797
12249SOL     OW37287   1.539   4.716   5.375 -0.3106  0.3081 -0.4724
12249SOL    HW137288   1.609   4.651   5.364 -1.1014 -0.5022 -0.7795
12249SOL    HW237289   1.546   4.742   5.467 -0.5176 -0.8385 -0.1115
12250SOL     OW37290   3.217   6.482   1.767 -0.8676 -0.1543  0.0248
12250SOL    HW137291   3.193   6.453   1.679 -0.5039 -1.0816  0.2151
12250SOL    HW237292   3.150   6.547   1.791 -0.0837  1.3040 -1.5371
12251SOL     OW37293   3.441   1.381   4.948  0.0239 -0.1025 -0.0888
12251SOL    HW137294   3.361   1.425   4.977  1.0578  1.8109 -0.0293
12251SOL    HW237295   3.431   1.371   4.854 -0.6854 -0.7555  0.0465
12252SOL     OW37296   2.685   1.660   3.219 -0.1105 -0.2278 -0.9033
12252SOL    HW137297   2.663   1.654   3.126 -2.0315  0.3852 -0.5417
12252SOL    HW237298   2.695   1.569   3.248 -2.2921 -0.5925 -1.1479
12253SOL     OW37299   1.012   0.647   2.857  0.0779  0.4049  0.0079
12253SOL    HW137300   1.002   0.740   2.840  0.2426  0.6378  1.1447
12253SOL    HW237301   0.960   0.605   2.788 -1.2858  1.3761  0.3855
12254SOL     OW37302   6.118   0.750   2.724 -0.1677  0.2173 -0.2041
12254SOL    HW137303   6.198   0.716   2.765 -0.0300  2.5936  1.7036
12254SOL    HW237304   6.149   0.818   2.665 -0.7087  0.3074 -0.3887
12255SOL     OW37305   2.587   3.547   5.794 -0.2918 -0.0466  0.6939
12255SOL    HW137306   2.655   3.572   5.731  0.1432  0.0910  1.2055
12255SOL    HW237307   2.506   3.578   5.755 -0.2150 -1.2354 -0.4733
12256SOL     OW37308   1.883   5.598   6.777 -0.1092 -0.1502 -0.1878
12256SOL    HW137309   1.960   5.649   6.800 -1.1649  0.9158  1.2536
12256SOL    HW237310   1.813   5.663   6.767 -0.9518 -1.1208 -0.8756
12257SOL     OW37311   1.262   5.160   3.960  0.4295 -0.5144 -0.2650
12257SOL    HW137312   1.357   5.163   3.969  0.3880  1.2287 -0.1059
12257SOL    HW237313   1.230   5.229   4.018 -1.0026 -1.6948  0.4022
12258SOL     OW37314   3.399   6.535   2.999 -0.0839 -0.3934  0.4353
12258SOL    HW137315   3.346   6.549   3.077  0.9001 -0.2359  1.0898
12258SOL    HW237316   3.475   6.486   3.030  0.2468 -0.4723 -0.4585
12259SOL     OW37317   5.180   0.872   7.381  0.1177 -0.3786 -0.2164
12259SOL    HW137318   5.104   0.927   7.400  1.7372  1.9410  0.0798
12259SOL    HW237319   5.245   0.898   7.447  1.0409 -2.5892 -0.1767
12260SOL     OW37320   2.161   7.169   6.644 -0.0771 -0.1277  0.3068
12260SOL    HW137321   2.205   7.225   6.580  0.1958 -1.8503 -1.0925
12260SOL    HW237322   2.108   7.229   6.697  0.9570  1.5391 -0.4669
12261SOL     OW37323   3.665   6.652   0.625 -0.5834 -0.3469 -0.1583
12261SOL    HW137324   3.625   6.704   0.695 -0.3751  0.2188 -0.4556
12261SOL    HW237325   3.602   6.581   0.609 -1.1207  0.1102 -0.1142
12262SOL     OW37326   6.049   0.978   4.437  0.4545  0.5289 -0.0793
12262SOL    HW137327   5.986   1.047   4.462 -1.0550 -0.8696  0.1433
12262SOL    HW237328   6.049   0.982   4.341  0.2561  0.7386 -0.0751
12263SOL     OW37329   2.169   3.853   6.993 -0.1825 -0.4568 -0.5372
12263SOL    HW137330   2.120   3.780   7.030 -1.6829  0.5177 -0.5449
12263SOL    HW237331   2.142   3.929   7.044 -1.6526  0.7820 -2.9986
12264SOL     OW37332   2.046   4.906   0.607  0.0984 -0.0591 -0.1292
12264SOL    HW137333   2.106   4.845   0.564 -0.1282 -0.3488 -0.0357
12264SOL    HW237334   1.965   4.856   0.619 -0.5307  0.6521 -1.2000
12265SOL     OW37335   2.279   4.491   0.771 -0.2468  0.4927  0.0548
12265SOL    HW137336   2.243   4.569   0.815 -2.4180 -0.3378 -0.1393
12265SOL    HW237337   2.354   4.466   0.825 -2.0278  0.2923  2.6050
12266SOL     OW37338   3.120   0.857   1.457  0.3631 -0.0202 -0.6385
12266SOL    HW137339   3.173   0.934   1.474  2.4746 -1.6555  0.7041
12266SOL    HW237340   3.035   0.877   1.498  1.0159  1.3862  0.0850
12267SOL     OW37341   0.958   5.647   2.926 -0.6501 -0.2550 -0.0194
12267SOL    HW137342   0.991   5.725   2.971  0.5655  0.0803 -1.4086
12267SOL    HW237343   0.884   5.618   2.980 -0.4154  1.1756  1.1549
12268SOL     OW37344   7.004   1.785   1.636 -0.6621  0.1490  0.0115
12268SOL    HW137345   7.044   1.864   1.600 -0.2744  0.3117  0.7837
12268SOL    HW237346   7.008   1.796   1.731  2.0787 -2.0413  0.2932
12269SOL     OW37347   7.098   5.637   1.006 -0.0006  0.5281 -0.0353
12269SOL    HW137348   7.020   5.619   1.059 -0.1182  2.3138  0.4757
12269SOL    HW237349   7.123   5.726   1.030  1.5537  0.3962 -1.0192
12270SOL     OW37350   1.217   5.245   2.117 -0.1103 -0.8126  0.0984
12270SOL    HW137351   1.222   5.305   2.043  0.8513 -0.5444  0.3698
12270SOL    HW237352   1.290   5.270   2.173 -0.6460 -1.2084  0.9971
12271SOL     OW37353   2.470   6.167   4.483 -0.6298  0.2801 -0.2268
12271SOL    HW137354   2.394   6.226   4.476 -1.2297 -0.5734 -1.0726
12271SOL    HW237355   2.462   6.129   4.571 -0.5144  1.0803  0.1370
12272SOL     OW37356   0.295   2.360   2.335 -0.4151  0.3156  0.3852
12272SOL    HW137357   0.206   2.327   2.318 -0.4481  0.6638 -0.1449
12272SOL    HW237358   0.349   2.315   2.270 -0.5448  1.6901 -0.7166
12273SOL     OW37359   4.284   6.112   5.203  0.1119 -0.3235 -0.0422
12273SOL    HW137360   4.210   6.084   5.150 -0.1172 -0.1435  0.1839
12273SOL    HW237361   4.322   6.185   5.155  1.2159 -1.5178 -1.0683
12274SOL     OW37362   3.175   4.796   4.567  0.0046  0.3411  0.1097
12274SOL    HW137363   3.224   4.832   4.494  0.9575  1.9252  1.4455
12274SOL    HW237364   3.239   4.744   4.616  0.2384  1.7823  1.4347
12275SOL     OW37365   2.710   7.033   4.879 -0.8561 -0.2816 -0.0455
12275SOL    HW137366   2.665   7.114   4.854  0.9871  0.8969  0.3002
12275SOL    HW237367   2.771   7.016   4.808  0.2541 -0.1689  0.8541
12276SOL     OW37368   3.285   6.856   3.954 -0.2632 -0.0296 -0.3532
12276SOL    HW137369   3.314   6.936   3.911 -0.8050 -0.7075 -2.0408
12276SOL    HW237370   3.322   6.785   3.901  0.1855 -0.9267  1.0929
12277SOL     OW37371   4.222   0.606   4.966  0.4823 -0.0189  0.1428
12277SOL    HW137372   4.181   0.610   4.879  0.3277  0.8266  0.2410
12277SOL    HW237373   4.270   0.688   4.973  0.3989 -0.0286  0.9007
12278SOL     OW37374   6.192   6.537   4.523  0.4486  0.4772  0.3607
12278SOL    HW137375   6.220   6.446   4.514  1.0213  0.6488  0.4304
12278SOL    HW237376   6.228   6.566   4.606 -0.2054  0.6003  0.6082
12279SOL     OW37377   6.562   7.079   2.640 -0.2645 -0.2990 -0.0288
12279SOL    HW137378   6.478   7.110   2.672 -1.5432 -2.1419 -1.4160
12279SOL    HW237379   6.574   7.126   2.557  0.6341  0.7241  0.6386
12280SOL     OW37380   7.048   0.065   1.494 -0.0251 -0.1934  0.1108
12280SOL    HW137381   7.137   0.062   1.460  0.1014  0.7262  0.3267
12280SOL    HW237382   7.056   0.044   1.587  0.1660  1.2822  0.4465
12281SOL     OW37383   2.436   0.313   4.657 -0.1231 -0.2862  0.2722
12281SOL    HW137384   2.467   0.283   4.571  1.1284  0.8107  0.2935
12281SOL    HW237385   2.378   0.387   4.637 -2.7720 -2.2283  0.2437
12282SOL     OW37386   1.014   0.331   0.341 -0.3175  0.1189  0.0828
12282SOL    HW137387   1.042   0.404   0.396 -1.3585  0.0486  0.7283
12282SOL    HW237388   1.055   0.254   0.382 -2.7446 -0.2366  2.1317
12283SOL     OW37389   1.751   0.458   3.642  0.1263  0.2875  0.1189
12283SOL    HW137390   1.664   0.430   3.613 -0.1187  0.3419  0.7862
12283SOL    HW237391   1.743   0.552   3.654  0.5793  0.4576 -0.8286
12284SOL     OW37392   4.392   4.836   6.270 -0.5790  0.1738 -0.3486
12284SOL    HW137393   4.426   4.905   6.327  1.2164 -1.3469  0.5243
12284SOL    HW237394   4.466   4.779   6.254 -1.5966 -0.6601 -2.4619
12285SOL     OW37395   6.553   2.772   0.359 -0.0343  0.4246 -0.4653
12285SOL    HW137396   6.513   2.807   0.279  0.7909  0.9839 -0.6491
12285SOL    HW237397   6.480   2.735   0.408 -0.6760  0.8293 -1.0895
12286SOL     OW37398   1.041   4.364   3.171 -0.9142  0.2037 -0.2493
12286SOL    HW137399   0.981   4.328   3.236  0.6122 -1.9452  0.0695
12286SOL    HW237400   0.994   4.358   3.088 -2.1429  1.1459  0.3585
12287SOL     OW37401   5.871   6.242   7.430  0.0595  0.2039 -0.7215
12287SOL    HW137402   5.911   6.328   7.439 -0.8654  0.5628  0.1431
12287SOL    HW237403   5.788   6.249   7.477  0.6828 -1.6301  0.7868
12288SOL     OW37404   4.383   1.944   1.352 -0.6225  0.0772  0.3959
12288SOL    HW137405   4.350   1.855   1.365  0.6081 -0.4414  0.0967
12288SOL    HW237406   4.354   1.968   1.264  1.1215 -0.9994 -0.5191
12289SOL     OW37407   7.183   3.163   5.570 -0.2567 -0.0512  0.6649
12289SOL    HW137408   7.272   3.172   5.604  0.3775 -0.5895 -0.7770
12289SOL    HW237409   7.128   3.159   5.648  1.1354 -1.4119  1.6355
12290SOL     OW37410   3.293   5.328   0.315 -0.3454  0.5043 -0.0844
12290SOL    HW137411   3.200   5.349   0.324 -1.0715 -2.6438  1.3204
12290SOL    HW237412   3.333   5.362   0.395 -0.8165 -0.3179  0.5182
12291SOL     OW37413   0.870   7.351   1.557  0.4625 -0.2762 -0.2107
12291SOL    HW137414   0.959   7.317   1.550  0.8887  0.8795 -0.5968
12291SOL    HW237415   0.863   7.416   1.487 -0.1173  0.8396  0.8395
12292SOL     OW37416   3.269   2.665   7.303  0.1679 -0.0088  0.0721
12292SOL    HW137417   3.279   2.579   7.343 -1.9919  0.0831  0.9090
12292SOL    HW237418   3.351   2.711   7.324  2.5591 -2.6051 -2.5658
12293SOL     OW37419   0.954   3.978   2.506 -0.7158 -0.6857  0.4531
12293SOL    HW137420   1.005   3.902   2.535  1.2068  0.0389 -0.8610
12293SOL    HW237421   0.863   3.951   2.519 -0.0585 -2.4378  1.8957
12294SOL     OW37422   2.278   0.860   3.016  0.4080  0.0479  0.3536
12294SOL    HW137423   2.208   0.923   3.033  1.2986  1.3334 -0.5475
12294SOL    HW237424   2.245   0.777   3.050 -0.3619  1.2129  2.6414
12295SOL     OW37425   1.031   4.171   7.470 -0.2933  0.9079 -0.1490
12295SOL    HW137426   1.029   4.219   7.387  0.9649  0.6924 -0.3278
12295SOL    HW237427   1.109   4.204   7.515 -2.1111  2.6636  1.9880
12296SOL     OW37428   4.981   2.150   7.308 -0.1845  0.3713 -0.1535
12296SOL    HW137429   4.933   2.128   7.388  0.3490  0.3577  0.1713
12296SOL    HW237430   4.945   2.234   7.280 -0.0965  0.5741  0.3321
12297SOL     OW37431   1.439   6.553   6.601 -0.4797 -0.1253  0.1555
12297SOL    HW137432   1.391   6.567   6.519 -1.4982 -0.4178  0.6895
12297SOL    HW237433   1.467   6.640   6.627 -1.6824  0.2130  0.3995
12298SOL     OW37434   4.494   2.159   1.534  0.1787 -0.5105  0.3852
12298SOL    HW137435   4.439   2.104   1.477  0.5427  0.1061 -0.5817
12298SOL    HW237436   4.465   2.249   1.516  1.2306 -0.2030  0.1462
12299SOL     OW37437   5.708   6.839   4.150  0.1165  0.1487  0.1206
12299SOL    HW137438   5.655   6.787   4.210 -1.4259 -0.3088 -1.5604
12299SOL    HW237439   5.695   6.929   4.179 -1.0083 -0.0214  0.1968
12300SOL     OW37440   3.445   0.137   5.390 -0.0524  0.5630  0.6825
12300SOL    HW137441   3.389   0.065   5.360  0.8323 -0.0731  0.5165
12300SOL    HW237442   3.514   0.143   5.324  0.1129  1.2979  0.9127
12301SOL     OW37443   2.129   6.248   4.734 -0.1794 -0.3353  0.4906
12301SOL    HW137444   2.057   6.229   4.793 -0.4242 -1.0163 -0.0096
12301SOL    HW237445   2.089   6.300   4.664 -0.2623 -0.9628  0.0603
12302SOL     OW37446   3.247   4.764   1.108  0.2790 -0.3738 -0.1297
12302SOL    HW137447   3.330   4.716   1.116  0.7671  0.3551 -0.6548
12302SOL    HW237448   3.193   4.709   1.051  1.1825  0.1235 -1.5223
12303SOL     OW37449   3.072   6.389   3.812 -0.2439 -0.1216  0.1432
12303SOL    HW137450   2.991   6.362   3.854 -1.3863  0.5219 -1.5267
12303SOL    HW237451   3.059   6.482   3.791 -0.2819 -0.6372 -2.5987
12304SOL     OW37452   6.676   3.223   2.981 -0.2076 -0.5316 -0.6110
12304SOL    HW137453   6.762   3.182   2.990 -0.1662 -0.5752 -1.1613
12304SOL    HW237454   6.665   3.236   2.886 -1.6391 -2.2967 -0.7413
12305SOL     OW37455   3.003   2.780   1.535  0.6381 -0.1732  0.8639
12305SOL    HW137456   3.086   2.826   1.552  0.7496 -0.1001  0.1629
12305SOL    HW237457   3.028   2.703   1.484  0.1463  0.5799 -0.5647
12306SOL     OW37458   3.541   0.166   4.712 -0.3860 -0.8800 -0.3906
12306SOL    HW137459   3.627   0.124   4.713  0.4438  0.7406  1.2398
12306SOL    HW237460   3.494   0.125   4.785 -0.5296 -0.8611 -0.4736
12307SOL     OW37461   1.649   1.713   1.695 -0.1833 -0.0112  0.9984
12307SOL    HW137462   1.563   1.747   1.672 -1.1034 -1.6601  1.7962
12307SOL    HW237463   1.651   1.625   1.658  1.6487  0.4110 -0.0207
12308SOL     OW37464   3.272   4.972   1.268  0.6549 -0.4416 -0.1590
12308SOL    HW137465   3.288   4.899   1.209 -0.5390 -1.6315  0.9157
12308SOL    HW237466   3.179   4.991   1.258 -0.0480 -1.8610  2.5056
12309SOL     OW37467   5.682   4.218   5.256  0.0336 -0.0579 -0.7060
12309SOL    HW137468   5.749   4.286   5.265 -0.1489 -0.0129  0.3624
12309SOL    HW237469   5.732   4.137   5.244  0.2610  0.1270 -1.0323
12310SOL     OW37470   1.160   7.291   4.888 -0.3215 -0.2371  1.0407
12310SOL    HW137471   1.252   7.275   4.869 -0.3839 -0.8722  1.2358
12310SOL    HW237472   1.157   7.300   4.984 -0.6869 -1.8971  1.2143
12311SOL     OW37473   0.348   3.233   2.727  0.7296 -0.2222  0.1168
12311SOL    HW137474   0.422   3.227   2.666  0.5205  0.3080 -0.1910
12311SOL    HW237475   0.271   3.220   2.672  0.6010 -1.1583  0.4965
12312SOL     OW37476   0.325   5.762   1.814  0.3262 -0.1396  0.1006
12312SOL    HW137477   0.379   5.731   1.887 -0.4297 -2.3998 -0.2205
12312SOL    HW237478   0.255   5.812   1.856  0.8658  0.0774  0.7675
12313SOL     OW37479   0.442   3.746   6.411 -0.0938 -0.1964  0.0890
12313SOL    HW137480   0.502   3.813   6.445  0.8643 -0.9207 -0.1216
12313SOL    HW237481   0.396   3.714   6.488  0.1526  0.0192  0.3293
12314SOL     OW37482   6.168   2.388   4.913 -0.0017 -0.3524  0.4231
12314SOL    HW137483   6.207   2.303   4.930 -0.4314 -0.3559  1.5361
12314SOL    HW237484   6.107   2.373   4.841  0.7946 -0.7100 -0.1897
12315SOL     OW37485   3.900   7.553   2.890 -0.6396 -0.3182 -0.1134
12315SOL    HW137486   3.848   7.625   2.925 -0.0385  0.1075 -0.0618
12315SOL    HW237487   3.970   7.597   2.841 -0.2029 -0.8660  0.0081
12316SOL     OW37488   4.869   4.105   2.000 -0.0676  0.1634 -0.4964
12316SOL    HW137489   4.953   4.132   1.963 -0.6833 -1.2332 -3.2010
12316SOL    HW237490   4.892   4.045   2.071  1.2023  0.6556 -0.4701
12317SOL     OW37491   2.357   4.199   1.118 -0.0778  0.4365  0.0004
12317SOL    HW137492   2.414   4.123   1.115 -1.6905 -0.8099 -0.2866
12317SOL    HW237493   2.328   4.204   1.209 -1.0641 -0.1472 -0.2744
12318SOL     OW37494   4.236   1.862   7.147  0.3885 -0.1775  0.1756
12318SOL    HW137495   4.303   1.912   7.193  0.3382 -0.9251  1.0964
12318SOL    HW237496   4.155   1.882   7.193  0.3112 -0.8354  0.3360
12319SOL     OW37497   1.498   6.657   5.505 -0.5180  0.1885 -0.2470
12319SOL    HW137498   1.488   6.589   5.439  0.1290  0.5578 -0.7414
12319SOL    HW237499   1.564   6.622   5.565  1.3320  1.1575 -1.6044
12320SOL     OW37500   1.408   1.221   4.250 -0.1727  0.5450 -0.5527
12320SOL    HW137501   1.390   1.315   4.257 -0.4250  0.5479 -1.1459
12320SOL    HW237502   1.356   1.180   4.318 -0.8952  0.7399 -0.9800
12321SOL     OW37503   4.321   2.661   1.242 -0.3060  0.2599 -0.5053
12321SOL    HW137504   4.287   2.747   1.220  1.9800  1.5067  0.5160
12321SOL    HW237505   4.393   2.678   1.302 -0.8434 -2.4909  1.0779
12322SOL     OW37506   5.743   2.043   5.343 -0.3994 -0.0833 -0.0050
12322SOL    HW137507   5.686   2.034   5.420 -2.1185 -0.2397 -1.2277
12322SOL    HW237508   5.700   2.109   5.289 -0.0910 -1.0802 -1.5440
12323SOL     OW37509   4.288   3.568   3.737  0.2796  0.3892  0.3949
12323SOL    HW137510   4.291   3.517   3.656  2.4943  0.4496  0.3689
12323SOL    HW237511   4.200   3.552   3.772 -0.2146 -0.8266 -1.2552
12324SOL     OW37512   4.479   5.034   2.508 -0.5023  0.0019  0.5802
12324SOL    HW137513   4.546   4.974   2.541 -0.1592  0.6758  1.1211
12324SOL    HW237514   4.509   5.058   2.421 -1.2546 -1.5418 -0.1530
12325SOL     OW37515   3.186   1.056   5.834  0.1611  0.2759  1.0765
12325SOL    HW137516   3.199   1.101   5.751 -0.0422 -0.7367  0.4849
12325SOL    HW237517   3.098   1.083   5.862  0.2868  0.7308  1.0371
12326SOL     OW37518   0.723   2.093   7.395  0.5866 -0.0591  0.2421
12326SOL    HW137519   0.690   2.091   7.305 -1.2603 -0.7659  0.9017
12326SOL    HW237520   0.690   2.175   7.432 -2.4853 -1.7132  1.5589
12327SOL     OW37521   4.488   6.594   3.374  0.0169  0.1860  0.1316
12327SOL    HW137522   4.485   6.558   3.286  1.3598  1.6881 -0.5797
12327SOL    HW237523   4.572   6.563   3.410  0.0288  0.5532  0.4316
12328SOL     OW37524   0.210   2.993   3.581  0.1041  0.2426 -0.3251
12328SOL    HW137525   0.199   3.047   3.502  2.5318  1.9955  0.4044
12328SOL    HW237526   0.252   2.913   3.549 -0.0035  0.4317 -0.9567
12329SOL     OW37527   7.481   2.121   3.762  0.2856  0.3074 -0.1937
12329SOL    HW137528   7.494   2.213   3.784  1.0215  0.0430  0.5158
12329SOL    HW237529   7.389   2.104   3.783 -0.4769  1.3974 -2.3150
12330SOL     OW37530   5.195   4.023   1.854  0.0838 -0.5532 -0.0404
12330SOL    HW137531   5.124   4.077   1.820  0.5520  0.0066 -0.1467
12330SOL    HW237532   5.244   4.082   1.911  0.8850 -0.7304 -0.5377
12331SOL     OW37533   1.032   3.012   0.063  0.7330 -0.3452  0.2870
12331SOL    HW137534   0.974   3.032   0.137  0.1140 -2.3310  0.4064
12331SOL    HW237535   1.120   3.021   0.099  0.5437  1.8674  0.3400
12332SOL     OW37536   5.051   7.474   3.661 -0.0997  0.3285  0.4212
12332SOL    HW137537   5.069   7.397   3.715 -0.2112 -0.1430 -0.2014
12332SOL    HW237538   5.038   7.545   3.723  0.2881 -0.0979  0.9938
12333SOL     OW37539   4.286   5.413   2.463 -0.0315  0.1881 -0.6863
12333SOL    HW137540   4.328   5.361   2.531 -2.8791 -2.6905 -0.8768
12333SOL    HW237541   4.350   5.415   2.392  1.0338 -1.1938  0.1877
12334SOL     OW37542   0.667   7.455   5.431  0.4744 -0.3364 -0.3635
12334SOL    HW137543   0.639   7.514   5.361  2.5147  1.0780 -0.0868
12334SOL    HW237544   0.736   7.401   5.392  1.9609  0.7825  0.5688
12335SOL     OW37545   1.413   7.434   3.743 -0.3622  0.0145 -0.0990
12335SOL    HW137546   1.446   7.523   3.734 -2.6989  1.0811  1.0320
12335SOL    HW237547   1.447   7.388   3.666  3.2705  1.0196  0.7332
12336SOL     OW37548   6.124   5.133   0.750  0.7743 -0.1967  0.1740
12336SOL    HW137549   6.142   5.219   0.713 -0.3147 -0.0745 -0.0914
12336SOL    HW237550   6.135   5.072   0.677  0.9558 -0.2228  0.2214
12337SOL     OW37551   7.332   3.992   2.688 -0.1158  0.4300 -0.7430
12337SOL    HW137552   7.363   3.984   2.779  1.0739 -1.3168 -1.2443
12337SOL    HW237553   7.389   4.057   2.648  0.7347 -0.2956 -0.7520
12338SOL     OW37554   5.234   5.821   2.530 -0.5114  0.1701 -0.3900
12338SOL    HW137555   5.151   5.844   2.487 -1.8960 -0.2132  1.8893
12338SOL    HW237556   5.248   5.892   2.593 -0.0944 -0.6981  0.5074
12339SOL     OW37557   6.717   1.167   3.932  0.1098 -0.8380  0.0998
12339SOL    HW137558   6.731   1.161   4.027  2.3442 -1.0571 -0.1912
12339SOL    HW237559   6.755   1.252   3.908  0.3339 -1.1604 -0.7105
12340SOL     OW37560   5.884   3.308   3.075  0.5782  0.0647 -0.4093
12340SOL    HW137561   5.974   3.279   3.063  0.6271 -0.2399  0.5918
12340SOL    HW237562   5.852   3.258   3.151 -0.4053  0.2283 -0.6919
12341SOL     OW37563   5.170   2.800   1.783  0.5857 -0.0936 -0.4069
12341SOL    HW137564   5.186   2.766   1.871 -1.5282  0.2265  0.1613
12341SOL    HW237565   5.202   2.731   1.724  3.4979  0.3566  0.5143
12342SOL     OW37566   3.179   3.042   6.938  0.4458 -0.1454 -0.1004
12342SOL    HW137567   3.266   3.082   6.940 -0.1995  1.3245  0.5097
12342SOL    HW237568   3.119   3.116   6.946 -1.0710 -0.6165 -4.5857
12343SOL     OW37569   6.197   7.268   0.615 -0.5633 -0.1031 -0.1315
12343SOL    HW137570   6.104   7.288   0.630  0.1481  1.7146  2.7433
12343SOL    HW237571   6.239   7.287   0.699  2.4181 -1.0429 -1.2881
12344SOL     OW37572   4.897   4.108   5.180 -0.5196  0.3458  0.5755
12344SOL    HW137573   4.953   4.182   5.156 -0.6921  0.3356  0.1335
12344SOL    HW237574   4.824   4.148   5.228 -0.1505  0.3613  1.1305
12345SOL     OW37575   6.033   0.555   5.618  0.0304  0.4122  0.0975
12345SOL    HW137576   5.984   0.625   5.660  0.7080  1.1785 -0.3592
12345SOL    HW237577   5.967   0.504   5.570 -0.4816  0.6659  0.5313
12346SOL     OW37578   6.290   4.266   6.118  0.4985  0.6001  0.5486
12346SOL    HW137579   6.209   4.313   6.138  0.8997  1.2617  0.6433
12346SOL    HW237580   6.261   4.182   6.084 -0.2310  0.9388  0.3171
12347SOL     OW37581   6.352   7.088   1.922 -0.6684  0.4590 -0.2929
12347SOL    HW137582   6.377   7.067   1.832  0.4937 -0.6449  0.2495
12347SOL    HW237583   6.258   7.101   1.919 -0.4756  1.7464 -1.8955
12348SOL     OW37584   4.909   1.495   0.218  0.1997 -0.4301  0.3742
12348SOL    HW137585   4.979   1.509   0.154 -1.8130  1.1328 -1.6013
12348SOL    HW237586   4.846   1.440   0.173 -1.2097  0.5986  1.0344
12349SOL     OW37587   5.273   7.135   1.293  0.0738  0.6550 -0.3662
12349SOL    HW137588   5.215   7.187   1.238 -1.1580  0.6112  0.8501
12349SOL    HW237589   5.285   7.053   1.244 -1.0942  0.5724 -0.5371
12350SOL     OW37590   2.502   6.715   7.480  0.1173  0.2835 -0.0757
12350SOL    HW137591   2.432   6.722   7.416  0.2257  0.5083 -0.1728
12350SOL    HW237592   2.463   6.748   7.561  0.5494  1.8916 -0.4770
12351SOL     OW37593   0.791   4.209   0.272 -0.0026 -0.2433 -0.0586
12351SOL    HW137594   0.791   4.267   0.196  2.4270  1.8081  1.3547
12351SOL    HW237595   0.843   4.133   0.244  0.1876  0.1046 -0.6708
12352SOL     OW37596   0.464   5.521   4.566 -0.1661  0.0190 -0.0051
12352SOL    HW137597   0.445   5.605   4.607 -1.9344  0.1875 -1.0491
12352SOL    HW237598   0.456   5.457   4.637 -0.7684  0.5483  0.4108
12353SOL     OW37599   1.537   5.726   7.256  0.1975  0.2904  0.3191
12353SOL    HW137600   1.448   5.694   7.270  1.3140 -2.6834  1.3063
12353SOL    HW237601   1.544   5.738   7.161 -1.2103  0.5701  0.2289
12354SOL     OW37602   3.812   2.021   0.627  0.7917  0.1414  0.1536
12354SOL    HW137603   3.847   1.932   0.623  2.0704  0.6314 -0.0105
12354SOL    HW237604   3.760   2.030   0.548 -0.1910 -0.7873  0.6703
12355SOL     OW37605   2.196   2.789   4.476  0.0005 -0.5550  0.1696
12355SOL    HW137606   2.290   2.784   4.459 -0.1148 -1.6339 -0.2123
12355SOL    HW237607   2.155   2.765   4.392 -0.6460  1.6864 -0.2307
12356SOL     OW37608   1.579   1.770   4.801 -0.1995 -0.0753  0.5123
12356SOL    HW137609   1.559   1.679   4.824  0.2755 -0.2515  0.2524
12356SOL    HW237610   1.542   1.822   4.872 -1.1430 -0.4183  0.2829
12357SOL     OW37611   1.910   4.530   1.935  0.1742  0.1565 -0.1509
12357SOL    HW137612   1.844   4.471   1.972 -0.4538  0.4553 -0.7431
12357SOL    HW237613   1.974   4.543   2.004 -0.5289  0.0515  0.5310
12358SOL     OW37614   0.739   6.890   3.348 -0.1872 -0.0940  0.2285
12358SOL    HW137615   0.752   6.981   3.374  0.6489 -0.1767  0.1511
12358SOL    HW237616   0.685   6.895   3.269  0.5800  0.4022 -0.2842
12359SOL     OW37617   1.033   2.252   6.142 -0.1740 -0.3477  0.1203
12359SOL    HW137618   1.090   2.291   6.076  0.6773 -1.6135  0.0789
12359SOL    HW237619   0.963   2.316   6.154 -0.0512  0.1469 -1.5962
12360SOL     OW37620   2.438   4.407   4.407  0.0291  0.5267 -0.4331
12360SOL    HW137621   2.525   4.417   4.368 -0.2566  0.4109 -1.1235
12360SOL    HW237622   2.422   4.312   4.404  0.7060  0.2950  1.5634
12361SOL     OW37623   2.892   5.895   3.068 -0.2933  0.3287  0.0537
12361SOL    HW137624   2.820   5.885   3.130  0.0412 -1.0691  0.2650
12361SOL    HW237625   2.940   5.972   3.099 -0.5882  0.1176  1.0859
12362SOL     OW37626   7.169   3.715   4.766  0.1673  0.1158 -0.1873
12362SOL    HW137627   7.157   3.723   4.671  0.7761  1.1437 -0.1913
12362SOL    HW237628   7.087   3.678   4.797 -0.2038  0.1643 -1.0697
12363SOL     OW37629   6.563   7.546   4.031  0.2225 -0.2698 -0.0732
12363SOL    HW137630   6.561   7.451   4.036 -0.5164 -0.2613 -0.0248
12363SOL    HW237631   6.487   7.568   3.976 -1.7575  0.4566  2.7479
12364SOL     OW37632   2.184   1.663   2.160 -0.3284  0.3089 -0.0769
12364SOL    HW137633   2.219   1.721   2.228 -1.7207 -0.2084  1.1201
12364SOL    HW237634   2.123   1.717   2.110 -1.8109 -0.1277  1.1906
12365SOL     OW37635   2.626   1.656   4.483  0.3720  0.1725  0.2808
12365SOL    HW137636   2.647   1.653   4.576  1.1575  0.4802  0.1244
12365SOL    HW237637   2.572   1.579   4.468 -0.0900  0.3277  1.0626
12366SOL     OW37638   6.564   5.111   6.961 -0.1955  0.1084  0.2555
12366SOL    HW137639   6.585   5.203   6.975  1.8460 -0.4785  1.3403
12366SOL    HW237640   6.510   5.087   7.037  0.3557  0.0911  0.6452
12367SOL     OW37641   3.581   7.588   4.164  0.0269  0.2436 -0.1901
12367SOL    HW137642   3.564   7.607   4.257  0.6650  0.3387 -0.0879
12367SOL    HW237643   3.662   7.538   4.165  1.2183  2.0606 -0.8358
12368SOL     OW37644   7.097   0.821   5.891  0.2490 -0.5722  0.4898
12368SOL    HW137645   7.184   0.850   5.918  0.3181 -1.1569  0.9123
12368SOL    HW237646   7.113   0.747   5.832  0.0522 -0.3409  0.1426
12369SOL     OW37647   6.934   0.220   3.284  0.0799  0.0218  0.5071
12369SOL    HW137648   6.890   0.136   3.274 -0.7375  0.5609 -0.7353
12369SOL    HW237649   7.006   0.203   3.344  0.4279 -1.7579 -0.3589
12370SOL     OW37650   2.180   2.501   1.857 -0.1135 -0.1671  0.3363
12370SOL    HW137651   2.107   2.439   1.854 -0.2962  0.0866 -0.8076
12370SOL    HW237652   2.244   2.466   1.795 -0.5077  1.1170 -0.8496
12371SOL     OW37653   3.697   6.358   5.309 -0.4133  0.4144 -0.9467
12371SOL    HW137654   3.713   6.333   5.218 -0.7185 -1.5174 -0.5197
12371SOL    HW237655   3.603   6.346   5.320 -0.0587 -1.7798  0.2316
12372SOL     OW37656   2.901   6.108   1.430  0.0242  0.4033  0.2427
12372SOL    HW137657   2.821   6.100   1.378  0.3641  0.5628 -0.3193
12372SOL    HW237658   2.901   6.200   1.458 -0.6524  0.0781  1.3542
12373SOL     OW37659   6.387   1.934   3.916  0.0866 -0.0935 -0.2524
12373SOL    HW137660   6.298   1.902   3.903  0.2001 -0.2200 -0.7726
12373SOL    HW237661   6.386   1.978   4.001  0.0299 -1.8607  0.7178
12374SOL     OW37662   5.092   3.925   5.417  0.2757 -0.6514  0.0235
12374SOL    HW137663   5.168   3.939   5.359  1.2546  0.6465  1.5525
12374SOL    HW237664   5.017   3.928   5.358  1.3478 -1.3425 -1.4605
12375SOL     OW37665   0.407   7.285   4.130 -0.5987  0.0150  0.3308
12375SOL    HW137666   0.472   7.221   4.099  0.9751  1.2956  0.8141
12375SOL    HW237667   0.449   7.370   4.115 -1.0428  0.8111  3.1023
12376SOL     OW37668   1.446   0.571   0.372 -0.5524  0.1768 -0.2746
12376SOL    HW137669   1.493   0.601   0.294 -0.0178 -0.0865 -0.0515
12376SOL    HW237670   1.425   0.480   0.353 -1.0333  0.3102 -0.3995
12377SOL     OW37671   5.764   5.913   1.663 -0.1178 -0.0758 -0.3348
12377SOL    HW137672   5.727   5.878   1.745  0.0916  0.2202 -0.1132
12377SOL    HW237673   5.735   5.851   1.596 -1.0773  0.1900 -0.1780
12378SOL     OW37674   4.213   4.374   2.348 -0.4977  0.4929 -0.2339
12378SOL    HW137675   4.155   4.450   2.341 -1.3514  0.1240  1.9360
12378SOL    HW237676   4.178   4.311   2.285 -2.0216  0.5654  0.5005
12379SOL     OW37677   1.944   5.023   0.069  0.0285  0.0352 -0.1614
12379SOL    HW137678   1.917   5.114   0.054  0.2374  0.3395  1.1624
12379SOL    HW237679   1.873   4.984   0.118 -0.1114 -0.5702 -0.8262
12380SOL     OW37680   0.276   7.448   6.740 -0.3733 -0.5296  0.2071
12380SOL    HW137681   0.262   7.403   6.656  1.3096 -0.1095 -0.3279
12380SOL    HW237682   0.281   7.540   6.716 -0.6057 -0.3406  0.8790
12381SOL     OW37683   6.302   3.235   1.832 -0.1156  0.0223  0.2380
12381SOL    HW137684   6.311   3.330   1.844  0.2774  0.1290 -0.8225
12381SOL    HW237685   6.268   3.204   1.916  0.2086  1.0343  0.7647
12382SOL     OW37686   3.196   2.993   3.323 -0.1826  0.3260 -0.0404
12382SOL    HW137687   3.251   3.069   3.342  0.4206  0.0297 -0.5581
12382SOL    HW237688   3.198   2.942   3.404  0.4281  0.2492 -0.0957
12383SOL     OW37689   6.543   6.347   5.939 -0.4099  1.0727  0.2030
12383SOL    HW137690   6.548   6.292   6.017  1.7077  0.4991 -0.2766
12383SOL    HW237691   6.465   6.316   5.892  0.2538 -0.9583  0.3786
12384SOL     OW37692   7.232   2.072   3.856  0.6139 -0.3620 -0.4297
12384SOL    HW137693   7.256   1.980   3.862 -0.1110 -0.5427 -0.2369
12384SOL    HW237694   7.174   2.077   3.780  0.1932 -0.1639 -0.0991
12385SOL     OW37695   2.520   2.158   5.359 -0.0116  0.3310 -0.1082
12385SOL    HW137696   2.479   2.213   5.293 -0.8983 -0.1367  0.0497
12385SOL    HW237697   2.522   2.213   5.438 -1.0792  0.0741  0.1033
12386SOL     OW37698   2.562   1.557   6.211  0.1093 -0.1550  0.2020
12386SOL    HW137699   2.486   1.563   6.268 -1.8664 -0.3689 -2.2179
12386SOL    HW237700   2.592   1.648   6.201  1.2328 -0.2314  2.4050
12387SOL     OW37701   2.418   5.131   3.464  0.1460  0.4964  0.0804
12387SOL    HW137702   2.459   5.045   3.458 -1.1261 -0.0236 -1.9196
12387SOL    HW237703   2.491   5.192   3.468  1.1518 -0.4607 -2.2487
12388SOL     OW37704   4.868   1.193   2.643 -0.3697  0.2656  0.5526
12388SOL    HW137705   4.898   1.280   2.616 -0.4452 -0.0478 -0.5858
12388SOL    HW237706   4.782   1.184   2.603  0.8060 -1.4523 -1.8453
12389SOL     OW37707   2.178   1.289   0.825  0.1443  0.1024 -0.1585
12389SOL    HW137708   2.100   1.335   0.793  1.0174  0.7201 -1.4854
12389SOL    HW237709   2.201   1.229   0.754 -0.4175 -1.7730  1.1643
12390SOL     OW37710   7.513   3.866   3.519  0.0048 -0.0739 -0.4468
12390SOL    HW137711   7.536   3.777   3.493  4.4654 -0.0369  2.2257
12390SOL    HW237712   7.467   3.856   3.602  0.2339  0.0494 -0.3012
12391SOL     OW37713   6.418   3.016   7.286 -0.1723 -0.0616 -0.4706
12391SOL    HW137714   6.363   2.939   7.302  0.3449 -0.7904 -2.0179
12391SOL    HW237715   6.358   3.090   7.293 -1.5281 -0.8584 -2.5257
12392SOL     OW37716   3.804   0.968   0.947 -0.1569 -0.1233 -0.1085
12392SOL    HW137717   3.800   1.025   0.870  2.1324  1.4732  0.8527
12392SOL    HW237718   3.858   0.895   0.920  0.9904  0.6405  0.0690
12393SOL     OW37719   1.889   0.400   2.170  0.4856 -0.3232 -0.5222
12393SOL    HW137720   1.849   0.399   2.083 -0.0038  1.2089 -0.3436
12393SOL    HW237721   1.929   0.487   2.177  0.1895 -0.2803  0.9263
12394SOL     OW37722   4.624   3.905   2.843 -0.0123 -0.1995 -0.2419
12394SOL    HW137723   4.584   3.905   2.930  1.3323 -0.5961  0.4029
12394SOL    HW237724   4.636   3.813   2.822  3.2176 -0.1750  0.9109
12395SOL     OW37725   4.820   1.143   2.068 -0.1898 -0.1646 -0.5328
12395SOL    HW137726   4.822   1.067   2.010 -0.8866  0.0325 -0.8271
12395SOL    HW237727   4.889   1.126   2.132 -0.5055 -1.1642 -0.4404
12396SOL     OW37728   7.312   5.559   2.855 -0.1217  0.2408 -0.3570
12396SOL    HW137729   7.274   5.567   2.768  0.0278 -0.0735 -0.4513
12396SOL    HW237730   7.406   5.550   2.840  0.0247  1.2352 -0.1171
12397SOL     OW37731   1.551   0.645   2.548 -0.6663  0.0977  0.0552
12397SOL    HW137732   1.518   0.555   2.554  3.2354 -1.4689  1.0997
12397SOL    HW237733   1.552   0.676   2.638  0.2645  0.2298  0.0086
12398SOL     OW37734   6.566   1.260   1.709 -0.0984  0.4598 -0.0106
12398SOL    HW137735   6.544   1.174   1.675 -1.0828  0.4462  0.6363
12398SOL    HW237736   6.659   1.254   1.732  0.3509  0.1833 -1.7612
12399SOL     OW37737   4.116   0.254   1.461 -0.3298 -0.2644  0.5115
12399SOL    HW137738   4.151   0.201   1.532  0.3890  0.6720  0.8846
12399SOL    HW237739   4.173   0.234   1.386 -0.1664 -0.1566  0.6054
12400SOL     OW37740   2.245   6.349   3.607  0.4368  0.2020 -0.1753
12400SOL    HW137741   2.238   6.397   3.689  0.8614  0.3545 -0.2282
12400SOL    HW237742   2.174   6.285   3.611 -0.2374  0.9280 -0.1750
12401SOL     OW37743   6.038   3.629   2.865 -0.0536 -0.0297  0.2782
12401SOL    HW137744   5.963   3.572   2.884  0.7224 -1.1090  0.1527
12401SOL    HW237745   6.115   3.574   2.880  0.6872  0.5996 -1.0565
12402SOL     OW37746   3.660   2.918   6.433 -0.3128  0.0677  0.0728
12402SOL    HW137747   3.652   2.972   6.355 -0.1245  0.0826  0.0648
12402SOL    HW237748   3.569   2.904   6.461 -0.3668  0.3376  0.0411
12403SOL     OW37749   0.781   1.821   6.527  0.0499  0.8818 -0.1398
12403SOL    HW137750   0.783   1.733   6.563  0.2759  1.1782  0.5988
12403SOL    HW237751   0.692   1.832   6.493  0.1938  0.1668 -0.7777
12404SOL     OW37752   0.018   2.701   4.468 -0.3949  0.0901 -0.2216
12404SOL    HW137753   0.002   2.627   4.527  1.9642 -0.3421 -0.0273
12404SOL    HW237754   0.088   2.751   4.510 -0.1481  0.9803 -1.6242
12405SOL     OW37755   6.599   2.425   6.740  0.2870 -0.1767 -0.3632
12405SOL    HW137756   6.642   2.497   6.787  0.5853 -0.8371  0.3924
12405SOL    HW237757   6.654   2.410   6.663  1.0200 -0.5287  0.2193
12406SOL     OW37758   0.675   6.387   5.967  0.6836 -0.4597 -0.2517
12406SOL    HW137759   0.617   6.358   6.037  0.9116 -1.4771 -0.4635
12406SOL    HW237760   0.625   6.372   5.887  0.5233  0.4495 -0.3327
12407SOL     OW37761   0.474   0.703   2.231 -0.1354  0.2635 -0.3987
12407SOL    HW137762   0.499   0.656   2.152 -2.3321  0.3748 -1.2282
12407SOL    HW237763   0.501   0.794   2.214  0.4066  0.0826 -0.5287
12408SOL     OW37764   1.586   7.153   6.415 -0.1996  0.6537 -0.1923
12408SOL    HW137765   1.580   7.170   6.321 -0.5326 -0.2747 -0.3469
12408SOL    HW237766   1.499   7.123   6.440  0.1133  0.0805  0.2440
12409SOL     OW37767   7.552   3.440   4.168 -0.0278  0.2352  0.3286
12409SOL    HW137768   7.481   3.382   4.141 -1.1151  0.7692  1.8570
12409SOL    HW237769   7.606   3.450   4.090  0.4711 -3.1360  0.0951
12410SOL     OW37770   5.504   3.155   1.527  0.1299 -0.3539  0.0786
12410SOL    HW137771   5.442   3.203   1.473 -0.1473  0.8171  1.3710
12410SOL    HW237772   5.582   3.210   1.530 -0.2827  0.2237  1.7918
12411SOL     OW37773   4.415   5.724   7.295  0.8478 -0.1110  0.1492
12411SOL    HW137774   4.498   5.704   7.338  1.0790 -1.3560 -0.8270
12411SOL    HW237775   4.371   5.640   7.286 -0.9287  0.6265  1.4072
12412SOL     OW37776   0.821   0.049   2.525 -0.0136  0.3310 -0.4874
12412SOL    HW137777   0.856   0.132   2.559  1.4839 -0.9826  1.3373
12412SOL    HW237778   0.762   0.018   2.594  0.2922 -0.6642 -0.6708
12413SOL     OW37779   5.398   4.250   6.477 -0.4168 -0.2348 -0.5028
12413SOL    HW137780   5.430   4.334   6.444 -0.8656  0.1887  0.1272
12413SOL    HW237781   5.357   4.209   6.401 -0.5911  0.3118 -0.7092
12414SOL     OW37782   0.695   5.140   2.341  0.6874 -0.7201 -0.0639
12414SOL    HW137783   0.710   5.168   2.251 -1.2927  0.4911 -0.0565
12414SOL    HW237784   0.624   5.077   2.336  0.8634 -0.9888  0.6200
12415SOL     OW37785   2.316   0.541   2.900  0.6506  0.1499 -0.2402
12415SOL    HW137786   2.264   0.585   2.967 -0.4529  2.3155 -2.3552
12415SOL    HW237787   2.406   0.565   2.919  0.6007 -0.8830  1.5211
12416SOL     OW37788   5.182   2.279   3.968  0.1637  0.6600 -0.1678
12416SOL    HW137789   5.214   2.216   4.033 -0.0519  2.1510  1.4384
12416SOL    HW237790   5.086   2.277   3.978  0.1059  0.5818 -0.7390
12417SOL     OW37791   5.089   1.296   3.532 -0.2882  0.2028  0.4596
12417SOL    HW137792   5.068   1.348   3.454  1.2460  3.1158  1.8402
12417SOL    HW237793   5.053   1.346   3.605 -0.9992 -2.0586  1.7512
12418SOL     OW37794   5.863   3.550   0.784 -0.0477 -0.3041 -0.0412
12418SOL    HW137795   5.936   3.489   0.768 -0.5435 -0.6868 -0.9098
12418SOL    HW237796   5.906   3.630   0.816  0.9608  0.1740 -2.3896
12419SOL     OW37797   0.268   1.138   5.945  0.7237 -0.5057  0.5660
12419SOL    HW137798   0.288   1.046   5.965 -0.8713 -0.7879  1.0065
12419SOL    HW237799   0.321   1.157   5.867  0.6687 -1.9726  0.1284
12420SOL     OW37800   1.472   4.818   5.123  0.0079  0.1773  0.5307
12420SOL    HW137801   1.563   4.844   5.110  0.2529 -0.8174  0.1355
12420SOL    HW237802   1.461   4.815   5.218  0.7302 -0.7831  0.5995
12421SOL     OW37803   1.972   2.426   7.261  0.0530  0.2743  0.0591
12421SOL    HW137804   2.037   2.412   7.191 -0.8708 -0.0059 -0.7668
12421SOL    HW237805   1.995   2.511   7.298  0.8132  0.2392 -0.3065
12422SOL     OW37806   0.663   7.037   1.954  0.1650  0.0909 -0.7640
12422SOL    HW137807   0.604   7.044   2.029  0.2584 -1.7989 -0.4654
12422SOL    HW237808   0.740   7.086   1.980  0.0658 -0.2676  0.2704
12423SOL     OW37809   5.037   4.096   3.918  0.0075  0.2135 -0.0047
12423SOL    HW137810   5.114   4.116   3.864 -1.5364  1.6358 -1.8189
12423SOL    HW237811   4.995   4.023   3.875 -0.7745  0.8024 -0.2650
12424SOL     OW37812   6.301   5.653   0.645 -0.5545 -0.4575 -0.1634
12424SOL    HW137813   6.240   5.726   0.640  0.4412  0.3766 -0.5351
12424SOL    HW237814   6.363   5.669   0.574  1.1524 -0.2600  1.2919
12425SOL     OW37815   2.288   2.485   0.564  0.0841 -0.4779 -0.0953
12425SOL    HW137816   2.196   2.458   0.561  0.3504 -1.7165  1.3536
12425SOL    HW237817   2.313   2.497   0.473 -1.9213  1.4195 -0.4744
12426SOL     OW37818   2.082   6.529   6.700 -0.4957  0.4001 -0.1606
12426SOL    HW137819   2.032   6.503   6.777  1.2789 -1.2356  0.5029
12426SOL    HW237820   2.143   6.596   6.732  0.3243 -0.3676 -0.0947
12427SOL     OW37821   7.446   6.019   7.247 -0.0568  0.2656 -0.0687
12427SOL    HW137822   7.540   6.027   7.264 -0.2945  1.9007  0.6184
12427SOL    HW237823   7.433   6.066   7.164 -0.4494  1.1381  0.4794
12428SOL     OW37824   5.939   5.852   1.231 -0.4984 -0.6287  0.2735
12428SOL    HW137825   5.859   5.805   1.211 -0.0383 -1.9165  1.3260
12428SOL    HW237826   5.923   5.895   1.315 -0.4236 -0.0516  0.0013
12429SOL     OW37827   0.679   6.393   1.456 -0.1533 -0.2177  0.1818
12429SOL    HW137828   0.741   6.323   1.477 -0.5284 -0.0853  1.8947
12429SOL    HW237829   0.621   6.398   1.533 -0.4608  1.6194 -0.1206
12430SOL     OW37830   0.850   0.635   6.810  0.4673  0.2664 -0.2756
12430SOL    HW137831   0.764   0.593   6.806  0.3780  0.2201  1.5382
12430SOL    HW237832   0.911   0.564   6.826  0.4281  0.6551  1.8137
12431SOL     OW37833   2.057   7.366   1.775  0.4038  0.5934  0.3600
12431SOL    HW137834   2.119   7.437   1.789  1.3063  0.0115 -0.5146
12431SOL    HW237835   1.988   7.405   1.721  0.7263  0.8885  0.1541
12432SOL     OW37836   4.834   2.596   5.849 -0.3548 -0.1515  0.5358
12432SOL    HW137837   4.781   2.521   5.875  0.1187 -0.1303  1.5860
12432SOL    HW237838   4.879   2.623   5.929 -0.8102  1.4960  0.2599
12433SOL     OW37839   0.485   4.670   3.682 -0.3024 -0.7016  0.1878
12433SOL    HW137840   0.489   4.717   3.598 -0.2871 -0.5327  0.2825
12433SOL    HW237841   0.393   4.672   3.706 -0.4725 -1.6321 -0.3205
12434SOL     OW37842   1.696   7.532   4.035  0.1313 -0.5312  0.0425
12434SOL    HW137843   1.696   7.437   4.040  1.3334 -0.4789  1.9136
12434SOL    HW237844   1.768   7.559   4.092 -0.1407  1.5062 -0.5013
12435SOL     OW37845   1.326   3.329   4.150  0.1102 -0.1726  0.3737
12435SOL    HW137846   1.267   3.402   4.132  0.6060 -0.2790 -2.0066
12435SOL    HW237847   1.408   3.371   4.176 -0.2207  0.0447  1.0870
12436SOL     OW37848   5.640   4.986   2.614  0.2704 -0.2290  0.0229
12436SOL    HW137849   5.703   5.020   2.549  0.8880  0.6100  1.0314
12436SOL    HW237850   5.558   5.031   2.594  0.8174  1.1071  0.6834
12437SOL     OW37851   4.168   4.345   5.334 -0.0449  0.0817  0.1091
12437SOL    HW137852   4.154   4.254   5.308 -1.2619  1.0626 -3.1992
12437SOL    HW237853   4.082   4.377   5.359 -0.0517  0.8451 -0.8236
12438SOL     OW37854   2.130   0.393   7.030 -0.0214  0.0787  0.0382
12438SOL    HW137855   2.105   0.316   6.980 -0.5363 -0.1431  0.6159
12438SOL    HW237856   2.113   0.369   7.121  2.2377 -0.0463  0.4811
12439SOL     OW37857   3.825   7.050   6.198  0.3370  0.2173  0.2724
12439SOL    HW137858   3.731   7.047   6.182  0.2196  1.0047  0.7398
12439SOL    HW237859   3.856   7.122   6.144  0.5524  0.4158  0.6548
12440SOL     OW37860   5.580   7.056   2.133 -0.0756 -0.0190  0.8504
12440SOL    HW137861   5.631   7.134   2.155 -1.7229  0.5284  3.0589
12440SOL    HW237862   5.538   7.030   2.215 -2.1428 -1.3359 -0.5171
12441SOL     OW37863   3.375   3.889   0.681  0.4069 -0.1810 -0.2679
12441SOL    HW137864   3.466   3.867   0.660  0.8554  1.6777 -0.4825
12441SOL    HW237865   3.378   3.983   0.701 -1.4679 -0.1040 -0.2382
12442SOL     OW37866   0.526   4.887   1.510 -0.1735 -0.3199  0.1643
12442SOL    HW137867   0.469   4.815   1.537  2.1828 -1.5887  2.1155
12442SOL    HW237868   0.614   4.849   1.510  1.1036  2.4150  0.7601
12443SOL     OW37869   2.231   3.031   6.125  0.5370 -0.0641 -0.2140
12443SOL    HW137870   2.255   2.949   6.081 -0.8021 -0.5209 -0.1523
12443SOL    HW237871   2.221   3.006   6.217  0.1944  0.1787 -0.1852
12444SOL     OW37872   3.610   3.670   2.307 -0.7232 -0.1910  0.0580
12444SOL    HW137873   3.665   3.748   2.296 -1.2052  0.2276  0.5592
12444SOL    HW237874   3.549   3.693   2.377 -1.5619 -0.6404 -0.5139
12445SOL     OW37875   5.354   4.809   1.365 -1.0025  0.3649 -0.2955
12445SOL    HW137876   5.296   4.812   1.288 -1.5366 -0.1475  0.0770
12445SOL    HW237877   5.295   4.822   1.439 -1.0645 -2.5054  0.2814
12446SOL     OW37878   6.935   4.032   1.628 -0.2631  0.1679 -0.3893
12446SOL    HW137879   6.880   3.959   1.600 -2.1592  0.3741  2.3491
12446SOL    HW237880   7.001   3.992   1.685 -0.7496  0.4352  0.3869
12447SOL     OW37881   5.565   4.305   1.712  0.2438  0.4548 -0.9557
12447SOL    HW137882   5.526   4.367   1.651 -0.6397  0.7389 -0.1343
12447SOL    HW237883   5.651   4.342   1.733  0.7285  0.1482 -2.2998
12448SOL     OW37884   2.264   5.941   2.462  0.0154 -0.5215 -0.3171
12448SOL    HW137885   2.321   5.966   2.534  0.0306 -0.4670 -0.3476
12448SOL    HW237886   2.267   6.016   2.402 -2.3394  0.7813  1.0333
12449SOL     OW37887   0.004   5.936   7.521 -0.5850 -0.4568 -0.0971
12449SOL    HW137888   0.027   6.013   7.573 -1.1428 -0.1434 -0.3142
12449SOL    HW237889   0.047   5.864   7.567  0.9300  0.1156 -0.5542
12450SOL     OW37890   0.986   3.089   0.340  0.0226 -0.1279  0.3345
12450SOL    HW137891   0.926   3.051   0.404 -1.6016 -1.2826 -1.7594
12450SOL    HW237892   0.939   3.165   0.306 -0.6805 -1.4720 -1.8642
12451SOL     OW37893   3.478   0.681   7.142  0.1946  0.6286  0.4122
12451SOL    HW137894   3.473   0.617   7.213  2.0449 -0.1726 -0.1288
12451SOL    HW237895   3.494   0.765   7.186  0.5969  0.2580  0.9851
12452SOL     OW37896   7.256   0.165   6.003 -0.6370  0.1618 -0.1792
12452SOL    HW137897   7.314   0.096   5.973 -1.1414 -0.8901  1.1719
12452SOL    HW237898   7.303   0.246   5.983 -0.3063 -0.5066 -2.3581
12453SOL     OW37899   5.145   2.329   1.594  0.2118  0.3290 -0.8116
12453SOL    HW137900   5.170   2.414   1.558  0.9059 -0.2865 -1.8627
12453SOL    HW237901   5.143   2.271   1.517  0.2644 -0.7123 -0.0413
12454SOL     OW37902   1.785   0.560   5.634  0.3747 -0.5186 -0.1771
12454SOL    HW137903   1.721   0.620   5.597  0.0229  1.0051  2.6334
12454SOL    HW237904   1.868   0.586   5.593 -0.1271  0.3610 -0.6768
12455SOL     OW37905   2.993   2.931   3.147  0.5771 -0.0556  0.4618
12455SOL    HW137906   3.051   2.940   3.222  0.9035  0.9056  0.1122
12455SOL    HW237907   2.942   2.852   3.165  2.2257 -1.1267  0.5949
12456SOL     OW37908   5.987   7.311   2.697  0.2370 -0.0657  0.5107
12456SOL    HW137909   5.928   7.247   2.657  1.4927 -1.2834  0.5065
12456SOL    HW237910   6.063   7.312   2.639  0.5888  0.8180  0.9750
12457SOL     OW37911   5.985   3.180   6.131  0.2980  0.1696  0.2955
12457SOL    HW137912   5.904   3.186   6.080 -0.4488 -0.8807  1.3101
12457SOL    HW237913   6.005   3.270   6.155 -0.6280  0.4394  0.0947
12458SOL     OW37914   6.379   4.469   2.389  0.3393  0.0991 -0.3144
12458SOL    HW137915   6.424   4.392   2.423  1.3294  1.1869  0.9260
12458SOL    HW237916   6.375   4.454   2.294  0.5458 -1.4451 -0.0986
12459SOL     OW37917   6.492   6.988   4.623  0.1907  0.4942 -0.0439
12459SOL    HW137918   6.399   7.011   4.622  0.0925  0.1080 -0.6616
12459SOL    HW237919   6.499   6.918   4.689  0.4250  1.9538  1.5533
12460SOL     OW37920   2.727   7.145   1.825  0.1160  0.1438  0.3961
12460SOL    HW137921   2.705   7.225   1.777  1.4634 -1.4743 -3.3088
12460SOL    HW237922   2.646   7.095   1.827  0.3672 -0.4178 -1.7316
12461SOL     OW37923   5.723   0.434   1.986  0.0128  0.1957  0.3105
12461SOL    HW137924   5.660   0.496   1.950 -1.5036 -0.7811  1.1949
12461SOL    HW237925   5.689   0.412   2.073  0.3156 -2.0788 -0.0786
12462SOL     OW37926   5.219   3.246   3.229 -0.0191 -0.0617 -0.5382
12462SOL    HW137927   5.182   3.204   3.152 -1.0695  0.0554 -0.1191
12462SOL    HW237928   5.149   3.242   3.295  0.9751 -0.4934  0.5302
12463SOL     OW37929   5.697   5.427   0.894  0.0692 -0.0514 -0.0288
12463SOL    HW137930   5.705   5.383   0.809  1.0572  0.3044 -0.1361
12463SOL    HW237931   5.759   5.382   0.951  1.8117  1.7351 -0.3998
12464SOL     OW37932   7.490   6.959   4.465  0.4883  0.1213  0.3357
12464SOL    HW137933   7.446   7.004   4.536  1.1726 -0.8798  1.4215
12464SOL    HW237934   7.578   6.998   4.462 -0.6089  2.7457 -2.4015
12465SOL     OW37935   4.958   2.527   4.024 -0.9942 -0.4350 -0.2544
12465SOL    HW137936   4.926   2.438   4.035 -2.0524  0.0453  0.7495
12465SOL    HW237937   5.043   2.517   3.980 -0.6032 -2.0014  0.7665
12466SOL     OW37938   4.302   5.793   5.548 -0.4962 -0.2358  0.1699
12466SOL    HW137939   4.275   5.818   5.460  0.3515  2.1869  0.5128
12466SOL    HW237940   4.397   5.807   5.549 -0.4366 -0.5666  1.3582
12467SOL     OW37941   4.288   2.442   3.584 -0.7721  0.1460 -1.0382
12467SOL    HW137942   4.333   2.516   3.543 -0.6357  1.1249  0.7719
12467SOL    HW237943   4.196   2.455   3.562 -0.9383  1.6617  0.3427
12468SOL     OW37944   6.460   4.644   4.064 -0.1253 -0.2922  0.0312
12468SOL    HW137945   6.446   4.689   3.981 -0.5859  2.4208  1.4590
12468SOL    HW237946   6.554   4.628   4.067 -0.1247 -0.5700 -1.0461
12469SOL     OW37947   0.291   6.134   2.395  0.1411  0.7189  0.2440
12469SOL    HW137948   0.291   6.120   2.301  0.6556  2.4198 -0.0344
12469SOL    HW237949   0.200   6.154   2.417  0.1995  1.3001 -0.0465
12470SOL     OW37950   0.797   3.701   3.042 -0.1404  0.2271 -0.0667
12470SOL    HW137951   0.885   3.662   3.046 -0.4746 -0.5825 -0.2702
12470SOL    HW237952   0.774   3.718   3.133 -0.5158 -1.3268  0.1594
12471SOL     OW37953   0.740   5.382   0.147  0.0294 -0.4211 -0.2981
12471SOL    HW137954   0.811   5.366   0.209  0.2563 -1.9539 -0.9137
12471SOL    HW237955   0.743   5.308   0.087 -2.0614 -0.5259 -0.3647
12472SOL     OW37956   1.046   1.432   0.374  0.0741 -0.3161 -0.1420
12472SOL    HW137957   0.981   1.378   0.331 -0.4387 -0.0537  0.3000
12472SOL    HW237958   1.122   1.374   0.385 -0.5442 -1.0209  0.5316
12473SOL     OW37959   2.416   4.629   5.806 -0.2800 -0.2379  0.1146
12473SOL    HW137960   2.325   4.654   5.788 -0.0364  1.3963  0.9578
12473SOL    HW237961   2.460   4.712   5.822  1.2075 -1.0748  0.4666
12474SOL     OW37962   0.917   0.655   5.171  0.0754 -0.5201 -0.1022
12474SOL    HW137963   0.950   0.619   5.089  1.7618  0.5333  0.0609
12474SOL    HW237964   0.951   0.744   5.173 -1.1767 -0.0314  1.0639
12475SOL     OW37965   0.121   1.248   1.719 -0.2358  0.3173 -0.2159
12475SOL    HW137966   0.029   1.225   1.735 -0.6285  1.7464 -0.3036
12475SOL    HW237967   0.168   1.165   1.730 -1.4876 -0.3826  0.1388
12476SOL     OW37968   0.299   0.320   6.026  0.3379 -0.0083 -0.2620
12476SOL    HW137969   0.316   0.365   5.943  1.6251 -0.1411 -0.0848
12476SOL    HW237970   0.291   0.390   6.090 -1.2430  0.1330 -0.5546
12477SOL     OW37971   2.521   4.677   1.459 -0.4791  0.1614  0.5174
12477SOL    HW137972   2.609   4.709   1.478 -0.6649  1.4983 -0.6842
12477SOL    HW237973   2.512   4.598   1.512  1.8732 -0.7087 -0.2665
12478SOL     OW37974   6.197   1.193   3.042 -0.2525 -0.5660  0.4877
12478SOL    HW137975   6.125   1.154   2.992 -0.2686  0.3124 -0.2100
12478SOL    HW237976   6.155   1.227   3.121 -0.2720 -1.7392  1.0051
12479SOL     OW37977   1.515   0.662   7.565  0.3891  0.2866 -0.2683
12479SOL    HW137978   1.424   0.646   7.538  0.7349 -0.6923 -0.9018
12479SOL    HW237979   1.530   0.754   7.546 -1.0445  0.9778  1.5858
12480SOL     OW37980   0.017   0.573   1.610 -0.0788 -0.2949 -0.3372
12480SOL    HW137981   0.010   0.663   1.578 -0.0211 -1.0285 -2.6458
12480SOL    HW237982  -0.073   0.539   1.606 -0.2290 -0.1484  1.2508
12481SOL     OW37983   6.299   7.266   7.273  0.2477 -0.1289 -0.0885
12481SOL    HW137984   6.292   7.259   7.178  0.7750 -2.5269 -0.0062
12481SOL    HW237985   6.222   7.317   7.298 -0.7028 -0.6883 -1.6872
12482SOL     OW37986   3.233   2.960   2.560 -0.0032  0.3070 -0.8027
12482SOL    HW137987   3.254   3.010   2.639 -0.7587 -0.0299 -0.3875
12482SOL    HW237988   3.160   2.904   2.585 -0.0201 -0.0597 -1.6423
12483SOL     OW37989   4.109   1.293   2.418 -0.0702  0.4850  0.0173
12483SOL    HW137990   4.176   1.292   2.350 -1.1095 -1.5350 -1.0758
12483SOL    HW237991   4.157   1.276   2.499  0.8387 -0.0793 -0.6211
12484SOL     OW37992   3.006   6.583   0.364 -0.6989  0.8847 -0.1792
12484SOL    HW137993   2.979   6.597   0.273  0.8983 -0.9902 -1.0309
12484SOL    HW237994   3.031   6.491   0.367 -1.3332  0.7180  2.3772
12485SOL     OW37995   1.853   5.506   0.427 -0.0600  0.2419 -0.3795
12485SOL    HW137996   1.867   5.461   0.344  1.8226  1.6397 -0.8823
12485SOL    HW237997   1.873   5.598   0.408 -2.4420  1.1278  0.9323
12486SOL     OW37998   1.513   1.609   5.433 -0.2222 -0.0288 -0.5736
12486SOL    HW137999   1.572   1.662   5.380  0.2850 -0.0294 -0.0178
12486SOL    HW238000   1.448   1.576   5.371 -0.9572  1.7865 -0.8369
12487SOL     OW38001   5.461   3.293   1.060 -0.6116 -0.0098 -0.2607
12487SOL    HW138002   5.555   3.296   1.075 -0.8320 -2.4961  2.6183
12487SOL    HW238003   5.450   3.228   0.991 -0.2199  0.8558 -1.1566
12488SOL     OW38004   2.338   2.779   5.652 -0.4460  0.0748  0.0950
12488SOL    HW138005   2.318   2.688   5.630 -0.2672 -0.2663  1.2825
12488SOL    HW238006   2.265   2.806   5.708  0.8725 -0.2555  2.0711
12489SOL     OW38007   1.360   4.523   5.489 -0.4514  0.6256 -0.0042
12489SOL    HW138008   1.410   4.549   5.412  1.2267 -0.0002  0.8123
12489SOL    HW238009   1.384   4.586   5.557 -0.6054  0.1953  0.4637
12490SOL     OW38010   7.570   1.832   6.665 -0.2263  0.2662 -0.4093
12490SOL    HW138011   7.566   1.757   6.606 -0.4831  1.9287 -2.6232
12490SOL    HW238012   7.566   1.793   6.753 -2.3571 -2.1974 -1.4446
12491SOL     OW38013   0.368   3.760   5.880 -0.0995  0.0643 -0.0241
12491SOL    HW138014   0.285   3.808   5.882  0.4455  1.0070  1.1796
12491SOL    HW238015   0.382   3.731   5.971  0.0090 -1.6711 -0.5541
12492SOL     OW38016   0.698   2.601   4.707  0.5265 -0.3177 -0.0543
12492SOL    HW138017   0.755   2.635   4.638  0.1902  1.5753  0.5483
12492SOL    HW238018   0.617   2.578   4.661  1.3166 -1.8886 -0.7208
12493SOL     OW38019   0.155   2.703   2.699  0.4920 -0.0011 -0.3894
12493SOL    HW138020   0.126   2.703   2.790 -1.2036  0.1242 -0.8800
12493SOL    HW238021   0.096   2.641   2.656  3.2142 -2.4832 -0.8927
12494SOL     OW38022   0.188   4.183   7.404  0.0536  0.3354  0.2503
12494SOL    HW138023   0.157   4.233   7.328  0.0380  0.5678  0.4082
12494SOL    HW238024   0.216   4.250   7.466  0.3604  0.1379  0.3257
12495SOL     OW38025   7.326   6.413   2.551  0.0915 -0.0872 -0.0460
12495SOL    HW138026   7.339   6.336   2.607  2.1170  1.0094  1.1334
12495SOL    HW238027   7.293   6.480   2.610  0.8376  0.6699 -0.4697
12496SOL     OW38028   1.371   5.347   2.320 -0.5166  0.0607  0.1788
12496SOL    HW138029   1.322   5.422   2.356  0.6874 -0.3600  2.9621
12496SOL    HW238030   1.377   5.285   2.393  0.2812 -1.8634 -1.4431
12497SOL     OW38031   5.740   4.735   2.313 -0.0971 -0.5255  0.2842
12497SOL    HW138032   5.645   4.725   2.308 -0.0475 -0.3289 -1.3624
12497SOL    HW238033   5.763   4.697   2.398 -1.5576 -1.1857  0.4167
12498SOL     OW38034   5.901   2.552   2.342  0.0960 -0.5225  0.2748
12498SOL    HW138035   5.873   2.631   2.296  1.2246 -0.8864 -1.1100
12498SOL    HW238036   5.883   2.481   2.281  2.1872 -0.9624  0.0789
12499SOL     OW38037   0.384   3.191   6.911 -0.1721 -0.2079  0.0578
12499SOL    HW138038   0.456   3.128   6.925  0.2783  0.3180  0.1571
12499SOL    HW238039   0.387   3.247   6.989 -1.3168 -0.7752  0.5245
12500SOL     OW38040   3.905   7.491   1.412 -0.0516 -0.2712 -0.3502
12500SOL    HW138041   3.992   7.450   1.417 -0.6271 -1.5262 -0.3051
12500SOL    HW238042   3.889   7.502   1.318 -0.6792 -1.9397 -0.4701
12501SOL     OW38043   7.155   2.916   3.745  0.4182  0.5351 -0.3768
12501SOL    HW138044   7.221   2.912   3.814  1.2385 -2.7302 -1.1951
12501SOL    HW238045   7.082   2.864   3.778 -0.4284  1.4217 -0.8000
12502SOL     OW38046   0.905   4.996   4.746  0.5593  0.2173 -0.0346
12502SOL    HW138047   0.858   5.078   4.728  0.0086  0.1686  1.0688
12502SOL    HW238048   0.930   5.003   4.838  0.0032 -1.0927  0.2303
12503SOL     OW38049   3.133   4.778   3.524  0.2044 -0.5880 -0.1591
12503SOL    HW138050   3.131   4.687   3.494  0.0320 -0.5056 -0.4116
12503SOL    HW238051   3.183   4.824   3.456  1.6749 -0.7619  0.7661
12504SOL     OW38052   6.961   6.423   4.319 -0.6208 -0.1625  0.1917
12504SOL    HW138053   6.937   6.507   4.357 -0.4625  0.1156 -0.3091
12504SOL    HW238054   6.887   6.400   4.263 -0.1868  0.1958 -0.5498
12505SOL     OW38055   0.992   5.717   1.656  0.4717  0.4350  0.3431
12505SOL    HW138056   0.942   5.769   1.593  0.9889 -1.1742 -1.4938
12505SOL    HW238057   1.079   5.758   1.657 -0.2149  1.9978  2.0091
12506SOL     OW38058   2.039   2.153   7.130 -0.5467 -0.3632  0.0126
12506SOL    HW138059   2.042   2.142   7.225  1.4396 -2.2602 -0.1961
12506SOL    HW238060   2.082   2.236   7.114 -1.0056  0.0316  0.7707
12507SOL     OW38061   4.376   3.026   6.824  0.0415 -0.4179  0.2082
12507SOL    HW138062   4.364   3.098   6.761  1.6840 -0.3232 -0.0258
12507SOL    HW238063   4.325   2.954   6.787 -0.7516  0.2834 -0.1122
12508SOL     OW38064   2.122   0.163   2.852  0.2731 -0.4258 -0.0655
12508SOL    HW138065   2.182   0.234   2.829  1.8003 -0.4316  3.2485
12508SOL    HW238066   2.104   0.177   2.945 -3.8284 -1.2848 -0.5609
12509SOL     OW38067   4.075   7.159   7.184  0.7242  0.5896 -0.0305
12509SOL    HW138068   4.036   7.177   7.098 -0.7501  0.8924  0.6731
12509SOL    HW238069   4.005   7.118   7.234  0.9999  2.0205  1.6081
12510SOL     OW38070   1.459   5.949   0.990 -0.3775  0.5662  0.3374
12510SOL    HW138071   1.499   5.906   1.065  1.2057  0.0439 -0.7625
12510SOL    HW238072   1.497   6.037   0.989  1.6422 -0.2429 -1.2766
12511SOL     OW38073   0.750   3.020   4.229 -0.7450 -0.2766  0.3505
12511SOL    HW138074   0.740   3.111   4.200  0.6833  0.2774  1.5066
12511SOL    HW238075   0.681   3.008   4.294 -0.3613  0.2832  0.8710
12512SOL     OW38076   3.187   3.234   3.861  0.6777 -0.3930 -0.0433
12512SOL    HW138077   3.179   3.277   3.946  1.0552  0.4639 -0.4261
12512SOL    HW238078   3.280   3.236   3.841  0.7267 -1.5969  0.0187
12513SOL     OW38079   7.182   7.496   0.012 -0.9318  0.2942  0.1819
12513SOL    HW138080   7.225   7.521   0.094  0.5799 -0.4192 -0.3649
12513SOL    HW238081   7.253   7.485  -0.051 -2.0710  0.9763 -1.2918
12514SOL     OW38082   0.724   1.692   1.490 -0.5741 -0.1622 -0.4865
12514SOL    HW138083   0.742   1.776   1.530 -1.4286  0.2691 -0.9721
12514SOL    HW238084   0.668   1.646   1.553 -2.3754  0.7323 -1.3657
12515SOL     OW38085   6.830   5.228   4.599 -0.2529 -0.2942  0.2974
12515SOL    HW138086   6.902   5.223   4.662  0.3996  1.8546 -0.1879
12515SOL    HW238087   6.862   5.181   4.522  0.6173  0.5466  0.1265
12516SOL     OW38088   5.908   6.101   4.550 -0.0575 -0.1715 -0.3640
12516SOL    HW138089   5.829   6.101   4.495 -0.4430 -0.7228  0.1652
12516SOL    HW238090   5.965   6.035   4.510  0.5478  0.8920 -1.2962
12517SOL     OW38091   3.370   3.782   1.917  0.1497  0.1455  0.1656
12517SOL    HW138092   3.288   3.751   1.954  1.0758 -2.6332  0.1144
12517SOL    HW238093   3.384   3.868   1.957 -1.7967 -0.1715  1.6446
12518SOL     OW38094   2.885   4.863   4.500  0.6664  0.1665  0.0196
12518SOL    HW138095   2.873   4.810   4.421  1.2974  0.6061 -0.3827
12518SOL    HW238096   2.961   4.917   4.480  0.4265  0.7521  0.6805
12519SOL     OW38097   5.436   6.470   5.146  0.2741 -0.1795  0.4603
12519SOL    HW138098   5.343   6.491   5.145 -0.1438 -1.8213 -1.3885
12519SOL    HW238099   5.479   6.550   5.116 -0.7546 -0.0689 -0.8146
12520SOL     OW38100   0.024   7.376   4.983  0.1853  0.1048  0.5479
12520SOL    HW138101  -0.016   7.462   4.995 -0.6735 -0.1739 -0.1825
12520SOL    HW238102   0.047   7.348   5.072 -2.1237 -0.1056  1.1590
12521SOL     OW38103   0.861   7.307   6.178  0.2870  0.1583  0.0517
12521SOL    HW138104   0.830   7.218   6.195 -0.0758  0.5268  1.4828
12521SOL    HW238105   0.862   7.315   6.083 -1.7505 -0.6718 -0.0874
12522SOL     OW38106   4.648   1.838   4.312  0.4323  0.2882 -0.1783
12522SOL    HW138107   4.690   1.773   4.257 -0.7693  0.0147 -0.7865
12522SOL    HW238108   4.559   1.806   4.325  0.5705  0.5185  1.6396
12523SOL     OW38109   5.388   4.355   4.264 -0.4280  0.0284 -0.0730
12523SOL    HW138110   5.415   4.433   4.216  0.7591 -0.3999 -0.1405
12523SOL    HW238111   5.373   4.289   4.196 -1.6338  0.2363 -0.0322
12524SOL     OW38112   6.235   5.600   1.908  0.1758  0.5129  0.5309
12524SOL    HW138113   6.147   5.565   1.895  0.4372  0.4765 -1.4183
12524SOL    HW238114   6.254   5.647   1.827  1.8811  0.6994  1.0096
12525SOL     OW38115   5.049   3.746   7.310  0.0646  0.3125 -0.5052
12525SOL    HW138116   5.105   3.823   7.298  0.9952 -0.3074 -0.2463
12525SOL    HW238117   5.069   3.691   7.235 -0.6616  0.3473 -0.7323
12526SOL     OW38118   5.709   5.984   0.684 -0.0173  0.6594  0.0914
12526SOL    HW138119   5.629   6.037   0.683  0.1056  0.9675  2.1171
12526SOL    HW238120   5.680   5.896   0.705  0.1117  0.6461  0.2172
12527SOL     OW38121   5.964   3.254   1.050 -0.2270 -0.7827 -0.0138
12527SOL    HW138122   6.044   3.216   1.013 -0.8937 -0.8636 -1.4391
12527SOL    HW238123   5.918   3.179   1.087  2.2792 -0.2816  4.9241
12528SOL     OW38124   2.492   2.979   4.753  0.2691  0.5587  0.3081
12528SOL    HW138125   2.510   2.885   4.757  0.4269  0.5244 -0.9894
12528SOL    HW238126   2.569   3.019   4.794  0.6150  0.1587  0.0688
12529SOL     OW38127   5.376   6.120   3.662 -0.6516  0.0399  0.2005
12529SOL    HW138128   5.347   6.029   3.655  1.8480 -0.6998 -2.5126
12529SOL    HW238129   5.467   6.115   3.691 -0.5367  1.6941  0.2636
12530SOL     OW38130   6.654   2.812   4.000 -0.1421 -0.0354  0.5374
12530SOL    HW138131   6.745   2.797   4.026  0.1090  1.5752  0.6653
12530SOL    HW238132   6.606   2.741   4.041  1.0722 -1.0326  0.3115
12531SOL     OW38133   4.162   3.542   6.617  0.5935  0.1293 -0.3934
12531SOL    HW138134   4.196   3.625   6.581  0.0155  0.0654 -1.1237
12531SOL    HW238135   4.167   3.481   6.543 -0.4170 -0.0715 -0.3042
12532SOL     OW38136   3.059   4.534   4.724  0.2008 -0.2742 -0.1801
12532SOL    HW138137   2.966   4.541   4.702  0.4819  0.6012 -1.2044
12532SOL    HW238138   3.069   4.591   4.800  0.2286  1.2860 -1.2831
12533SOL     OW38139   1.952   3.715   0.135  0.0749 -0.1144 -0.0214
12533SOL    HW138140   1.973   3.768   0.212 -1.3523 -0.5154  0.6823
12533SOL    HW238141   1.870   3.671   0.158 -1.2767  0.9943 -2.3698
12534SOL     OW38142   4.531   1.495   5.633 -0.2457  0.1182 -0.1638
12534SOL    HW138143   4.517   1.401   5.648  0.3271 -0.0468 -0.6478
12534SOL    HW238144   4.470   1.516   5.562  1.2337 -0.4074 -1.6542
12535SOL     OW38145   6.820   0.248   1.399 -0.0905 -0.4714  0.3761
12535SOL    HW138146   6.811   0.207   1.313  0.6619 -0.1539  0.1276
12535SOL    HW238147   6.903   0.213   1.433 -0.6255 -0.9638  1.1857
12536SOL     OW38148   7.439   4.173   3.190  0.2780 -0.1457 -0.2569
12536SOL    HW138149   7.489   4.161   3.109  0.4714  2.6734 -0.6599
12536SOL    HW238150   7.349   4.150   3.167  0.4830 -0.1910 -1.0240
12537SOL     OW38151   5.007   1.768   5.527 -0.3080 -0.5057 -0.3002
12537SOL    HW138152   5.099   1.752   5.546 -0.4813  0.4750  1.5982
12537SOL    HW238153   5.005   1.856   5.489 -0.5252 -0.1947  0.4171
12538SOL     OW38154   6.118   5.975   0.845  0.0550  0.4420  0.1354
12538SOL    HW138155   6.164   5.907   0.895  1.0324  0.1598 -1.0996
12538SOL    HW238156   6.081   5.928   0.770 -0.1110  1.1083 -0.2015
12539SOL     OW38157   6.937   6.180   6.177 -0.4558  0.1717  0.1728
12539SOL    HW138158   6.999   6.253   6.172 -1.1370  0.7915  0.6570
12539SOL    HW238159   6.990   6.106   6.209  0.1144  0.5831  0.2030
12540SOL     OW38160   1.020   3.646   2.157  0.8065  0.3127  0.3419
12540SOL    HW138161   0.996   3.559   2.125  2.8667  0.5947 -2.2903
12540SOL    HW238162   1.106   3.635   2.196  0.8770  1.0749  0.4187
12541SOL     OW38163   6.986   6.043   2.986  0.3205  0.0158  0.2132
12541SOL    HW138164   7.016   6.100   2.915  0.9549  0.2013  0.6189
12541SOL    HW238165   7.058   5.981   2.998 -1.1090 -2.0988 -1.4669
12542SOL     OW38166   1.517   3.238   0.297  0.7816  0.3592 -0.6503
12542SOL    HW138167   1.592   3.225   0.240  0.7301  1.1932 -0.9163
12542SOL    HW238168   1.496   3.331   0.290  1.2621  0.6685  1.3251
12543SOL     OW38169   3.485   4.311   1.952 -0.2229  0.8215 -0.4240
12543SOL    HW138170   3.547   4.366   1.999 -0.8512  0.5130  0.8236
12543SOL    HW238171   3.461   4.363   1.875 -0.7727  2.3084  0.6856
12544SOL     OW38172   0.511   0.640   0.111  0.2024  0.2434 -0.0721
12544SOL    HW138173   0.583   0.579   0.098  2.0099  2.3786 -0.6558
12544SOL    HW238174   0.531   0.714   0.054 -2.7235  0.7522 -0.5940
12545SOL     OW38175   4.488   6.941   4.921  0.0080  0.5540 -0.1116
12545SOL    HW138176   4.500   6.999   4.846 -0.0539 -1.2884 -1.6352
12545SOL    HW238177   4.577   6.912   4.943 -0.1170 -0.4242 -0.7984
12546SOL     OW38178   2.222   1.847   1.259  0.0768 -0.1666  0.1705
12546SOL    HW138179   2.164   1.787   1.307 -0.7278 -0.6747 -1.3668
12546SOL    HW238180   2.235   1.804   1.175  3.9645 -0.8461  0.9207
12547SOL     OW38181   7.394   1.821   0.246  0.1432 -0.0682  0.1213
12547SOL    HW138182   7.352   1.742   0.210  0.4099 -0.4533  0.6395
12547SOL    HW238183   7.347   1.839   0.327  0.1534  0.2473  0.0592
12548SOL     OW38184   7.480   0.901   7.346  0.5892 -0.0170 -0.1135
12548SOL    HW138185   7.543   0.830   7.352  2.2880  1.5458  3.1039
12548SOL    HW238186   7.515   0.958   7.277  1.2220 -0.4696 -0.1775
12549SOL     OW38187   3.795   6.416   4.213 -0.1010  0.4525 -0.2866
12549SOL    HW138188   3.759   6.391   4.298  1.0728 -2.2445 -0.4551
12549SOL    HW238189   3.885   6.383   4.215 -0.1119  0.0950 -2.6195
12550SOL     OW38190   3.160   4.901   4.076 -0.1762  0.5563 -0.0247
12550SOL    HW138191   3.151   4.990   4.043  0.2575  0.7103  0.2607
12550SOL    HW238192   3.186   4.849   4.000 -0.6393  0.6321 -0.2359
12551SOL     OW38193   5.918   3.845   3.458  0.0995  0.6369 -0.3178
12551SOL    HW138194   5.880   3.758   3.445  0.2331  0.8108 -1.9683
12551SOL    HW238195   6.010   3.829   3.479  0.6736  0.4107 -2.7752
12552SOL     OW38196   5.080   2.594   2.919 -0.4269 -0.2068  0.7962
12552SOL    HW138197   5.048   2.683   2.929 -0.8751 -0.3475  0.6446
12552SOL    HW238198   5.066   2.573   2.827  3.2952  0.9280 -0.2154
12553SOL     OW38199   5.516   2.123   0.140 -0.6097  0.4063  0.2320
12553SOL    HW138200   5.444   2.183   0.124 -1.5296  0.3547  3.4033
12553SOL    HW238201   5.474   2.044   0.175  0.8881 -0.1568  0.8454
12554SOL     OW38202   0.605   0.910   1.596 -0.5897 -0.8896  0.1014
12554SOL    HW138203   0.659   0.897   1.674 -0.2886  2.4533  0.6282
12554SOL    HW238204   0.536   0.970   1.625 -1.9986 -1.5904 -1.6400
12555SOL     OW38205   2.086   7.051   0.950 -0.2114  0.0926  0.0381
12555SOL    HW138206   2.143   7.070   0.875 -0.6700  3.4761  0.3939
12555SOL    HW238207   2.134   6.986   1.001  1.4477 -0.1249 -1.6870
12556SOL     OW38208   2.720   5.284   6.576 -0.0581  0.0086  0.2953
12556SOL    HW138209   2.764   5.349   6.520 -0.5471 -0.5443 -0.7497
12556SOL    HW238210   2.627   5.302   6.564 -0.1706  0.4905  1.6897
12557SOL     OW38211   1.825   0.078   0.286 -0.0565  0.0567  0.8771
12557SOL    HW138212   1.766   0.005   0.265 -0.7097  0.3105  1.7688
12557SOL    HW238213   1.775   0.156   0.266 -0.3718  0.2914  2.4474
12558SOL     OW38214   6.955   6.676   2.762  0.0660  0.6011 -0.5291
12558SOL    HW138215   6.947   6.585   2.733 -0.7337  0.5358 -0.1569
12558SOL    HW238216   6.883   6.686   2.826 -0.3111  1.6975 -1.1096
12559SOL     OW38217   0.577   2.328   7.417  0.5922  0.3265 -0.1052
12559SOL    HW138218   0.602   2.395   7.353 -1.8298 -0.6228 -2.1797
12559SOL    HW238219   0.503   2.283   7.377  0.2319 -1.6431  2.5533
12560SOL     OW38220   0.450   4.778   4.447  0.1880  0.4437  0.6553
12560SOL    HW138221   0.446   4.733   4.362 -1.4669  0.5203  0.6496
12560SOL    HW238222   0.520   4.843   4.437 -1.0992  1.6558 -1.3114
12561SOL     OW38223   5.571   2.177   7.412  0.9062  0.3110  0.6398
12561SOL    HW138224   5.534   2.212   7.331  2.7485 -0.5103 -0.6261
12561SOL    HW238225   5.499   2.182   7.475 -0.1410  2.3951 -0.5999
12562SOL     OW38226   0.763   5.743   2.412  0.4624 -0.2042  0.2120
12562SOL    HW138227   0.796   5.733   2.502  1.1374  0.0673  0.0028
12562SOL    HW238228   0.730   5.656   2.389 -2.3313  0.3443  1.7078
12563SOL     OW38229   6.005   1.288   2.569 -0.1951  0.4380 -0.2673
12563SOL    HW138230   6.085   1.286   2.621  0.8038  1.9590 -1.6498
12563SOL    HW238231   5.963   1.204   2.586  2.2745 -0.9161 -0.3698
12564SOL     OW38232   7.107   3.083   4.220 -0.0687 -0.5401  0.1508
12564SOL    HW138233   7.186   3.053   4.267  0.5552 -0.6712 -0.9439
12564SOL    HW238234   7.036   3.071   4.283  0.6571 -1.2478  0.8706
12565SOL     OW38235   5.804   3.313   5.586 -0.5917 -0.3130 -0.2096
12565SOL    HW138236   5.775   3.227   5.559 -1.3280 -0.4384  0.9195
12565SOL    HW238237   5.724   3.362   5.601 -0.1915  0.8224 -1.5156
12566SOL     OW38238   0.242   0.668   0.007  0.3366 -0.3039  0.6155
12566SOL    HW138239   0.200   0.588   0.040 -0.4987  0.5004  1.5745
12566SOL    HW238240   0.336   0.652   0.018  0.5067 -2.5924 -2.5753
12567SOL     OW38241   5.310   6.954   1.050 -0.9674  0.1629 -0.5539
12567SOL    HW138242   5.397   6.983   1.024 -0.7271  0.6267  0.6967
12567SOL    HW238243   5.324   6.867   1.087 -0.6128  1.1643  1.8416
12568SOL     OW38244   6.565   5.347   6.650 -0.3627  0.6435  0.3740
12568SOL    HW138245   6.476   5.346   6.685 -0.8451 -0.1268 -0.8077
12568SOL    HW238246   6.597   5.257   6.661  1.0620  1.3427  2.6312
12569SOL     OW38247   4.474   3.730   1.776 -0.4802 -0.0629 -0.1219
12569SOL    HW138248   4.483   3.645   1.732  0.9730  0.7564 -1.5085
12569SOL    HW238249   4.563   3.756   1.798 -0.8507  1.3264 -0.1676
12570SOL     OW38250   6.528   5.818   2.839  0.6793  0.1934  0.1453
12570SOL    HW138251   6.559   5.739   2.795 -1.5312 -0.8298  0.2833
12570SOL    HW238252   6.548   5.804   2.931  0.9665  0.1403  0.0757
12571SOL     OW38253   2.905   5.729   0.961  0.1462  0.1064 -0.6944
12571SOL    HW138254   2.971   5.775   0.908 -1.1044  1.6739 -0.9725
12571SOL    HW238255   2.821   5.756   0.923 -0.6978 -1.8593 -0.3741
12572SOL     OW38256   7.488   6.715   7.414  0.1504  0.2454 -0.8811
12572SOL    HW138257   7.452   6.642   7.464  0.8910  0.1626 -0.4566
12572SOL    HW238258   7.454   6.793   7.456 -2.6482  0.2085 -2.7751
12573SOL     OW38259   0.429   7.235   6.499 -0.3315 -0.1759 -0.4273
12573SOL    HW138260   0.336   7.253   6.511 -0.5354 -1.9110  0.9665
12573SOL    HW238261   0.472   7.281   6.572 -0.5524 -2.4524  1.2661
12574SOL     OW38262   2.846   3.234   5.695 -0.0039 -0.3468  1.1366
12574SOL    HW138263   2.876   3.180   5.622 -0.2033  1.5925 -0.4723
12574SOL    HW238264   2.751   3.223   5.695  0.0212 -0.5718  1.2993
12575SOL     OW38265   0.107   1.428   0.706 -0.0815 -0.2593  1.0604
12575SOL    HW138266   0.159   1.508   0.708  0.3785 -0.5653  2.4178
12575SOL    HW238267   0.036   1.446   0.645 -0.1818  1.3016  1.6124
12576SOL     OW38268   2.529   7.187   6.560 -0.1466  0.0392 -0.2752
12576SOL    HW138269   2.460   7.131   6.523  1.1290 -0.8313 -1.4315
12576SOL    HW238270   2.523   7.174   6.654  0.7449 -2.8949 -0.5213
12577SOL     OW38271   3.791   1.184   4.227 -0.1988 -0.0288 -0.3505
12577SOL    HW138272   3.830   1.271   4.236 -0.3493 -0.0165  0.1859
12577SOL    HW238273   3.823   1.152   4.142  1.3099 -0.1849  0.2436
12578SOL     OW38274   3.189   2.149   1.544  0.0751  0.5324 -0.3906
12578SOL    HW138275   3.244   2.219   1.509  0.8461  1.2795  2.0854
12578SOL    HW238276   3.119   2.138   1.479  1.5361  1.5632 -2.2220
12579SOL     OW38277   7.153   4.288   1.932 -0.3985 -0.3348 -0.0417
12579SOL    HW138278   7.240   4.278   1.970  0.3544 -1.1022 -1.8591
12579SOL    HW238279   7.165   4.272   1.839 -2.3484  0.4024 -0.4773
12580SOL     OW38280   3.303   3.997   7.030 -0.5673 -0.3230 -0.3411
12580SOL    HW138281   3.392   3.984   6.998 -1.2653 -2.6317 -1.5773
12580SOL    HW238282   3.260   4.047   6.960 -0.3936  0.3567  0.0294
12581SOL     OW38283   4.177   3.913   5.944 -0.0121  0.1895 -0.0143
12581SOL    HW138284   4.184   3.961   6.026  1.2203  1.6169 -0.9001
12581SOL    HW238285   4.087   3.880   5.943  0.3068 -0.9981  2.4637
12582SOL     OW38286   0.072   3.127   1.470  0.2737 -0.2096 -0.4746
12582SOL    HW138287  -0.017   3.095   1.455 -0.4413  1.6198 -0.4086
12582SOL    HW238288   0.125   3.047   1.477 -1.3610 -1.3516 -0.4031
12583SOL     OW38289   4.722   0.253   5.164  0.5444  0.3568 -0.6152
12583SOL    HW138290   4.652   0.308   5.198  0.7532  0.8172 -0.9186
12583SOL    HW238291   4.677   0.187   5.111  0.1760 -0.6713  0.9209
12584SOL     OW38292   5.719   5.302   3.764  0.1271  0.0221  0.7496
12584SOL    HW138293   5.782   5.237   3.795 -0.1383  0.2136  1.7262
12584SOL    HW238294   5.681   5.338   3.844  0.6740  1.7784  0.2654
12585SOL     OW38295   4.698   5.256   6.359 -0.5889  0.0347 -0.0315
12585SOL    HW138296   4.736   5.231   6.443  0.2403 -1.1233 -0.7225
12585SOL    HW238297   4.619   5.204   6.351 -1.4641  1.2140  0.6563
12586SOL     OW38298   3.440   4.336   3.706  0.1659  0.0935  0.0359
12586SOL    HW138299   3.490   4.303   3.631 -1.0251  0.1947 -0.8119
12586SOL    HW238300   3.400   4.258   3.744 -0.8174  0.2669 -0.6183
12587SOL     OW38301   6.637   3.953   6.351  0.2496  0.7260 -0.1736
12587SOL    HW138302   6.641   3.871   6.401  1.0069  0.9424  0.1335
12587SOL    HW238303   6.546   3.980   6.357  0.0787  0.1219  0.0776
12588SOL     OW38304   4.109   1.514   5.388 -0.0839 -0.2128  0.0944
12588SOL    HW138305   4.186   1.565   5.365 -0.3665 -0.0106 -0.4057
12588SOL    HW238306   4.143   1.428   5.414  0.2741 -0.2428 -0.4807
12589SOL     OW38307   2.725   4.195   1.217  0.0954 -0.0742  0.1433
12589SOL    HW138308   2.657   4.157   1.161  1.5526 -1.0010 -1.0679
12589SOL    HW238309   2.703   4.166   1.305  0.0703 -2.1437 -0.4949
12590SOL     OW38310   2.011   0.222   5.216 -0.2515 -0.0481  0.1938
12590SOL    HW138311   2.104   0.242   5.200 -0.3729  0.5046  0.1589
12590SOL    HW238312   2.013   0.164   5.293  0.1555 -0.5099 -0.1578
12591SOL     OW38313   3.653   1.562   3.779  0.0385 -0.7118 -0.4929
12591SOL    HW138314   3.628   1.643   3.823  1.5485 -1.4007  1.8076
12591SOL    HW238315   3.645   1.495   3.847  0.5623 -2.2044 -1.8421
12592SOL     OW38316   3.744   2.476   4.253  0.0976  0.3568  0.1672
12592SOL    HW138317   3.827   2.509   4.287 -0.2642  2.8328 -1.1118
12592SOL    HW238318   3.756   2.381   4.248  3.0947  0.6823 -0.5933
12593SOL     OW38319   6.401   7.622   0.981 -0.3163 -0.3572 -0.0672
12593SOL    HW138320   6.461   7.589   1.048  0.9819  0.6974 -0.6562
12593SOL    HW238321   6.406   7.558   0.910  1.6572  0.6567 -0.9219
12594SOL     OW38322   5.031   4.226   3.183  0.1679  0.1296  0.3803
12594SOL    HW138323   4.949   4.229   3.134  0.1585 -0.6896  0.3372
12594SOL    HW238324   5.029   4.304   3.238 -0.8090 -0.0728  0.6392
12595SOL     OW38325   1.211   3.744   2.562  0.5307  0.5052 -0.3026
12595SOL    HW138326   1.265   3.822   2.566 -0.1039  0.8996  0.9180
12595SOL    HW238327   1.234   3.694   2.640 -0.6943  0.5917  0.1412
12596SOL     OW38328   4.572   3.073   5.222 -0.6722 -0.2092  0.7089
12596SOL    HW138329   4.484   3.038   5.208 -0.6854  0.2553 -0.5053
12596SOL    HW238330   4.579   3.147   5.161  0.3680  0.1014  1.1703
12597SOL     OW38331   2.052   1.950   5.385 -0.1713 -0.3067 -0.2833
12597SOL    HW138332   2.076   1.868   5.341 -0.7431 -0.2497 -0.7096
12597SOL    HW238333   2.039   2.012   5.313  1.1115  0.4047  0.0724
12598SOL     OW38334   3.251   4.816   0.762 -0.7344  0.7843  0.0980
12598SOL    HW138335   3.273   4.866   0.840 -0.0477 -0.6454  0.8424
12598SOL    HW238336   3.328   4.824   0.706 -0.0476 -0.5447  0.8112
12599SOL     OW38337   1.301   1.018   4.726  0.3678  0.5818  0.6610
12599SOL    HW138338   1.372   0.953   4.726 -0.2183 -0.1466 -1.3320
12599SOL    HW238339   1.308   1.061   4.811  1.4869 -1.3338  1.6271
12600SOL     OW38340   4.777   6.848   4.915  0.3235 -0.1468 -0.6357
12600SOL    HW138341   4.785   6.834   4.821  1.4671 -0.4153 -0.5099
12600SOL    HW238342   4.860   6.887   4.941  0.1466 -0.3720  0.3115
12601SOL     OW38343   2.086   0.030   3.994 -0.1590  0.2657  0.0768
12601SOL    HW138344   2.133   0.109   3.967  1.0882 -0.6024 -0.3616
12601SOL    HW238345   2.052  -0.007   3.913 -0.2298  0.0253  0.2165
12602SOL     OW38346   0.060   3.226   5.271 -0.4806  0.4048  0.3847
12602SOL    HW138347   0.151   3.251   5.289 -0.4146 -0.4812  1.4140
12602SOL    HW238348   0.009   3.264   5.343 -0.7617  0.0078  0.4025
12603SOL     OW38349   1.615   5.270   6.080 -0.0224 -0.2081  0.7855
12603SOL    HW138350   1.679   5.199   6.090  1.4774  1.3128  3.1826
12603SOL    HW238351   1.598   5.275   5.986  1.4616 -2.3013  0.3323
12604SOL     OW38352   5.107   0.715   3.191  0.3756 -0.1570 -0.3727
12604SOL    HW138353   5.047   0.655   3.146  1.0557 -0.1869 -1.2668
12604SOL    HW238354   5.134   0.777   3.123  1.9871 -0.6409 -0.2145
12605SOL     OW38355   3.457   4.103   7.378 -0.4364  0.2626 -1.0772
12605SOL    HW138356   3.449   4.164   7.305 -0.6818  1.2939 -0.2096
12605SOL    HW238357   3.502   4.153   7.446 -0.2743 -0.6602 -0.4879
12606SOL     OW38358   4.589   3.494   4.227 -0.5831  0.0484  0.4359
12606SOL    HW138359   4.550   3.467   4.144  0.9689 -0.7572 -0.0614
12606SOL    HW238360   4.542   3.575   4.251 -1.2319  0.1389 -1.0620
12607SOL     OW38361   0.528   3.089   5.398 -0.2863  0.1381 -0.4583
12607SOL    HW138362   0.549   3.001   5.431 -1.2826  0.4853  1.1834
12607SOL    HW238363   0.570   3.092   5.311  1.0105 -1.4168  0.0564
12608SOL     OW38364   4.263   3.893   7.248  0.3157 -0.5890 -0.1147
12608SOL    HW138365   4.301   3.820   7.199  1.6121 -0.1572  0.2050
12608SOL    HW238366   4.337   3.951   7.265 -0.2700 -0.2616  1.5051
12609SOL     OW38367   2.499   7.188   1.424 -0.1812 -0.5295 -0.1713
12609SOL    HW138368   2.430   7.165   1.361  0.3921 -1.8944 -0.3378
12609SOL    HW238369   2.453   7.234   1.494 -0.9427  0.3746 -1.2206
12610SOL     OW38370   1.177   0.844   0.510 -0.1116 -0.5095  0.4613
12610SOL    HW138371   1.262   0.838   0.554  0.0824 -1.1742  0.0179
12610SOL    HW238372   1.138   0.925   0.542 -0.0214 -1.0254  1.9533
12611SOL     OW38373   4.308   1.611   1.856  0.0084  0.0019 -0.1566
12611SOL    HW138374   4.331   1.672   1.787  0.8722  0.3862  0.4581
12611SOL    HW238375   4.254   1.544   1.813 -0.5112  0.9074 -0.9322
12612SOL     OW38376   5.932   3.097   7.348 -0.0883  0.0104 -0.4648
12612SOL    HW138377   5.998   3.132   7.287 -0.7850 -0.3109 -1.4325
12612SOL    HW238378   5.882   3.034   7.295 -1.9291  1.0990 -0.0939
12613SOL     OW38379   7.267   4.550   7.406  0.4093 -0.3155  0.0435
12613SOL    HW138380   7.343   4.496   7.425 -0.0867 -0.8674  0.4824
12613SOL    HW238381   7.216   4.549   7.486 -0.1748 -0.1274 -0.3202
12614SOL     OW38382   0.708   5.878   0.419  0.5213  0.0390 -0.7406
12614SOL    HW138383   0.770   5.947   0.442  0.5626 -0.1271 -0.3442
12614SOL    HW238384   0.755   5.796   0.437 -0.3577 -0.1069  1.1668
12615SOL     OW38385   2.721   6.719   1.806  0.2657  0.5069  0.1015
12615SOL    HW138386   2.658   6.699   1.736  0.6672  0.1776 -0.1692
12615SOL    HW238387   2.803   6.735   1.760  0.0899  2.3631  0.3341
12616SOL     OW38388   5.569   3.776   3.568  0.4260  0.2869  0.0354
12616SOL    HW138389   5.547   3.831   3.493  0.8472  0.8661  0.3351
12616SOL    HW238390   5.633   3.713   3.534  0.4082  0.3716 -0.1535
12617SOL     OW38391   2.538   1.282   0.533  0.1764  0.2304 -0.1301
12617SOL    HW138392   2.559   1.321   0.448 -1.0472 -0.2577 -0.6871
12617SOL    HW238393   2.523   1.356   0.591 -0.1918  0.5850 -0.6672
12618SOL     OW38394   4.710   0.189   1.552  0.2409  0.1947 -0.1350
12618SOL    HW138395   4.648   0.128   1.592 -0.3186  0.8092 -0.0489
12618SOL    HW238396   4.666   0.223   1.474  1.0968 -0.5504 -0.9730
12619SOL     OW38397   1.868   1.128   7.509  0.4733  0.4504  0.3366
12619SOL    HW138398   1.936   1.105   7.573  0.4908 -1.3123 -0.2617
12619SOL    HW238399   1.812   1.190   7.555  0.9509 -0.1443  1.8002
12620SOL     OW38400   5.942   5.839   3.059 -0.2730 -0.0170  0.1151
12620SOL    HW138401   5.904   5.859   2.974  1.1574 -0.1840 -0.5925
12620SOL    HW238402   5.879   5.778   3.099 -0.1349 -1.3426 -1.5676
12621SOL     OW38403   6.618   4.571   6.422  0.3540  0.6273  0.3953
12621SOL    HW138404   6.586   4.631   6.489  0.7487  1.3907 -0.0854
12621SOL    HW238405   6.615   4.621   6.341 -0.7544 -0.4927 -0.3001
12622SOL     OW38406   0.787   2.397   5.827  0.1479 -0.1467  0.1585
12622SOL    HW138407   0.724   2.399   5.755  1.7990 -2.2229 -1.4833
12622SOL    HW238408   0.852   2.332   5.800  2.3757  1.0366  2.2772
12623SOL     OW38409   2.751   3.729   5.167  0.1624 -0.0355 -0.2038
12623SOL    HW138410   2.717   3.643   5.142  0.4888 -0.1053 -0.4215
12623SOL    HW238411   2.839   3.731   5.129  0.1077  0.4435 -0.3081
12624SOL     OW38412   5.259   4.324   6.009 -0.3020 -0.2574 -0.2135
12624SOL    HW138413   5.279   4.403   6.059 -1.0055  0.8816 -1.6746
12624SOL    HW238414   5.323   4.324   5.938 -1.0233 -0.3724 -0.8759
12625SOL     OW38415   1.688   3.491   5.942  0.8303 -0.1050  0.1417
12625SOL    HW138416   1.724   3.500   5.854 -0.1100  0.9060 -0.1701
12625SOL    HW238417   1.604   3.536   5.938  0.1290 -1.2622  1.1949
12626SOL     OW38418   5.591   3.188   5.914  0.1048  0.1076 -0.2744
12626SOL    HW138419   5.577   3.170   6.006  1.1645 -0.5170 -0.2198
12626SOL    HW238420   5.672   3.240   5.912 -0.2161  0.5973 -0.8071
12627SOL     OW38421   4.106   2.537   7.273 -0.0415 -0.1686  0.0109
12627SOL    HW138422   4.068   2.624   7.258  0.1700 -0.1005 -0.1305
12627SOL    HW238423   4.076   2.485   7.199 -0.3099 -0.2644  0.1842
12628SOL     OW38424   7.444   6.684   6.634  0.2489  0.6705  0.2002
12628SOL    HW138425   7.473   6.603   6.677  2.3462  0.5525 -1.2588
12628SOL    HW238426   7.388   6.726   6.699 -1.0486 -1.9903  0.9663
12629SOL     OW38427   3.202   2.657   0.789 -0.5424 -0.0684 -0.3937
12629SOL    HW138428   3.186   2.706   0.708  1.3434  1.0306 -0.1609
12629SOL    HW238429   3.115   2.645   0.827 -1.3778  0.1142 -2.1673
12630SOL     OW38430   3.524   4.906   4.645  0.1951  0.1934  0.2103
12630SOL    HW138431   3.480   4.863   4.719 -1.9367  0.2414 -0.9436
12630SOL    HW238432   3.483   4.993   4.640  0.7504  0.4194 -0.6429
12631SOL     OW38433   0.373   1.789   5.598 -0.2708  0.8375  0.2075
12631SOL    HW138434   0.449   1.836   5.630  1.1338  0.1684 -1.9339
12631SOL    HW238435   0.368   1.710   5.652  1.1556  0.4323 -0.2118
12632SOL     OW38436   5.722   6.455   6.061  0.3341  0.4870  0.4942
12632SOL    HW138437   5.631   6.478   6.047 -0.3822 -2.0752  0.5060
12632SOL    HW238438   5.755   6.524   6.119 -1.3361  1.8950 -0.1421
12633SOL     OW38439   6.524   7.003   0.794  0.2468 -0.1024  0.0969
12633SOL    HW138440   6.431   7.002   0.817  0.1976 -2.5148  0.0852
12633SOL    HW238441   6.558   7.083   0.833 -2.3706  2.3904 -2.2909
12634SOL     OW38442   0.576   2.631   5.724 -0.6086 -0.3108  0.3070
12634SOL    HW138443   0.575   2.647   5.819  1.7138 -2.0662  0.7366
12634SOL    HW238444   0.550   2.539   5.715  0.0033 -0.4093 -0.6542
12635SOL     OW38445   0.325   6.167   4.829 -0.1939 -0.2840  0.8293
12635SOL    HW138446   0.266   6.192   4.899 -0.1724 -0.5910  0.9600
12635SOL    HW238447   0.308   6.074   4.815 -1.0113  0.0296 -0.3626
12636SOL     OW38448   7.097   2.611   4.799 -0.2246  0.1276  0.3920
12636SOL    HW138449   7.006   2.642   4.801 -0.3805 -0.3647  2.2068
12636SOL    HW238450   7.090   2.517   4.815  0.5516 -0.1480 -0.7294
12637SOL     OW38451   4.717   3.667   6.771  0.7763  0.2541 -0.4146
12637SOL    HW138452   4.728   3.589   6.717 -1.4375  0.2811 -1.0308
12637SOL    HW238453   4.736   3.740   6.711 -2.5993  0.3265 -1.6278
12638SOL     OW38454   7.550   3.348   5.498  0.2433  0.0009 -0.1269
12638SOL    HW138455   7.567   3.295   5.576 -1.0743 -1.3331 -0.6842
12638SOL    HW238456   7.503   3.425   5.531 -0.4310 -0.6153  0.3937
12639SOL     OW38457   1.893   5.516   3.398  0.2039 -0.0359  0.1366
12639SOL    HW138458   1.856   5.597   3.434 -0.5028 -0.0600 -0.5081
12639SOL    HW238459   1.988   5.528   3.406  0.0809  0.1284  1.5934
12640SOL     OW38460   0.746   2.038   4.715  0.0856 -0.0847  0.4361
12640SOL    HW138461   0.814   2.104   4.701 -1.2004  0.9244 -1.4570
12640SOL    HW238462   0.677   2.085   4.764 -0.8750  0.0708 -0.9994
12641SOL     OW38463   3.642   3.128   4.881  0.1779 -0.4720  0.2430
12641SOL    HW138464   3.610   3.214   4.907  2.5424  1.7347 -3.2688
12641SOL    HW238465   3.577   3.096   4.818  1.2083  0.7671 -1.5516
12642SOL     OW38466   0.428   6.292   6.541 -0.2090  0.2138  0.0392
12642SOL    HW138467   0.431   6.329   6.630 -0.0394  0.1285  0.0696
12642SOL    HW238468   0.396   6.363   6.486 -1.0486  0.0363  0.2897
12643SOL     OW38469   2.522   2.784   2.463  0.7823  0.1961 -0.1279
12643SOL    HW138470   2.527   2.691   2.487  0.2914 -0.3796 -2.0812
12643SOL    HW238471   2.600   2.799   2.411  1.4430  1.2212  1.0833
12644SOL     OW38472   3.511   5.728   0.675 -0.1265  0.2813 -0.1816
12644SOL    HW138473   3.562   5.703   0.599 -2.5185 -0.7225 -1.5740
12644SOL    HW238474   3.444   5.787   0.642 -2.4685 -1.7090  0.6219
12645SOL     OW38475   3.007   0.469   6.774 -0.0301  0.0303 -0.2476
12645SOL    HW138476   2.970   0.539   6.828 -0.9688 -0.1207 -0.6643
12645SOL    HW238477   2.991   0.389   6.824 -0.6339 -0.0772 -0.5962
12646SOL     OW38478   1.450   0.784   4.683 -0.4946  0.1317 -0.1712
12646SOL    HW138479   1.506   0.730   4.739 -0.1544  1.5296  0.8740
12646SOL    HW238480   1.508   0.811   4.611 -1.0409 -2.0132 -1.5450
12647SOL     OW38481   2.949   0.187   1.389 -0.4960 -0.0278 -0.2299
12647SOL    HW138482   2.970   0.164   1.480 -2.2617 -0.3961  0.1206
12647SOL    HW238483   2.942   0.103   1.344  1.9254  0.1732 -1.1508
12648SOL     OW38484   2.825   3.143   6.724  0.0322  0.4543  0.0311
12648SOL    HW138485   2.851   3.140   6.816 -0.2345  2.2661  0.2053
12648SOL    HW238486   2.846   3.233   6.697 -2.0510  0.6778 -1.0088
12649SOL     OW38487   6.108   5.319   6.101  0.2481  0.5075  0.9432
12649SOL    HW138488   6.153   5.403   6.114  0.9786  0.2330  0.1815
12649SOL    HW238489   6.164   5.269   6.043 -1.0690  0.1903 -0.1143
12650SOL     OW38490   4.245   6.908   2.913  0.2862  0.3118  0.1376
12650SOL    HW138491   4.263   7.001   2.928 -0.7085  0.4773  0.4236
12650SOL    HW238492   4.331   6.868   2.900  0.7955  1.1189  0.8946
12651SOL     OW38493   0.949   7.490   2.363  0.3562  0.6650  0.1346
12651SOL    HW138494   0.883   7.540   2.411  0.1787 -0.2439  0.8694
12651SOL    HW238495   0.956   7.408   2.411  2.6613  1.0768  0.5993
12652SOL     OW38496   3.871   7.511   6.618 -0.0732 -0.1231  0.0710
12652SOL    HW138497   3.863   7.545   6.707 -2.3514  0.4014 -0.2821
12652SOL    HW238498   3.842   7.582   6.562 -3.6959 -2.0174 -0.7607
12653SOL     OW38499   5.986   6.927   4.943 -0.1304 -0.0366 -0.0323
12653SOL    HW138500   5.999   6.903   4.851  0.8454  1.6870 -0.3860
12653SOL    HW238501   6.039   6.864   4.992 -0.6670 -0.9763 -0.6158
12654SOL     OW38502   2.278   6.329   0.125 -0.3794 -0.3368 -0.5425
12654SOL    HW138503   2.252   6.415   0.090 -1.3675 -0.1680  0.5017
12654SOL    HW238504   2.199   6.276   0.117 -0.1201 -0.7908 -0.1252
12655SOL     OW38505   3.577   5.155   4.371  0.3057 -0.0324  0.3886
12655SOL    HW138506   3.655   5.193   4.412  0.1933 -0.0710  0.6437
12655SOL    HW238507   3.568   5.069   4.412 -0.2619  0.2454  0.8668
12656SOL     OW38508   7.043   3.935   5.372 -0.2911  0.1606  0.0995
12656SOL    HW138509   7.115   3.872   5.369 -1.4543 -1.2729  0.7390
12656SOL    HW238510   7.075   4.007   5.426 -0.0341 -1.4610  2.2658
12657SOL     OW38511   6.837   4.690   6.143 -0.5314 -0.2921 -0.2468
12657SOL    HW138512   6.916   4.727   6.105 -1.0214  1.4969  0.3819
12657SOL    HW238513   6.830   4.603   6.104 -0.1584  0.8145 -2.9938
12658SOL     OW38514   1.004   2.739   1.708  0.0192  0.0444  0.2505
12658SOL    HW138515   1.087   2.782   1.690 -1.2715  2.5078 -0.2726
12658SOL    HW238516   0.959   2.738   1.624 -0.7600 -0.6041  0.6633
12659SOL     OW38517   4.467   4.500   1.718 -0.2242  0.3963  0.7173
12659SOL    HW138518   4.471   4.422   1.661  0.7488  0.8078  0.1858
12659SOL    HW238519   4.387   4.489   1.769 -0.7775 -0.3199 -0.2696
12660SOL     OW38520   2.502   2.513   2.495 -0.4979 -0.3135  0.6231
12660SOL    HW138521   2.497   2.482   2.405 -0.6311  0.6721  0.2792
12660SOL    HW238522   2.425   2.476   2.538 -0.5244 -0.6434  0.2982
12661SOL     OW38523   2.413   5.122   6.932  0.2423  0.2025  0.3793
12661SOL    HW138524   2.427   5.062   7.006 -1.3067 -0.5770  0.0971
12661SOL    HW238525   2.407   5.064   6.856 -0.1831  0.8189 -0.0643
12662SOL     OW38526   6.410   7.349   5.563 -0.3030  0.6353 -0.2246
12662SOL    HW138527   6.435   7.275   5.508 -2.4743  1.1910 -2.1206
12662SOL    HW238528   6.403   7.313   5.651 -2.6912 -1.8395 -1.2937
12663SOL     OW38529   6.660   4.858   7.049 -0.1592  0.0703  0.0637
12663SOL    HW138530   6.661   4.948   7.017  0.7912  0.5779  1.3976
12663SOL    HW238531   6.741   4.820   7.016 -0.0107  0.0706  0.4151
12664SOL     OW38532   5.256   1.263   0.688  0.0818 -0.0756 -0.5683
12664SOL    HW138533   5.274   1.302   0.773 -2.9442  0.4732 -0.0831
12664SOL    HW238534   5.237   1.338   0.631 -2.1464 -0.5732 -0.5674
12665SOL     OW38535   2.476   1.522   7.329  0.6784 -0.0009 -0.1777
12665SOL    HW138536   2.389   1.554   7.351  0.5576  0.0221 -0.6804
12665SOL    HW238537   2.461   1.440   7.281  0.7740  1.3678 -2.7483
12666SOL     OW38538   6.795   4.105   4.042 -0.6331  0.9728 -0.3269
12666SOL    HW138539   6.730   4.174   4.034 -1.6716  0.1509  0.5875
12666SOL    HW238540   6.858   4.138   4.106 -1.1258  1.0764  0.1092
12667SOL     OW38541   1.571   0.748   6.904 -0.7887  0.1655  0.0411
12667SOL    HW138542   1.525   0.722   6.824 -0.3598 -0.8622  0.1156
12667SOL    HW238543   1.501   0.769   6.966 -1.1296  0.5028 -0.4410
12668SOL     OW38544   6.563   0.434   7.020 -0.0418  0.2775  0.2727
12668SOL    HW138545   6.596   0.379   7.091 -0.6225 -0.5409 -0.0753
12668SOL    HW238546   6.640   0.480   6.987  0.3345  0.2012  1.0283
12669SOL     OW38547   3.052   0.693   4.557 -0.1391  0.1771 -0.2794
12669SOL    HW138548   3.008   0.724   4.637  0.5427 -1.2375  0.6851
12669SOL    HW238549   3.119   0.760   4.540  0.0532  0.2433  0.6463
12670SOL     OW38550   4.112   1.083   1.680  0.0040 -0.5701  0.0748
12670SOL    HW138551   4.165   1.014   1.641  0.6346 -0.7526  1.2275
12670SOL    HW238552   4.076   1.044   1.759 -1.4296 -0.2666 -0.3892
12671SOL     OW38553   5.671   4.650   5.921 -0.3015  0.3893  0.5432
12671SOL    HW138554   5.685   4.675   5.830  0.7806 -0.6974  0.3894
12671SOL    HW238555   5.620   4.722   5.958 -1.0787  0.6651 -1.0041
12672SOL     OW38556   3.488   6.954   3.452  0.0914 -0.7457  0.1059
12672SOL    HW138557   3.406   6.969   3.499 -0.4077  0.4456 -1.0633
12672SOL    HW238558   3.479   7.006   3.372  2.5177  0.4788  0.5343
12673SOL     OW38559   2.903   4.453   4.093 -0.2749 -0.0590 -0.1383
12673SOL    HW138560   2.999   4.457   4.096 -0.2854  1.8962 -0.8472
12673SOL    HW238561   2.883   4.439   4.000 -0.6581  2.5039 -0.5223
12674SOL     OW38562   3.133   2.499   0.010  0.5892  0.1829  0.0739
12674SOL    HW138563   3.146   2.549   0.090  0.1420  0.6801 -0.1600
12674SOL    HW238564   3.222   2.482  -0.023  0.7530  0.4604  0.3726
12675SOL     OW38565   6.070   5.057   2.372  0.0991 -0.4831  0.5647
12675SOL    HW138566   5.975   5.063   2.379  0.2922  1.1884  2.5439
12675SOL    HW238567   6.096   5.006   2.449  0.7962 -1.5576 -0.3446
12676SOL     OW38568   6.732   4.626   1.676  0.1364 -0.2881  0.4389
12676SOL    HW138569   6.660   4.622   1.612 -0.4839 -1.4636  1.1654
12676SOL    HW238570   6.728   4.541   1.720  0.6155  0.4551  1.9546
12677SOL     OW38571   7.591   1.820   0.439  0.1614  0.3086 -0.5196
12677SOL    HW138572   7.520   1.843   0.379  0.0947 -0.0334 -0.5742
12677SOL    HW238573   7.634   1.746   0.397 -0.3417 -0.4041  0.2147
12678SOL     OW38574   1.027   0.136   0.867 -0.1891 -0.1456 -0.3226
12678SOL    HW138575   1.012   0.230   0.866  1.7102  0.1917  0.2491
12678SOL    HW238576   1.071   0.119   0.950  1.4219 -1.2014 -1.3484
12679SOL     OW38577   0.817   6.720   6.306 -0.5899 -0.2093 -0.5156
12679SOL    HW138578   0.816   6.688   6.216  1.0105 -1.9834  0.0303
12679SOL    HW238579   0.797   6.644   6.360 -0.9317  0.6830  0.6773
12680SOL     OW38580   3.326   5.820   3.826 -0.1872 -0.3996 -0.2632
12680SOL    HW138581   3.278   5.739   3.815 -2.0383  0.6478 -0.2999
12680SOL    HW238582   3.273   5.871   3.888 -0.7776  1.9932 -2.5357
12681SOL     OW38583   5.782   6.563   7.071 -0.1723  0.0355  0.5019
12681SOL    HW138584   5.719   6.516   7.125 -1.7908 -2.6681 -3.2581
12681SOL    HW238585   5.840   6.495   7.037  1.4435  1.7271 -0.3462
12682SOL     OW38586   4.351   1.650   1.408 -0.6707  0.4489 -0.0720
12682SOL    HW138587   4.350   1.664   1.503  2.0303 -0.6810  0.2040
12682SOL    HW238588   4.283   1.583   1.394 -1.0778  0.5981  1.0501
12683SOL     OW38589   0.758   2.845   5.356  0.0805  0.5522  0.7717
12683SOL    HW138590   0.731   2.917   5.300  0.2904 -0.2919 -0.4626
12683SOL    HW238591   0.849   2.863   5.377  0.1858  0.5618  0.3152
12684SOL     OW38592   6.128   2.987   1.462  0.1171  0.3596  0.6419
12684SOL    HW138593   6.107   2.895   1.452  2.5838 -0.1683 -0.3082
12684SOL    HW238594   6.162   2.994   1.552  2.3777 -0.2637 -0.0985
12685SOL     OW38595   1.330   6.755   7.185  0.0234  0.2926 -0.4940
12685SOL    HW138596   1.254   6.807   7.208  1.2923  1.4644  1.3185
12685SOL    HW238597   1.294   6.675   7.147 -2.0628  1.1242 -0.3694
12686SOL     OW38598   4.405   3.719   2.891 -0.1277  0.5877  0.0148
12686SOL    HW138599   4.325   3.753   2.850  0.0248  0.7073 -0.1804
12686SOL    HW238600   4.427   3.642   2.839  0.9551  1.6254 -1.1216
12687SOL     OW38601   0.512   6.410   2.752  0.1994  0.1686 -0.8260
12687SOL    HW138602   0.592   6.424   2.700  0.3317  1.2310 -0.3483
12687SOL    HW238603   0.511   6.482   2.815 -1.0911  0.1134 -0.7606
12688SOL     OW38604   5.617   1.018   3.251  0.3002  0.1671  0.0389
12688SOL    HW138605   5.528   1.053   3.247  0.6676  1.0458 -2.9788
12688SOL    HW238606   5.610   0.929   3.216  0.2691 -0.8560  2.4177
12689SOL     OW38607   5.802   7.152   7.110  0.7371  0.6455  0.5862
12689SOL    HW138608   5.878   7.151   7.052  0.1375 -0.4489 -0.2229
12689SOL    HW238609   5.836   7.179   7.195  2.1487 -0.5111  0.4118
12690SOL     OW38610   1.591   6.521   0.024  0.3346 -0.4813  0.6613
12690SOL    HW138611   1.627   6.500   0.110 -1.0956 -0.7795  1.2091
12690SOL    HW238612   1.570   6.614   0.029  2.3754  0.0979 -0.1954
12691SOL     OW38613   7.569   6.421   6.764  0.3200 -0.4965  0.2066
12691SOL    HW138614   7.657   6.449   6.739  0.5365 -0.7156  0.7139
12691SOL    HW238615   7.574   6.410   6.859  0.3834 -2.6874 -0.0024
12692SOL     OW38616   5.821   4.022   4.095  0.6443 -0.9502 -0.4857
12692SOL    HW138617   5.809   4.002   4.002  1.4430  0.4560 -0.9268
12692SOL    HW238618   5.840   4.116   4.097 -0.7910 -0.6479  1.2473
12693SOL     OW38619   5.621   3.690   2.987 -0.3646  0.1728 -0.5336
12693SOL    HW138620   5.543   3.746   2.988 -0.8128 -0.3819  2.5666
12693SOL    HW238621   5.694   3.752   2.994 -0.7889  0.5243  1.3016
12694SOL     OW38622   6.011   4.089   2.417 -0.3946 -0.2094 -0.4331
12694SOL    HW138623   5.992   4.104   2.510 -0.3515  0.4933 -0.5295
12694SOL    HW238624   5.935   4.040   2.385  0.4602 -2.1443  0.3941
12695SOL     OW38625   3.144   1.279   4.546  0.1498  0.2361 -0.1679
12695SOL    HW138626   3.202   1.271   4.470 -1.0107 -0.8703 -0.9872
12695SOL    HW238627   3.105   1.366   4.537  0.5984  0.4163 -0.4097
12696SOL     OW38628   1.583   1.079   7.157 -0.0366  0.2064 -0.0258
12696SOL    HW138629   1.601   1.081   7.063  0.2583  1.2092  0.0386
12696SOL    HW238630   1.640   1.148   7.193 -1.7699  1.3667  0.5975
12697SOL     OW38631   5.471   3.935   7.576  0.1154  0.5847  0.1470
12697SOL    HW138632   5.408   3.865   7.554  0.1183  0.5497  0.2531
12697SOL    HW238633   5.555   3.900   7.548  0.1535  0.4389  0.4358
12698SOL     OW38634   3.651   0.249   6.196 -0.0456  0.6742 -0.3607
12698SOL    HW138635   3.725   0.254   6.135  0.2772  1.0486  0.0591
12698SOL    HW238636   3.644   0.155   6.216 -0.3683  0.5047 -1.2239
12699SOL     OW38637   0.819   5.949   3.088  0.1272 -0.3200 -0.2382
12699SOL    HW138638   0.739   5.912   3.051  0.9247 -0.5049 -1.8588
12699SOL    HW238639   0.796   6.040   3.108 -0.5297 -0.4240 -0.4900
12700SOL     OW38640   3.513   1.051   0.187  0.0468  0.9034 -0.3612
12700SOL    HW138641   3.425   1.029   0.156 -0.1828  1.2465  0.0379
12700SOL    HW238642   3.544   0.970   0.228 -0.3913  1.0008  0.1871
12701SOL     OW38643   0.058   3.588   5.651 -0.5973  0.4119  0.5165
12701SOL    HW138644   0.140   3.627   5.622 -0.3853 -0.4038  0.0003
12701SOL    HW238645   0.084   3.516   5.708 -0.9907  1.0640  1.5458
12702SOL     OW38646   2.450   6.529   6.449 -0.2821  0.1409 -0.6997
12702SOL    HW138647   2.541   6.538   6.476 -0.2938  0.1870 -0.6756
12702SOL    HW238648   2.455   6.502   6.358 -0.1950 -1.9411 -0.1399
12703SOL     OW38649   4.940   6.389   3.880 -0.0220  0.2835  0.3416
12703SOL    HW138650   4.904   6.454   3.820 -0.7662 -0.3543  0.0758
12703SOL    HW238651   4.989   6.328   3.824 -0.3940 -0.0964  0.4250
12704SOL     OW38652   6.650   6.685   7.254 -0.3549 -0.0120 -0.1191
12704SOL    HW138653   6.624   6.593   7.253 -0.0115 -0.1166  0.2707
12704SOL    HW238654   6.583   6.728   7.307 -0.1974 -0.1377  0.1855
12705SOL     OW38655   3.967   2.009   5.207  0.6135 -0.0403 -0.0169
12705SOL    HW138656   4.041   2.020   5.267  0.8262  0.0980 -0.3004
12705SOL    HW238657   3.961   2.093   5.161 -0.3268  0.2837  0.6831
12706SOL     OW38658   2.483   2.991   0.621 -0.0206 -0.2046  0.8881
12706SOL    HW138659   2.560   3.046   0.637 -0.7796  0.7338  1.3829
12706SOL    HW238660   2.447   2.973   0.707 -0.7867 -0.0139  0.6143
12707SOL     OW38661   6.767   1.296   5.121 -0.4348  0.3508 -0.1465
12707SOL    HW138662   6.788   1.330   5.034 -1.1322 -0.1377 -0.5141
12707SOL    HW238663   6.672   1.309   5.129 -0.3236  0.6679  0.6628
12708SOL     OW38664   4.799   6.552   1.199 -0.0745  0.0465 -0.4568
12708SOL    HW138665   4.766   6.640   1.182 -1.9583 -0.1952  1.3920
12708SOL    HW238666   4.887   6.551   1.163  0.0268  2.7186 -0.4702
12709SOL     OW38667   6.431   0.787   3.282  1.0470 -0.0812 -0.2634
12709SOL    HW138668   6.489   0.720   3.320  1.4736  0.3494 -0.1447
12709SOL    HW238669   6.461   0.869   3.321  0.1852  0.1198 -0.0132
12710SOL     OW38670   0.264   0.867   6.181  0.1377  0.2244  0.1536
12710SOL    HW138671   0.212   0.802   6.135 -1.4143  1.3408  0.2257
12710SOL    HW238672   0.337   0.887   6.123 -0.6421  0.0856 -0.8894
12711SOL     OW38673   6.688   1.390   2.937 -0.3303  0.0037  0.3783
12711SOL    HW138674   6.595   1.389   2.958 -0.2704 -0.6843  0.6625
12711SOL    HW238675   6.722   1.308   2.974  0.3722  0.2099  0.2189
12712SOL     OW38676   5.449   3.163   6.280  0.3174 -0.3728 -0.1201
12712SOL    HW138677   5.544   3.159   6.294  0.9721  0.3789 -3.4998
12712SOL    HW238678   5.426   3.075   6.249  0.4098  0.1020 -1.6027
12713SOL     OW38679   0.642   4.418   5.034 -0.0755  0.0326 -0.7756
12713SOL    HW138680   0.645   4.488   4.968  1.4396  1.4124  0.6489
12713SOL    HW238681   0.734   4.405   5.059 -0.3980 -2.0183 -0.5000
12714SOL     OW38682   1.745   2.265   0.112  0.1035 -0.4040 -0.0061
12714SOL    HW138683   1.744   2.351   0.155  1.5816 -0.4559  0.1755
12714SOL    HW238684   1.780   2.282   0.025  0.1592 -0.7776 -0.0572
12715SOL     OW38685   2.438   5.543   4.380  0.7194 -0.3105  0.1660
12715SOL    HW138686   2.429   5.515   4.289  0.7095 -0.0192  0.0784
12715SOL    HW238687   2.369   5.495   4.426  0.1611  0.2013 -0.1291
12716SOL     OW38688   7.541   5.979   3.049 -0.1607 -0.2597  0.1794
12716SOL    HW138689   7.529   6.069   3.077  0.2615  0.1560 -0.9440
12716SOL    HW238690   7.636   5.965   3.053 -0.2292 -0.6986  0.4461
12717SOL     OW38691   5.737   5.032   6.026  0.0238 -0.4835  0.2949
12717SOL    HW138692   5.689   5.087   5.965 -1.7857 -1.6041  0.6226
12717SOL    HW238693   5.740   5.083   6.107  0.6491  0.1658 -0.1220
12718SOL     OW38694   6.980   2.580   0.703  0.2876  0.2892  0.2192
12718SOL    HW138695   6.930   2.562   0.782  0.4784  1.3670  0.6007
12718SOL    HW238696   6.926   2.546   0.632  0.0961 -0.6517  0.7908
12719SOL     OW38697   1.388   0.674   1.408  0.1558 -0.0781 -0.5216
12719SOL    HW138698   1.337   0.628   1.475 -0.0094  1.6452  0.6004
12719SOL    HW238699   1.322   0.718   1.355  0.3139 -1.0790 -1.5964
12720SOL     OW38700   5.757   5.831   4.750 -0.4709 -0.0614  0.1086
12720SOL    HW138701   5.817   5.870   4.687 -2.4292  1.5964 -0.8579
12720SOL    HW238702   5.769   5.736   4.740  0.3150  0.1925 -1.7129
12721SOL     OW38703   4.533   2.678   4.582  0.3948  0.2078 -0.3667
12721SOL    HW138704   4.614   2.632   4.603  0.3208 -0.2965 -1.1307
12721SOL    HW238705   4.497   2.630   4.507 -0.7694  0.2281  0.1518
12722SOL     OW38706   5.928   5.896   7.027 -0.6180  0.2082  0.2625
12722SOL    HW138707   5.981   5.819   7.006 -0.5926  0.4732 -0.6877
12722SOL    HW238708   5.891   5.924   6.943 -2.2029  0.0905  0.8809
12723SOL     OW38709   7.513   4.915   6.199 -0.4124 -0.1731 -1.1499
12723SOL    HW138710   7.465   4.904   6.281  0.4106  1.7818 -0.3388
12723SOL    HW238711   7.597   4.873   6.214  0.7235  2.3122  0.0258
12724SOL     OW38712   6.920   3.432   3.109 -0.2991  0.1161  0.1944
12724SOL    HW138713   6.965   3.456   3.190 -1.4172  2.2918  0.2250
12724SOL    HW238714   6.901   3.338   3.119  1.0941 -0.0590  1.6631
12725SOL     OW38715   0.112   2.909   0.228 -0.0623  0.4645 -0.2517
12725SOL    HW138716   0.140   2.858   0.152 -1.3175 -0.3587 -0.1852
12725SOL    HW238717   0.189   2.961   0.252  0.1954  1.1909 -2.4240
12726SOL     OW38718   4.455   3.049   1.491 -0.0949 -0.0691 -0.1964
12726SOL    HW138719   4.369   3.016   1.466  0.1759 -0.1921 -0.9961
12726SOL    HW238720   4.466   3.129   1.439  1.0534 -1.0677 -1.5878
12727SOL     OW38721   6.014   2.447   7.446  0.1037 -0.1786  0.1709
12727SOL    HW138722   5.988   2.453   7.354 -2.1860 -3.1555  0.4577
12727SOL    HW238723   5.970   2.520   7.489  0.8749  1.0075 -0.9996
12728SOL     OW38724   6.809   6.052   4.647 -0.3488  0.6450 -0.1594
12728SOL    HW138725   6.892   6.092   4.620 -0.4390  1.3861  0.6283
12728SOL    HW238726   6.829   5.959   4.657 -0.0488  0.5253 -1.6673
12729SOL     OW38727   6.411   0.129   3.563 -0.1311  0.2304 -0.5257
12729SOL    HW138728   6.324   0.093   3.543  0.7744 -1.5384 -1.5057
12729SOL    HW238729   6.466   0.052   3.576  1.4721  1.3090 -0.6587
12730SOL     OW38730   2.297   5.422   4.589  0.0256  0.1189  0.6020
12730SOL    HW138731   2.389   5.423   4.614 -0.1426 -1.4772  1.3940
12730SOL    HW238732   2.249   5.432   4.671 -0.5056 -1.9853  0.5967
12731SOL     OW38733   2.783   5.732   2.399 -0.4986  0.1943  0.0166
12731SOL    HW138734   2.860   5.726   2.342 -0.0244  0.3969  0.6319
12731SOL    HW238735   2.815   5.774   2.479 -0.9533 -0.9343  0.8164
12732SOL     OW38736   6.647   4.995   5.911 -0.1570  0.5687  0.0274
12732SOL    HW138737   6.589   4.921   5.891  0.7724 -0.0257 -0.5574
12732SOL    HW238738   6.627   5.017   6.002 -2.5657  1.5555 -0.6746
12733SOL     OW38739   7.417   2.940   5.424 -0.5119 -0.9076  0.0308
12733SOL    HW138740   7.474   2.870   5.393 -0.3889 -0.3007 -1.1473
12733SOL    HW238741   7.389   2.911   5.511  1.6910 -1.1586  0.7246
12734SOL     OW38742   5.835   3.808   1.948 -0.4341  0.3048  0.1218
12734SOL    HW138743   5.821   3.903   1.946 -0.4236  0.3158 -2.3108
12734SOL    HW238744   5.917   3.797   1.996 -1.1419  1.3896  1.6591
12735SOL     OW38745   2.835   3.737   2.159 -0.3871 -0.0441  0.1710
12735SOL    HW138746   2.851   3.643   2.150 -2.2888 -0.4343  0.4344
12735SOL    HW238747   2.786   3.761   2.080 -0.4513  0.5926  0.3936
12736SOL     OW38748   4.797   0.206   5.432  0.0416 -0.1157  0.1469
12736SOL    HW138749   4.780   0.238   5.344 -1.2459 -0.8657  0.0991
12736SOL    HW238750   4.853   0.273   5.472 -1.0869  1.2939 -0.5430
12737SOL     OW38751   4.708   3.150   2.704  0.2635 -0.5523 -0.3634
12737SOL    HW138752   4.686   3.225   2.759 -1.6082 -0.1230 -1.6020
12737SOL    HW238753   4.707   3.184   2.615 -3.7255 -2.5204 -1.3014
12738SOL     OW38754   2.442   6.529   0.581 -0.3856 -0.0198 -0.1526
12738SOL    HW138755   2.462   6.480   0.502 -0.6250  1.3098 -1.0722
12738SOL    HW238756   2.433   6.462   0.649 -2.9694 -1.5007 -1.7900
12739SOL     OW38757   5.702   4.017   4.355  0.2682  0.0627  0.3940
12739SOL    HW138758   5.779   3.997   4.409 -0.4113  0.5936  1.5913
12739SOL    HW238759   5.736   4.023   4.266  1.2406 -2.0249  0.5550
12740SOL     OW38760   3.921   2.852   6.435 -0.0674 -0.5471 -0.4742
12740SOL    HW138761   3.969   2.917   6.384  0.8410 -1.3098 -0.6189
12740SOL    HW238762   3.829   2.867   6.413  0.2692 -0.5337 -1.9437
12741SOL     OW38763   7.520   1.140   4.020  0.0372 -1.0852 -0.3665
12741SOL    HW138764   7.550   1.217   3.971 -1.2650 -0.3003 -0.0074
12741SOL    HW238765   7.425   1.151   4.025 -0.2438 -3.0123 -0.7669
12742SOL     OW38766   0.430   2.055   0.270  0.1637 -0.3501 -0.2216
12742SOL    HW138767   0.437   1.959   0.276 -0.7668 -0.3267  2.0528
12742SOL    HW238768   0.370   2.070   0.197  1.1539 -1.4152 -1.3171
12743SOL     OW38769   4.004   1.216   2.730 -0.1131 -0.2621 -0.0440
12743SOL    HW138770   3.995   1.168   2.812 -1.5933  0.1191  0.0455
12743SOL    HW238771   4.098   1.221   2.715  0.1332 -1.5761  0.8889
12744SOL     OW38772   0.597   1.664   1.258  0.0653 -0.4456  0.2312
12744SOL    HW138773   0.634   1.591   1.208 -0.6635 -1.0659  0.5702
12744SOL    HW238774   0.644   1.662   1.341  2.5250  1.6648 -0.9620
12745SOL     OW38775   2.849   4.257   3.044  0.0082 -0.2417 -0.2182
12745SOL    HW138776   2.858   4.210   3.127  0.3374  0.0256 -0.1028
12745SOL    HW238777   2.885   4.344   3.061 -1.0153  0.2078 -0.3066
12746SOL     OW38778   0.319   6.512   2.384  0.0333 -0.2388  0.6433
12746SOL    HW138779   0.248   6.570   2.358 -0.7300 -0.7953  1.4521
12746SOL    HW238780   0.365   6.558   2.453  0.4240  0.0854  0.1760
12747SOL     OW38781   6.532   2.005   0.028  0.5617  0.2209  0.2743
12747SOL    HW138782   6.592   2.075   0.052 -0.0134  1.2798 -1.2067
12747SOL    HW238783   6.481   2.041  -0.045  0.6521 -1.9345 -0.9454
12748SOL     OW38784   7.202   0.178   4.119  0.2341 -0.0814  0.3430
12748SOL    HW138785   7.162   0.215   4.040  1.0772 -1.8245 -0.9809
12748SOL    HW238786   7.137   0.116   4.152  0.1764  0.1020  0.5669
12749SOL     OW38787   1.228   2.710   0.174 -0.0622  0.3061  0.3039
12749SOL    HW138788   1.261   2.727   0.262 -1.6020  0.3082  0.9275
12749SOL    HW238789   1.263   2.782   0.121  0.3503  0.6822  1.0701
12750SOL     OW38790   3.674   5.756   7.613 -0.2828 -0.1449 -0.2246
12750SOL    HW138791   3.660   5.782   7.522  0.6182 -3.3072 -1.4123
12750SOL    HW238792   3.585   5.739   7.646 -0.6352  1.2438 -0.3849
12751SOL     OW38793   5.192   6.231   5.898 -0.2657  0.0416  0.3730
12751SOL    HW138794   5.152   6.257   5.815  0.1529 -1.2175 -0.2516
12751SOL    HW238795   5.245   6.306   5.924  1.6197 -0.4028 -1.8031
12752SOL     OW38796   4.513   4.812   3.152  0.0194 -0.4454 -0.4630
12752SOL    HW138797   4.607   4.806   3.137  0.0734  1.0177 -0.9014
12752SOL    HW238798   4.485   4.890   3.104 -1.1178  0.1048  0.9699
12753SOL     OW38799   1.169   2.911   4.669  0.1969  0.4145  0.1779
12753SOL    HW138800   1.232   2.980   4.691  1.7765 -1.9805  4.4547
12753SOL    HW238801   1.223   2.832   4.660 -1.8390 -0.9551 -0.7677
12754SOL     OW38802   6.120   6.658   6.834  0.4235 -0.0487  0.2615
12754SOL    HW138803   6.181   6.595   6.870 -0.8131 -1.6334 -0.3156
12754SOL    HW238804   6.128   6.735   6.891  3.0872 -0.0667  0.0580
12755SOL     OW38805   7.225   6.501   6.547 -0.2540 -0.3314 -0.0709
12755SOL    HW138806   7.275   6.582   6.555 -2.2785  0.7461  2.9867
12755SOL    HW238807   7.287   6.432   6.571  0.6264  0.6371  0.4999
12756SOL     OW38808   5.743   5.022   2.997  0.3916  0.5798  0.0997
12756SOL    HW138809   5.736   5.116   2.980  2.1637  0.4949 -1.4490
12756SOL    HW238810   5.661   5.000   3.041 -0.0514  2.8454  0.5781
12757SOL     OW38811   3.942   2.908   3.340 -0.2785 -0.3830 -0.4916
12757SOL    HW138812   4.030   2.872   3.330 -0.7150 -1.3311 -1.0864
12757SOL    HW238813   3.955   2.994   3.379  0.8759 -0.7218 -0.1053
12758SOL     OW38814   3.374   2.222   0.506 -0.8017 -0.3921  0.1698
12758SOL    HW138815   3.322   2.278   0.564 -1.3887 -0.9301  0.1703
12758SOL    HW238816   3.453   2.273   0.489 -0.9162  0.0567  0.9102
12759SOL     OW38817   0.735   7.512   1.745  0.5357  0.3547 -0.2073
12759SOL    HW138818   0.653   7.554   1.716  0.0393  1.5627  2.5755
12759SOL    HW238819   0.764   7.461   1.669 -1.8242  1.3299 -1.9060
12760SOL     OW38820   3.430   4.704   6.173 -0.3167  0.1501  0.1072
12760SOL    HW138821   3.402   4.625   6.128  0.8640  0.4867 -1.3043
12760SOL    HW238822   3.356   4.728   6.229 -0.6793 -1.9387  0.5756
12761SOL     OW38823   3.290   7.489   6.449  0.0322 -0.2892  0.6063
12761SOL    HW138824   3.333   7.563   6.406  0.1700 -0.4545  0.4577
12761SOL    HW238825   3.261   7.523   6.533  0.6602 -0.2458  0.8039
12762SOL     OW38826   5.744   7.455   2.700  0.5196 -0.0466  0.6181
12762SOL    HW138827   5.820   7.397   2.710  0.9759 -0.0230 -1.9748
12762SOL    HW238828   5.687   7.410   2.638  0.2802  1.6196 -0.4600
12763SOL     OW38829   6.624   3.774   3.166  0.6730  0.4509  0.0141
12763SOL    HW138830   6.604   3.826   3.244  0.3763 -0.4515  0.5544
12763SOL    HW238831   6.559   3.804   3.102  0.3118  0.5459  0.4108
12764SOL     OW38832   1.361   2.000   6.375  0.3475 -0.3441 -0.6451
12764SOL    HW138833   1.439   2.054   6.389  0.9189 -0.9790 -1.2421
12764SOL    HW238834   1.287   2.059   6.391  0.9478  0.5257 -0.9801
12765SOL     OW38835   7.565   3.749   2.988  0.0828  0.0042  0.7009
12765SOL    HW138836   7.573   3.751   2.893  0.2150 -0.2776  0.7041
12765SOL    HW238837   7.629   3.814   3.019  1.1529 -0.9879  0.6518
12766SOL     OW38838   0.978   7.378   6.610  0.1655 -0.3870  0.4252
12766SOL    HW138839   1.047   7.352   6.548  1.8900  0.3713  1.9379
12766SOL    HW238840   0.964   7.471   6.591 -0.7034 -0.6106 -0.0810
12767SOL     OW38841   5.415   5.833   3.866 -0.0119  0.4956  0.3451
12767SOL    HW138842   5.455   5.843   3.779  1.2636  1.6141  1.0282
12767SOL    HW238843   5.402   5.739   3.875  2.2739  0.0790 -0.0417
12768SOL     OW38844   4.682   3.518   0.149 -0.3714  0.6475 -0.1525
12768SOL    HW138845   4.737   3.476   0.084 -0.8770 -2.2212  1.1301
12768SOL    HW238846   4.599   3.535   0.103  0.6320  2.6299 -1.3593
12769SOL     OW38847   2.312   0.988   4.121  0.4077  0.3866  0.4043
12769SOL    HW138848   2.225   0.969   4.155  1.0802 -0.4198  1.7691
12769SOL    HW238849   2.298   1.058   4.057 -1.1502  0.7577  1.0951
12770SOL     OW38850   0.332   4.399   3.952  0.1800 -0.0908  0.0607
12770SOL    HW138851   0.291   4.451   4.021 -0.2394  1.4467 -1.2779
12770SOL    HW238852   0.277   4.321   3.945 -2.5412  1.8215 -1.5440
12771SOL     OW38853   0.068   3.106   0.007 -0.1105 -0.5147  0.3742
12771SOL    HW138854  -0.026   3.124   0.000 -0.3245 -1.5455  0.3736
12771SOL    HW238855   0.075   3.048   0.083  0.3021 -1.7982 -0.6138
12772SOL     OW38856   1.801   1.459   4.968 -0.0270  0.0136 -0.2917
12772SOL    HW138857   1.721   1.509   4.983 -0.1196 -0.2026 -0.0419
12772SOL    HW238858   1.844   1.503   4.895  0.6549  1.3832  0.8888
12773SOL     OW38859   2.243   7.404   6.480  0.4800 -0.0502 -0.2519
12773SOL    HW138860   2.151   7.426   6.497  0.3580  1.4955 -2.5308
12773SOL    HW238861   2.239   7.340   6.409  1.1529  1.3849 -1.6460
12774SOL     OW38862   5.051   5.121   6.217 -0.4246  0.4497 -0.1397
12774SOL    HW138863   5.055   5.139   6.123 -2.4274 -0.9734 -0.5675
12774SOL    HW238864   5.001   5.194   6.253 -1.6897 -0.1671 -0.5922
12775SOL     OW38865   0.289   7.534   1.015  0.1363  0.1910  0.0224
12775SOL    HW138866   0.227   7.549   0.944  0.8302 -0.3170 -0.7246
12775SOL    HW238867   0.372   7.568   0.981  0.4311  0.1388  0.6829
12776SOL     OW38868   3.471   6.461   2.749  0.7821  0.3097 -0.7225
12776SOL    HW138869   3.444   6.480   2.839  2.1025  1.3286 -0.5012
12776SOL    HW238870   3.449   6.541   2.701  2.2567  0.7281 -0.7636
12777SOL     OW38871   3.596   6.877   1.064 -0.6034  0.7031 -0.4600
12777SOL    HW138872   3.578   6.848   0.975 -0.5164  0.9241 -0.5506
12777SOL    HW238873   3.679   6.834   1.087 -2.2675 -2.1975  0.8022
12778SOL     OW38874   3.639   7.449   7.323 -0.4483  0.3291  0.0994
12778SOL    HW138875   3.728   7.478   7.306 -0.7262  1.2899  0.2207
12778SOL    HW238876   3.588   7.480   7.248 -0.9185  0.9978  0.6738
12779SOL     OW38877   5.286   5.433   1.540  0.0198  0.0339  0.2174
12779SOL    HW138878   5.358   5.398   1.488  0.0884  0.2800  0.1441
12779SOL    HW238879   5.218   5.454   1.475 -0.3365 -0.7119  0.3360
12780SOL     OW38880   5.821   3.476   2.901  0.3350 -0.2844 -0.2254
12780SOL    HW138881   5.841   3.414   2.972 -0.6912 -1.4682 -0.9387
12780SOL    HW238882   5.741   3.519   2.929  0.9913  0.6985  0.2204
12781SOL     OW38883   7.306   4.935   6.435 -0.4085  0.4434 -0.0758
12781SOL    HW138884   7.309   4.915   6.528  0.6289 -0.3162 -0.2597
12781SOL    HW238885   7.286   5.029   6.432 -3.1065 -0.0090  0.8320
12782SOL     OW38886   3.953   2.448   3.864  0.3630  0.0326  0.5032
12782SOL    HW138887   3.986   2.533   3.892 -2.8734  1.5500  0.2284
12782SOL    HW238888   3.958   2.393   3.942  2.1260  0.5376  0.7930
12783SOL     OW38889   7.530   3.704   4.010  0.0620 -0.6870 -0.2759
12783SOL    HW138890   7.551   3.611   4.014  2.5273 -0.1961 -0.2334
12783SOL    HW238891   7.522   3.731   4.102  0.1353 -0.7072 -0.2639
12784SOL     OW38892   6.901   0.814   3.167 -0.1580  0.7282  0.3036
12784SOL    HW138893   6.963   0.753   3.208  0.8672  1.1577 -0.5694
12784SOL    HW238894   6.852   0.759   3.106 -1.0050  0.2901  1.3337
12785SOL     OW38895   0.613   3.989   5.332  0.5752 -0.3783 -0.1550
12785SOL    HW138896   0.667   4.027   5.400  0.3744 -0.2143 -0.0851
12785SOL    HW238897   0.672   3.977   5.258  0.5884  0.2947 -0.2597
12786SOL     OW38898   5.368   2.731   3.497  0.5166 -0.7568 -0.0243
12786SOL    HW138899   5.357   2.648   3.543 -3.9111 -0.3705  0.0665
12786SOL    HW238900   5.440   2.715   3.435  0.9792 -4.0391  1.1787
12787SOL     OW38901   6.222   1.931   1.048 -0.3921 -0.0146  0.9552
12787SOL    HW138902   6.129   1.919   1.028 -0.0297  1.5414 -2.3408
12787SOL    HW238903   6.257   1.842   1.054 -1.7205 -0.6277  0.0535
12788SOL     OW38904   2.658   3.474   3.297 -0.0621 -0.1504  0.3703
12788SOL    HW138905   2.606   3.394   3.313 -1.2129  0.2052 -1.2279
12788SOL    HW238906   2.733   3.443   3.247 -0.4112 -0.2771 -0.0879
12789SOL     OW38907   3.311   0.638   6.667  0.5575 -0.3606 -0.1156
12789SOL    HW138908   3.248   0.644   6.595  0.8672  1.5740 -0.2781
12789SOL    HW238909   3.258   0.628   6.746  0.0312  1.0198 -0.2774
12790SOL     OW38910   1.635   5.572   2.346 -0.2441  0.0927  0.0493
12790SOL    HW138911   1.637   5.477   2.356 -0.5709  0.0835  0.0523
12790SOL    HW238912   1.683   5.605   2.422  1.4173 -0.1103 -0.8704
12791SOL     OW38913   7.554   1.168   5.366  0.8615  0.8140 -0.2514
12791SOL    HW138914   7.464   1.200   5.356  1.0857  1.2824 -0.8271
12791SOL    HW238915   7.573   1.126   5.281  1.1683  0.6691 -0.1105
12792SOL     OW38916   2.017   1.163   1.610 -0.3646  0.6943  0.8330
12792SOL    HW138917   1.968   1.109   1.671  0.5382 -2.1134 -0.7265
12792SOL    HW238918   1.963   1.164   1.531  0.5997  0.2404  0.1481
12793SOL     OW38919   1.036   0.274   4.727 -0.3060  0.0332 -0.5225
12793SOL    HW138920   1.073   0.251   4.641 -1.6039  1.3542 -1.4991
12793SOL    HW238921   0.959   0.218   4.736  0.6914 -1.2311  0.5521
12794SOL     OW38922   1.621   2.012   5.479 -0.2207  0.0936 -0.0282
12794SOL    HW138923   1.680   2.069   5.429 -0.9932  0.5097 -0.4844
12794SOL    HW238924   1.675   1.980   5.552  0.5131  0.6033 -0.3289
12795SOL     OW38925   2.914   6.375   6.558 -0.1366 -0.1752  0.7316
12795SOL    HW138926   2.853   6.303   6.564 -0.3486 -0.2348 -1.5003
12795SOL    HW238927   2.982   6.355   6.623 -0.4263 -2.1420  0.4707
12796SOL     OW38928   4.274   5.461   2.029  0.2498  0.2126 -0.3930
12796SOL    HW138929   4.278   5.450   1.934 -0.6764  0.5412 -0.4785
12796SOL    HW238930   4.278   5.556   2.043 -2.1068  0.3408 -0.2656
12797SOL     OW38931   7.583   4.019   6.026 -0.3976  0.4042 -0.2799
12797SOL    HW138932   7.679   4.022   6.029 -0.3849 -0.1836  0.0414
12797SOL    HW238933   7.561   4.045   5.937 -0.0266  2.2728  0.1456
12798SOL     OW38934   2.946   4.037   7.340 -0.1719  0.1945 -0.3374
12798SOL    HW138935   2.870   4.096   7.344  0.9199  1.6467 -0.0292
12798SOL    HW238936   2.910   3.953   7.311 -2.1606  0.3733  1.3431
12799SOL     OW38937   3.864   1.676   1.426 -0.0523  0.1667 -0.2476
12799SOL    HW138938   3.880   1.743   1.492  1.3913  0.7540 -1.1557
12799SOL    HW238939   3.842   1.726   1.347  0.0997 -0.4574 -0.6884
12800SOL     OW38940   7.231   2.434   7.373 -0.4707 -0.2731  0.0588
12800SOL    HW138941   7.136   2.427   7.360 -0.8446  0.7578  1.8180
12800SOL    HW238942   7.268   2.361   7.323 -2.2690 -1.3083  0.1428
12801SOL     OW38943   4.953   2.119   4.274 -0.4271 -0.3703 -0.5615
12801SOL    HW138944   5.033   2.154   4.315 -0.0464 -0.8967 -0.8422
12801SOL    HW238945   4.924   2.050   4.333 -0.2415 -0.6956 -0.8484
12802SOL     OW38946   6.669   2.380   6.468 -0.3980 -0.5272  0.0884
12802SOL    HW138947   6.743   2.381   6.407 -0.3184  0.4414  0.1884
12802SOL    HW238948   6.592   2.388   6.412 -0.4777 -2.0790 -0.0592
12803SOL     OW38949   1.274   3.265   1.740 -0.1927  0.0408  0.5032
12803SOL    HW138950   1.198   3.233   1.789 -0.6462  0.6281  0.2133
12803SOL    HW238951   1.248   3.257   1.648  0.5087 -0.7157  0.3673
12804SOL     OW38952   5.520   0.934   2.803  0.1981  0.0292  0.5404
12804SOL    HW138953   5.541   0.855   2.754  2.1255  0.7137  0.1663
12804SOL    HW238954   5.437   0.963   2.768 -0.6987 -1.9593  0.8856
12805SOL     OW38955   3.161   3.709   2.110  0.3021  0.0167  0.2044
12805SOL    HW138956   3.079   3.667   2.084  0.3235 -0.0843  0.2966
12805SOL    HW238957   3.206   3.642   2.162  0.1673  0.2897  0.6764
12806SOL     OW38958   6.016   1.495   5.285  0.0467  0.4586 -0.1065
12806SOL    HW138959   6.015   1.561   5.355  0.1621  0.7493 -0.3780
12806SOL    HW238960   5.927   1.461   5.283 -0.1453  0.9668 -0.3039
12807SOL     OW38961   2.188   5.788   0.877 -0.1076  0.1377 -0.2680
12807SOL    HW138962   2.132   5.721   0.837 -2.0460  0.6285  1.4825
12807SOL    HW238963   2.256   5.739   0.921 -0.5312 -0.6070 -0.4253
12808SOL     OW38964   5.763   5.746   4.318  0.1677  0.1115 -0.0391
12808SOL    HW138965   5.696   5.753   4.387 -0.4242  1.1133 -0.6953
12808SOL    HW238966   5.719   5.701   4.246 -0.0787  1.4808 -0.7784
12809SOL     OW38967   5.076   5.471   2.324  0.5121 -0.1144 -0.3468
12809SOL    HW138968   5.108   5.550   2.280  0.2495 -0.4131 -1.0970
12809SOL    HW238969   5.113   5.476   2.412 -1.3956  2.0438  0.4187
12810SOL     OW38970   4.883   5.686   1.235  0.4919  0.2886  0.0654
12810SOL    HW138971   4.972   5.652   1.230  0.0434 -1.0316  0.5052
12810SOL    HW238972   4.848   5.675   1.146  0.6878  0.6045 -0.0534
12811SOL     OW38973   5.095   6.669   2.476  0.2419  0.0641 -0.0948
12811SOL    HW138974   5.127   6.638   2.391  2.7807  0.6461  0.5356
12811SOL    HW238975   5.094   6.591   2.532 -2.7585 -0.5997 -0.9031
12812SOL     OW38976   5.500   2.260   2.701 -0.1119  0.0635  0.0080
12812SOL    HW138977   5.443   2.306   2.762  0.9715 -0.1334  1.2204
12812SOL    HW238978   5.542   2.329   2.650  1.4171  0.4969  1.7367
12813SOL     OW38979   0.673   6.226   6.396  0.3576  0.1364  0.2133
12813SOL    HW138980   0.604   6.244   6.459 -0.7373  2.8048 -1.5880
12813SOL    HW238981   0.659   6.134   6.371 -1.9178  0.3035  0.6498
12814SOL     OW38982   7.371   6.092   2.319 -0.1758  0.1308  0.0190
12814SOL    HW138983   7.392   6.185   2.306  0.0762 -0.0119 -0.6437
12814SOL    HW238984   7.319   6.068   2.242 -0.0858 -0.3228  0.0943
12815SOL     OW38985   5.068   3.840   5.664  0.1073  0.2593 -0.0557
12815SOL    HW138986   5.072   3.847   5.569 -0.3678  2.6336  0.0323
12815SOL    HW238987   5.135   3.901   5.696 -0.0877 -0.1116  1.1286
12816SOL     OW38988   2.974   0.750   2.259  0.1288  0.2483 -0.0934
12816SOL    HW138989   3.045   0.718   2.314 -0.1279  0.9419  0.6662
12816SOL    HW238990   2.992   0.844   2.250 -0.7766  0.4649  0.2570
12817SOL     OW38991   3.901   3.194   2.209 -0.3102  0.3093  0.2824
12817SOL    HW138992   3.985   3.210   2.252  0.5084  1.7750 -1.7024
12817SOL    HW238993   3.895   3.099   2.204  2.7941  0.0982 -2.2354
12818SOL     OW38994   1.018   0.697   7.479  0.5761  0.3924  0.2307
12818SOL    HW138995   1.029   0.702   7.574 -1.8971  1.0573  0.5386
12818SOL    HW238996   1.020   0.789   7.451  3.1152  0.1414 -0.6815
12819SOL     OW38997   4.325   6.573   2.260 -0.3603  0.4080 -0.2070
12819SOL    HW138998   4.417   6.553   2.278 -0.5406  0.0809  0.3649
12819SOL    HW238999   4.296   6.504   2.200  0.1647  1.3460 -1.6040
12820SOL     OW39000   7.425   5.590   1.263 -0.1525 -0.0819 -0.0601
12820SOL    HW139001   7.423   5.597   1.167 -0.1412 -0.1990 -0.0693
12820SOL    HW239002   7.502   5.640   1.289 -1.7477  2.4287  0.1168
12821SOL     OW39003   2.469   6.431   5.093  0.0912  0.3734 -0.1969
12821SOL    HW139004   2.494   6.417   5.001 -0.9352 -1.3525 -0.2589
12821SOL    HW239005   2.375   6.447   5.089  0.2947  1.9201  0.4524
12822SOL     OW39006   5.000   2.580   5.109 -0.3835 -0.1414 -0.3376
12822SOL    HW139007   4.953   2.508   5.150  0.8294 -0.7179  0.0867
12822SOL    HW239008   5.069   2.602   5.172 -1.4290  2.1750  0.0936
12823SOL     OW39009   7.238   7.494   3.401 -0.0220  0.0501 -0.3792
12823SOL    HW139010   7.151   7.533   3.397 -0.0032  0.3598  1.3302
12823SOL    HW239011   7.253   7.479   3.495  1.6078 -0.3459 -0.6722
12824SOL     OW39012   0.512   1.891   5.179  0.4886  0.2803  0.0164
12824SOL    HW139013   0.432   1.868   5.226 -0.4441  1.0030 -1.1472
12824SOL    HW239014   0.533   1.980   5.209 -0.2228  0.8221 -1.0326
12825SOL     OW39015   1.510   5.532   5.569  0.3647 -0.4647 -0.1398
12825SOL    HW139016   1.526   5.474   5.643  0.1608 -0.9158 -0.4474
12825SOL    HW239017   1.576   5.602   5.579  1.4945 -1.4411 -0.5005
12826SOL     OW39018   4.492   6.702   5.359 -0.1390  0.2790  0.0868
12826SOL    HW139019   4.557   6.677   5.425  0.1275 -0.6145 -0.4862
12826SOL    HW239020   4.544   6.735   5.286 -0.3488  0.0840 -0.1541
12827SOL     OW39021   7.383   5.211   2.681  0.8426 -0.2749  0.0556
12827SOL    HW139022   7.326   5.232   2.756 -0.0272  2.2075 -1.2117
12827SOL    HW239023   7.322   5.183   2.613  1.2995  0.5479 -0.7082
12828SOL     OW39024   5.093   3.990   4.763  0.4846 -0.2987  0.5779
12828SOL    HW139025   5.125   4.074   4.796 -0.7715  0.4174  0.0377
12828SOL    HW239026   5.006   3.980   4.802  0.3700 -1.0636  0.1522
12829SOL     OW39027   3.229   3.307   2.876 -0.2248 -0.2450 -0.1053
12829SOL    HW139028   3.141   3.334   2.900 -0.3753  2.5859 -3.1160
12829SOL    HW239029   3.283   3.333   2.951 -1.5593  0.7553  0.5547
12830SOL     OW39030   6.960   3.537   2.873 -0.6350 -0.0852  0.1835
12830SOL    HW139031   6.946   3.632   2.870 -3.1886 -0.4207 -0.7629
12830SOL    HW239032   6.926   3.510   2.959 -0.5275 -0.2248  0.1826
12831SOL     OW39033   6.623   3.227   4.542 -0.3866  0.6352  0.2538
12831SOL    HW139034   6.532   3.250   4.523 -0.4699  0.2786  0.2274
12831SOL    HW239035   6.635   3.251   4.634 -0.6997  0.0693  0.4435
12832SOL     OW39036   4.816   3.327   2.286  0.0713 -0.9564 -0.1700
12832SOL    HW139037   4.739   3.377   2.260  0.2410 -0.3933  0.3928
12832SOL    HW239038   4.881   3.348   2.219  1.2699  2.3077  1.7815
12833SOL     OW39039   5.120   2.255   0.792  0.0342  0.4848  0.3013
12833SOL    HW139040   5.067   2.296   0.724  0.5996  0.6802 -0.0308
12833SOL    HW239041   5.155   2.328   0.842  1.4413  0.4652 -0.5924
12834SOL     OW39042   4.598   4.227   5.519 -0.2156 -0.2057  0.0227
12834SOL    HW139043   4.529   4.161   5.518 -0.1196 -0.3384  0.9354
12834SOL    HW239044   4.552   4.310   5.529 -0.2432 -0.3410  1.2348
12835SOL     OW39045   7.366   7.504   2.992 -0.2719 -0.1585 -0.0792
12835SOL    HW139046   7.430   7.498   3.063  0.2827 -1.2005 -0.6404
12835SOL    HW239047   7.388   7.432   2.933  0.0495  1.3872 -1.9553
12836SOL     OW39048   6.124   1.805   4.268  0.2583  0.3367 -0.4662
12836SOL    HW139049   6.078   1.860   4.331  1.3969  1.4086 -0.5232
12836SOL    HW239050   6.216   1.832   4.274  0.4705  0.1802 -2.2701
12837SOL     OW39051   5.245   7.196   2.826  0.2189  0.1425 -0.1663
12837SOL    HW139052   5.323   7.245   2.855 -1.1838  1.4942  1.5693
12837SOL    HW239053   5.212   7.247   2.752 -0.9299  1.6271  1.2973
12838SOL     OW39054   3.064   6.955   4.168  0.2238 -0.1302 -0.5958
12838SOL    HW139055   3.111   6.996   4.096  0.7979 -1.3269 -0.9393
12838SOL    HW239056   3.037   6.870   4.133  0.3095 -0.6347  0.5191
12839SOL     OW39057   6.787   5.088   4.994  0.4077 -0.5670 -0.2879
12839SOL    HW139058   6.853   5.122   4.933  1.0644  1.0402  1.2341
12839SOL    HW239059   6.704   5.105   4.951  0.9050 -2.4860 -2.1840
12840SOL     OW39060   4.309   2.410   5.881  0.4659 -0.2010 -0.6945
12840SOL    HW139061   4.385   2.355   5.861 -1.8131 -3.0636 -2.1621
12840SOL    HW239062   4.260   2.414   5.799 -0.3350  2.8021 -0.1888
12841SOL     OW39063   7.188   2.895   5.958  0.0727 -0.4462  0.2028
12841SOL    HW139064   7.214   2.832   6.025  1.0464 -1.5427 -1.1351
12841SOL    HW239065   7.093   2.882   5.948  0.0274 -0.6919  0.9401
12842SOL     OW39066   2.449   4.519   0.075 -0.1165 -0.1346 -0.8107
12842SOL    HW139067   2.446   4.553   0.164 -0.3355 -0.2138 -0.7873
12842SOL    HW239068   2.374   4.459   0.069  0.3523 -0.7406 -0.7940
12843SOL     OW39069   2.935   5.776   0.563  0.2507  0.1178 -0.2237
12843SOL    HW139070   3.004   5.710   0.564  0.4105  0.2420  1.6060
12843SOL    HW239071   2.973   5.850   0.515  1.2652  0.0287  0.4026
12844SOL     OW39072   2.502   4.407   7.344  0.3253 -0.5318 -0.1731
12844SOL    HW139073   2.562   4.412   7.269  1.7383 -0.4516  0.9289
12844SOL    HW239074   2.558   4.420   7.420 -0.8773 -1.9232  0.9967
12845SOL     OW39075   1.626   5.626   6.944  0.5100  0.3674 -0.2234
12845SOL    HW139076   1.697   5.586   6.995  0.7994 -0.0578 -0.9381
12845SOL    HW239077   1.667   5.702   6.903  0.6628 -0.0874 -0.9311
12846SOL     OW39078   2.781   0.981   0.284  0.0651 -0.5710  0.0679
12846SOL    HW139079   2.852   0.928   0.321  0.1487 -1.1233 -0.8547
12846SOL    HW239080   2.804   1.071   0.308  0.8935 -0.7762  0.0880
12847SOL     OW39081   2.211   5.059   1.760 -0.1666 -0.3188  0.0471
12847SOL    HW139082   2.264   5.029   1.686  1.4377 -0.3712  1.1710
12847SOL    HW239083   2.261   5.129   1.800 -1.5785  0.5393  0.3933
12848SOL     OW39084   3.430   5.756   6.699  0.2643 -0.0077  0.3210
12848SOL    HW139085   3.438   5.847   6.729  0.2758  0.1118 -0.0405
12848SOL    HW239086   3.519   5.730   6.677  0.2713 -0.1306  0.4954
12849SOL     OW39087   2.183   7.394   3.706 -0.0711  0.1577 -0.3644
12849SOL    HW139088   2.173   7.392   3.610  2.1218 -2.1890 -0.6696
12849SOL    HW239089   2.252   7.458   3.722  0.2508 -0.1548 -0.4782
12850SOL     OW39090   0.300   5.905   6.362  0.0689  0.6139 -0.4631
12850SOL    HW139091   0.314   5.971   6.294 -1.7883  0.9241 -0.5906
12850SOL    HW239092   0.272   5.954   6.439  2.4314  0.2947  0.7005
12851SOL     OW39093   5.907   6.627   2.572 -0.5775  0.5327 -0.0563
12851SOL    HW139094   5.951   6.545   2.595 -0.5988  0.0142 -1.7422
12851SOL    HW239095   5.859   6.652   2.652  0.4347 -0.4101  0.8780
12852SOL     OW39096   1.056   1.961   4.063 -0.2639  0.0147  0.3866
12852SOL    HW139097   1.130   2.009   4.099 -0.8347  0.0181  1.5969
12852SOL    HW239098   1.066   1.969   3.968 -0.4110  2.6795  0.5249
12853SOL     OW39099   5.464   7.039   6.160 -0.0745 -0.0489  0.1428
12853SOL    HW139100   5.514   7.011   6.236 -0.7921  0.5830  0.8593
12853SOL    HW239101   5.527   7.037   6.088  0.8674  0.2647  0.9306
12854SOL     OW39102   0.860   0.585   7.311  0.1322 -0.2942 -0.1270
12854SOL    HW139103   0.936   0.626   7.352 -1.1566  0.2312  1.8571
12854SOL    HW239104   0.888   0.495   7.292  1.7259  0.3406 -0.8953
12855SOL     OW39105   6.560   4.310   6.477  0.0355 -0.2251 -0.0199
12855SOL    HW139106   6.574   4.399   6.444 -1.7547  0.0349 -0.2190
12855SOL    HW239107   6.616   4.303   6.554  1.5486  0.4344 -1.0182
12856SOL     OW39108   1.059   3.245   4.798  0.1003 -0.3205 -0.7138
12856SOL    HW139109   1.149   3.258   4.770  0.5841 -0.3835  0.7522
12856SOL    HW239110   1.027   3.174   4.742  1.3350 -1.1025 -0.4615
12857SOL     OW39111   7.310   2.137   5.533  0.5490  0.1369  0.0528
12857SOL    HW139112   7.298   2.232   5.530 -0.7759 -0.0291 -0.1010
12857SOL    HW239113   7.396   2.126   5.574 -0.0936  1.3601  1.8762
12858SOL     OW39114   2.033   3.972   5.115  0.6372  0.1589 -0.1206
12858SOL    HW139115   1.993   3.897   5.159  1.9303 -0.1248  0.6430
12858SOL    HW239116   2.060   3.937   5.029  2.3649 -0.6503  0.7040
12859SOL     OW39117   2.760   5.847   1.480 -0.0628 -0.0503  0.1280
12859SOL    HW139118   2.770   5.812   1.568 -1.9770 -1.8061 -0.2770
12859SOL    HW239119   2.800   5.934   1.484 -0.0290 -0.1135  2.6901
12860SOL     OW39120   0.624   5.424   0.722 -0.3253  0.2263 -0.4124
12860SOL    HW139121   0.680   5.391   0.651 -0.4585 -0.3159 -0.2713
12860SOL    HW239122   0.641   5.365   0.795  0.6039  1.4079  0.3689
12861SOL     OW39123   0.163   0.065   0.264 -0.5001  0.0916  0.1032
12861SOL    HW139124   0.160  -0.019   0.312  2.5070 -0.3272 -0.1925
12861SOL    HW239125   0.146   0.041   0.173 -0.1630 -0.1529  0.0984
12862SOL     OW39126   3.558   5.939   1.636 -0.0367  0.7406  0.3812
12862SOL    HW139127   3.489   5.872   1.642 -0.0853  0.6761 -0.7704
12862SOL    HW239128   3.548   5.990   1.717  0.7743 -1.3500  1.8687
12863SOL     OW39129   5.393   5.497   6.122  0.0902 -0.3153  0.5265
12863SOL    HW139130   5.486   5.507   6.143  0.0467  0.6550  0.3000
12863SOL    HW239131   5.387   5.414   6.076  0.7438 -0.7052  1.1212
12864SOL     OW39132   3.162   1.721   3.524  0.1044  0.1422 -0.4717
12864SOL    HW139133   3.242   1.767   3.550  0.6772 -0.9695 -0.1937
12864SOL    HW239134   3.142   1.666   3.599 -1.0041  0.4983 -0.4945
12865SOL     OW39135   3.938   0.186   0.882  0.3620  0.0862  0.1913
12865SOL    HW139136   3.851   0.226   0.883  0.3684  0.0985  0.2584
12865SOL    HW239137   3.990   0.244   0.828  0.1006 -0.3972 -0.5922
12866SOL     OW39138   1.039   4.253   2.292  0.2199 -0.6107  0.2338
12866SOL    HW139139   1.118   4.236   2.344  0.2824 -2.5723 -0.4323
12866SOL    HW239140   0.979   4.183   2.317 -0.7064 -0.1007 -0.5037
12867SOL     OW39141   0.461   0.025   0.580  0.5319  0.3485  0.4307
12867SOL    HW139142   0.398   0.094   0.560 -0.1371 -0.6841 -1.1990
12867SOL    HW239143   0.409  -0.054   0.589  1.4020 -0.1731  1.0305
12868SOL     OW39144   4.774   3.354   1.444 -0.4995  0.8625  0.3880
12868SOL    HW139145   4.775   3.426   1.380 -1.2449  3.3327  2.9390
12868SOL    HW239146   4.846   3.376   1.504  0.3158 -1.4899  0.3515
12869SOL     OW39147   7.507   7.348   0.690 -0.3146  0.4314 -0.3485
12869SOL    HW139148   7.466   7.359   0.776  1.0786 -1.0907  0.5745
12869SOL    HW239149   7.586   7.401   0.695  1.3305 -1.9344  0.5019
12870SOL     OW39150   1.355   5.949   4.825 -0.2313  0.4338 -0.4644
12870SOL    HW139151   1.359   5.990   4.738 -0.1664  2.9650  0.6303
12870SOL    HW239152   1.275   5.984   4.864 -0.0352 -0.3225  0.6626
12871SOL     OW39153   5.691   3.572   6.124 -0.1172 -0.1620  0.7596
12871SOL    HW139154   5.739   3.649   6.153  1.2381 -0.5928 -0.2615
12871SOL    HW239155   5.655   3.598   6.039  0.3552 -0.6700  0.4083
12872SOL     OW39156   0.880   4.258   5.990 -0.4744 -0.2291 -0.1115
12872SOL    HW139157   0.868   4.321   5.919  0.2769  0.7440  0.5914
12872SOL    HW239158   0.960   4.212   5.968 -1.2767 -1.3054 -0.8701
12873SOL     OW39159   7.530   5.639   5.715 -0.3544 -0.7739  0.1210
12873SOL    HW139160   7.511   5.578   5.786  0.7974 -0.8728  0.3752
12873SOL    HW239161   7.575   5.586   5.649 -0.6472 -0.5033 -0.3008
12874SOL     OW39162   1.554   2.679   0.184  0.0226 -0.2748 -0.3663
12874SOL    HW139163   1.571   2.771   0.204 -0.2849 -0.4961  0.9986
12874SOL    HW239164   1.470   2.679   0.138 -0.6643  0.0322  0.8334
12875SOL     OW39165   3.256   2.514   1.538 -0.2291  0.4938  0.0814
12875SOL    HW139166   3.202   2.498   1.615 -2.7760  3.4238 -0.9280
12875SOL    HW239167   3.208   2.473   1.466 -0.5915  2.2102 -0.6846
12876SOL     OW39168   6.103   4.241   4.806  0.2314  0.2675  0.2069
12876SOL    HW139169   6.128   4.255   4.714 -2.2106 -1.4636 -0.8287
12876SOL    HW239170   6.148   4.160   4.831 -0.2195 -0.0273  0.0649
12877SOL     OW39171   3.327   0.540   6.174 -0.0844 -0.4426 -0.7302
12877SOL    HW139172   3.300   0.448   6.181 -0.5526 -0.1872  1.6274
12877SOL    HW239173   3.422   0.537   6.181 -0.1801 -0.6906  0.8411
12878SOL     OW39174   0.333   3.014   5.883 -0.1843 -0.2560 -0.1872
12878SOL    HW139175   0.243   2.989   5.861 -0.6940 -0.7580  2.1303
12878SOL    HW239176   0.368   3.053   5.803 -2.7669  0.8042 -0.9025
12879SOL     OW39177   4.044   2.425   5.208  0.0786  0.1006 -0.4898
12879SOL    HW139178   3.960   2.453   5.173 -0.6801  0.8441  1.8216
12879SOL    HW239179   4.109   2.470   5.153 -0.9736 -0.3837 -2.2085
12880SOL     OW39180   4.317   4.099   0.202  0.2012  0.7341  0.0906
12880SOL    HW139181   4.389   4.159   0.187  1.7389  0.1824  3.9845
12880SOL    HW239182   4.244   4.155   0.229 -0.6891  1.2029 -2.8786
12881SOL     OW39183   3.112   4.059   5.316 -0.6513  0.1443 -0.5014
12881SOL    HW139184   3.076   4.147   5.330  1.0796  0.6089  1.4433
12881SOL    HW239185   3.065   4.004   5.378 -0.4751  0.0342 -0.4671
12882SOL     OW39186   4.948   1.068   2.425 -0.3527  0.1754  0.4710
12882SOL    HW139187   4.973   0.975   2.429 -0.9007  0.0360  0.8374
12882SOL    HW239188   4.914   1.087   2.512  0.2732  0.8788  0.5679
12883SOL     OW39189   0.077   6.336   6.036  0.4080 -0.6517  0.2805
12883SOL    HW139190   0.159   6.321   6.082  1.3221 -2.4541 -1.7940
12883SOL    HW239191   0.051   6.251   6.003 -0.3853  0.4679 -2.2157
12884SOL     OW39192   0.749   4.086   7.515 -0.4771  0.1112 -0.6699
12884SOL    HW139193   0.817   4.152   7.530 -0.5710 -0.2916  2.0161
12884SOL    HW239194   0.797   4.010   7.481  0.4362 -0.0470  0.8576
12885SOL     OW39195   5.881   7.002   2.149  0.2437  0.0400  0.4223
12885SOL    HW139196   5.914   6.935   2.089 -1.0177 -0.5934  0.3852
12885SOL    HW239197   5.786   6.991   2.146  0.0999  0.7987  1.6286
12886SOL     OW39198   5.523   3.912   2.293 -0.2287  0.0871 -0.1034
12886SOL    HW139199   5.496   3.949   2.209  1.3731  0.1912 -0.6057
12886SOL    HW239200   5.441   3.900   2.341 -1.0082  2.1768 -0.7806
12887SOL     OW39201   6.078   5.412   2.765  0.1105  0.3157  0.2211
12887SOL    HW139202   5.998   5.453   2.731  0.6312  1.0749 -0.1038
12887SOL    HW239203   6.076   5.323   2.729  1.0800  1.3262 -2.5930
12888SOL     OW39204   2.847   5.907   6.948 -0.3811 -0.1390 -0.3656
12888SOL    HW139205   2.835   5.831   6.890  1.2161 -1.3648  0.7979
12888SOL    HW239206   2.942   5.918   6.952 -0.5717  2.1983 -0.7690
12889SOL     OW39207   2.141   5.746   6.871 -0.1147 -0.4636  0.0640
12889SOL    HW139208   2.129   5.814   6.805 -1.0055 -1.9186 -1.3353
12889SOL    HW239209   2.197   5.786   6.937  0.6030  1.1223 -1.4472
12890SOL     OW39210   6.416   7.572   1.326 -0.3285  0.6451 -0.2877
12890SOL    HW139211   6.462   7.516   1.263 -1.3853 -0.1780 -0.3712
12890SOL    HW239212   6.474   7.646   1.340  1.4098 -0.7586  0.2816
12891SOL     OW39213   6.678   0.372   3.624 -0.3004  0.1865  0.4722
12891SOL    HW139214   6.600   0.387   3.678  0.2442  1.8566  0.8684
12891SOL    HW239215   6.650   0.311   3.556 -1.4086 -0.7890  1.7612
12892SOL     OW39216   0.843   1.276   2.741  0.0853 -0.6853 -0.0815
12892SOL    HW139217   0.802   1.189   2.743 -1.8734  0.1841  1.0497
12892SOL    HW239218   0.770   1.337   2.748  1.4475  1.0623 -0.3463
12893SOL     OW39219   6.091   4.495   1.821 -0.4364 -0.6078  0.4076
12893SOL    HW139220   6.028   4.508   1.892 -1.2326 -0.8369 -0.2364
12893SOL    HW239221   6.144   4.574   1.820 -2.5099  0.8672 -0.7868
12894SOL     OW39222   5.398   6.434   3.253  0.5443  0.0713 -0.5354
12894SOL    HW139223   5.313   6.474   3.236  1.1393  2.3357  1.2922
12894SOL    HW239224   5.456   6.470   3.186  0.3132 -0.6528 -1.1370
12895SOL     OW39225   3.782   7.425   1.650  0.7389 -0.1031  0.0027
12895SOL    HW139226   3.759   7.514   1.677 -1.7611 -0.3794 -0.9904
12895SOL    HW239227   3.821   7.436   1.563 -0.5258 -0.0376 -0.5696
12896SOL     OW39228   3.912   3.497   3.457 -0.2848 -0.2057 -0.1326
12896SOL    HW139229   3.873   3.576   3.418 -0.1935 -0.9095 -1.7266
12896SOL    HW239230   3.987   3.478   3.400 -0.8104 -1.9187 -0.2825
12897SOL     OW39231   7.380   6.284   6.614  0.4365  0.2426 -0.2452
12897SOL    HW139232   7.341   6.210   6.660 -2.2677  1.3357 -0.6233
12897SOL    HW239233   7.439   6.323   6.679 -1.2603  0.1841  1.4433
12898SOL     OW39234   5.783   4.842   3.707  0.3070 -0.4584  0.2182
12898SOL    HW139235   5.721   4.771   3.694  1.2169 -1.1790 -0.2589
12898SOL    HW239236   5.814   4.864   3.618  0.5533  0.0554  0.4248
12899SOL     OW39237   3.228   3.379   5.919  0.1954  0.6335  0.1434
12899SOL    HW139238   3.169   3.305   5.934 -0.3327  1.0198 -0.0110
12899SOL    HW239239   3.173   3.456   5.931  0.2949  0.9909 -1.5205
12900SOL     OW39240   1.321   3.901   4.586 -0.1901  0.0370  0.2196
12900SOL    HW139241   1.226   3.897   4.585 -0.2289  0.6710  0.8121
12900SOL    HW239242   1.341   3.985   4.628  0.6180  0.2919 -0.6511
12901SOL     OW39243   6.653   1.051   3.683  0.4804  0.1009 -0.2756
12901SOL    HW139244   6.631   1.086   3.769 -1.2142 -0.8855 -0.2652
12901SOL    HW239245   6.747   1.033   3.687  0.1843 -1.3347  1.9216
12902SOL     OW39246   7.398   4.715   0.493 -0.4361 -0.8186  0.5708
12902SOL    HW139247   7.313   4.742   0.526  0.7763  0.2244  3.1148
12902SOL    HW239248   7.447   4.689   0.571  1.5230 -1.5493 -0.8191
12903SOL     OW39249   5.741   1.357   7.497  0.4674 -0.7171 -0.0535
12903SOL    HW139250   5.809   1.405   7.450  0.1306 -0.1076  0.0811
12903SOL    HW239251   5.711   1.291   7.434  1.4564 -1.2575  0.0185
12904SOL     OW39252   2.497   5.329   7.234 -0.0983  0.0182  0.0075
12904SOL    HW139253   2.555   5.301   7.305 -0.2436  1.1685  0.5933
12904SOL    HW239254   2.526   5.278   7.158  0.9727 -0.2089  0.5535
12905SOL     OW39255   4.058   7.163   1.626  0.5648 -0.0569 -0.4513
12905SOL    HW139256   4.153   7.157   1.640  0.9245  2.6090 -1.2058
12905SOL    HW239257   4.024   7.081   1.662  2.9531 -0.2805  1.6573
12906SOL     OW39258   6.437   0.545   6.559 -0.3710  0.0328  0.0569
12906SOL    HW139259   6.450   0.546   6.464 -0.4518  0.1710  0.0461
12906SOL    HW239260   6.425   0.637   6.582 -1.7427 -0.1088  0.0086
12907SOL     OW39261   5.660   5.173   1.193 -0.4968 -0.1008  0.0232
12907SOL    HW139262   5.615   5.119   1.127 -1.6292 -0.7508  1.2673
12907SOL    HW239263   5.589   5.201   1.252  0.3714  1.1226  0.5131
12908SOL     OW39264   4.744   1.624   2.140  0.0089 -0.4681 -0.1857
12908SOL    HW139265   4.768   1.548   2.087 -1.3055 -0.7554 -0.3930
12908SOL    HW239266   4.650   1.614   2.156 -0.0031  0.6367  0.5629
12909SOL     OW39267   2.618   3.363   2.042  0.0279  0.2679  0.0739
12909SOL    HW139268   2.565   3.417   2.100 -0.5485 -0.4669  0.2496
12909SOL    HW239269   2.604   3.402   1.955  1.0217  1.4649  0.4188
12910SOL     OW39270   4.449   0.945   6.815 -0.2086 -0.6564  0.4981
12910SOL    HW139271   4.543   0.933   6.819  0.0677  0.9662 -0.2846
12910SOL    HW239272   4.423   0.913   6.729 -0.4696 -1.5830  0.9096
12911SOL     OW39273   5.202   1.977   3.715 -0.1530  0.1522 -0.2130
12911SOL    HW139274   5.165   2.058   3.680  0.4039 -0.2336 -1.7726
12911SOL    HW239275   5.291   2.000   3.742 -0.5770  0.4460  0.9651
12912SOL     OW39276   5.569   0.533   3.668  0.9153  0.0835  0.3188
12912SOL    HW139277   5.628   0.562   3.599  0.7471 -0.1853  0.0613
12912SOL    HW239278   5.498   0.489   3.622 -0.1698  1.5359  0.5258
12913SOL     OW39279   3.681   2.039   2.626  0.3996  0.3218  0.8409
12913SOL    HW139280   3.739   1.971   2.592  0.1241 -0.0005  1.0144
12913SOL    HW239281   3.642   2.079   2.548  0.3291  0.0762  0.7495
12914SOL     OW39282   7.381   0.965   3.271  0.2187 -0.3627  0.1955
12914SOL    HW139283   7.289   0.966   3.245  0.4475  1.3205 -0.6302
12914SOL    HW239284   7.420   0.897   3.215 -0.7708 -2.2478  1.6588
12915SOL     OW39285   3.219   4.267   3.056 -0.1154 -0.1922  0.0884
12915SOL    HW139286   3.229   4.306   2.969  0.3811  0.2988  0.3560
12915SOL    HW239287   3.145   4.314   3.094 -0.8509 -0.9628 -0.3572
12916SOL     OW39288   3.637   5.754   2.696  0.4429  0.3227 -0.1165
12916SOL    HW139289   3.543   5.768   2.691  0.4731  0.3799 -0.5587
12916SOL    HW239290   3.669   5.773   2.608  0.4551 -2.6851 -0.8557
12917SOL     OW39291   1.822   6.476   6.095  0.2128  0.0023  0.2552
12917SOL    HW139292   1.762   6.402   6.102  0.3072 -0.0296  0.7380
12917SOL    HW239293   1.905   6.436   6.066  0.4110 -0.1552  1.0286
12918SOL     OW39294   6.501   7.037   6.096 -0.2467  0.4072  0.0459
12918SOL    HW139295   6.410   7.066   6.084 -0.4948 -1.1960 -3.1803
12918SOL    HW239296   6.506   6.955   6.047  2.4677 -0.6651  1.8939
12919SOL     OW39297   3.017   4.030   6.796 -0.0631 -0.1006 -0.2492
12919SOL    HW139298   2.922   4.039   6.788 -0.0209  2.7816  1.2834
12919SOL    HW239299   3.029   3.952   6.850 -1.7419  0.7448  1.4797
12920SOL     OW39300   0.190   5.425   4.505 -0.4438 -0.0117 -0.4860
12920SOL    HW139301   0.169   5.489   4.574  1.5645  0.0757  0.1219
12920SOL    HW239302   0.279   5.448   4.478 -0.3263 -1.5128 -1.4798
12921SOL     OW39303   6.306   5.002   0.131 -0.2942  0.0062  0.2412
12921SOL    HW139304   6.376   4.982   0.069  0.9346  1.9699  0.9081
12921SOL    HW239305   6.260   4.919   0.142  3.3460 -2.1015  1.5534
12922SOL     OW39306   1.696   6.912   4.076 -0.1421 -0.0800 -0.2223
12922SOL    HW139307   1.712   6.824   4.111  0.5027 -0.0687 -0.4718
12922SOL    HW239308   1.783   6.951   4.070  0.0546 -0.7193 -3.5286
12923SOL     OW39309   6.765   2.173   4.161 -0.1978 -0.4976  0.0648
12923SOL    HW139310   6.818   2.118   4.103 -0.0202  0.8442 -1.1238
12923SOL    HW239311   6.746   2.251   4.108 -0.3541  0.6200  1.6992
12924SOL     OW39312   6.109   0.213   5.372  0.0102  0.2362 -0.1487
12924SOL    HW139313   6.132   0.131   5.328 -2.4868 -0.4245 -0.3781
12924SOL    HW239314   6.137   0.281   5.311  1.2197 -0.4375 -0.3983
12925SOL     OW39315   0.194   0.354   6.802  0.1377 -0.7136  0.1476
12925SOL    HW139316   0.239   0.433   6.832 -0.0283  0.1058 -1.6077
12925SOL    HW239317   0.102   0.379   6.796 -0.1042 -1.4231  0.7429
12926SOL     OW39318   4.326   6.878   6.398 -0.0855 -0.1043 -0.0146
12926SOL    HW139319   4.347   6.946   6.335 -0.4509  0.5686  0.5720
12926SOL    HW239320   4.348   6.916   6.483  0.7000 -1.1095  0.2539
12927SOL     OW39321   6.114   1.962   5.877 -0.2170  0.8881 -0.3516
12927SOL    HW139322   6.068   2.034   5.920  0.5928  1.7961 -0.9895
12927SOL    HW239323   6.126   1.897   5.947 -2.3713  0.6296 -0.1330
12928SOL     OW39324   6.700   0.210   4.611  0.0788 -0.1172 -0.4655
12928SOL    HW139325   6.642   0.286   4.601  1.3540  0.7738 -1.6568
12928SOL    HW239326   6.662   0.143   4.555 -0.9384 -0.2927  0.4140
12929SOL     OW39327   5.659   1.983   3.409  0.5013  0.0167  0.3283
12929SOL    HW139328   5.722   2.037   3.360 -0.5806  1.8566  0.8543
12929SOL    HW239329   5.605   2.047   3.456  0.7443 -1.6264  3.0270
12930SOL     OW39330   0.337   6.263   1.502  0.0906  0.3439 -0.5059
12930SOL    HW139331   0.316   6.174   1.531 -1.6202  0.2644 -1.8638
12930SOL    HW239332   0.259   6.292   1.455  1.0431  2.1631 -1.0377
12931SOL     OW39333   4.225   5.696   4.588  0.4187  0.3078  0.1369
12931SOL    HW139334   4.309   5.737   4.607 -0.1586  0.8721  1.6053
12931SOL    HW239335   4.189   5.673   4.674 -0.3257 -1.1830 -0.5229
12932SOL     OW39336   1.365   1.310   6.606 -0.6134 -0.3439 -0.0706
12932SOL    HW139337   1.290   1.296   6.548 -0.0717 -0.6856 -0.6937
12932SOL    HW239338   1.439   1.325   6.547  0.0924 -1.4064  0.5099
12933SOL     OW39339   3.451   5.780   5.950  0.1525  0.4133  0.0673
12933SOL    HW139340   3.366   5.766   5.909 -0.4164 -0.1320  1.3782
12933SOL    HW239341   3.513   5.734   5.892 -0.6319 -0.3945 -0.1547
12934SOL     OW39342   7.192   4.379   5.304 -0.6657 -0.1493 -0.0911
12934SOL    HW139343   7.253   4.397   5.376  0.2362  0.7010 -1.0406
12934SOL    HW239344   7.249   4.363   5.228 -1.5665 -1.9465 -0.4457
12935SOL     OW39345   7.301   5.099   5.937  0.4977 -0.2339  0.3146
12935SOL    HW139346   7.222   5.054   5.908  1.7671 -1.9919 -0.6044
12935SOL    HW239347   7.273   5.189   5.952 -1.5083 -0.6322 -0.7118
12936SOL     OW39348   3.354   5.714   2.619 -0.0511  0.0967 -0.0105
12936SOL    HW139349   3.294   5.759   2.559  0.5176  2.4183  1.0332
12936SOL    HW239350   3.297   5.675   2.685 -0.5130  0.5525 -0.1337
12937SOL     OW39351   0.033   2.949   5.683  0.0941 -0.4646 -0.1105
12937SOL    HW139352  -0.062   2.958   5.682 -0.1605 -2.3812 -2.1933
12937SOL    HW239353   0.066   3.038   5.679 -1.6458  0.1933 -0.5773
12938SOL     OW39354   0.234   3.890   3.521 -0.3010  0.3633  0.4118
12938SOL    HW139355   0.309   3.948   3.536  0.2586  0.2089 -1.5471
12938SOL    HW239356   0.185   3.932   3.450 -0.8363 -0.6835  0.1434
12939SOL     OW39357   7.337   5.652   1.624  0.0684  0.5154  0.1734
12939SOL    HW139358   7.281   5.680   1.551 -0.0599  1.8803  0.7560
12939SOL    HW239359   7.309   5.563   1.642 -0.6767  0.5469 -0.7163
12940SOL     OW39360   0.268   0.813   6.556  1.0998 -0.1816  0.2375
12940SOL    HW139361   0.220   0.752   6.501 -1.2457  0.0130  1.9036
12940SOL    HW239362   0.324   0.862   6.495 -2.4750  1.1511 -2.2738
12941SOL     OW39363   1.468   3.572   7.616  0.0992  0.0284  0.4383
12941SOL    HW139364   1.557   3.606   7.613  0.1083 -0.0055  0.3261
12941SOL    HW239365   1.428   3.602   7.534  0.5913 -1.5787 -0.4337
12942SOL     OW39366   7.475   3.332   0.177  0.6959 -0.0470  0.1643
12942SOL    HW139367   7.381   3.328   0.165  0.8086 -1.1481 -0.5351
12942SOL    HW239368   7.495   3.257   0.234  1.1294  0.2538  0.4122
12943SOL     OW39369   5.512   1.925   0.743 -0.2881  0.8071 -0.0923
12943SOL    HW139370   5.444   1.861   0.763 -0.5075  0.8249 -0.7574
12943SOL    HW239371   5.481   2.006   0.782 -0.0905  0.5495  0.6092
12944SOL     OW39372   5.324   5.949   3.406 -0.1006 -0.3778  0.0489
12944SOL    HW139373   5.230   5.948   3.426 -0.0884 -0.7220  0.0918
12944SOL    HW239374   5.347   6.042   3.404 -0.8162 -0.2080 -1.7777
12945SOL     OW39375   0.466   0.489   3.499  0.1698 -0.9822 -0.5304
12945SOL    HW139376   0.441   0.556   3.436 -0.8754 -1.2561 -0.4291
12945SOL    HW239377   0.532   0.436   3.453 -1.5566 -2.0153 -1.9466
12946SOL     OW39378   6.497   1.157   2.794  0.1139  0.5277  0.5035
12946SOL    HW139379   6.485   1.160   2.699 -2.5943  0.9823  0.7971
12946SOL    HW239380   6.445   1.229   2.828 -0.2364 -0.5539  2.4420
12947SOL     OW39381   6.935   0.885   4.182  0.1439 -0.0207  0.0422
12947SOL    HW139382   6.889   0.823   4.239  0.3825 -1.2281 -1.0203
12947SOL    HW239383   6.996   0.831   4.132  1.4675  1.3034  0.1489
12948SOL     OW39384   3.736   1.825   5.566 -0.0025 -0.2549 -0.2546
12948SOL    HW139385   3.751   1.919   5.554 -1.9836  0.1076 -0.2700
12948SOL    HW239386   3.810   1.783   5.523  0.9667  1.2932 -0.1803
12949SOL     OW39387   4.558   4.546   5.410  0.3411  0.9325  0.3360
12949SOL    HW139388   4.551   4.574   5.501  1.6932  0.0535  0.7305
12949SOL    HW239389   4.624   4.605   5.372 -0.5525  1.6047 -0.2260
12950SOL     OW39390   3.447   1.437   4.683 -0.6791  0.3854  0.9774
12950SOL    HW139391   3.519   1.424   4.621 -1.2781 -0.6638  0.4631
12950SOL    HW239392   3.404   1.516   4.654 -0.9499 -0.0966  0.0333
12951SOL     OW39393   4.147   6.909   3.372 -0.0671  0.0151 -0.0466
12951SOL    HW139394   4.103   6.852   3.309  0.9832  0.1483 -0.9413
12951SOL    HW239395   4.152   6.994   3.327  0.5978  0.1392  0.2505
12952SOL     OW39396   2.443   7.405   4.933 -0.0414 -0.1843  0.5050
12952SOL    HW139397   2.494   7.331   4.899 -0.1088 -0.4110  0.8877
12952SOL    HW239398   2.441   7.467   4.861  1.2095  0.0589  0.6488
12953SOL     OW39399   5.051   2.176   6.435  0.4156  0.0435  0.3248
12953SOL    HW139400   5.043   2.133   6.520 -0.5760  0.6274  0.5376
12953SOL    HW239401   5.141   2.158   6.408  1.1286  0.8333  2.0388
12954SOL     OW39402   3.631   2.950   5.535 -0.4353 -0.1684  0.5362
12954SOL    HW139403   3.642   2.948   5.440 -2.8093  1.5763  0.1595
12954SOL    HW239404   3.693   3.017   5.565 -0.0508 -0.3624  0.1930
12955SOL     OW39405   6.728   3.539   4.137  0.3238 -0.3014  0.1677
12955SOL    HW139406   6.679   3.620   4.152  1.1620  0.5988 -1.6336
12955SOL    HW239407   6.808   3.549   4.189  0.5530  0.1764 -0.2644
12956SOL     OW39408   0.240   5.878   0.419 -0.6107  0.3221  0.0873
12956SOL    HW139409   0.332   5.898   0.403 -0.1487 -1.7823 -0.2483
12956SOL    HW239410   0.207   5.953   0.468  1.3378  1.0310  0.4154
12957SOL     OW39411   0.229   2.219   1.842 -0.3284  0.4313  0.4028
12957SOL    HW139412   0.299   2.270   1.801 -0.8079  1.4617  0.8251
12957SOL    HW239413   0.273   2.165   1.908  0.3526 -0.6713 -0.9013
12958SOL     OW39414   2.109   5.714   5.643  0.0443 -0.1182 -0.3376
12958SOL    HW139415   2.150   5.627   5.648 -0.8519 -0.7593 -2.8568
12958SOL    HW239416   2.017   5.698   5.664  0.1070  0.4833  0.4540
12959SOL     OW39417   5.654   6.757   6.965  0.5031  0.4721 -0.3055
12959SOL    HW139418   5.665   6.722   6.877  0.8586 -0.8190  0.2306
12959SOL    HW239419   5.711   6.704   7.019 -1.1589 -0.0434  1.0262
12960SOL     OW39420   4.123   3.716   0.476 -0.0704 -0.7826  0.0729
12960SOL    HW139421   4.073   3.792   0.446  1.3975  0.6502  1.0918
12960SOL    HW239422   4.056   3.652   0.500 -1.3722  0.3645 -0.3157
12961SOL     OW39423   6.715   6.825   6.396 -0.1162 -0.4154  0.0973
12961SOL    HW139424   6.657   6.761   6.438  0.5412  0.1506  1.9289
12961SOL    HW239425   6.703   6.809   6.302 -0.4396 -2.7993  0.4829
12962SOL     OW39426   3.751   0.137   4.959 -0.2301  0.3227 -0.2470
12962SOL    HW139427   3.748   0.232   4.964 -0.2229  0.3834 -1.2694
12962SOL    HW239428   3.770   0.118   4.867 -0.6908 -0.6732 -0.1477
12963SOL     OW39429   2.590   1.199   4.994  0.3746 -0.1713 -0.2752
12963SOL    HW139430   2.605   1.153   4.912 -0.2028 -1.7075  0.4537
12963SOL    HW239431   2.590   1.131   5.061  1.4705  1.0964  1.1061
12964SOL     OW39432   1.281   0.041   0.245 -0.0888  0.2368  0.1540
12964SOL    HW139433   1.218  -0.004   0.301  0.2057  0.2698  0.5183
12964SOL    HW239434   1.306  -0.024   0.180 -1.3754  0.5756 -0.7269
12965SOL     OW39435   4.919   4.926   6.536 -0.0519 -0.1992 -0.3042
12965SOL    HW139436   4.949   4.857   6.595  0.4956 -1.7246 -2.2661
12965SOL    HW239437   4.987   4.993   6.540 -0.3813  0.0773  1.2933
12966SOL     OW39438   0.706   7.010   5.270 -0.2270 -0.1082 -0.4995
12966SOL    HW139439   0.736   6.919   5.275 -2.6617 -0.9480  0.8065
12966SOL    HW239440   0.652   7.013   5.190 -2.3597 -0.6543  0.8312
12967SOL     OW39441   6.226   2.898   1.144 -0.5769  0.1031 -0.4947
12967SOL    HW139442   6.202   2.979   1.100  0.2248  1.0005  0.6574
12967SOL    HW239443   6.230   2.833   1.074 -2.0046  0.8617 -1.3261
12968SOL     OW39444   0.251   2.948   3.871  0.1645 -1.1027 -0.3154
12968SOL    HW139445   0.178   2.903   3.913 -1.3384  0.4080 -1.2107
12968SOL    HW239446   0.238   2.934   3.777  0.2584  0.2573 -0.5602
12969SOL     OW39447   2.198   4.920   0.076  0.1872 -0.7237 -0.3249
12969SOL    HW139448   2.112   4.961   0.062 -0.0641 -1.4439 -0.9701
12969SOL    HW239449   2.248   4.985   0.126  0.7833  1.6119 -3.6355
12970SOL     OW39450   1.936   0.298   0.666  0.1437 -0.3154  0.2617
12970SOL    HW139451   2.021   0.334   0.693  0.2147  2.0432 -2.5904
12970SOL    HW239452   1.957   0.210   0.635  1.8003  0.4890 -1.1187
12971SOL     OW39453   4.040   0.417   2.003 -0.2637  0.2125  0.1080
12971SOL    HW139454   4.130   0.385   1.991 -0.5420 -0.2858 -0.7437
12971SOL    HW239455   3.987   0.338   2.006 -0.6362  0.4839  1.0895
12972SOL     OW39456   2.961   2.314   6.802 -0.4780  0.0018  0.0873
12972SOL    HW139457   2.941   2.389   6.745  1.7805  0.6085  0.0025
12972SOL    HW239458   2.979   2.354   6.887 -0.2476 -0.5512  0.2951
12973SOL     OW39459   1.618   3.152   1.471 -0.7708  0.0238 -0.0635
12973SOL    HW139460   1.586   3.206   1.544  0.2996  0.4018  0.1429
12973SOL    HW239461   1.643   3.214   1.403 -0.5430 -0.2649 -0.2477
12974SOL     OW39462   5.460   4.774   3.928  0.2116  0.1391 -0.4963
12974SOL    HW139463   5.435   4.838   3.994  0.3708  0.6286 -0.8977
12974SOL    HW239464   5.406   4.796   3.852 -1.5411 -1.7645  0.1299
12975SOL     OW39465   1.587   4.480   1.794 -0.0197  0.3452  0.3700
12975SOL    HW139466   1.619   4.489   1.883  0.8055  1.8036 -0.0384
12975SOL    HW239467   1.624   4.397   1.763 -0.0909 -0.0326  1.2836
12976SOL     OW39468   4.997   7.104   2.864  0.3141  0.1497  0.0217
12976SOL    HW139469   4.995   7.017   2.825  0.7567  0.6628 -1.1938
12976SOL    HW239470   5.076   7.145   2.828  1.9407 -0.0325  3.0220
12977SOL     OW39471   3.542   0.598   3.223 -0.8169  0.4161 -0.0913
12977SOL    HW139472   3.488   0.632   3.151  0.5554  2.4639 -0.2176
12977SOL    HW239473   3.575   0.676   3.267  1.7116 -0.7379  0.2157
12978SOL     OW39474   4.002   3.343   4.634 -0.0641 -0.0565  0.1803
12978SOL    HW139475   4.025   3.368   4.544 -2.1213  2.1636  0.1726
12978SOL    HW239476   3.961   3.257   4.625  1.9356 -0.9983 -0.6207
12979SOL     OW39477   3.883   3.095   4.698 -0.2758  0.3326 -0.4878
12979SOL    HW139478   3.841   3.096   4.783 -0.0332 -1.8770 -0.2820
12979SOL    HW239479   3.975   3.079   4.717 -0.1059  0.4941 -1.1423
12980SOL     OW39480   1.789   0.876   7.001  0.2477  0.3277 -0.0395
12980SOL    HW139481   1.737   0.811   6.955  0.1221 -0.1546  0.7680
12980SOL    HW239482   1.765   0.960   6.961  0.3089 -0.0968 -0.9901
12981SOL     OW39483   1.486   4.907   7.575  0.2345  0.0007 -0.3446
12981SOL    HW139484   1.574   4.872   7.557  0.2079  0.5706 -1.7240
12981SOL    HW239485   1.458   4.860   7.653  1.3533 -0.9581 -0.4740
12982SOL     OW39486   6.319   1.094   1.601  0.6991  0.7845  0.4564
12982SOL    HW139487   6.319   1.016   1.656 -0.4165  0.2052 -0.3003
12982SOL    HW239488   6.402   1.091   1.554 -0.3501 -1.4087 -1.4550
12983SOL     OW39489   5.028   2.976   7.495  0.0950  0.1145  0.1205
12983SOL    HW139490   5.005   3.065   7.470 -0.2373  0.2917  1.0550
12983SOL    HW239491   5.124   2.974   7.489  0.0178 -0.0067 -1.6557
12984SOL     OW39492   2.667   0.733   6.690  0.3765 -0.2977  0.1134
12984SOL    HW139493   2.741   0.787   6.719 -2.3277  3.5997  0.5086
12984SOL    HW239494   2.626   0.703   6.771 -1.1405  1.7436  0.1996
12985SOL     OW39495   5.508   6.739   5.108  0.4695 -0.5238  0.2792
12985SOL    HW139496   5.529   6.831   5.090 -2.1415  0.0303 -0.3345
12985SOL    HW239497   5.488   6.737   5.202 -1.5635  0.0585 -0.0955
12986SOL     OW39498   0.331   5.274   4.071  0.0155 -0.1131  0.6625
12986SOL    HW139499   0.292   5.361   4.080 -0.1334 -0.1199  0.1418
12986SOL    HW239500   0.257   5.214   4.084 -0.4896 -0.1060 -1.7017
12987SOL     OW39501   3.886   7.036   7.325  0.3395  0.2855 -0.0757
12987SOL    HW139502   3.929   7.000   7.402  0.6144  0.2133 -0.2579
12987SOL    HW239503   3.800   7.065   7.355  0.6056  0.6446  0.3470
12988SOL     OW39504   6.421   5.919   1.568 -0.0482  0.5324  0.2540
12988SOL    HW139505   6.511   5.939   1.596  0.0480 -0.1654  0.4625
12988SOL    HW239506   6.395   5.845   1.623 -0.5397  0.3535 -0.2146
12989SOL     OW39507   1.757   3.051   2.655 -0.3057  0.4499 -0.1338
12989SOL    HW139508   1.818   3.115   2.619 -1.4212  1.3369 -0.4880
12989SOL    HW239509   1.714   3.097   2.727 -0.0148 -0.4290  0.6213
12990SOL     OW39510   4.108   5.156   1.938 -0.8006  0.3693  0.1047
12990SOL    HW139511   4.153   5.177   2.019  0.3096 -0.7749 -0.1848
12990SOL    HW239512   4.176   5.119   1.882 -1.6095  0.8473 -1.2428
12991SOL     OW39513   6.888   3.552   5.191  0.4801 -0.2379 -0.0807
12991SOL    HW139514   6.855   3.488   5.255  1.3952  1.2051  1.9390
12991SOL    HW239515   6.970   3.514   5.161  1.0183 -0.0520  1.1023
12992SOL     OW39516   6.564   5.134   3.515  0.0942 -0.4098 -0.0335
12992SOL    HW139517   6.629   5.193   3.552 -0.1414  1.8561 -2.8840
12992SOL    HW239518   6.595   5.116   3.426 -1.9220 -1.2866 -0.6266
12993SOL     OW39519   6.939   7.307   5.655  0.4325 -0.4099 -0.0605
12993SOL    HW139520   6.884   7.358   5.715 -1.8640 -0.4081 -2.0437
12993SOL    HW239521   6.993   7.253   5.713 -0.7061  0.5700  2.0287
12994SOL     OW39522   1.602   2.244   7.069 -0.0280 -0.0707 -0.3552
12994SOL    HW139523   1.685   2.228   7.024  0.1624 -1.1116  0.3415
12994SOL    HW239524   1.537   2.244   6.999  0.1936 -2.1933 -0.6420
12995SOL     OW39525   1.752   4.143   2.035  0.1382 -0.7341  0.5671
12995SOL    HW139526   1.734   4.078   2.104 -0.2739  0.2545  1.4206
12995SOL    HW239527   1.817   4.201   2.074  1.1378 -1.1057 -0.5083
12996SOL     OW39528   4.838   0.742   1.740 -0.0473  0.3398 -0.2403
12996SOL    HW139529   4.822   0.670   1.680 -0.1293  1.2017 -1.2897
12996SOL    HW239530   4.916   0.785   1.705  0.3135  0.4607  0.6732
12997SOL     OW39531   2.635   0.771   5.649 -0.0436 -0.1932 -0.0350
12997SOL    HW139532   2.627   0.747   5.557  1.6545  0.3612 -0.3675
12997SOL    HW239533   2.710   0.831   5.652  0.6448 -1.0516  1.8405
12998SOL     OW39534   7.120   0.648   6.716 -0.1669 -0.0675 -0.0223
12998SOL    HW139535   7.196   0.693   6.752 -1.5512  0.8125  2.0102
12998SOL    HW239536   7.139   0.555   6.727  0.3835  0.1478  1.0030
12999SOL     OW39537   5.239   1.947   5.441 -0.0794  0.0058 -0.3531
12999SOL    HW139538   5.230   2.001   5.520 -1.7535 -2.3611  1.2189
12999SOL    HW239539   5.326   1.908   5.450 -0.0697  0.1143  0.0778
13000SOL     OW39540   1.810   7.079   5.235 -0.1815  0.1968 -0.0539
13000SOL    HW139541   1.868   7.077   5.159 -0.8698  0.2322 -0.5903
13000SOL    HW239542   1.776   6.990   5.242  0.4144  0.0179  0.6402
13001SOL     OW39543   1.332   5.362   6.357  0.1291  0.1686 -0.4956
13001SOL    HW139544   1.273   5.327   6.424  1.6577 -0.3622  0.6465
13001SOL    HW239545   1.344   5.290   6.295  1.2481 -0.5088  0.4596
13002SOL     OW39546   7.358   1.531   5.729  0.0830 -0.4370 -0.6242
13002SOL    HW139547   7.324   1.603   5.783  1.8715 -0.2996  0.4104
13002SOL    HW239548   7.411   1.479   5.790  1.3607 -0.8541 -2.0482
13003SOL     OW39549   4.000   6.951   3.034  0.6989 -0.4418  0.0707
13003SOL    HW139550   3.942   7.003   2.978 -0.1295 -0.0398  1.2802
13003SOL    HW239551   4.080   6.942   2.982 -0.2488 -0.5939 -1.4349
13004SOL     OW39552   3.647   6.310   1.838 -0.4262 -0.3015 -0.2296
13004SOL    HW139553   3.623   6.362   1.762  0.6504  0.3172 -0.1766
13004SOL    HW239554   3.721   6.357   1.876  0.4309 -1.7587 -0.0312
13005SOL     OW39555   5.615   2.087   1.313  0.3504 -0.3477 -0.2257
13005SOL    HW139556   5.538   2.139   1.290  1.3450  0.9874 -0.6774
13005SOL    HW239557   5.688   2.134   1.273  1.3978 -1.6218  0.1269
13006SOL     OW39558   7.398   2.673   3.657 -0.5883 -0.3795 -0.2830
13006SOL    HW139559   7.350   2.639   3.582 -0.6998  0.1915 -0.4802
13006SOL    HW239560   7.346   2.646   3.733 -0.5723 -0.8029 -0.4191
13007SOL     OW39561   5.880   7.180   7.387 -0.4908 -0.0985  0.0210
13007SOL    HW139562   5.933   7.101   7.381 -0.6071 -0.2527  0.8816
13007SOL    HW239563   5.937   7.245   7.428 -0.2115  0.4489 -1.1793
13008SOL     OW39564   3.655   3.264   3.541 -0.3189 -0.5404  0.1960
13008SOL    HW139565   3.703   3.346   3.535 -1.9348  0.4678  0.4225
13008SOL    HW239566   3.624   3.247   3.452  1.4202 -1.8421 -0.2110
13009SOL     OW39567   2.354   5.539   5.354 -0.0934  0.1101  0.3893
13009SOL    HW139568   2.370   5.503   5.441  0.4032  0.9307  0.6508
13009SOL    HW239569   2.402   5.482   5.294  0.6933  0.3331  0.7941
13010SOL     OW39570   4.261   2.903   1.111  0.1075  0.7059 -0.1740
13010SOL    HW139571   4.349   2.937   1.099  0.8527 -0.9121  0.4480
13010SOL    HW239572   4.208   2.949   1.045  1.5896  1.0645 -1.1569
13011SOL     OW39573   5.872   1.513   4.397  0.0392  0.2055  0.2050
13011SOL    HW139574   5.966   1.497   4.399  0.0678 -1.3059 -4.0132
13011SOL    HW239575   5.864   1.608   4.384  1.1330  0.1377 -1.1910
13012SOL     OW39576   3.675   6.968   4.703  1.2598 -0.3490 -0.0539
13012SOL    HW139577   3.725   6.949   4.623  1.1659  0.1247 -0.2296
13012SOL    HW239578   3.647   7.059   4.692  1.5972 -0.1518  0.7140
13013SOL     OW39579   1.861   7.365   7.019 -0.1072  0.0025 -0.7382
13013SOL    HW139580   1.855   7.365   7.115  1.1759  1.0512 -0.6238
13013SOL    HW239581   1.805   7.293   6.992 -0.9023  0.0069  0.7742
13014SOL     OW39582   2.806   7.620   0.842  0.0335 -0.3768  0.4044
13014SOL    HW139583   2.834   7.585   0.926  0.6754 -7.0133 -1.9908
13014SOL    HW239584   2.712   7.604   0.839  0.1236 -0.8111 -0.3479
13015SOL     OW39585   2.955   2.879   3.463  0.1219  0.6940 -0.9697
13015SOL    HW139586   2.955   2.975   3.459  0.4749  0.7742  0.5667
13015SOL    HW239587   2.863   2.855   3.472  0.1918  1.0757  1.4587
13016SOL     OW39588   6.406   6.194   4.910 -0.1881  0.0893  0.1896
13016SOL    HW139589   6.440   6.104   4.904  0.3521  0.1071  2.3543
13016SOL    HW239590   6.480   6.245   4.943 -1.1445  0.9047  1.1002
13017SOL     OW39591   3.069   0.732   5.058  0.4318 -0.0847  0.0882
13017SOL    HW139592   3.121   0.715   5.137  0.3103  0.9012  0.3935
13017SOL    HW239593   2.995   0.672   5.066  0.4372 -0.0229  0.7191
13018SOL     OW39594   2.701   6.742   3.672 -0.8081  0.1950 -0.3941
13018SOL    HW139595   2.677   6.805   3.604  0.3327  2.2277  0.9779
13018SOL    HW239596   2.653   6.770   3.750  0.1930 -0.2266  0.4082
13019SOL     OW39597   7.620   0.108   3.284 -0.1752  0.5870  0.4522
13019SOL    HW139598   7.621   0.201   3.307  0.3495  0.7371 -0.1302
13019SOL    HW239599   7.652   0.105   3.194 -0.2725 -0.1535  0.4303
13020SOL     OW39600   6.174   6.060   5.271  0.0431 -0.2999  0.1892
13020SOL    HW139601   6.229   5.993   5.230  1.1499  0.1856  0.8072
13020SOL    HW239602   6.089   6.019   5.283  0.6106 -1.4899  0.2609
13021SOL     OW39603   6.497   3.534   3.265 -0.0914 -0.0334  0.5805
13021SOL    HW139604   6.573   3.577   3.225 -0.8430  0.7708 -0.0339
13021SOL    HW239605   6.534   3.480   3.335  0.9210  1.5113  1.3020
13022SOL     OW39606   5.197   4.330   0.841  0.1275 -0.6840  0.6541
13022SOL    HW139607   5.151   4.248   0.828 -1.2006 -0.0945  1.3999
13022SOL    HW239608   5.177   4.355   0.931  1.0211  0.1423  0.6432
13023SOL     OW39609   3.939   1.476   1.630 -0.4545  0.0392 -0.2305
13023SOL    HW139610   3.849   1.475   1.595 -0.1347 -1.3368 -1.0837
13023SOL    HW239611   3.986   1.538   1.575 -0.4348 -0.6595 -1.0171
13024SOL     OW39612   6.189   3.920   3.029  0.2779 -0.3660  0.1424
13024SOL    HW139613   6.149   3.857   2.969 -0.1148 -1.3726  1.4056
13024SOL    HW239614   6.126   3.992   3.033 -0.9858 -1.4522  1.2811
13025SOL     OW39615   3.641   3.268   1.538  0.1020 -0.1663  0.0798
13025SOL    HW139616   3.610   3.263   1.628 -1.1378 -0.4740 -0.3401
13025SOL    HW239617   3.702   3.195   1.529  1.1434  0.5647  0.9851
13026SOL     OW39618   3.602   4.293   3.490 -0.2461 -0.0201 -1.1447
13026SOL    HW139619   3.607   4.386   3.470 -2.4020  0.2486 -0.6791
13026SOL    HW239620   3.691   4.261   3.478  0.6946  2.2273 -0.6094
13027SOL     OW39621   1.059   3.239   7.503 -0.8678 -0.2082  0.0520
13027SOL    HW139622   0.970   3.264   7.525 -0.7908  0.5254 -0.4433
13027SOL    HW239623   1.069   3.152   7.541 -1.0323  0.6150  2.1239
13028SOL     OW39624   1.077   5.994   0.746 -1.1891  0.1176  0.9670
13028SOL    HW139625   1.147   6.019   0.687 -1.5573  0.7252  0.7789
13028SOL    HW239626   1.119   5.988   0.832 -1.0170  1.0757  0.9603
13029SOL     OW39627   6.237   3.842   5.793 -0.3775  0.3145  0.5954
13029SOL    HW139628   6.148   3.877   5.803 -0.6119  1.0425 -2.9980
13029SOL    HW239629   6.224   3.750   5.772 -0.3739  0.6512 -0.9471
13030SOL     OW39630   4.306   5.488   1.752  0.1023 -0.6637 -0.9888
13030SOL    HW139631   4.353   5.547   1.693 -0.0899 -0.4981 -0.9789
13030SOL    HW239632   4.214   5.494   1.724 -0.0531 -0.2715 -0.4154
13031SOL     OW39633   5.592   2.948   3.410  0.1017 -0.1950 -0.0742
13031SOL    HW139634   5.581   2.861   3.373  1.6002 -0.6830  0.5587
13031SOL    HW239635   5.570   2.938   3.503 -0.4570  0.2824 -0.1480
13032SOL     OW39636   1.360   3.180   2.271 -0.5521 -0.4948  0.2412
13032SOL    HW139637   1.444   3.202   2.230 -0.3814 -1.2947  0.1572
13032SOL    HW239638   1.350   3.244   2.342 -2.0570  2.6705 -2.5256
13033SOL     OW39639   6.908   0.971   5.293 -0.2303 -0.6050 -0.0672
13033SOL    HW139640   6.953   0.927   5.366  0.2667 -0.8887 -0.5420
13033SOL    HW239641   6.971   1.035   5.261 -0.5942 -0.2126 -0.0069
13034SOL     OW39642   5.633   0.562   3.243  0.6969  0.1675  0.0279
13034SOL    HW139643   5.635   0.644   3.193 -0.4258 -0.3846 -0.9782
13034SOL    HW239644   5.677   0.498   3.187 -0.7837 -0.5127 -0.4139
13035SOL     OW39645   7.171   5.756   3.169  0.1270  0.3497 -0.4023
13035SOL    HW139646   7.253   5.722   3.206 -0.5896 -3.0370 -1.5316
13035SOL    HW239647   7.197   5.796   3.086  0.7222 -0.5950 -0.7005
13036SOL     OW39648   1.843   3.928   6.051 -0.0843  0.7439  0.3428
13036SOL    HW139649   1.814   3.896   6.137 -2.7934 -0.7063 -0.9492
13036SOL    HW239650   1.806   4.016   6.045  0.5402  1.0426  0.8547
13037SOL     OW39651   4.587   1.708   5.029  0.0595  0.1920 -0.3268
13037SOL    HW139652   4.599   1.664   4.944  0.8175  0.2564 -0.2590
13037SOL    HW239653   4.522   1.777   5.011  0.3194  0.2987 -0.8936
13038SOL     OW39654   6.960   5.068   7.393 -0.1115  0.3612 -0.1644
13038SOL    HW139655   6.959   4.974   7.406 -0.9791  0.2762 -0.7628
13038SOL    HW239656   6.947   5.080   7.299  0.7172  1.0663 -0.2101
13039SOL     OW39657   1.242   6.797   4.081  0.2707 -0.2069  0.5314
13039SOL    HW139658   1.282   6.849   4.151  1.1825  1.8052 -1.3390
13039SOL    HW239659   1.312   6.788   4.015 -0.6048 -1.8399 -0.2386
13040SOL     OW39660   4.635   3.236   1.893  0.4176 -0.3133 -0.0821
13040SOL    HW139661   4.687   3.175   1.945  0.0127 -0.2263  0.4306
13040SOL    HW239662   4.583   3.181   1.835 -0.0147 -0.4718  0.4425
13041SOL     OW39663   2.518   1.588   1.761 -0.3466  0.4555 -0.4141
13041SOL    HW139664   2.608   1.557   1.768 -0.5615 -0.4804 -1.5416
13041SOL    HW239665   2.465   1.514   1.792 -0.7449  1.0271  0.3141
13042SOL     OW39666   4.783   1.614   5.648  0.1786 -0.2493 -0.1044
13042SOL    HW139667   4.700   1.567   5.654 -1.0241  1.7296 -0.1699
13042SOL    HW239668   4.793   1.632   5.555 -0.2167  0.9702  0.0739
13043SOL     OW39669   1.532   5.054   5.708 -0.0880 -0.0777 -0.0070
13043SOL    HW139670   1.573   5.139   5.726  0.3672 -0.3445  0.2747
13043SOL    HW239671   1.498   5.061   5.620  1.1273 -0.0396 -0.4986
13044SOL     OW39672   2.077   1.294   4.797 -0.2679 -0.5668  0.4290
13044SOL    HW139673   2.066   1.318   4.705 -1.0398  0.3633  0.7486
13044SOL    HW239674   2.062   1.200   4.799 -0.3081 -0.5858 -0.3785
13045SOL     OW39675   0.462   5.850   3.681  0.2392 -0.4704  0.7467
13045SOL    HW139676   0.442   5.869   3.773  0.1219 -0.8439  0.8005
13045SOL    HW239677   0.401   5.781   3.657 -0.0091 -0.0837  0.2596
13046SOL     OW39678   1.038   1.356   3.811 -0.1620 -0.3057  0.0100
13046SOL    HW139679   1.051   1.307   3.893 -0.7224 -2.2433 -0.9941
13046SOL    HW239680   0.946   1.343   3.790 -0.1602  0.6571 -0.6480
13047SOL     OW39681   0.746   1.285   6.230 -0.2305 -0.0818  0.5070
13047SOL    HW139682   0.660   1.254   6.256  0.2998 -1.1237  1.0799
13047SOL    HW239683   0.806   1.216   6.258  0.8483  0.8533  0.5845
13048SOL     OW39684   5.924   0.743   5.022 -0.2529  0.4328  0.4606
13048SOL    HW139685   5.928   0.808   5.092 -0.2543  1.2963 -0.3266
13048SOL    HW239686   6.015   0.731   4.995 -0.4822  2.4027 -1.4346
13049SOL     OW39687   6.899   7.174   2.297 -0.1138 -0.3296 -0.1029
13049SOL    HW139688   6.988   7.196   2.269  0.4922 -1.1577  1.0515
13049SOL    HW239689   6.844   7.241   2.258  0.7902 -0.7305 -2.2150
13050SOL     OW39690   1.193   4.860   0.428  0.0719 -0.0910 -0.2828
13050SOL    HW139691   1.116   4.804   0.434  0.0088  0.0557  0.3252
13050SOL    HW239692   1.201   4.900   0.515  2.0641 -1.7352  0.3739
13051SOL     OW39693   0.042   0.525   5.087 -0.3788  0.0027  0.0169
13051SOL    HW139694   0.061   0.569   5.169 -4.3403 -0.8751  1.6541
13051SOL    HW239695  -0.010   0.588   5.037  0.5308 -0.0898 -1.0873
13052SOL     OW39696   0.251   3.142   3.318  0.1362 -0.1417 -0.1609
13052SOL    HW139697   0.323   3.117   3.261  0.1429 -0.1170 -0.1632
13052SOL    HW239698   0.290   3.205   3.379 -0.2424  1.1027 -1.1523
13053SOL     OW39699   1.131   6.283   7.278  0.2953  0.5637 -0.5327
13053SOL    HW139700   1.091   6.272   7.364 -0.3487 -1.4245 -1.0391
13053SOL    HW239701   1.222   6.256   7.290  0.1377  0.0257 -0.5223
13054SOL     OW39702   2.810   5.040   4.904 -0.0549 -0.9557 -0.4654
13054SOL    HW139703   2.866   5.064   4.978  1.1722  0.9550 -1.9223
13054SOL    HW239704   2.838   4.951   4.881  0.9419 -0.8055  0.1058
13055SOL     OW39705   2.758   6.048   4.174 -0.1441 -0.0780  0.0163
13055SOL    HW139706   2.760   6.119   4.238  2.9111 -0.4643  0.5319
13055SOL    HW239707   2.691   5.988   4.206 -0.1705  0.7863  1.6825
13056SOL     OW39708   2.388   2.807   5.238  0.2971 -0.0595 -0.0406
13056SOL    HW139709   2.383   2.897   5.268 -0.5640  0.3094 -1.2345
13056SOL    HW239710   2.470   2.774   5.274  1.1724  1.5318 -0.4936
13057SOL     OW39711   1.210   5.033   6.782 -0.0742 -0.0706  0.5443
13057SOL    HW139712   1.252   5.110   6.745 -1.0819  1.0771  1.6607
13057SOL    HW239713   1.261   4.959   6.749  1.3264  1.1032 -0.0397
13058SOL     OW39714   4.419   4.682   2.819  0.2165  0.0881  0.2149
13058SOL    HW139715   4.410   4.767   2.862  1.2341 -0.1399  0.9094
13058SOL    HW239716   4.454   4.703   2.732  0.1717  0.3948  0.2700
13059SOL     OW39717   5.919   2.065   2.126 -0.7569 -0.1898  0.6423
13059SOL    HW139718   5.948   1.980   2.095 -0.5483 -0.6972  2.1328
13059SOL    HW239719   5.838   2.047   2.174 -0.5271  0.3787  1.2674
13060SOL     OW39720   7.018   3.362   1.079 -0.0498  0.2182 -0.0344
13060SOL    HW139721   7.095   3.308   1.098 -0.2223  0.7048  2.4453
13060SOL    HW239722   7.048   3.422   1.011  1.6960  0.1666  0.6276
13061SOL     OW39723   6.393   0.170   4.335 -0.2296 -0.2717  0.4512
13061SOL    HW139724   6.459   0.128   4.280 -0.1857  0.0366  0.2645
13061SOL    HW239725   6.380   0.256   4.295 -0.7013 -0.3080  0.5245
13062SOL     OW39726   3.537   6.199   2.126  0.1860 -0.4705 -0.1843
13062SOL    HW139727   3.491   6.209   2.209  0.9233 -1.6336  0.3855
13062SOL    HW239728   3.515   6.279   2.077  1.8021  1.5315  2.1321
13063SOL     OW39729   5.360   3.316   2.651  0.3105 -0.3057  0.1594
13063SOL    HW139730   5.412   3.379   2.702  0.8001  0.1590 -0.8966
13063SOL    HW239731   5.317   3.369   2.584  0.0211 -0.9729 -0.1855
13064SOL     OW39732   2.420   5.952   2.906  0.7899  0.0139  0.0146
13064SOL    HW139733   2.450   5.890   2.838 -0.4080 -1.0531  0.4201
13064SOL    HW239734   2.360   6.010   2.861  1.2078  0.3142 -0.1659
13065SOL     OW39735   7.057   4.106   6.316 -0.0545  0.3774  0.1958
13065SOL    HW139736   7.050   4.011   6.316 -1.6133  0.4448  1.3110
13065SOL    HW239737   6.996   4.135   6.384 -1.4982  2.2996 -1.7441
13066SOL     OW39738   6.321   0.993   7.374  0.4870 -0.0235 -0.6564
13066SOL    HW139739   6.350   1.002   7.465 -0.0632  1.6109 -0.6202
13066SOL    HW239740   6.401   0.993   7.323  0.7704 -0.3095 -0.2198
13067SOL     OW39741   5.188   4.662   2.559  0.5821 -0.9056  0.4931
13067SOL    HW139742   5.201   4.603   2.485  0.1673  0.3759 -0.6452
13067SOL    HW239743   5.194   4.750   2.521 -0.4224 -0.2187  1.8479
13068SOL     OW39744   0.424   5.269   6.299  0.5965  0.3491  0.2457
13068SOL    HW139745   0.451   5.306   6.215 -1.1164  0.8629 -0.1303
13068SOL    HW239746   0.358   5.204   6.277  1.0123 -0.4009  1.1365
13069SOL     OW39747   2.121   1.724   3.487  0.6631  0.3576  0.4195
13069SOL    HW139748   2.198   1.680   3.450  1.2272  1.1518  0.6226
13069SOL    HW239749   2.056   1.721   3.416  0.8238 -0.4319  0.2892
13070SOL     OW39750   1.496   7.088   0.374 -0.1511  0.7771  0.1766
13070SOL    HW139751   1.433   7.039   0.427 -0.3495  0.4026 -0.4062
13070SOL    HW239752   1.450   7.169   0.351 -0.4176  0.5037 -0.2489
13071SOL     OW39753   4.422   3.323   0.859  0.3120  0.0099  0.2776
13071SOL    HW139754   4.434   3.407   0.904 -1.2307  0.2597  0.2863
13071SOL    HW239755   4.328   3.309   0.861  0.5622 -1.8082  0.3927
13072SOL     OW39756   4.787   4.244   3.076  0.0071 -0.2627  0.0569
13072SOL    HW139757   4.710   4.192   3.052 -1.7970  1.3840  1.9069
13072SOL    HW239758   4.815   4.284   2.994 -2.3897  0.6392 -0.4307
13073SOL     OW39759   5.985   6.568   4.879  0.1790  0.3545  0.3909
13073SOL    HW139760   5.977   6.484   4.834  0.6816  1.0851 -1.1105
13073SOL    HW239761   5.895   6.599   4.888  0.0729  0.1779 -0.0601
13074SOL     OW39762   6.357   5.606   7.341  0.3255  0.2916  0.5172
13074SOL    HW139763   6.304   5.620   7.419 -1.6680 -1.9989 -0.2861
13074SOL    HW239764   6.352   5.512   7.325  0.1906  0.7081 -2.6400
13075SOL     OW39765   4.817   0.715   4.587  0.1855  0.0639 -0.3354
13075SOL    HW139766   4.864   0.748   4.663  1.0546 -1.8467  0.0198
13075SOL    HW239767   4.728   0.701   4.618  0.2603  0.3415  0.0088
13076SOL     OW39768   0.862   4.358   6.693 -0.0819 -0.2900  0.6379
13076SOL    HW139769   0.866   4.412   6.614 -2.8634 -0.3070  0.3682
13076SOL    HW239770   0.854   4.268   6.660  0.9524 -0.5244  1.0062
13077SOL     OW39771   5.056   0.884   1.606  0.2210  0.2932 -0.1659
13077SOL    HW139772   5.141   0.857   1.570 -0.4734 -1.3492 -0.6525
13077SOL    HW239773   5.075   0.965   1.653  2.1753 -0.3148  0.1865
13078SOL     OW39774   4.700   5.604   6.054  0.6503 -0.4350  0.0981
13078SOL    HW139775   4.633   5.536   6.058 -0.8613  0.9732  3.7684
13078SOL    HW239776   4.669   5.666   5.988  1.0412 -2.2480 -1.8609
13079SOL     OW39777   5.244   6.765   4.895  0.3417 -0.2826  0.1500
13079SOL    HW139778   5.293   6.816   4.831 -0.5933 -0.4409 -0.7138
13079SOL    HW239779   5.312   6.727   4.952  1.2744 -0.8771 -1.2897
13080SOL     OW39780   2.754   5.833   5.562  0.1237  0.5913  0.1943
13080SOL    HW139781   2.796   5.798   5.484 -1.0666  0.0533 -0.2366
13080SOL    HW239782   2.677   5.880   5.529  0.4249  1.6570  0.9365
13081SOL     OW39783   6.125   6.099   5.694 -0.1386  0.6098 -0.2553
13081SOL    HW139784   6.094   6.117   5.606 -2.2134  0.8654  0.4706
13081SOL    HW239785   6.174   6.177   5.719 -0.2954  0.9102 -0.8711
13082SOL     OW39786   5.212   6.015   5.235  0.0037 -0.2359  1.4711
13082SOL    HW139787   5.229   6.087   5.295  0.4262 -0.4557  1.6136
13082SOL    HW239788   5.170   6.056   5.160  0.1349  0.1410  1.6034
13083SOL     OW39789   5.439   0.925   6.300 -0.6262 -0.5799  0.4384
13083SOL    HW139790   5.516   0.872   6.280 -0.5384 -0.0252 -0.7692
13083SOL    HW239791   5.402   0.947   6.215  0.7155  3.2977  0.6452
13084SOL     OW39792   4.277   0.988   2.388 -0.1227 -0.3283 -0.7863
13084SOL    HW139793   4.334   0.998   2.464  1.0626 -0.5333 -1.6341
13084SOL    HW239794   4.189   0.977   2.426  0.4008 -0.1282  0.5351
13085SOL     OW39795   4.536   4.411   5.122 -0.3100  0.1175  0.2170
13085SOL    HW139796   4.586   4.453   5.052 -2.3345 -0.2794 -1.5791
13085SOL    HW239797   4.483   4.481   5.160 -0.7394 -0.0469 -0.0703
13086SOL     OW39798   7.610   5.246   5.047 -0.3101  0.5809  0.0197
13086SOL    HW139799   7.582   5.191   5.120 -0.8108  0.1177 -0.5117
13086SOL    HW239800   7.539   5.239   4.983 -0.5546  2.1330  0.0875
13087SOL     OW39801   3.179   6.901   2.882 -0.2073  0.2879  0.0097
13087SOL    HW139802   3.138   6.855   2.808 -2.5333  0.9069  0.8246
13087SOL    HW239803   3.265   6.859   2.892 -0.6448 -1.1532 -1.7637
13088SOL     OW39804   1.543   3.963   5.106 -0.1858 -0.0938 -0.2461
13088SOL    HW139805   1.599   3.908   5.051 -0.8812 -0.1825 -0.8791
13088SOL    HW239806   1.457   3.959   5.064 -0.8634 -0.5778  1.1279
13089SOL     OW39807   3.937   2.942   6.088 -0.7413  0.6350  0.0975
13089SOL    HW139808   3.953   2.987   6.171  0.6955  0.6087 -0.1499
13089SOL    HW239809   3.914   3.012   6.027 -2.1150  0.6232  0.5685
13090SOL     OW39810   1.045   3.950   7.615  0.5469  0.1879  0.0562
13090SOL    HW139811   1.136   3.961   7.646  0.6702  1.7082 -0.7455
13090SOL    HW239812   1.039   4.008   7.540 -1.0502 -0.0681 -0.0313
13091SOL     OW39813   2.023   3.225   3.754  0.3445  0.4149 -0.1403
13091SOL    HW139814   2.051   3.276   3.830 -1.0429  0.7853  0.1532
13091SOL    HW239815   2.049   3.135   3.775  1.3024  0.7328  0.0949
13092SOL     OW39816   6.143   0.896   6.657 -0.2362 -0.6385 -0.8087
13092SOL    HW139817   6.155   0.804   6.682  0.0326 -0.3419  0.2363
13092SOL    HW239818   6.214   0.942   6.702  0.8026 -0.1435 -2.8313
13093SOL     OW39819   2.200   0.771   1.908  0.2827  0.1053  0.3801
13093SOL    HW139820   2.197   0.691   1.856 -0.3661 -0.2756  0.9895
13093SOL    HW239821   2.202   0.841   1.843  0.9683 -0.3952 -0.1576
13094SOL     OW39822   4.120   1.677   6.174 -0.2552 -0.6399 -0.6389
13094SOL    HW139823   4.042   1.635   6.210 -0.6414  1.5851  1.3640
13094SOL    HW239824   4.191   1.648   6.230 -0.2909  0.1800 -0.1473
13095SOL     OW39825   6.258   7.348   3.642 -0.5681 -0.6599 -0.1367
13095SOL    HW139826   6.193   7.409   3.608 -0.3411 -0.3193  0.0338
13095SOL    HW239827   6.224   7.261   3.620 -1.0035 -0.4783 -0.1761
13096SOL     OW39828   4.016   4.035   1.534  0.0152  0.1487 -0.5959
13096SOL    HW139829   3.946   4.011   1.596 -0.7086  1.3719 -0.9231
13096SOL    HW239830   3.997   3.984   1.456 -1.6169  1.8292 -1.3467
13097SOL     OW39831   0.837   3.797   7.470 -0.4664 -0.1396 -0.2468
13097SOL    HW139832   0.912   3.837   7.514  0.6936 -1.4564 -0.9537
13097SOL    HW239833   0.875   3.726   7.417 -2.1925 -0.7460 -0.7374
13098SOL     OW39834   6.411   1.586   4.436  0.7006 -0.3760  0.0389
13098SOL    HW139835   6.427   1.665   4.383  1.0051 -1.1247 -1.0227
13098SOL    HW239836   6.470   1.520   4.399  0.7489 -0.9948  1.1773
13099SOL     OW39837   2.520   4.601   4.599 -0.0213 -0.5685  0.2897
13099SOL    HW139838   2.461   4.529   4.580 -1.1227  0.4705 -0.3584
13099SOL    HW239839   2.483   4.641   4.678  0.4363 -0.5558  0.4999
13100SOL     OW39840   6.103   2.942   6.258  0.2159 -0.6639 -0.0726
13100SOL    HW139841   6.026   2.932   6.315  0.6566 -1.7736  0.3513
13100SOL    HW239842   6.094   3.030   6.222 -1.7689 -1.0919 -0.7814
13101SOL     OW39843   3.355   7.209   6.061  0.3066 -0.7095  0.2967
13101SOL    HW139844   3.323   7.217   6.151  0.5026  0.0889  0.3032
13101SOL    HW239845   3.305   7.136   6.024  0.2639 -1.0795  1.0649
13102SOL     OW39846   4.405   2.960   3.474  0.3340  0.6671 -0.2595
13102SOL    HW139847   4.407   3.031   3.409 -1.7446  1.1290  0.1100
13102SOL    HW239848   4.432   3.002   3.555 -1.1651  1.1547  0.0181
13103SOL     OW39849   4.126   5.573   6.874 -0.4790 -0.1659  0.3527
13103SOL    HW139850   4.118   5.668   6.883 -1.1071 -0.3039  1.3276
13103SOL    HW239851   4.190   5.548   6.940 -0.8807 -0.5136  0.6151
13104SOL     OW39852   6.263   1.512   0.437 -0.8455 -0.6355 -0.3480
13104SOL    HW139853   6.294   1.597   0.404 -0.8172 -1.4696 -2.6375
13104SOL    HW239854   6.343   1.460   0.446 -1.0367 -1.0310 -0.8799
13105SOL     OW39855   6.757   3.513   6.730 -0.0212  0.2292  0.1546
13105SOL    HW139856   6.780   3.433   6.776 -1.1021 -1.4250 -1.9929
13105SOL    HW239857   6.837   3.537   6.682 -0.0734 -0.2892 -0.1908
13106SOL     OW39858   7.398   6.441   5.330  0.7062 -0.1034 -0.2683
13106SOL    HW139859   7.433   6.453   5.242 -1.0383 -1.0936 -1.1594
13106SOL    HW239860   7.326   6.503   5.336  0.1569 -0.7582  0.0623
13107SOL     OW39861   1.081   3.568   4.722 -0.3562  0.0095 -0.3149
13107SOL    HW139862   1.075   3.530   4.635 -1.6329 -0.4459 -0.0494
13107SOL    HW239863   1.154   3.522   4.764  0.7597  0.7640 -1.3727
13108SOL     OW39864   7.187   1.714   5.835  0.3684  0.2761  0.7729
13108SOL    HW139865   7.177   1.776   5.763 -0.0802 -1.8936 -1.1620
13108SOL    HW239866   7.106   1.723   5.886 -0.6441 -0.1490 -0.7060
13109SOL     OW39867   1.725   1.336   5.347  0.0364 -0.3504  0.1402
13109SOL    HW139868   1.759   1.386   5.422  0.2972  0.0827 -0.2636
13109SOL    HW239869   1.632   1.323   5.368 -0.4248  1.6042 -0.4133
13110SOL     OW39870   4.127   2.060   4.687  0.1961 -0.1065 -0.2981
13110SOL    HW139871   4.149   2.123   4.756 -0.4936  0.4159 -0.5525
13110SOL    HW239872   4.209   2.047   4.640  0.7100 -0.5593  0.6827
13111SOL     OW39873   1.402   0.986   6.457  0.5698  0.2057 -0.0236
13111SOL    HW139874   1.355   1.069   6.465  1.6138  0.6543  2.1137
13111SOL    HW239875   1.452   0.995   6.376  0.4784  1.5845  0.0433
13112SOL     OW39876   4.088   6.518   3.669 -0.2857 -0.0205 -0.5158
13112SOL    HW139877   3.995   6.525   3.647 -0.6304  2.3137  1.3114
13112SOL    HW239878   4.090   6.452   3.738 -0.0713 -2.3708 -2.6122
13113SOL     OW39879   1.039   4.971   1.142  0.3290 -0.2763  0.5181
13113SOL    HW139880   1.092   5.031   1.088  0.4840 -1.3336 -0.5360
13113SOL    HW239881   1.103   4.915   1.185  0.1348 -0.5431  0.4631
13114SOL     OW39882   1.502   5.703   2.983 -0.5652  0.1309 -0.0891
13114SOL    HW139883   1.493   5.656   2.900  2.5662  0.5829 -0.8213
13114SOL    HW239884   1.534   5.637   3.044 -0.1398  0.4145 -0.0055
13115SOL     OW39885   3.977   1.041   2.927 -0.1391  0.0951 -0.1659
13115SOL    HW139886   3.985   0.960   2.877  0.0488  0.1213 -0.1810
13115SOL    HW239887   4.056   1.044   2.981  0.0304  0.4377 -0.4219
13116SOL     OW39888   4.655   4.185   4.136 -0.3073 -0.0804 -0.7673
13116SOL    HW139889   4.654   4.117   4.070 -0.9148  0.3476 -1.2050
13116SOL    HW239890   4.740   4.174   4.180  0.2735 -0.1276 -1.8622
13117SOL     OW39891   3.778   2.240   2.812 -0.2943  0.5701 -0.0535
13117SOL    HW139892   3.734   2.209   2.891  3.2855 -2.8498  0.8965
13117SOL    HW239893   3.734   2.194   2.741 -1.8706  1.6797  0.1576
13118SOL     OW39894   3.973   7.576   3.182 -0.4581  0.4437 -0.6618
13118SOL    HW139895   3.892   7.528   3.169 -0.9069  1.4437 -1.7392
13118SOL    HW239896   4.027   7.553   3.106 -0.1521  0.6020 -0.4951
13119SOL     OW39897   5.159   2.641   0.619 -0.3412 -0.3106 -0.3835
13119SOL    HW139898   5.117   2.707   0.564 -0.9829  1.0941  1.6309
13119SOL    HW239899   5.137   2.668   0.709  1.5054 -1.8543  0.6095
13120SOL     OW39900   4.512   3.560   0.932  0.1023 -0.1781  0.0809
13120SOL    HW139901   4.502   3.616   0.854  2.0470 -0.9355 -0.7670
13120SOL    HW239902   4.566   3.612   0.991 -0.7317  0.0799  0.6347
13121SOL     OW39903   1.799   2.064   0.283  0.0499 -0.2634 -0.8925
13121SOL    HW139904   1.737   1.995   0.260 -0.0458 -0.6984  0.5419
13121SOL    HW239905   1.766   2.142   0.238 -0.3728 -0.9289 -1.7729
13122SOL     OW39906   4.972   3.018   0.727  0.8020  0.6682 -0.3269
13122SOL    HW139907   4.905   3.004   0.661 -1.1577  0.4536  1.5836
13122SOL    HW239908   4.944   3.097   0.774  2.0970  0.8016  0.2797
13123SOL     OW39909   2.422   4.155   0.276 -0.3814  0.4817 -0.6634
13123SOL    HW139910   2.428   4.060   0.260 -2.5879  0.0757  0.5232
13123SOL    HW239911   2.334   4.168   0.311  0.4343  2.7681  0.7707
13124SOL     OW39912   5.054   4.380   0.109  0.1970 -0.2167 -0.4344
13124SOL    HW139913   4.990   4.423   0.053 -1.2065 -0.8674  0.5917
13124SOL    HW239914   5.095   4.452   0.157  0.5669  0.2457 -1.4184
13125SOL     OW39915   4.526   5.310   6.831 -0.5611 -0.6750  0.1433
13125SOL    HW139916   4.602   5.368   6.839 -0.5120 -0.5472 -1.0705
13125SOL    HW239917   4.563   5.222   6.830 -0.3749 -0.5900 -0.9720
13126SOL     OW39918   5.288   7.306   7.324  0.0013  0.5657 -0.1271
13126SOL    HW139919   5.333   7.334   7.403 -0.2257  0.7765 -0.0706
13126SOL    HW239920   5.294   7.382   7.265  2.2772 -0.3961 -1.2443
13127SOL     OW39921   3.271   0.723   6.986 -0.0247 -0.5720 -0.0660
13127SOL    HW139922   3.331   0.689   7.053  0.6412 -0.9138 -0.8247
13127SOL    HW239923   3.322   0.790   6.940 -0.0460 -1.2277 -1.0538
13128SOL     OW39924   3.974   0.107   7.326 -0.2370  0.6066 -0.7040
13128SOL    HW139925   4.041   0.160   7.368 -0.8256 -0.1070  1.2233
13128SOL    HW239926   3.981   0.021   7.368 -1.1287 -0.0492 -1.8137
13129SOL     OW39927   3.627   0.735   5.404  0.4401 -0.2008  0.3262
13129SOL    HW139928   3.665   0.662   5.452  0.4059 -0.1432  0.4407
13129SOL    HW239929   3.702   0.778   5.363  0.5648  0.2312  0.9845
13130SOL     OW39930   4.905   6.573   3.385  0.4181 -0.0212  0.0724
13130SOL    HW139931   4.896   6.647   3.445 -0.2474  0.1174 -0.1864
13130SOL    HW239932   4.883   6.497   3.440  0.7975  0.0043  0.2599
13131SOL     OW39933   2.559   6.187   2.951  0.0377 -0.0769  0.7357
13131SOL    HW139934   2.615   6.174   2.876 -1.6307 -0.8392 -0.4361
13131SOL    HW239935   2.524   6.101   2.972  1.1387 -0.0570  2.9914
13132SOL     OW39936   6.100   3.021   5.315 -0.8788 -0.1334 -0.1000
13132SOL    HW139937   6.098   2.926   5.305 -0.7959 -0.0249 -1.2602
13132SOL    HW239938   6.015   3.050   5.281 -0.7078  0.2442 -0.2096
13133SOL     OW39939   0.444   2.175   2.200 -0.4238 -0.1795  0.2306
13133SOL    HW139940   0.540   2.173   2.211 -0.3988  0.6882  0.2342
13133SOL    HW239941   0.412   2.113   2.266  0.1369 -0.5409  0.1787
13134SOL     OW39942   1.205   4.670   1.471  0.0612  0.3608  0.2471
13134SOL    HW139943   1.197   4.687   1.565  1.0780  1.4523  0.1681
13134SOL    HW239944   1.277   4.606   1.465  0.9760  1.3598  0.1613
13135SOL     OW39945   2.521   0.220   4.421 -0.2431 -0.5330  0.0301
13135SOL    HW139946   2.473   0.261   4.350  0.9070 -0.7351 -0.9044
13135SOL    HW239947   2.515   0.126   4.403  0.7773 -0.5482 -0.3188
13136SOL     OW39948   1.004   5.639   3.779  0.2429 -0.5772 -0.2552
13136SOL    HW139949   0.932   5.651   3.842  0.8721 -1.0307  0.5637
13136SOL    HW239950   0.969   5.578   3.714 -0.5164  0.1201 -0.5251
13137SOL     OW39951   1.185   5.668   2.275 -0.0339  0.3914 -0.3125
13137SOL    HW139952   1.155   5.701   2.360 -0.0317 -1.1726  0.3341
13137SOL    HW239953   1.281   5.677   2.278  0.0553 -0.6840  0.3170
13138SOL     OW39954   3.428   1.382   1.045  0.1274  0.1194 -0.2316
13138SOL    HW139955   3.376   1.371   0.966 -0.1284  0.6679 -0.1442
13138SOL    HW239956   3.477   1.463   1.031  2.2988 -1.2566 -1.0453
13139SOL     OW39957   4.828   6.447   6.654  0.2024  0.1409 -0.1736
13139SOL    HW139958   4.893   6.378   6.639  0.5291  0.3338  0.3554
13139SOL    HW239959   4.827   6.498   6.573 -0.4981 -0.8561 -0.8215
13140SOL     OW39960   4.754   6.141   3.833 -0.4472 -0.4371 -0.2471
13140SOL    HW139961   4.699   6.072   3.795 -1.5090  0.0153  0.4257
13140SOL    HW239962   4.782   6.192   3.757 -0.9029 -0.7105 -0.6112
13141SOL     OW39963   3.374   4.079   2.704 -0.1493 -0.0824  0.0656
13141SOL    HW139964   3.453   4.027   2.721 -0.0310 -0.1837 -0.7328
13141SOL    HW239965   3.320   4.067   2.782  0.0343 -1.1131  0.0569
13142SOL     OW39966   0.191   7.245   1.762 -0.5297  0.1496  0.5398
13142SOL    HW139967   0.245   7.323   1.745 -1.4330  0.2375 -2.6485
13142SOL    HW239968   0.181   7.204   1.676 -5.4283  0.1365  0.8091
13143SOL     OW39969   5.641   7.172   1.174 -0.4116  0.0067  0.7452
13143SOL    HW139970   5.629   7.202   1.264 -1.8264  1.1801  0.2088
13143SOL    HW239971   5.559   7.193   1.130  0.6126  0.4373 -1.0988
13144SOL     OW39972   1.870   2.136   1.525 -0.6584 -0.5448 -0.1140
13144SOL    HW139973   1.893   2.059   1.473  1.6670 -0.2744  0.4219
13144SOL    HW239974   1.838   2.199   1.460  1.9458 -0.3105 -1.2735
13145SOL     OW39975   3.323   3.741   1.106 -0.0222 -0.0686 -0.1364
13145SOL    HW139976   3.378   3.700   1.039  0.1886  0.7361 -0.4668
13145SOL    HW239977   3.244   3.767   1.059 -0.2674 -0.3323  0.1276
13146SOL     OW39978   1.891   3.870   7.532 -0.1280  0.1078 -0.9210
13146SOL    HW139979   1.975   3.904   7.501  0.0978 -0.3086 -0.7678
13146SOL    HW239980   1.913   3.814   7.606 -0.5259 -0.1411 -0.9868
13147SOL     OW39981   4.802   3.237   0.830  0.2345  0.4049  0.0364
13147SOL    HW139982   4.808   3.332   0.820  0.6990  0.2667 -1.2570
13147SOL    HW239983   4.710   3.217   0.813  0.4007  0.5076 -1.0910
13148SOL     OW39984   7.462   7.592   5.988 -0.0011  0.0245  0.5653
13148SOL    HW139985   7.509   7.660   5.940 -0.1979  0.5879  1.1653
13148SOL    HW239986   7.525   7.520   5.994  0.5349  0.4979  0.7326
13149SOL     OW39987   1.888   6.039   4.828  0.0688  0.6118 -0.4224
13149SOL    HW139988   1.808   6.039   4.881  0.6580  1.3569  0.5055
13149SOL    HW239989   1.901   5.947   4.805  0.1004  0.1741  1.2219
13150SOL     OW39990   5.077   2.805   6.565  0.1160  1.0775  0.4236
13150SOL    HW139991   4.982   2.794   6.573  0.1165  1.1431  0.5158
13150SOL    HW239992   5.113   2.720   6.590  0.0028  0.4164 -1.4546
13151SOL     OW39993   6.306   4.378   3.385 -0.0875  0.5715 -0.5740
13151SOL    HW139994   6.228   4.400   3.334  1.0150  1.1992 -2.0561
13151SOL    HW239995   6.369   4.347   3.320  1.5303  1.8209  0.3253
13152SOL     OW39996   3.718   3.271   3.071  0.0184  0.8128 -0.5671
13152SOL    HW139997   3.730   3.178   3.052  0.0915  0.7039  0.0084
13152SOL    HW239998   3.807   3.307   3.071  0.1900  0.4620  1.3379
13153SOL     OW39999   6.894   5.673   3.319 -0.4211  0.4022  0.1271
13153SOL    HW140000   6.912   5.712   3.234  0.1453 -1.0967 -0.4759
13153SOL    HW240001   6.976   5.632   3.345 -1.0548 -0.6402  0.5698
13154SOL     OW40002   4.893   0.241   0.542 -0.3399  0.1969 -0.0980
13154SOL    HW140003   4.812   0.241   0.592  0.0874  0.9500  0.5969
13154SOL    HW240004   4.866   0.221   0.452 -1.2918  0.4466  0.1318
13155SOL     OW40005   6.613   3.842   1.711  0.0414  0.2863 -0.4474
13155SOL    HW140006   6.601   3.923   1.759 -1.7404  0.3864 -0.9544
13155SOL    HW240007   6.630   3.776   1.778 -0.8142  0.6952  0.1963
13156SOL     OW40008   5.833   4.550   2.532  0.0714 -0.3488 -0.2139
13156SOL    HW140009   5.784   4.474   2.501  0.3218 -0.6068  0.0217
13156SOL    HW240010   5.868   4.523   2.617  0.6544 -0.1750 -0.3941
13157SOL     OW40011   6.812   6.521   1.198  0.4969  0.2571 -0.2406
13157SOL    HW140012   6.848   6.609   1.212  1.0791  0.1843 -1.2030
13157SOL    HW240013   6.888   6.468   1.175 -0.0989 -0.0928 -1.4754
13158SOL     OW40014   3.617   1.689   5.126 -0.6553  0.3887  0.3212
13158SOL    HW140015   3.658   1.772   5.149  2.0733 -1.0199  0.9219
13158SOL    HW240016   3.603   1.695   5.031 -0.9486  1.6927  0.4308
13159SOL     OW40017   3.310   2.752   4.417  0.1590 -0.4695  0.0563
13159SOL    HW140018   3.358   2.736   4.499 -2.3904 -1.5461  1.4541
13159SOL    HW240019   3.267   2.837   4.431 -1.8077 -1.5186  0.6961
13160SOL     OW40020   5.531   6.230   5.916 -0.4096  0.2042  0.1388
13160SOL    HW140021   5.516   6.278   5.835 -2.5592  0.5421  0.6932
13160SOL    HW240022   5.626   6.237   5.931 -0.5284  4.1431  0.0848
13161SOL     OW40023   6.088   6.404   5.689 -0.0398  0.3486  0.0944
13161SOL    HW140024   6.158   6.460   5.719  1.3442 -0.6031 -1.2012
13161SOL    HW240025   6.122   6.362   5.609 -1.9672 -0.3491 -0.4412
13162SOL     OW40026   7.415   4.186   6.685  0.1806  0.5005 -0.8320
13162SOL    HW140027   7.384   4.272   6.714 -1.2091 -0.0724 -0.5278
13162SOL    HW240028   7.361   4.167   6.607 -0.1685 -0.4741 -0.3699
13163SOL     OW40029   4.754   0.758   0.271 -0.7834 -0.3381 -0.0384
13163SOL    HW140030   4.674   0.805   0.248 -0.4733  0.6753  0.8411
13163SOL    HW240031   4.821   0.798   0.215 -0.4525  0.5501  0.9585
13164SOL     OW40032   5.034   7.041   3.371 -0.0457 -0.3355 -0.1924
13164SOL    HW140033   5.016   7.119   3.423  2.2107 -1.0931  1.9292
13164SOL    HW240034   5.010   7.066   3.282 -0.1998  2.4764  0.5274
13165SOL     OW40035   0.082   1.658   1.442  0.0157 -0.1755 -0.2607
13165SOL    HW140036   0.039   1.700   1.367  0.2417 -0.4331 -0.5384
13165SOL    HW240037   0.013   1.649   1.508  0.4444  2.7718  0.7495
13166SOL     OW40038   6.158   1.159   6.017 -0.3853  0.0801  0.4136
13166SOL    HW140039   6.108   1.081   6.043 -0.4309  0.1868  0.6550
13166SOL    HW240040   6.153   1.161   5.922  1.2312 -1.2876  0.2610
13167SOL     OW40041   5.635   4.808   4.684 -1.0782 -0.1623  0.4382
13167SOL    HW140042   5.722   4.802   4.645 -1.6856 -0.6164 -0.9084
13167SOL    HW240043   5.628   4.731   4.739 -0.5636 -0.0182  0.7123
13168SOL     OW40044   2.430   1.761   5.181 -0.3550 -0.2995 -0.1758
13168SOL    HW140045   2.469   1.680   5.214  1.2706 -0.2022 -1.6938
13168SOL    HW240046   2.430   1.750   5.085  0.2970  1.6196 -0.4404
13169SOL     OW40047   6.350   4.906   7.432  0.1737  0.6017 -0.3171
13169SOL    HW140048   6.370   4.847   7.504  0.9607 -0.5475 -1.4312
13169SOL    HW240049   6.264   4.878   7.400  0.7512 -0.3145 -1.1484
13170SOL     OW40050   2.136   1.662   6.074 -0.1770 -0.0181 -0.7823
13170SOL    HW140051   2.138   1.612   5.993 -1.6365 -1.0324 -0.2256
13170SOL    HW240052   2.051   1.643   6.113 -0.4954  2.3358 -0.1603
13171SOL     OW40053   2.731   1.371   6.299 -0.7941 -0.2841 -0.0709
13171SOL    HW140054   2.694   1.441   6.246 -1.4694  0.1698  0.9695
13171SOL    HW240055   2.717   1.399   6.390 -0.8341 -1.6322  0.3646
13172SOL     OW40056   6.539   3.229   1.687  0.8271 -0.7235 -0.3082
13172SOL    HW140057   6.461   3.217   1.740  0.2087  0.7125 -0.8350
13172SOL    HW240058   6.612   3.222   1.748  0.1331  1.0024  0.7905
13173SOL     OW40059   0.755   4.254   2.653 -0.2764 -0.3937  0.4558
13173SOL    HW140060   0.781   4.175   2.605  0.3748  0.4929 -0.7157
13173SOL    HW240061   0.815   4.321   2.622 -0.1042  0.3267  2.2569
13174SOL     OW40062   4.160   3.923   3.988  0.3823 -0.0086  0.1006
13174SOL    HW140063   4.170   4.019   3.992 -2.7849  0.3960  0.7795
13174SOL    HW240064   4.112   3.907   3.907  0.0746 -0.9179  0.4515
13175SOL     OW40065   1.950   4.521   6.102  0.0567 -0.7521 -1.5068
13175SOL    HW140066   1.953   4.604   6.149  3.3305  0.6137 -3.7409
13175SOL    HW240067   1.875   4.529   6.044 -0.4508  0.0686 -0.7578
13176SOL     OW40068   3.603   4.900   6.057  0.1195  0.2374 -0.2709
13176SOL    HW140069   3.619   4.849   5.977  0.1633  0.0905 -0.1680
13176SOL    HW240070   3.541   4.847   6.107  0.4353  0.1214 -0.0036
13177SOL     OW40071   6.515   5.457   2.082  0.2588  0.0204 -0.1982
13177SOL    HW140072   6.428   5.418   2.091 -0.6123  1.4679 -1.7293
13177SOL    HW240073   6.572   5.398   2.131 -1.3144 -1.8938 -0.4995
13178SOL     OW40074   1.073   2.609   6.053  0.1395 -0.8997  0.3289
13178SOL    HW140075   0.986   2.640   6.029  0.5347  0.6937  0.8364
13178SOL    HW240076   1.097   2.549   5.982 -0.6242  0.0727 -0.7841
13179SOL     OW40077   0.284   2.300   0.456 -0.6721  0.0854  0.7324
13179SOL    HW140078   0.207   2.292   0.399 -1.0267  1.4414  0.9833
13179SOL    HW240079   0.269   2.237   0.525 -0.5497 -1.1272 -0.3095
13180SOL     OW40080   1.715   6.004   0.038 -0.3312 -0.2232 -0.3370
13180SOL    HW140081   1.653   5.934   0.015 -0.1412 -1.1101  1.6950
13180SOL    HW240082   1.730   5.993   0.132 -1.5063  3.5076  0.4439
13181SOL     OW40083   1.435   3.916   3.586  0.0984 -0.3148 -0.2143
13181SOL    HW140084   1.459   3.979   3.654 -1.7784 -0.3104  0.5043
13181SOL    HW240085   1.495   3.935   3.513 -1.0066  2.9831 -0.4006
13182SOL     OW40086   7.312   6.631   1.874 -0.1251  0.3984 -0.8269
13182SOL    HW140087   7.222   6.649   1.901  0.2558 -0.6797  1.4019
13182SOL    HW240088   7.304   6.586   1.790 -1.9267 -2.3194  0.6499
13183SOL     OW40089   3.536   0.156   7.112  0.2892 -0.3207 -0.1187
13183SOL    HW140090   3.578   0.207   7.181  1.1720 -2.4745  1.0521
13183SOL    HW240091   3.554   0.203   7.031  0.2710  1.6382  0.9690
13184SOL     OW40092   2.287   0.810   6.629 -0.0748  0.2672 -0.0073
13184SOL    HW140093   2.315   0.732   6.582 -1.3962 -0.7665  0.8618
13184SOL    HW240094   2.321   0.883   6.577 -0.8063 -0.8334 -2.1346
13185SOL     OW40095   6.039   4.562   6.860 -0.4482 -0.5062 -0.3588
13185SOL    HW140096   6.062   4.502   6.932  0.1042 -0.4026 -0.4406
13185SOL    HW240097   6.120   4.610   6.843 -0.6080 -0.4470 -0.9702
13186SOL     OW40098   0.436   5.560   0.889  0.4218  0.2437 -0.3332
13186SOL    HW140099   0.520   5.554   0.845  0.4807 -0.4808 -0.1445
13186SOL    HW240100   0.384   5.488   0.853  0.5402 -0.4913  0.8893
13187SOL     OW40101   1.940   5.586   4.584 -0.2295 -0.5835 -0.2226
13187SOL    HW140102   1.934   5.491   4.582 -0.1295 -0.5801 -1.1235
13187SOL    HW240103   2.000   5.608   4.512 -0.1973  0.1517  0.0169
13188SOL     OW40104   4.338   1.253   6.041  0.0342 -0.0224  0.0739
13188SOL    HW140105   4.400   1.319   6.072 -0.1749  0.6799 -0.9279
13188SOL    HW240106   4.296   1.219   6.120 -1.3572  2.5562  0.5495
13189SOL     OW40107   3.050   5.151   5.939 -0.1154 -0.3769 -0.4711
13189SOL    HW140108   2.960   5.172   5.913 -0.3781  0.5946  1.1186
13189SOL    HW240109   3.100   5.158   5.858 -1.1811  0.7917 -1.0663
13190SOL     OW40110   0.054   1.420   4.210 -0.4171 -0.0201 -0.0420
13190SOL    HW140111   0.047   1.473   4.289  0.0435  0.5735 -0.3854
13190SOL    HW240112   0.139   1.446   4.172  0.7421 -2.3744  0.7658
13191SOL     OW40113   7.088   0.700   1.542 -0.0367 -0.0465 -0.1748
13191SOL    HW140114   7.171   0.661   1.515  0.8312  1.7986 -0.3595
13191SOL    HW240115   7.028   0.680   1.470  0.6397 -0.2467 -0.6976
13192SOL     OW40116   2.318   0.582   3.531 -0.4725 -0.1571  0.2571
13192SOL    HW140117   2.388   0.561   3.593 -0.5435 -1.6170 -0.1294
13192SOL    HW240118   2.282   0.664   3.563 -0.4832 -0.8520  2.1442
13193SOL     OW40119   2.511   3.482   1.831 -0.3922 -0.3106  0.0410
13193SOL    HW140120   2.507   3.574   1.805 -0.5950 -0.1762  0.5391
13193SOL    HW240121   2.421   3.451   1.822 -0.2326 -0.6007 -0.6136
13194SOL     OW40122   3.437   3.538   5.316  0.2440  0.1560 -0.2658
13194SOL    HW140123   3.490   3.460   5.335  0.2167  0.5908  1.9088
13194SOL    HW240124   3.387   3.553   5.396  0.3055  2.4538 -0.5835
13195SOL     OW40125   6.833   4.599   2.527  0.1736  0.2793 -0.0728
13195SOL    HW140126   6.767   4.656   2.488 -0.7120 -0.7494 -0.1402
13195SOL    HW240127   6.871   4.552   2.453 -0.3874 -0.5207  0.1334
13196SOL     OW40128   3.136   7.234   4.681  0.4082  0.5411 -0.3263
13196SOL    HW140129   3.148   7.168   4.750 -1.3716  0.5042 -0.0027
13196SOL    HW240130   3.096   7.308   4.726  1.4966  1.4920 -0.8810
13197SOL     OW40131   3.363   2.766   0.566 -0.2526  0.1899 -0.0205
13197SOL    HW140132   3.428   2.733   0.628  0.8424  3.3178  0.6821
13197SOL    HW240133   3.402   2.751   0.480  0.2238 -0.2481  0.2665
13198SOL     OW40134   6.147   2.352   0.255  0.8305  0.2648  0.1557
13198SOL    HW140135   6.193   2.306   0.185  0.7902 -0.1354  0.3884
13198SOL    HW240136   6.214   2.367   0.321  0.3786 -1.4463  1.0521
13199SOL     OW40137   4.333   3.020   6.422 -0.2362  0.2922 -0.6225
13199SOL    HW140138   4.387   2.944   6.400 -0.5429  0.0454 -0.5388
13199SOL    HW240139   4.392   3.078   6.470 -0.2212 -0.2905  0.0920
13200SOL     OW40140   5.155   0.808   0.478 -0.7742 -0.1494 -0.1824
13200SOL    HW140141   5.233   0.802   0.533 -0.6463  2.5589  0.0361
13200SOL    HW240142   5.093   0.860   0.528 -2.1009 -0.7894 -1.0805
13201SOL     OW40143   2.277   7.504   1.406 -0.1833  0.0574 -0.0499
13201SOL    HW140144   2.294   7.504   1.312 -1.8400 -0.1639 -0.3911
13201SOL    HW240145   2.201   7.446   1.416 -0.4421  0.5991  1.3365
13202SOL     OW40146   6.910   7.010   4.121  0.2901 -0.4931 -0.3885
13202SOL    HW140147   6.993   7.014   4.073  0.8320  1.5070  0.6006
13202SOL    HW240148   6.926   7.062   4.200 -2.2540  1.0024 -0.7679
13203SOL     OW40149   5.366   6.231   5.379 -0.2381  0.3439 -0.0619
13203SOL    HW140150   5.357   6.299   5.312  0.1304  0.5972  0.1389
13203SOL    HW240151   5.431   6.171   5.342 -1.4213 -0.5436 -0.7533
13204SOL     OW40152   1.383   4.174   1.797 -0.3955 -0.2971 -0.1197
13204SOL    HW140153   1.462   4.200   1.749  0.7869 -2.5816  0.4475
13204SOL    HW240154   1.380   4.233   1.873  0.5594  0.0455 -0.3343
13205SOL     OW40155   3.816   4.654   4.786 -0.3873  0.3597 -0.1511
13205SOL    HW140156   3.900   4.699   4.798  0.0700 -0.5850  0.4226
13205SOL    HW240157   3.831   4.567   4.826 -0.9029 -0.6517 -2.0499
13206SOL     OW40158   4.872   5.566   4.244 -0.1916 -0.1024  0.1959
13206SOL    HW140159   4.958   5.559   4.201  0.1154 -0.9012  0.9123
13206SOL    HW240160   4.816   5.607   4.178  0.2636 -1.2688 -0.9797
13207SOL     OW40161   2.789   1.709   4.729  0.1583  0.2697 -0.3113
13207SOL    HW140162   2.844   1.764   4.784  0.7943 -1.5080  0.9461
13207SOL    HW240163   2.790   1.623   4.772 -1.9535 -0.3688 -1.3685
13208SOL     OW40164   3.074   2.966   6.416 -0.4199  0.8333  0.0398
13208SOL    HW140165   3.073   2.936   6.507  0.9553  0.3265 -0.0894
13208SOL    HW240166   2.983   2.961   6.388 -0.5039 -1.7452  0.5420
13209SOL     OW40167   5.654   1.359   4.460  0.6626  0.4840  0.2350
13209SOL    HW140168   5.617   1.420   4.525  0.9659  0.0793  0.7948
13209SOL    HW240169   5.738   1.399   4.435  1.6010 -0.4248  1.7431
13210SOL     OW40170   3.332   4.315   6.899 -0.2455  0.5470  0.2657
13210SOL    HW140171   3.248   4.330   6.855  0.4509  1.8894 -0.6893
13210SOL    HW240172   3.380   4.257   6.839  0.0554  0.9860  0.0743
13211SOL     OW40173   6.221   4.984   4.533 -0.6401 -0.5103  0.7916
13211SOL    HW140174   6.291   4.936   4.577 -1.2799 -1.4324  0.8570
13211SOL    HW240175   6.208   4.936   4.451 -1.4236 -0.5703  0.9417
13212SOL     OW40176   5.666   0.169   2.196 -0.2563 -0.1856  0.0341
13212SOL    HW140177   5.619   0.137   2.120  0.3948 -1.0558 -0.0275
13212SOL    HW240178   5.636   0.259   2.209 -2.6470 -1.0064  0.5872
13213SOL     OW40179   0.961   5.678   6.440  0.0664 -0.2467  0.1496
13213SOL    HW140180   0.969   5.706   6.349  2.7780  0.4213  0.5078
13213SOL    HW240181   0.873   5.706   6.466 -1.1478 -1.2799 -2.4746
13214SOL     OW40182   5.698   0.279   4.837  0.7992  0.0606  0.1113
13214SOL    HW140183   5.615   0.312   4.803  1.0290 -0.0667 -0.5743
13214SOL    HW240184   5.754   0.356   4.844  1.3361 -0.1481 -1.4903
13215SOL     OW40185   2.894   6.085   1.853 -0.1651  0.3415 -0.1271
13215SOL    HW140186   2.961   6.141   1.891 -0.0590 -0.0428  0.2640
13215SOL    HW240187   2.811   6.128   1.877 -0.1066  0.0451  0.6589
13216SOL     OW40188   0.236   4.114   4.864 -0.0842  0.2257  0.0330
13216SOL    HW140189   0.235   4.087   4.956 -0.7807  1.0222  0.2668
13216SOL    HW240190   0.274   4.039   4.818  0.8758  0.0577  1.0376
13217SOL     OW40191   6.802   0.534   1.885 -0.0264 -0.1704 -0.1724
13217SOL    HW140192   6.747   0.601   1.925  2.4361  1.3335  0.9578
13217SOL    HW240193   6.781   0.454   1.933 -1.4450  0.2693 -0.0210
13218SOL     OW40194   4.581   4.938   5.128  0.0741 -0.1626 -0.0738
13218SOL    HW140195   4.589   4.889   5.046 -1.3624  0.5083 -0.6441
13218SOL    HW240196   4.648   4.900   5.185 -0.3054 -2.0661 -0.8337
13219SOL     OW40197   7.302   6.901   2.126  0.6795 -0.4194  0.2507
13219SOL    HW140198   7.267   6.960   2.193  0.1126 -1.9146  1.3432
13219SOL    HW240199   7.371   6.951   2.083 -0.5850  1.4398  0.2964
13220SOL     OW40200   0.225   6.235   6.337 -0.6670  0.5003 -0.3232
13220SOL    HW140201   0.285   6.257   6.408  0.0782 -0.1192 -0.7417
13220SOL    HW240202   0.138   6.257   6.371 -0.1523  2.2417 -0.0267
13221SOL     OW40203   6.583   6.781   0.002 -0.0527 -0.3828 -0.1851
13221SOL    HW140204   6.531   6.768  -0.077 -0.8168 -0.0157  0.2467
13221SOL    HW240205   6.554   6.866   0.036 -0.8089 -1.1774  1.2682
13222SOL     OW40206   7.592   4.665   6.786 -0.4105  0.1134  0.2726
13222SOL    HW140207   7.579   4.746   6.835 -0.8164  0.9533 -1.1723
13222SOL    HW240208   7.550   4.598   6.840 -4.5952  1.6023 -0.7284
13223SOL     OW40209   6.382   0.841   4.321  0.2475  0.4047  0.0544
13223SOL    HW140210   6.426   0.921   4.350  1.3011  0.4916 -1.6516
13223SOL    HW240211   6.434   0.810   4.247 -2.5563  0.5306 -2.1519
13224SOL     OW40212   4.643   3.189   6.994  0.3576  0.1449  0.1579
13224SOL    HW140213   4.652   3.142   6.912 -0.7197 -0.0357  0.1288
13224SOL    HW240214   4.557   3.232   6.988  0.8683  1.2649  0.6067
13225SOL     OW40215   6.107   2.964   6.591 -0.0539  0.3677 -0.0742
13225SOL    HW140216   6.123   3.049   6.552  0.0821  0.1321 -0.5447
13225SOL    HW240217   6.026   2.933   6.550 -1.1835  1.0984  1.5212
13226SOL     OW40218   6.355   4.465   3.781 -0.6210  0.3936  0.2522
13226SOL    HW140219   6.418   4.537   3.787  0.0515 -0.3122  2.5065
13226SOL    HW240220   6.290   4.495   3.717  1.6749  1.3575 -1.7676
13227SOL     OW40221   0.405   2.562   6.246  0.6050 -0.2224  0.1181
13227SOL    HW140222   0.331   2.622   6.240  0.8202 -0.0846 -1.6498
13227SOL    HW240223   0.428   2.561   6.339 -0.8603  0.6342  0.5110
13228SOL     OW40224   2.447   3.018   5.727  0.1199 -0.3434 -0.7742
13228SOL    HW140225   2.372   3.072   5.702  0.1165 -0.4429 -0.9836
13228SOL    HW240226   2.413   2.929   5.726 -0.7880 -0.1650  2.7952
13229SOL     OW40227   2.291   0.370   0.966 -0.5039  0.6876 -0.1258
13229SOL    HW140228   2.350   0.445   0.974 -2.1180  1.9979 -0.2345
13229SOL    HW240229   2.246   0.383   0.883 -1.4089  0.0510  0.2476
13230SOL     OW40230   6.839   3.370   5.816  0.0991  0.3276  0.2596
13230SOL    HW140231   6.866   3.302   5.755  0.5744  1.6231 -1.0269
13230SOL    HW240232   6.919   3.420   5.833  0.0822 -0.2441  2.3153
13231SOL     OW40233   1.746   3.568   6.222  0.0878  0.3802  0.2695
13231SOL    HW140234   1.841   3.574   6.220  0.1509 -0.3508  0.9608
13231SOL    HW240235   1.721   3.560   6.130  0.6014  1.7090 -0.0112
13232SOL     OW40236   6.824   4.204   2.384  0.0904 -0.8036  0.0563
13232SOL    HW140237   6.755   4.149   2.346 -0.6949  0.1100  0.1191
13232SOL    HW240238   6.781   4.250   2.456  0.3035  1.0322 -0.9257
13233SOL     OW40239   4.152   0.804   4.581 -0.1765 -0.1052 -0.2758
13233SOL    HW140240   4.093   0.782   4.653  0.5426 -0.5622  0.1851
13233SOL    HW240241   4.215   0.865   4.619 -0.2373  0.2363 -0.7145
13234SOL     OW40242   5.613   0.744   2.617 -0.5781  0.0530  0.8742
13234SOL    HW140243   5.670   0.725   2.543 -0.6524 -0.1494  0.8663
13234SOL    HW240244   5.645   0.686   2.687  0.2368  1.0667  1.3752
13235SOL     OW40245   2.569   5.766   1.010 -0.1955 -0.0954 -0.3513
13235SOL    HW140246   2.496   5.709   0.986 -1.4375  1.0845  0.4553
13235SOL    HW240247   2.631   5.708   1.053 -0.2873 -1.2624 -1.7179
13236SOL     OW40248   1.151   1.380   5.415 -0.1106  0.0805 -0.7257
13236SOL    HW140249   1.071   1.398   5.465 -0.7019 -0.7643 -1.3250
13236SOL    HW240250   1.215   1.353   5.481 -0.2781  0.8801 -0.2235
13237SOL     OW40251   2.151   0.645   5.827  0.0436  0.5884  0.4705
13237SOL    HW140252   2.089   0.619   5.758 -2.1119  1.1927  2.0544
13237SOL    HW240253   2.228   0.592   5.811 -1.7515 -2.0024 -0.2193
13238SOL     OW40254   4.677   6.696   5.559 -0.0394  0.0952  0.2887
13238SOL    HW140255   4.641   6.633   5.621  0.3778  0.1287  0.5680
13238SOL    HW240256   4.771   6.697   5.578  0.3837 -1.1849 -1.4859
13239SOL     OW40257   1.299   7.377   4.551  0.5419  0.1630  0.9353
13239SOL    HW140258   1.350   7.395   4.471 -1.7115  1.5790 -0.2914
13239SOL    HW240259   1.336   7.436   4.616  1.1790  0.3846  0.3931
13240SOL     OW40260   4.479   6.316   4.101 -0.4495 -0.4847  0.2327
13240SOL    HW140261   4.388   6.335   4.126 -0.9990  0.0741 -2.0053
13240SOL    HW240262   4.488   6.352   4.013  1.7511 -1.1858  0.1119
13241SOL     OW40263   3.401   3.363   4.208 -0.4442 -0.3655 -0.0709
13241SOL    HW140264   3.398   3.336   4.300 -1.4595  0.6148  0.1965
13241SOL    HW240265   3.312   3.350   4.175  0.1050 -1.5430 -1.1838
13242SOL     OW40266   4.260   2.197   1.806 -0.1072  0.5232  0.1063
13242SOL    HW140267   4.328   2.195   1.738  2.3058 -1.2545  2.3483
13242SOL    HW240268   4.266   2.286   1.843  2.1254  0.0020  1.1877
13243SOL     OW40269   0.057   1.392   6.753 -0.7114 -0.3197 -0.3758
13243SOL    HW140270   0.086   1.304   6.728  0.1556  0.2787 -1.6080
13243SOL    HW240271   0.130   1.428   6.803  0.4493  0.8871 -2.7703
13244SOL     OW40272   7.238   3.999   2.142  0.3615 -0.0734  0.6059
13244SOL    HW140273   7.280   3.997   2.056 -2.5454  0.2388 -0.9581
13244SOL    HW240274   7.144   3.991   2.122 -0.6982  3.1254  3.5097
13245SOL     OW40275   2.879   2.833   6.844 -0.3013  0.0064  0.1604
13245SOL    HW140276   2.874   2.898   6.775 -0.1152 -3.0483 -3.0097
13245SOL    HW240277   2.796   2.785   6.838  0.9145 -2.1885 -0.0276
13246SOL     OW40278   6.799   2.071   3.084 -0.7962 -0.4748  0.4030
13246SOL    HW140279   6.762   2.043   3.001  0.6805 -1.5087  0.0569
13246SOL    HW240280   6.799   2.167   3.080  0.5419 -0.5134 -1.4058
13247SOL     OW40281   4.390   1.640   6.298 -0.9406 -0.6784 -0.3669
13247SOL    HW140282   4.433   1.725   6.297 -0.2727 -0.9726  1.0232
13247SOL    HW240283   4.452   1.581   6.255 -0.7456 -0.7423 -0.0040
13248SOL     OW40284   7.476   2.183   4.481  0.0785  0.5625  0.0686
13248SOL    HW140285   7.549   2.123   4.497 -0.1041  0.3202  0.0023
13248SOL    HW240286   7.443   2.158   4.395 -0.9747 -0.2713  0.6820
13249SOL     OW40287   4.235   0.845   1.641  0.0380 -0.6440  0.4370
13249SOL    HW140288   4.261   0.832   1.733  2.1664 -2.1316 -0.3066
13249SOL    HW240289   4.168   0.779   1.627 -0.4465 -0.2776  0.9598
13250SOL     OW40290   1.397   7.208   5.345  0.4856  0.1489  0.5752
13250SOL    HW140291   1.448   7.136   5.307 -2.0265 -1.1631 -0.5266
13250SOL    HW240292   1.414   7.201   5.439  1.6327 -0.7877  0.3283
13251SOL     OW40293   4.123   2.653   4.527  0.1775  1.2928  0.1583
13251SOL    HW140294   4.043   2.670   4.575  0.4952 -0.8749  1.5812
13251SOL    HW240295   4.179   2.728   4.546 -0.2064  1.1253  2.1443
13252SOL     OW40296   0.659   0.246   0.134  0.1823 -0.3146 -0.3206
13252SOL    HW140297   0.732   0.305   0.112  0.1308  0.6393  1.7973
13252SOL    HW240298   0.697   0.183   0.195 -0.4280 -0.7180 -0.3546
13253SOL     OW40299   1.108   6.351   6.385 -0.5803  0.1522 -0.1355
13253SOL    HW140300   1.159   6.362   6.465 -1.3373 -0.2374  0.4141
13253SOL    HW240301   1.026   6.398   6.402 -1.3194 -1.0811 -0.1293
13254SOL     OW40302   1.292   2.062   4.219  0.1310  0.4762  0.4085
13254SOL    HW140303   1.277   2.081   4.311 -0.2708  2.2496  0.0140
13254SOL    HW240304   1.359   1.994   4.219  0.7379  1.0362  1.9946
13255SOL     OW40305   4.999   4.251   4.856  0.4993 -0.0060 -0.2030
13255SOL    HW140306   5.024   4.282   4.943 -1.5192  0.7223  0.1683
13255SOL    HW240307   5.046   4.310   4.796 -1.7492  2.7045  0.4760
13256SOL     OW40308   3.628   1.465   4.036 -0.7183  0.2027 -0.4611
13256SOL    HW140309   3.563   1.412   4.081  0.5351 -0.2986  0.8314
13256SOL    HW240310   3.631   1.547   4.085 -0.3590  0.2050 -0.4786
13257SOL     OW40311   6.452   2.378   7.188 -0.3531  0.6038 -0.2741
13257SOL    HW140312   6.469   2.308   7.124  0.1282 -0.5139  1.0172
13257SOL    HW240313   6.365   2.359   7.221  0.7582 -1.0531  1.9921
13258SOL     OW40314   1.794   7.354   5.899 -0.2671 -0.1539  0.4466
13258SOL    HW140315   1.866   7.370   5.837 -0.1386 -1.5710  0.1970
13258SOL    HW240316   1.718   7.396   5.858 -0.0902 -0.7139 -0.4842
13259SOL     OW40317   6.674   3.173   3.682  0.2815 -0.1266  0.0577
13259SOL    HW140318   6.611   3.189   3.752 -0.3088 -0.6356 -0.3501
13259SOL    HW240319   6.701   3.260   3.653 -0.6172  0.1051 -0.1042
13260SOL     OW40320   5.374   2.458   5.969 -0.2295  0.1415 -0.4703
13260SOL    HW140321   5.424   2.533   6.002  0.1426  0.3310 -1.4101
13260SOL    HW240322   5.416   2.382   6.009  3.7494 -0.1378 -4.3531
13261SOL     OW40323   6.863   3.214   7.518 -1.0855  0.0998  0.1278
13261SOL    HW140324   6.905   3.298   7.500  0.9031 -0.4575  1.8653
13261SOL    HW240325   6.905   3.153   7.457  2.4667 -0.8975  3.2441
13262SOL     OW40326   5.671   7.417   5.860  0.6235 -0.2231 -0.2286
13262SOL    HW140327   5.701   7.502   5.892  0.2023 -0.4954  0.9117
13262SOL    HW240328   5.601   7.439   5.798 -0.3867  0.2286  1.0473
13263SOL     OW40329   4.229   2.438   1.904 -0.0401  0.1504  0.5922
13263SOL    HW140330   4.312   2.468   1.942 -0.4349 -0.0185  1.6282
13263SOL    HW240331   4.165   2.503   1.932 -0.4666 -0.3582  0.8220
13264SOL     OW40332   4.257   0.819   1.908 -0.0836  0.3405  0.0007
13264SOL    HW140333   4.173   0.774   1.918  0.2620 -0.3004  0.0247
13264SOL    HW240334   4.257   0.886   1.977 -0.1919 -0.2487  0.5771
13265SOL     OW40335   7.315   1.983   3.157 -0.1141  0.4704 -0.0046
13265SOL    HW140336   7.375   2.039   3.107 -1.1451 -0.2933 -2.2139
13265SOL    HW240337   7.368   1.908   3.183  0.6303  1.2361  0.7324
13266SOL     OW40338   4.355   2.615   1.649  0.5625 -0.0778 -0.0588
13266SOL    HW140339   4.400   2.696   1.672  0.0356  0.0351  0.6125
13266SOL    HW240340   4.303   2.594   1.726  2.2674 -2.1754  0.6046
13267SOL     OW40341   2.855   5.293   2.543  0.3485 -0.1395  0.0369
13267SOL    HW140342   2.930   5.237   2.520  0.9620  0.3968  0.6912
13267SOL    HW240343   2.841   5.346   2.465 -1.2227 -2.2061 -1.1903
13268SOL     OW40344   6.366   2.670   0.550  0.1726  0.3538 -0.6940
13268SOL    HW140345   6.283   2.623   0.565 -0.0474  1.0144  0.2635
13268SOL    HW240346   6.426   2.633   0.615  0.8681 -0.6267 -1.8511
13269SOL     OW40347   1.946   5.209   2.283 -0.6977  0.1386  0.4774
13269SOL    HW140348   1.986   5.215   2.369  1.5702  0.1954 -0.5019
13269SOL    HW240349   2.003   5.148   2.234 -1.4564  0.7044 -1.1964
13270SOL     OW40350   3.143   4.432   7.621  0.2671 -0.7113 -0.2658
13270SOL    HW140351   3.235   4.417   7.599  0.2355 -0.1541 -0.7771
13270SOL    HW240352   3.109   4.344   7.640  0.1940 -1.3107 -2.8430
13271SOL     OW40353   1.305   0.252   1.950 -0.0215 -0.2549  0.1444
13271SOL    HW140354   1.396   0.243   1.922  0.4479 -0.1051  1.5453
13271SOL    HW240355   1.283   0.343   1.932 -0.8568 -0.9324 -2.8128
13272SOL     OW40356   3.228   5.701   6.283 -0.3649 -0.0909 -0.1916
13272SOL    HW140357   3.312   5.696   6.237 -0.6385  1.8278 -0.9581
13272SOL    HW240358   3.235   5.780   6.337 -1.5533 -0.1159  0.0159
13273SOL     OW40359   1.744   5.108   4.719  0.2016  0.9596 -0.3950
13273SOL    HW140360   1.792   5.129   4.799 -0.0449  0.5062 -0.1212
13273SOL    HW240361   1.726   5.014   4.726  1.3563  0.6199 -1.6263
13274SOL     OW40362   4.926   7.185   5.980 -0.2984  0.3319  0.2902
13274SOL    HW140363   5.016   7.206   5.956 -0.4239 -0.2632 -0.7549
13274SOL    HW240364   4.873   7.219   5.909 -0.5920 -2.3716 -0.9178
13275SOL     OW40365   7.132   7.374   5.021  0.4751  0.1688  0.0162
13275SOL    HW140366   7.128   7.433   5.096  0.6664  1.6502 -1.1035
13275SOL    HW240367   7.205   7.406   4.969  1.1600 -1.6122 -0.1986
13276SOL     OW40368   3.258   5.767   4.822 -0.0292 -0.5329  0.4021
13276SOL    HW140369   3.301   5.683   4.840 -1.2915 -0.7593  2.6745
13276SOL    HW240370   3.176   5.743   4.778 -0.3786 -0.5009  1.0299
13277SOL     OW40371   5.901   3.646   4.693 -0.6698  0.1720  0.2011
13277SOL    HW140372   5.950   3.663   4.612 -3.4011 -0.6748 -1.7897
13277SOL    HW240373   5.906   3.552   4.705 -1.2418  0.1529  0.3289
13278SOL     OW40374   3.771   0.265   2.349  0.4187 -0.3817 -0.2360
13278SOL    HW140375   3.837   0.329   2.321 -0.2526 -0.2120 -1.4941
13278SOL    HW240376   3.690   0.316   2.354 -0.0526 -1.0596 -0.8938
13279SOL     OW40377   6.897   0.190   0.037 -0.0070  0.0982  0.6605
13279SOL    HW140378   6.907   0.282   0.012 -0.3210  0.3658  1.4854
13279SOL    HW240379   6.938   0.141  -0.035  0.0657  0.8733  0.1608
13280SOL     OW40380   3.586   4.030   6.289  0.5867 -0.3662  0.0433
13280SOL    HW140381   3.539   4.111   6.269  0.8524 -0.2182  0.0068
13280SOL    HW240382   3.619   4.043   6.378  0.9710 -0.2699 -0.1125
13281SOL     OW40383   5.301   3.040   1.315  0.2733  0.7604 -0.8624
13281SOL    HW140384   5.248   3.055   1.394  0.8231 -1.0755 -0.0935
13281SOL    HW240385   5.355   3.118   1.308  0.6296  0.7280  0.9434
13282SOL     OW40386   3.977   0.815   6.375  0.3971 -0.2377  0.4230
13282SOL    HW140387   4.030   0.862   6.311 -1.6475  1.6865  0.0210
13282SOL    HW240388   4.020   0.832   6.459  0.2723  1.5503  0.1493
13283SOL     OW40389   5.406   0.716   3.754 -0.7824 -1.0763 -0.1434
13283SOL    HW140390   5.385   0.754   3.668 -1.0046 -0.3307  0.2328
13283SOL    HW240391   5.472   0.649   3.735  1.9373  1.5130 -0.5389
13284SOL     OW40392   2.498   5.366   1.716  0.0752  0.1837  0.1209
13284SOL    HW140393   2.563   5.322   1.771  0.2499  0.2365 -0.0450
13284SOL    HW240394   2.416   5.360   1.767  0.7128  2.4047  1.5279
13285SOL     OW40395   7.022   6.479   4.857 -0.2656 -0.1388 -0.0980
13285SOL    HW140396   6.958   6.462   4.788  0.2515 -1.8813 -0.2196
13285SOL    HW240397   6.997   6.563   4.894 -1.2330  0.2938 -1.6618
13286SOL     OW40398   6.577   2.525   1.947 -0.2157 -0.2525  0.3461
13286SOL    HW140399   6.669   2.532   1.969 -0.6332  2.1187  1.6439
13286SOL    HW240400   6.534   2.501   2.029 -0.9416  0.6872  0.2633
13287SOL     OW40401   1.402   2.912   3.955  0.3241  0.5793  0.0927
13287SOL    HW140402   1.329   2.973   3.963 -0.3339  0.0821 -1.7488
13287SOL    HW240403   1.477   2.967   3.933 -0.0971  0.8368 -0.7600
13288SOL     OW40404   3.638   7.480   0.213 -0.5900  0.0256  0.3279
13288SOL    HW140405   3.711   7.418   0.214 -0.1417  0.5113 -0.7665
13288SOL    HW240406   3.618   7.492   0.121  0.0972  2.3857  0.4246
13289SOL     OW40407   2.654   6.678   0.730 -0.1168 -0.0197 -0.4843
13289SOL    HW140408   2.745   6.666   0.701  0.2029  1.9476 -0.4316
13289SOL    HW240409   2.610   6.597   0.704  1.2248 -0.2633 -2.2227
13290SOL     OW40410   0.350   1.610   2.829 -0.7110 -0.4574  0.5826
13290SOL    HW140411   0.339   1.687   2.773 -1.7742 -1.8278 -1.1650
13290SOL    HW240412   0.434   1.625   2.873 -1.1242  1.9233  0.7021
13291SOL     OW40413   1.949   0.480   1.458 -0.5248 -0.1096  0.3311
13291SOL    HW140414   1.969   0.401   1.508 -1.6930  0.6644  2.1507
13291SOL    HW240415   1.923   0.544   1.525  1.7455  2.2997 -0.9086
13292SOL     OW40416   6.266   3.039   4.673  0.0973  0.2807 -0.3780
13292SOL    HW140417   6.355   3.016   4.699 -0.0566  0.7420  0.6025
13292SOL    HW240418   6.268   3.038   4.577  0.7516 -1.2294 -0.3865
13293SOL     OW40419   1.540   5.553   1.068 -0.4702 -0.3571 -0.3828
13293SOL    HW140420   1.484   5.566   1.145  0.7330  1.3276  0.2417
13293SOL    HW240421   1.608   5.493   1.098 -0.6232 -0.5762 -0.4696
13294SOL     OW40422   4.056   3.836   7.611 -0.4625 -0.3673  0.6059
13294SOL    HW140423   4.128   3.810   7.669  0.1162  1.6246  0.8447
13294SOL    HW240424   4.039   3.927   7.633 -1.5124 -0.1225 -1.0707
13295SOL     OW40425   6.218   6.289   4.610  0.5263  0.5199 -0.1432
13295SOL    HW140426   6.124   6.274   4.600  0.8483 -0.3118 -2.5012
13295SOL    HW240427   6.256   6.202   4.617  1.2533  0.7813 -0.7375
13296SOL     OW40428   3.579   0.492   5.131 -0.4924  0.7291  0.1530
13296SOL    HW140429   3.503   0.494   5.073  0.3099 -1.8091 -1.1948
13296SOL    HW240430   3.650   0.458   5.075  0.2405 -2.3370  2.6323
13297SOL     OW40431   6.779   0.110   2.699 -0.1021 -0.1941 -0.2196
13297SOL    HW140432   6.692   0.148   2.692 -0.5709 -1.1756  0.0387
13297SOL    HW240433   6.789   0.058   2.619 -0.6107 -1.7299  0.6562
13298SOL     OW40434   0.116   1.259   6.149 -0.0189 -0.1028 -0.2426
13298SOL    HW140435   0.172   1.216   6.084 -1.6960 -0.3980 -1.5554
13298SOL    HW240436   0.135   1.212   6.230  0.3977 -1.3405 -1.0139
13299SOL     OW40437   1.089   0.497   6.350  0.6392 -0.3087 -0.6909
13299SOL    HW140438   1.125   0.541   6.427 -2.8310 -1.4112  1.7952
13299SOL    HW240439   1.054   0.568   6.296  0.5409  0.3408  0.2125
13300SOL     OW40440   3.424   3.837   6.634  0.5147 -0.3128 -0.4825
13300SOL    HW140441   3.446   3.751   6.668 -0.6589 -0.0723  1.0589
13300SOL    HW240442   3.381   3.820   6.550 -1.2722 -1.4309  0.5740
13301SOL     OW40443   5.109   1.721   4.671  0.4171 -0.3626  0.2263
13301SOL    HW140444   5.069   1.805   4.650  0.7210 -0.7747 -2.3052
13301SOL    HW240445   5.039   1.657   4.654  0.9757 -0.8014 -0.4552
13302SOL     OW40446   2.947   1.030   5.346 -0.2171 -0.3370  0.2454
13302SOL    HW140447   2.920   0.938   5.351  1.7348 -0.8915  2.0266
13302SOL    HW240448   2.869   1.079   5.372 -0.5509 -1.6696  1.9176
13303SOL     OW40449   3.086   5.580   7.568  0.4151 -0.3216  0.3192
13303SOL    HW140450   3.001   5.609   7.603  1.5105  1.8690  1.3814
13303SOL    HW240451   3.078   5.592   7.473 -0.6401 -0.7155  0.3449
13304SOL     OW40452   5.798   6.635   3.579 -0.2120  0.5941  0.0161
13304SOL    HW140453   5.762   6.549   3.559 -0.2237  0.9384 -1.6482
13304SOL    HW240454   5.728   6.681   3.625 -0.7871  0.2250 -0.4730
13305SOL     OW40455   2.877   3.484   2.088  0.3658  0.2828 -0.1335
13305SOL    HW140456   2.931   3.420   2.042 -0.8045 -0.9126  0.0766
13305SOL    HW240457   2.790   3.444   2.091 -0.3964  1.8547  0.0953
13306SOL     OW40458   2.054   0.609   5.547  0.6995  0.0961 -0.3778
13306SOL    HW140459   2.070   0.515   5.557 -3.5989 -0.6820  1.7614
13306SOL    HW240460   2.024   0.619   5.457 -2.6213 -1.5601  0.3642
13307SOL     OW40461   5.835   5.483   2.682 -0.6522 -0.8180  0.2130
13307SOL    HW140462   5.766   5.420   2.662 -0.4421 -0.9742 -0.0266
13307SOL    HW240463   5.844   5.535   2.602 -1.5110  0.1777  0.7388
13308SOL     OW40464   4.904   3.449   1.217 -0.1286 -0.1693 -0.5141
13308SOL    HW140465   4.982   3.481   1.262  0.1319 -1.1476 -0.2615
13308SOL    HW240466   4.935   3.377   1.162 -1.0882 -1.7443  0.8999
13309SOL     OW40467   7.539   3.655   7.340  0.3993  0.2320  0.6049
13309SOL    HW140468   7.613   3.708   7.311  0.1919  0.7737  1.0378
13309SOL    HW240469   7.473   3.666   7.272  0.5610  0.0785  0.4210
13310SOL     OW40470   0.508   5.317   2.425  0.1560 -0.0875 -0.4223
13310SOL    HW140471   0.435   5.283   2.476 -0.2931  2.1948  0.5941
13310SOL    HW240472   0.560   5.240   2.403 -0.5263 -1.3714  2.0921
13311SOL     OW40473   4.079   3.385   1.434  0.0608  0.3391  0.0950
13311SOL    HW140474   4.123   3.314   1.388 -0.2388  1.7967 -2.6310
13311SOL    HW240475   4.140   3.412   1.502  2.0690  0.2697 -1.5896
13312SOL     OW40476   6.464   2.070   3.631  0.1722 -0.3468  0.4968
13312SOL    HW140477   6.453   2.018   3.711 -0.9994  0.4724  0.8970
13312SOL    HW240478   6.449   2.009   3.559  0.4417 -0.9127  0.9156
13313SOL     OW40479   6.710   5.679   1.476  0.1479 -0.1391 -0.1469
13313SOL    HW140480   6.782   5.632   1.435  0.8903  0.9260 -0.1253
13313SOL    HW240481   6.749   5.718   1.554 -0.4534  0.4449 -0.1257
13314SOL     OW40482   7.216   6.478   3.945  0.3045 -0.2615 -0.1806
13314SOL    HW140483   7.255   6.407   3.894  0.9058  0.1765 -0.3460
13314SOL    HW240484   7.229   6.452   4.036  0.3514 -0.4562 -0.2432
13315SOL     OW40485   4.819   0.387   5.823 -0.4159  0.2807 -0.3245
13315SOL    HW140486   4.803   0.407   5.731 -1.0895  1.8147  0.0918
13315SOL    HW240487   4.763   0.311   5.841 -1.1789  0.6942 -0.8978
13316SOL     OW40488   3.883   3.028   5.122  0.1684  0.0261 -0.1569
13316SOL    HW140489   3.878   2.979   5.040  0.2970 -0.6526  0.2329
13316SOL    HW240490   3.890   2.961   5.190 -0.2546  0.5688  0.4388
13317SOL     OW40491   6.174   7.451   1.277  0.3186  0.1190  0.3679
13317SOL    HW140492   6.264   7.480   1.293  0.6026  0.7262 -1.9474
13317SOL    HW240493   6.178   7.356   1.285  1.6008 -0.0276 -1.3127
13318SOL     OW40494   5.626   1.075   0.696 -0.5672  0.1092  0.5220
13318SOL    HW140495   5.715   1.044   0.680  0.8501  2.9421  2.1269
13318SOL    HW240496   5.604   1.040   0.782 -0.8504 -0.2836  0.2889
13319SOL     OW40497   7.561   6.999   5.486 -0.4133  0.6380  0.3527
13319SOL    HW140498   7.481   7.013   5.436 -1.3872  1.0581  1.9304
13319SOL    HW240499   7.554   6.908   5.516 -2.2424  1.6493  3.5246
13320SOL     OW40500   4.077   4.551   6.661 -0.1991  0.5943 -0.1600
13320SOL    HW140501   4.159   4.552   6.612  0.9422  0.0284  1.6373
13320SOL    HW240502   4.041   4.639   6.650  0.1351  0.5582 -1.7482
13321SOL     OW40503   6.803   1.953   1.314 -0.3724  0.4344  0.3264
13321SOL    HW140504   6.807   1.931   1.221  2.9774 -0.0484  0.4562
13321SOL    HW240505   6.802   2.049   1.315 -0.0821  0.4499 -0.1986
13322SOL     OW40506   0.448   5.509   2.632 -0.5881 -0.1539  0.4506
13322SOL    HW140507   0.494   5.434   2.594  1.1291  1.2440 -0.4083
13322SOL    HW240508   0.437   5.570   2.560 -1.6274  0.5938  1.2048
13323SOL     OW40509   0.313   6.413   0.220  0.5630 -0.1438  0.3824
13323SOL    HW140510   0.395   6.430   0.173 -0.5744  1.6596 -1.0856
13323SOL    HW240511   0.341   6.366   0.299  3.1893  1.5441  0.6131
13324SOL     OW40512   7.445   6.549   0.819  0.3307  0.0585  0.0356
13324SOL    HW140513   7.471   6.473   0.767  0.5636  0.0377  0.1813
13324SOL    HW240514   7.518   6.610   0.812  0.2458  0.1692  0.1122
13325SOL     OW40515   4.454   5.843   4.623 -0.2525 -0.2861  0.1610
13325SOL    HW140516   4.460   5.862   4.717  0.9437 -0.3883  0.1220
13325SOL    HW240517   4.543   5.855   4.590 -0.7054  0.0001 -1.0194
13326SOL     OW40518   5.690   1.392   3.155 -0.3100  0.0444  0.1876
13326SOL    HW140519   5.665   1.365   3.243 -2.2418  0.4382 -0.2049
13326SOL    HW240520   5.659   1.321   3.098 -1.6202  1.0751 -0.4294
13327SOL     OW40521   3.987   2.290   2.459 -0.0411  0.1900 -0.0385
13327SOL    HW140522   3.932   2.213   2.474 -0.9834  1.2439  2.3017
13327SOL    HW240523   4.067   2.272   2.508  1.5471 -0.9947 -2.8113
13328SOL     OW40524   0.839   3.339   0.218  0.2212 -0.2610 -0.4596
13328SOL    HW140525   0.773   3.406   0.232  0.8781  0.4705 -0.7640
13328SOL    HW240526   0.824   3.309   0.128  0.3678 -0.0255 -0.5622
13329SOL     OW40527   3.792   3.140   5.362  0.4373 -0.4631 -0.3335
13329SOL    HW140528   3.823   3.103   5.279  1.4407  0.5232 -0.4174
13329SOL    HW240529   3.870   3.178   5.402 -0.2709  0.1677  0.4832
13330SOL     OW40530   3.468   0.151   7.540  0.0512  0.0627  0.3922
13330SOL    HW140531   3.557   0.181   7.556  0.8539 -1.9405 -0.1480
13330SOL    HW240532   3.425   0.226   7.499  1.5548  0.9722  0.4000
13331SOL     OW40533   2.615   1.931   1.258 -0.1210 -0.0904  0.3021
13331SOL    HW140534   2.639   1.928   1.165 -1.4030 -0.0718 -0.0480
13331SOL    HW240535   2.560   1.853   1.271  0.6383 -0.4820  1.2238
13332SOL     OW40536   1.793   7.019   6.759 -0.0526  0.4446 -0.2929
13332SOL    HW140537   1.768   6.929   6.780  0.0372  0.4565 -0.1360
13332SOL    HW240538   1.715   7.071   6.779  0.4923  0.6638  1.4577
13333SOL     OW40539   2.692   1.881   6.354 -0.0124  0.5919  0.4830
13333SOL    HW140540   2.780   1.903   6.383 -0.2671  2.3236  0.0582
13333SOL    HW240541   2.705   1.832   6.273  0.6100 -2.0213  2.0277
13334SOL     OW40542   5.976   7.531   6.435 -0.1603  0.0965  0.5494
13334SOL    HW140543   6.056   7.574   6.466  0.8505 -1.4686  0.1798
13334SOL    HW240544   5.950   7.473   6.506  0.3856 -1.1586 -0.2529
13335SOL     OW40545   7.443   2.472   1.165  0.6078 -0.0145 -0.7231
13335SOL    HW140546   7.411   2.492   1.253  0.8069  1.1965 -0.8969
13335SOL    HW240547   7.438   2.556   1.119  2.2588 -0.1981 -1.3104
13336SOL     OW40548   0.261   4.080   1.403 -0.3506 -0.3664  0.1509
13336SOL    HW140549   0.173   4.118   1.395  0.0438  0.6408  0.3980
13336SOL    HW240550   0.255   3.996   1.358 -1.1344  0.1886 -0.8217
13337SOL     OW40551   3.569   2.455   2.056 -0.3908  0.4009 -0.3838
13337SOL    HW140552   3.503   2.399   2.098 -2.3206  2.7969 -0.0053
13337SOL    HW240553   3.641   2.457   2.119 -0.9710 -0.3142  0.3363
13338SOL     OW40554   3.766   0.395   2.784  0.1009 -0.4320  0.1878
13338SOL    HW140555   3.698   0.406   2.718  1.3783 -0.3706 -1.1516
13338SOL    HW240556   3.765   0.301   2.803 -0.4269 -0.4128  0.2788
13339SOL     OW40557   1.515   4.843   1.145  0.3512  0.5266  0.2197
13339SOL    HW140558   1.591   4.811   1.097 -0.2596 -0.9236  0.1886
13339SOL    HW240559   1.545   4.850   1.235  0.2529 -1.0447  0.3969
13340SOL     OW40560   0.152   7.386   3.396  0.0858  0.1527 -0.2975
13340SOL    HW140561   0.240   7.412   3.367  1.2078 -1.9632  0.9558
13340SOL    HW240562   0.121   7.327   3.328  1.0127 -1.5749  0.7007
13341SOL     OW40563   2.106   0.844   0.287 -1.0983 -0.2682  0.8913
13341SOL    HW140564   2.067   0.831   0.374 -2.9219  0.3370  0.2190
13341SOL    HW240565   2.183   0.898   0.303 -1.7078  0.2941  2.0886
13342SOL     OW40566   4.301   0.534   7.518  0.0538  0.7583 -0.1236
13342SOL    HW140567   4.350   0.615   7.535  0.5613  0.2720  0.7970
13342SOL    HW240568   4.368   0.465   7.520  0.4288  0.6151 -4.9177
13343SOL     OW40569   6.411   3.330   3.079  0.1655  0.2201  0.2749
13343SOL    HW140570   6.425   3.399   3.144  0.8747  0.2955  0.0529
13343SOL    HW240571   6.500   3.302   3.055 -0.1103 -0.5722  0.1528
13344SOL     OW40572   0.463   2.331   1.720  0.0514 -0.0388 -0.3482
13344SOL    HW140573   0.493   2.311   1.631  1.4273  2.6358 -0.5952
13344SOL    HW240574   0.534   2.299   1.776  0.2314  0.2572 -0.4035
13345SOL     OW40575   3.381   0.386   6.849  0.3613 -0.1411  1.0947
13345SOL    HW140576   3.457   0.426   6.891  1.3207 -0.8635  0.0848
13345SOL    HW240577   3.376   0.428   6.763  0.4844 -1.0947  0.6062
13346SOL     OW40578   3.137   1.317   0.377  0.5228 -0.0764  0.2295
13346SOL    HW140579   3.190   1.279   0.448  0.3445  1.2570  1.1112
13346SOL    HW240580   3.147   1.255   0.304 -0.4284 -2.2671  1.8271
13347SOL     OW40581   2.521   4.180   0.701 -0.7250 -0.4235 -0.5502
13347SOL    HW140582   2.459   4.175   0.773  0.4665 -0.5141  0.5052
13347SOL    HW240583   2.517   4.094   0.659 -3.0080  0.3033 -2.0256
13348SOL     OW40584   5.517   7.136   3.549  0.1245 -0.1415 -0.0976
13348SOL    HW140585   5.474   7.166   3.630  0.6963  2.1653 -0.5541
13348SOL    HW240586   5.459   7.069   3.514  0.1976 -1.7231  2.5426
13349SOL     OW40587   2.453   1.839   1.686  0.2558 -0.0252 -0.9273
13349SOL    HW140588   2.467   1.753   1.727 -0.6717 -0.9337 -2.4621
13349SOL    HW240589   2.369   1.868   1.720  0.1473 -0.1339 -1.1039
13350SOL     OW40590   1.614   0.083   0.741  0.4350  0.1014  0.3541
13350SOL    HW140591   1.681   0.072   0.674  1.6506  2.9532  0.9433
13350SOL    HW240592   1.660   0.067   0.824 -0.2894 -0.4289  0.6652
13351SOL     OW40593   5.920   6.603   3.134 -0.4295  0.8790  0.2522
13351SOL    HW140594   5.948   6.549   3.207 -0.1844  0.0547 -0.4384
13351SOL    HW240595   5.836   6.640   3.162 -0.1330  0.9250  1.1120
13352SOL     OW40596   1.829   0.165   5.890  0.1788  0.2983  0.7688
13352SOL    HW140597   1.788   0.108   5.825  0.2911  0.4924  0.5256
13352SOL    HW240598   1.819   0.254   5.855  0.9638  0.3343  0.6122
13353SOL     OW40599   4.578   5.350   5.971 -0.3733 -0.5315  0.0098
13353SOL    HW140600   4.495   5.364   5.925 -0.2980 -1.3429 -0.3897
13353SOL    HW240601   4.573   5.259   6.001  1.2847 -1.3330 -1.9527
13354SOL     OW40602   1.504   2.070   0.488 -0.2591  0.4153 -0.2131
13354SOL    HW140603   1.564   2.007   0.448  0.4340  0.4743  0.7002
13354SOL    HW240604   1.453   2.017   0.550 -0.0670  0.6401  0.1409
13355SOL     OW40605   4.664   7.241   5.762  0.2920  0.3087 -0.2079
13355SOL    HW140606   4.696   7.309   5.703  1.9884  1.0626  1.5021
13355SOL    HW240607   4.578   7.217   5.726  0.2944  2.2839 -1.6990
13356SOL     OW40608   5.106   3.489   6.613  0.0867  0.3356 -0.0076
13356SOL    HW140609   5.031   3.440   6.646 -0.1576  0.2822 -0.6386
13356SOL    HW240610   5.116   3.562   6.674  0.3786 -0.4205  0.8683
13357SOL     OW40611   6.810   5.502   4.661  0.0075 -0.3225 -0.5400
13357SOL    HW140612   6.817   5.407   4.654  0.7885 -0.6140  2.4858
13357SOL    HW240613   6.898   5.534   4.641 -0.0474 -0.3283 -0.7831
13358SOL     OW40614   7.618   2.879   7.068  0.1005  0.0278 -0.5112
13358SOL    HW140615   7.577   2.922   7.142  2.8821 -1.9013  2.3894
13358SOL    HW240616   7.558   2.808   7.045 -0.8944  0.7881 -0.3103
13359SOL     OW40617   3.478   1.451   1.728 -0.7574 -0.0298 -0.3913
13359SOL    HW140618   3.474   1.363   1.765 -3.0122 -0.1225 -0.7543
13359SOL    HW240619   3.560   1.452   1.679 -0.3722 -1.6952  0.1485
13360SOL     OW40620   6.077   4.573   3.210 -0.0010 -0.0226 -0.5281
13360SOL    HW140621   6.005   4.600   3.267 -0.1606  0.2389 -0.8528
13360SOL    HW240622   6.151   4.629   3.235  0.2514 -0.6345  0.1590
13361SOL     OW40623   2.709   5.382   2.275  0.4661 -0.9280 -1.2094
13361SOL    HW140624   2.688   5.459   2.222  0.5564 -1.2843 -1.7643
13361SOL    HW240625   2.804   5.375   2.270  0.5508 -0.5248 -0.3805
13362SOL     OW40626   5.682   1.257   0.123  0.1877 -0.3747  0.3648
13362SOL    HW140627   5.726   1.335   0.156  1.0237 -0.1306 -1.1982
13362SOL    HW240628   5.692   1.262   0.028  0.1157 -2.2897  0.2071
13363SOL     OW40629   1.653   3.544   3.040 -0.1495  0.1465 -0.8027
13363SOL    HW140630   1.677   3.517   2.952  0.5403  0.1427 -0.6210
13363SOL    HW240631   1.721   3.508   3.096 -1.4297 -1.2337 -0.0516
13364SOL     OW40632   4.982   7.275   1.900 -0.4086  0.0059  0.2807
13364SOL    HW140633   5.018   7.270   1.811  0.5603  1.2637  0.5740
13364SOL    HW240634   4.930   7.195   1.909 -0.5440 -0.1391 -1.4190
13365SOL     OW40635   6.277   5.366   6.678 -0.5525 -0.0209 -0.4928
13365SOL    HW140636   6.251   5.367   6.587  0.8666 -0.5927 -0.9378
13365SOL    HW240637   6.275   5.273   6.702  0.8022 -0.0666 -0.4915
13366SOL     OW40638   1.762   0.362   3.112 -0.0260 -0.0636 -0.3533
13366SOL    HW140639   1.858   0.357   3.105  0.1273 -0.0324  1.2960
13366SOL    HW240640   1.747   0.438   3.169 -0.9892 -0.6637  0.2038
13367SOL     OW40641   5.186   3.419   7.350 -0.2528  0.4449 -0.5999
13367SOL    HW140642   5.172   3.389   7.260 -0.9648  0.0481 -0.3612
13367SOL    HW240643   5.263   3.371   7.379 -1.5137 -1.3758 -0.1447
13368SOL     OW40644   5.303   1.340   5.821 -0.5463  0.1302  0.1512
13368SOL    HW140645   5.294   1.297   5.905 -2.2088  1.7507  0.8700
13368SOL    HW240646   5.309   1.268   5.758 -0.2919 -1.1115  1.5358
13369SOL     OW40647   0.930   2.607   7.420 -0.3523  0.1653 -0.2902
13369SOL    HW140648   1.017   2.641   7.402 -0.1779 -0.9217 -1.6934
13369SOL    HW240649   0.943   2.539   7.486 -0.5770  1.9844  1.7619
13370SOL     OW40650   2.566   0.219   7.206  0.1142 -0.0380  0.6070
13370SOL    HW140651   2.606   0.304   7.223  0.9732 -0.3343  0.1262
13370SOL    HW240652   2.471   0.236   7.206  0.2770  1.5176 -2.4079
13371SOL     OW40653   1.855   0.510   7.526 -0.0786  0.6978  0.5639
13371SOL    HW140654   1.900   0.585   7.488 -0.8030  0.3253 -1.1022
13371SOL    HW240655   1.764   0.520   7.499 -0.0909 -1.0304 -0.1246
13372SOL     OW40656   6.611   4.055   1.873  0.0604  0.1220  0.2788
13372SOL    HW140657   6.677   3.995   1.906 -0.2513  0.5832  1.8227
13372SOL    HW240658   6.589   4.111   1.948 -0.2358  1.6396 -0.8899
13373SOL     OW40659   4.424   2.866   0.584  0.3432  0.4002 -0.1094
13373SOL    HW140660   4.335   2.836   0.600  1.0130 -0.6237  2.0324
13373SOL    HW240661   4.418   2.918   0.504 -2.0587 -0.0827 -0.3053
13374SOL     OW40662   6.558   0.038   4.794 -0.1972  0.4236  0.5926
13374SOL    HW140663   6.482   0.097   4.792 -0.6280 -0.1362 -0.2815
13374SOL    HW240664   6.618   0.078   4.857  0.1827  2.6386 -1.0337
13375SOL     OW40665   0.731   2.360   6.516  0.5835 -0.0392 -0.1047
13375SOL    HW140666   0.807   2.416   6.532  1.1337 -0.2445 -1.7690
13375SOL    HW240667   0.764   2.271   6.529  0.2224 -0.0798  0.6053
13376SOL     OW40668   3.572   5.222   1.937 -0.1201  0.1084  0.3440
13376SOL    HW140669   3.631   5.272   1.993 -0.1901  1.4142 -0.7013
13376SOL    HW240670   3.627   5.191   1.866 -0.6772  1.5953 -0.8080
13377SOL     OW40671   6.831   1.937   3.529  0.3446  0.1127 -0.0380
13377SOL    HW140672   6.900   1.886   3.486 -0.5968  0.3197 -1.9071
13377SOL    HW240673   6.769   1.956   3.459 -1.1326  0.7556  1.3941
13378SOL     OW40674   6.047   4.782   3.569  0.4793 -0.1959 -0.0891
13378SOL    HW140675   6.080   4.788   3.479  2.7797 -1.9702  0.5094
13378SOL    HW240676   5.977   4.717   3.565  0.9760 -0.7142 -0.5346
13379SOL     OW40677   0.047   5.188   6.391  0.1297  0.2121  0.3106
13379SOL    HW140678   0.113   5.159   6.328 -0.1343 -0.1636  0.2040
13379SOL    HW240679   0.022   5.108   6.438  2.3018  0.8641  2.8044
13380SOL     OW40680   1.496   2.604   2.380  0.0141 -0.0216 -0.2663
13380SOL    HW140681   1.543   2.672   2.333  0.1351  0.5068  0.5941
13380SOL    HW240682   1.543   2.596   2.464  0.4428 -1.6533 -0.6136
13381SOL     OW40683   1.499   1.773   5.646  0.0621  0.6004 -0.1349
13381SOL    HW140684   1.497   1.699   5.585 -1.4710 -0.4960  1.1860
13381SOL    HW240685   1.422   1.824   5.624 -1.6140 -0.8404  2.0443
13382SOL     OW40686   6.947   3.621   3.485  0.3376 -0.1750  0.1976
13382SOL    HW140687   6.958   3.638   3.578  1.3272 -0.4860  0.1465
13382SOL    HW240688   7.010   3.679   3.441 -1.6837  1.6629 -0.4490
13383SOL     OW40689   2.592   0.616   3.332  0.2533 -0.5435 -0.3684
13383SOL    HW140690   2.568   0.659   3.250  0.8354  0.5159 -0.0029
13383SOL    HW240691   2.510   0.582   3.367 -0.5920  1.9012  0.2445
13384SOL     OW40692   0.178   6.611   0.507 -0.2725  0.2156 -0.0237
13384SOL    HW140693   0.124   6.532   0.497  2.5581 -1.7854 -0.5391
13384SOL    HW240694   0.170   6.633   0.600 -1.2633 -0.5317  0.0956
13385SOL     OW40695   7.511   5.644   4.609  0.7284 -0.6883  0.3190
13385SOL    HW140696   7.606   5.647   4.597  0.8902 -1.1247  1.3796
13385SOL    HW240697   7.489   5.729   4.648  0.7137 -0.6492  0.2230
13386SOL     OW40698   5.230   6.708   2.839  0.3122 -0.6926 -0.5760
13386SOL    HW140699   5.189   6.780   2.790  0.3035 -0.2197  0.1075
13386SOL    HW240700   5.318   6.703   2.803  0.0849 -0.8239 -1.1298
13387SOL     OW40701   2.867   7.274   3.935 -0.1110 -0.4003 -0.1747
13387SOL    HW140702   2.935   7.340   3.945  0.2996 -0.6912 -0.9151
13387SOL    HW240703   2.849   7.243   4.024  1.5466 -1.1281 -0.0489
13388SOL     OW40704   4.231   3.616   1.095  0.2952 -0.2473 -0.1052
13388SOL    HW140705   4.163   3.551   1.112  0.2055 -0.1509 -0.0974
13388SOL    HW240706   4.311   3.577   1.130  0.4852 -0.9010 -1.2154
13389SOL     OW40707   7.195   5.801   2.561  0.7167  0.2564  0.1184
13389SOL    HW140708   7.112   5.779   2.604 -0.7279  0.2203 -2.4926
13389SOL    HW240709   7.189   5.895   2.545  1.5092  0.3815  0.5280
13390SOL     OW40710   2.924   2.136   4.350  0.1537  0.1988  0.0443
13390SOL    HW140711   2.899   2.165   4.438 -0.8416  2.0356 -0.7989
13390SOL    HW240712   2.926   2.040   4.357  0.5696  0.3054  2.1686
13391SOL     OW40713   6.701   5.409   4.900 -0.1542 -0.6950  0.0389
13391SOL    HW140714   6.622   5.448   4.937  0.3355  0.3247  0.0372
13391SOL    HW240715   6.698   5.431   4.807  0.3293 -0.3162  0.1112
13392SOL     OW40716   2.988   3.788   6.982 -0.0079 -0.4071  0.1407
13392SOL    HW140717   2.924   3.773   6.912  0.0618 -0.1012  0.0078
13392SOL    HW240718   3.070   3.751   6.947 -0.0147 -0.4174  0.1350
13393SOL     OW40719   0.919   1.527   4.620  0.0499 -0.2128 -0.1665
13393SOL    HW140720   0.976   1.576   4.680 -1.4951  0.0583  1.1425
13393SOL    HW240721   0.927   1.436   4.650  0.2341 -0.2652 -0.3686
13394SOL     OW40722   5.490   2.755   4.922  0.2984  0.3446 -0.2427
13394SOL    HW140723   5.573   2.709   4.934  0.2489  0.8615  3.5973
13394SOL    HW240724   5.438   2.697   4.867  2.1716 -1.4722 -0.2277
13395SOL     OW40725   4.100   3.669   5.352  0.1490 -0.1005  0.5134
13395SOL    HW140726   4.029   3.606   5.366  0.2994 -0.5598 -0.6585
13395SOL    HW240727   4.057   3.744   5.311  0.0817  0.2930  1.2928
13396SOL     OW40728   3.289   3.033   2.822 -0.3108 -0.2994 -0.1166
13396SOL    HW140729   3.310   2.993   2.906  1.3842  0.7775  0.0086
13396SOL    HW240730   3.304   3.126   2.835 -2.4211  0.2175 -0.9323
13397SOL     OW40731   1.463   0.787   4.117 -0.6334 -0.3703  0.0885
13397SOL    HW140732   1.532   0.764   4.055  1.5704  0.5713  2.0348
13397SOL    HW240733   1.408   0.709   4.122  1.8892 -2.2728  0.4605
13398SOL     OW40734   0.197   3.577   0.341 -1.5543  0.0205 -0.1197
13398SOL    HW140735   0.281   3.623   0.342 -0.8374 -1.2064 -0.5111
13398SOL    HW240736   0.136   3.638   0.300 -1.0428  1.2238  0.8472
13399SOL     OW40737   6.073   5.719   6.800 -0.0190  0.2791  0.4355
13399SOL    HW140738   6.129   5.796   6.791 -0.3134  0.5501  0.8953
13399SOL    HW240739   6.124   5.658   6.853  0.1333  0.2308  0.2376
13400SOL     OW40740   1.511   4.688   7.040 -0.0768  0.5090 -0.1140
13400SOL    HW140741   1.520   4.770   7.089 -0.3005 -1.1739  2.9927
13400SOL    HW240742   1.599   4.649   7.043 -0.3034 -0.0192 -0.2785
13401SOL     OW40743   2.602   2.645   0.291 -0.6294  0.1637  0.0197
13401SOL    HW140744   2.678   2.657   0.234  0.1701 -2.0819  0.5060
13401SOL    HW240745   2.598   2.726   0.343  0.7273  0.7956 -0.7934
13402SOL     OW40746   5.059   5.204   5.954  0.0061 -0.2649 -0.0956
13402SOL    HW140747   4.979   5.257   5.949  0.6106  0.8162  1.0166
13402SOL    HW240748   5.126   5.258   5.913  0.4195 -0.6348  0.0872
13403SOL     OW40749   1.481   4.977   2.881 -0.5796  0.0242 -0.3056
13403SOL    HW140750   1.405   5.017   2.923  0.1462  0.9160  0.1888
13403SOL    HW240751   1.556   5.008   2.932  0.2053  0.0294 -1.4174
13404SOL     OW40752   1.730   0.063   5.649  0.7697 -0.6312 -0.0329
13404SOL    HW140753   1.686  -0.016   5.681  1.5767 -0.6644  1.0493
13404SOL    HW240754   1.719   0.060   5.554 -2.5591 -0.0360  0.2119
13405SOL     OW40755   5.349   3.672   1.505  0.5206  0.2908 -0.2181
13405SOL    HW140756   5.439   3.667   1.472 -0.4442  0.1941 -3.1452
13405SOL    HW240757   5.345   3.755   1.552  2.0942  0.3506 -0.1340
13406SOL     OW40758   2.513   7.502   2.503 -0.1644 -0.4999 -0.9479
13406SOL    HW140759   2.566   7.498   2.424  1.4870 -0.1253  0.0984
13406SOL    HW240760   2.549   7.575   2.554 -0.2628 -1.5815  0.7779
13407SOL     OW40761   2.719   6.995   5.973 -0.3731  0.0357 -0.3396
13407SOL    HW140762   2.680   7.069   6.019  0.4235 -0.6071  1.4368
13407SOL    HW240763   2.654   6.925   5.982  0.7837 -0.8112  1.9725
13408SOL     OW40764   3.632   1.653   4.849 -0.4471 -0.1787  0.3036
13408SOL    HW140765   3.557   1.602   4.820 -0.2483 -0.7657  0.7961
13408SOL    HW240766   3.668   1.691   4.768  1.5261 -3.6793 -0.7130
13409SOL     OW40767   4.570   0.948   5.734  0.1545 -0.2800  0.3873
13409SOL    HW140768   4.578   0.920   5.825  0.6061 -2.1154 -0.1672
13409SOL    HW240769   4.652   0.995   5.716 -0.5898  1.4380  1.3313
13410SOL     OW40770   5.879   5.327   5.967  0.2665  0.1182 -0.4332
13410SOL    HW140771   5.895   5.317   5.873  2.4178  1.1275 -0.2353
13410SOL    HW240772   5.967   5.337   6.005 -0.5788  0.0123  1.6519
13411SOL     OW40773   0.951   3.855   0.526 -0.4238  0.6021  0.4765
13411SOL    HW140774   1.007   3.819   0.594  1.3787  1.4400 -0.5036
13411SOL    HW240775   0.967   3.799   0.450 -0.5696  1.1170  0.0590
13412SOL     OW40776   4.298   7.334   2.506 -0.2495 -0.5412  0.2208
13412SOL    HW140777   4.261   7.248   2.522  0.7054 -0.7114  1.7165
13412SOL    HW240778   4.242   7.394   2.554  0.9147 -0.7260  1.9117
13413SOL     OW40779   1.454   0.041   6.201 -0.4644 -0.0349 -0.1953
13413SOL    HW140780   1.537   0.085   6.215  0.6469 -2.2561  0.6257
13413SOL    HW240781   1.417   0.030   6.288 -1.0586 -0.1253 -0.4500
13414SOL     OW40782   3.200   1.096   4.729 -0.3697 -0.0686  0.0288
13414SOL    HW140783   3.125   1.084   4.788 -1.1289  1.0435 -0.6601
13414SOL    HW240784   3.167   1.155   4.661  0.9060 -0.2073 -0.7360
13415SOL     OW40785   1.774   7.216   3.824  0.3648 -0.6492  0.1933
13415SOL    HW140786   1.752   7.292   3.772  1.0323  0.1834  1.0921
13415SOL    HW240787   1.870   7.219   3.833  0.2911 -0.9151  1.2231
13416SOL     OW40788   1.417   1.023   5.050 -0.5511  0.0380 -0.4208
13416SOL    HW140789   1.348   1.068   5.100  0.1546  1.2221 -0.4584
13416SOL    HW240790   1.476   0.989   5.117 -0.2464  0.5651 -0.4183
13417SOL     OW40791   5.208   0.557   6.417  0.2185 -0.3481  0.2464
13417SOL    HW140792   5.154   0.633   6.398  1.5483  0.2048 -1.6005
13417SOL    HW240793   5.282   0.591   6.466 -1.2871 -1.1984  3.3401
13418SOL     OW40794   4.362   6.785   5.602  0.6757 -0.3048  0.4316
13418SOL    HW140795   4.364   6.772   5.508 -1.0962 -3.4222  0.7028
13418SOL    HW240796   4.416   6.715   5.638 -1.6139 -1.4879  1.8043
13419SOL     OW40797   3.457   2.264   6.344  0.6565  0.8201  0.6049
13419SOL    HW140798   3.379   2.306   6.308  0.3489 -0.0324  0.2492
13419SOL    HW240799   3.458   2.177   6.304  1.0805  0.3587  1.5924
13420SOL     OW40800   2.721   1.418   1.360 -0.4399 -0.1202 -0.9258
13420SOL    HW140801   2.730   1.510   1.386 -1.7751 -0.1148 -0.4220
13420SOL    HW240802   2.629   1.408   1.339 -0.1889 -1.2027 -1.6094
13421SOL     OW40803   1.637   5.533   6.171 -0.1239  0.0515  0.7397
13421SOL    HW140804   1.611   5.445   6.144  2.2987 -0.0404 -1.7396
13421SOL    HW240805   1.729   5.525   6.196  0.3932  1.9699 -0.3288
13422SOL     OW40806   3.450   0.412   4.586 -0.3123  0.1636 -0.1534
13422SOL    HW140807   3.483   0.335   4.633  0.6586  0.6326 -0.0472
13422SOL    HW240808   3.356   0.396   4.579 -0.1882 -0.8562  0.1996
13423SOL     OW40809   3.492   3.949   3.478 -0.4197  0.0526  0.4063
13423SOL    HW140810   3.458   4.038   3.464 -0.5433 -0.1253 -0.4616
13423SOL    HW240811   3.463   3.927   3.567 -0.3768  0.8816  0.6377
13424SOL     OW40812   7.491   4.864   7.605  0.6227  0.0048  0.5129
13424SOL    HW140813   7.584   4.842   7.608  0.6405 -0.4951 -1.7784
13424SOL    HW240814   7.446   4.785   7.634  0.8820 -0.1830  0.4019
13425SOL     OW40815   6.202   1.130   5.712  0.1217  0.2755 -0.1182
13425SOL    HW140816   6.267   1.060   5.719  2.1036  2.1533  1.0230
13425SOL    HW240817   6.253   1.209   5.694 -2.0099  1.5752 -0.8067
13426SOL     OW40818   6.384   4.288   4.013  0.2376  0.5855 -0.4921
13426SOL    HW140819   6.476   4.316   4.016  0.7785 -1.1733  1.5486
13426SOL    HW240820   6.342   4.351   3.955  2.5231  2.0484 -0.6816
13427SOL     OW40821   2.109   7.436   4.694 -0.2068 -0.2218 -0.0377
13427SOL    HW140822   2.018   7.431   4.722 -0.1845 -0.8863 -0.0564
13427SOL    HW240823   2.132   7.346   4.671  0.4012 -0.0329 -0.2033
13428SOL     OW40824   3.801   3.419   4.298  0.4032 -0.0983 -0.5778
13428SOL    HW140825   3.773   3.432   4.389 -0.8637  3.3552 -1.3228
13428SOL    HW240826   3.758   3.338   4.271 -1.4522  0.2616  1.1136
13429SOL     OW40827   1.778   4.892   5.473 -0.4144  0.5276  0.3666
13429SOL    HW140828   1.806   4.952   5.404  0.5528 -0.7615 -0.4140
13429SOL    HW240829   1.774   4.807   5.431 -0.6526 -0.1590  1.7087
13430SOL     OW40830   5.727   6.885   0.018 -0.0681 -0.1044  0.3917
13430SOL    HW140831   5.813   6.923   0.004 -0.1917  0.2737  0.6188
13430SOL    HW240832   5.743   6.796   0.047  0.2129 -0.5472 -1.0673
13431SOL     OW40833   4.148   5.561   0.964 -0.3645  0.1526 -0.2499
13431SOL    HW140834   4.210   5.632   0.946  1.0755 -0.5310  1.7169
13431SOL    HW240835   4.135   5.564   1.059  0.3775 -2.6918  0.0227
13432SOL     OW40836   7.325   2.263   2.716  0.1523  0.1911 -0.3599
13432SOL    HW140837   7.238   2.239   2.686  0.4491 -3.4189  1.1651
13432SOL    HW240838   7.375   2.280   2.636 -1.6724  1.5882 -1.2718
13433SOL     OW40839   5.677   5.364   6.371  0.3672  0.0491 -0.2629
13433SOL    HW140840   5.654   5.433   6.309 -0.6870 -0.5884 -0.6096
13433SOL    HW240841   5.601   5.307   6.372  0.6337 -0.3051  1.1413
13434SOL     OW40842   4.938   4.029   6.787 -0.1285 -0.0102  0.1198
13434SOL    HW140843   4.844   4.010   6.777 -0.2905 -0.1149  1.6974
13434SOL    HW240844   4.948   4.116   6.748 -1.1247  0.4989  0.9457
13435SOL     OW40845   1.267   6.144   2.555  0.5552  1.0791  0.1243
13435SOL    HW140846   1.340   6.121   2.612  0.3877  0.3036  0.0257
13435SOL    HW240847   1.189   6.113   2.601  0.3803  0.8933 -0.2909
13436SOL     OW40848   0.290   0.567   5.252  0.1984 -0.2603  0.1164
13436SOL    HW140849   0.339   0.485   5.250  1.6117  0.5775 -0.6087
13436SOL    HW240850   0.350   0.631   5.289 -1.6325  0.0376  2.8960
13437SOL     OW40851   4.201   3.297   4.118  0.4045 -0.1862 -0.2979
13437SOL    HW140852   4.208   3.296   4.213  0.2943  0.3508 -0.2815
13437SOL    HW240853   4.192   3.389   4.095 -1.2573 -0.4155 -0.7054
13438SOL     OW40854   2.506   6.134   0.189  0.0443 -0.3138 -0.4279
13438SOL    HW140855   2.602   6.142   0.190  0.0640 -0.1155 -1.7237
13438SOL    HW240856   2.481   6.172   0.105 -1.1163 -1.0580 -0.4276
13439SOL     OW40857   7.048   2.336   4.779  1.1942 -0.4526  0.1946
13439SOL    HW140858   7.113   2.293   4.835  1.1824 -1.9673 -0.8947
13439SOL    HW240859   7.043   2.280   4.701 -0.4553  0.3539 -0.3181
13440SOL     OW40860   3.667   4.588   7.481 -0.0421 -0.3803 -0.0313
13440SOL    HW140861   3.658   4.678   7.452  1.1110 -0.2323 -0.0035
13440SOL    HW240862   3.725   4.593   7.558 -0.8804 -1.0343  0.6624
13441SOL     OW40863   6.790   5.894   1.296 -0.2711  0.4186 -0.0935
13441SOL    HW140864   6.870   5.943   1.317 -0.7096  1.1523 -0.1009
13441SOL    HW240865   6.720   5.942   1.341 -0.7246 -0.1632 -0.1602
13442SOL     OW40866   5.659   7.246   6.648 -1.1744  0.1491 -0.1458
13442SOL    HW140867   5.570   7.278   6.635 -1.0683  0.0990 -1.0161
13442SOL    HW240868   5.650   7.152   6.663 -1.4484  0.4615  1.9807
13443SOL     OW40869   0.008   2.704   6.148  0.1638  0.1126 -0.3308
13443SOL    HW140870   0.044   2.719   6.060  0.3413 -0.2127 -0.3170
13443SOL    HW240871   0.011   2.609   6.159  1.5890  0.2203  0.6183
13444SOL     OW40872   2.090   0.687   6.134 -0.2790  0.0520  0.2345
13444SOL    HW140873   2.105   0.689   6.040  0.8702 -0.4218  0.3926
13444SOL    HW240874   2.006   0.642   6.144 -0.1435 -0.3903 -0.5347
13445SOL     OW40875   5.734   2.592   3.672 -0.2521 -0.6491 -0.0137
13445SOL    HW140876   5.707   2.656   3.607 -0.9338 -0.7566  0.1524
13445SOL    HW240877   5.726   2.507   3.628 -1.8387 -0.8160  0.5514
13446SOL     OW40878   3.634   1.013   5.220  0.5091 -0.5444  0.4414
13446SOL    HW140879   3.720   1.004   5.179 -0.4074  0.1887 -1.8245
13446SOL    HW240880   3.581   0.944   5.180 -0.0115 -0.9701  1.7881
13447SOL     OW40881   4.130   0.937   4.345  0.0827 -0.1029  0.2584
13447SOL    HW140882   4.212   0.918   4.300  0.1565  0.4152  0.1677
13447SOL    HW240883   4.129   0.876   4.418  1.3437  0.9542  1.2205
13448SOL     OW40884   3.917   7.301   1.871 -0.2518  0.1992  0.1348
13448SOL    HW140885   3.997   7.267   1.832 -0.1031 -0.3746  0.9091
13448SOL    HW240886   3.866   7.334   1.797  0.7427  0.6775 -0.3504
13449SOL     OW40887   0.872   5.210   5.765 -0.2563  0.5742  0.8300
13449SOL    HW140888   0.962   5.229   5.793  0.3834 -0.3726 -0.4772
13449SOL    HW240889   0.873   5.116   5.745 -1.3169  0.7279 -0.0161
13450SOL     OW40890   1.218   5.396   2.584  0.4698 -0.2090 -0.0121
13450SOL    HW140891   1.271   5.321   2.613 -0.8366 -1.0890  0.1759
13450SOL    HW240892   1.209   5.451   2.662 -0.2815 -0.9172  0.4233
13451SOL     OW40893   1.479   2.992   7.421  0.4928 -0.0614  0.1026
13451SOL    HW140894   1.476   3.069   7.477  0.9145 -0.7113  1.0507
13451SOL    HW240895   1.412   3.007   7.354  0.9228  1.3460 -0.0420
13452SOL     OW40896   3.041   4.950   5.709  0.1247 -0.0468  0.2733
13452SOL    HW140897   3.072   5.040   5.701 -0.2853  0.1312  0.6065
13452SOL    HW240898   3.085   4.916   5.787 -0.4180  0.1754  0.6912
13453SOL     OW40899   3.930   3.970   3.418 -0.2714  0.0392  0.0916
13453SOL    HW140900   4.016   3.979   3.460  0.8518  0.4352 -2.1613
13453SOL    HW240901   3.871   3.944   3.489  1.8960 -1.2777  1.5207
13454SOL     OW40902   4.664   4.503   7.290  0.1652  0.2084  0.6276
13454SOL    HW140903   4.750   4.522   7.254 -0.4588  1.6393 -0.2085
13454SOL    HW240904   4.620   4.588   7.295 -0.8491 -0.3422  1.9988
13455SOL     OW40905   4.048   0.388   0.725  0.1284 -0.7957 -0.1757
13455SOL    HW140906   4.080   0.476   0.745  0.1389 -1.1733  1.7001
13455SOL    HW240907   3.963   0.403   0.683  0.4252  0.1263 -0.4716
13456SOL     OW40908   3.278   1.844   1.914 -0.1323 -0.0051 -0.2996
13456SOL    HW140909   3.321   1.912   1.965  1.0308 -1.2883  0.5081
13456SOL    HW240910   3.247   1.888   1.835  0.0932  1.5479  0.4517
13457SOL     OW40911   4.952   3.798   6.485  0.0029  0.3745 -0.8930
13457SOL    HW140912   4.929   3.883   6.447 -0.6267  0.3992 -0.4798
13457SOL    HW240913   4.976   3.744   6.410 -0.0298  0.7873 -1.2027
13458SOL     OW40914   6.665   4.960   4.625 -0.1772  0.5750  0.3609
13458SOL    HW140915   6.675   5.028   4.559  1.9829  1.2083  1.2554
13458SOL    HW240916   6.701   4.881   4.583  2.8816  1.3523  1.2214
13459SOL     OW40917   1.409   2.662   5.767  0.2725  0.0055  0.6000
13459SOL    HW140918   1.411   2.682   5.860  0.9283  0.0389  0.5899
13459SOL    HW240919   1.474   2.592   5.756 -1.8282 -2.0435  0.5976
13460SOL     OW40920   1.467   4.977   5.962  0.1140  0.8844 -0.1297
13460SOL    HW140921   1.372   4.976   5.972  0.2730 -0.5656  1.7622
13460SOL    HW240922   1.482   5.017   5.876 -2.0516  4.1840  0.8303
13461SOL     OW40923   1.924   3.765   5.273 -0.0639 -0.1484  0.3713
13461SOL    HW140924   1.983   3.692   5.293 -0.2468 -0.5954 -0.6766
13461SOL    HW240925   1.859   3.763   5.344  0.6110 -0.2669  0.9924
13462SOL     OW40926   2.100   6.641   2.531 -0.0447 -0.0624 -0.6000
13462SOL    HW140927   2.156   6.587   2.587 -0.6882  0.2016  0.3184
13462SOL    HW240928   2.020   6.590   2.521 -1.8253  1.7874  2.6062
13463SOL     OW40929   6.888   6.015   7.281 -0.2550  0.5889 -0.4478
13463SOL    HW140930   6.964   5.963   7.307 -0.6170 -0.5478 -1.5277
13463SOL    HW240931   6.925   6.090   7.234  0.2297  0.5841 -0.0837
13464SOL     OW40932   2.663   3.695   7.326 -0.3509 -0.6901  0.0107
13464SOL    HW140933   2.685   3.765   7.264  1.9265 -1.2770  0.0532
13464SOL    HW240934   2.619   3.629   7.272  0.0456 -0.4399 -0.6308
13465SOL     OW40935   1.308   3.619   0.228  0.4227  0.2399 -0.6547
13465SOL    HW140936   1.341   3.590   0.143  0.6791 -0.0842 -0.4466
13465SOL    HW240937   1.324   3.714   0.229 -1.1056  0.5479 -1.6510
13466SOL     OW40938   0.967   3.426   5.598 -0.0983 -0.5480  0.0578
13466SOL    HW140939   0.938   3.396   5.511  0.3255 -2.3756  0.5035
13466SOL    HW240940   0.916   3.373   5.659 -0.9936  1.3081  0.9694
13467SOL     OW40941   6.248   3.423   6.480 -0.2216 -0.2855 -0.3123
13467SOL    HW140942   6.301   3.485   6.530 -0.9411  1.4072 -1.5922
13467SOL    HW240943   6.311   3.379   6.423  0.3250 -0.9517  0.7581
13468SOL     OW40944   1.601   0.160   3.029  0.0501 -0.1881 -0.2708
13468SOL    HW140945   1.661   0.231   3.052 -2.6153  2.3419 -0.5799
13468SOL    HW240946   1.553   0.141   3.109 -0.1118 -0.8108 -0.5039
13469SOL     OW40947   0.355   5.937   7.204  0.1183 -0.1256  0.2654
13469SOL    HW140948   0.339   5.897   7.119  0.5201 -1.5958  0.8448
13469SOL    HW240949   0.447   5.965   7.200 -0.5284  2.0665 -0.6225
13470SOL     OW40950   4.614   4.673   5.917  0.4441  0.1459  0.1949
13470SOL    HW140951   4.554   4.637   5.982 -0.5631  0.8812 -0.3081
13470SOL    HW240952   4.693   4.696   5.968  0.0023 -0.0751  1.0020
13471SOL     OW40953   3.621   2.239   6.859  0.0438  0.3055  0.2838
13471SOL    HW140954   3.664   2.154   6.874  0.0487  0.0344 -1.1225
13471SOL    HW240955   3.589   2.265   6.945  1.7023 -0.2068  1.1118
13472SOL     OW40956   3.218   1.140   3.122  0.6544 -0.2644 -0.4147
13472SOL    HW140957   3.264   1.124   3.040  0.3289 -0.9166 -0.4765
13472SOL    HW240958   3.263   1.083   3.185 -0.2090 -1.0918 -0.5291
13473SOL     OW40959   7.185   1.439   2.543  0.4328  0.3783  0.0682
13473SOL    HW140960   7.219   1.350   2.542 -1.2690 -0.3074 -0.3740
13473SOL    HW240961   7.090   1.428   2.546  0.1211  2.1624 -1.6810
13474SOL     OW40962   1.509   1.466   3.630  0.1149  0.5422 -0.2102
13474SOL    HW140963   1.518   1.454   3.535  1.0310  0.0516 -0.0720
13474SOL    HW240964   1.420   1.498   3.641 -0.8774 -1.7370 -1.0122
13475SOL     OW40965   0.572   4.878   2.072 -0.3747 -0.1485  0.3084
13475SOL    HW140966   0.562   4.874   1.977 -0.9205  1.2870  0.2692
13475SOL    HW240967   0.654   4.832   2.090  0.8369  1.3294 -1.0836
13476SOL     OW40968   5.022   4.135   0.785 -0.0098  0.3961  0.0322
13476SOL    HW140969   4.992   4.133   0.694 -1.4256  0.3369  0.4651
13476SOL    HW240970   4.943   4.116   0.837  1.4182 -3.2281  1.1756
13477SOL     OW40971   1.267   0.324   0.722 -0.0857  0.3567 -0.3949
13477SOL    HW140972   1.312   0.241   0.703 -0.8901 -0.0607 -0.5276
13477SOL    HW240973   1.180   0.298   0.751 -0.8896  1.1933 -1.9256
13478SOL     OW40974   4.749   5.113   1.021 -0.0806  0.2262 -0.3196
13478SOL    HW140975   4.769   5.110   1.114  1.2913 -3.0703 -0.5858
13478SOL    HW240976   4.658   5.142   1.017 -1.3751 -2.7591  2.4012
13479SOL     OW40977   6.836   6.989   0.547 -0.0448  0.0421 -0.1744
13479SOL    HW140978   6.883   6.932   0.608 -1.2153  0.6672  1.3653
13479SOL    HW240979   6.810   6.931   0.476  1.8169 -0.5964 -0.3997
13480SOL     OW40980   6.606   4.597   2.993 -0.6326  0.2961 -0.0395
13480SOL    HW140981   6.544   4.670   2.986 -0.8227  0.0429 -1.1651
13480SOL    HW240982   6.675   4.618   2.930  0.6297  0.7310  1.4118
13481SOL     OW40983   2.822   4.883   3.503 -0.1115 -0.0067  0.0645
13481SOL    HW140984   2.912   4.852   3.515  0.0916  0.5194 -0.0824
13481SOL    HW240985   2.816   4.961   3.559 -0.4644 -0.0194  0.0459
13482SOL     OW40986   0.798   6.813   4.934 -1.1050  0.4951 -0.1636
13482SOL    HW140987   0.888   6.845   4.934 -1.2411  0.9339 -1.2763
13482SOL    HW240988   0.747   6.886   4.968 -1.1003  0.4275 -0.0097
13483SOL     OW40989   4.749   6.144   4.767  0.4021  0.5948 -0.3270
13483SOL    HW140990   4.683   6.212   4.780 -1.0153 -0.6595 -0.5917
13483SOL    HW240991   4.753   6.097   4.850  1.2985  0.9252 -0.1736
13484SOL     OW40992   7.342   4.222   3.673  0.1520  0.0450 -0.2999
13484SOL    HW140993   7.256   4.181   3.686 -1.3043  3.1629  0.8858
13484SOL    HW240994   7.369   4.193   3.586 -1.8009 -1.5173 -0.4683
13485SOL     OW40995   3.172   2.883   6.652  0.0312  0.1700 -0.0675
13485SOL    HW140996   3.160   2.824   6.727  0.0959 -0.5867 -0.6418
13485SOL    HW240997   3.215   2.960   6.689  0.2987 -0.3016  0.6286
13486SOL     OW40998   2.406   3.895   0.162  0.2262 -0.0709  0.1700
13486SOL    HW140999   2.404   3.874   0.068 -0.4530 -2.1854  0.6131
13486SOL    HW241000   2.476   3.840   0.197  1.0892  1.3735  0.8046
13487SOL     OW41001   5.419   1.854   1.476 -0.4947  0.5329  0.2089
13487SOL    HW141002   5.514   1.850   1.475 -0.4885 -1.2796 -2.7830
13487SOL    HW241003   5.391   1.768   1.508 -1.1968  1.3634  1.9584
13488SOL     OW41004   4.428   4.631   3.449  0.3716 -0.8405 -0.0163
13488SOL    HW141005   4.470   4.588   3.524  1.4575 -0.6507 -0.5012
13488SOL    HW241006   4.486   4.613   3.375  1.9687  3.0013  0.0658
13489SOL     OW41007   1.745   6.734   1.957 -0.1600  0.6352 -0.0316
13489SOL    HW141008   1.773   6.701   1.872 -1.6628  3.1422 -1.6096
13489SOL    HW241009   1.814   6.794   1.984 -0.6437  1.4445 -0.5424
13490SOL     OW41010   4.757   7.221   4.006 -0.7017  0.2352 -0.1609
13490SOL    HW141011   4.741   7.218   4.101 -0.2455 -0.0701 -0.0875
13490SOL    HW241012   4.676   7.186   3.967 -0.5010 -0.6251  0.1648
13491SOL     OW41013   1.386   1.148   7.403 -0.0537 -0.4316  0.2781
13491SOL    HW141014   1.414   1.142   7.312 -1.3332 -0.1598 -0.1574
13491SOL    HW241015   1.448   1.093   7.451  0.2837 -1.0643 -0.8390
13492SOL     OW41016   0.627   0.289   2.633  0.3283 -0.5673  0.1199
13492SOL    HW141017   0.584   0.330   2.708 -1.2404 -1.0803 -0.4723
13492SOL    HW241018   0.635   0.197   2.657  0.8610 -0.5279  0.1073
13493SOL     OW41019   7.036   0.959   0.548 -0.1756 -0.2095 -0.0334
13493SOL    HW141020   7.073   1.042   0.516 -1.0184  0.6807  1.1743
13493SOL    HW241021   6.997   0.919   0.470 -0.0433  0.6943 -0.5878
13494SOL     OW41022   3.884   4.710   7.159  0.1811 -0.5618 -0.6920
13494SOL    HW141023   3.888   4.709   7.064 -0.2562 -0.6370 -0.7124
13494SOL    HW241024   3.829   4.634   7.181 -0.6130  0.0802 -0.4280
13495SOL     OW41025   6.291   2.220   0.059  0.2624  0.0254 -0.1632
13495SOL    HW141026   6.278   2.205  -0.035 -1.2757  0.1029  0.0027
13495SOL    HW241027   6.334   2.141   0.090 -0.2763 -0.5184 -0.7476
13496SOL     OW41028   0.730   5.251   3.102 -0.4350  0.5544 -0.6270
13496SOL    HW141029   0.776   5.285   3.026 -0.6098  2.9035  0.2400
13496SOL    HW241030   0.692   5.328   3.144 -2.2328 -0.9146  0.6149
13497SOL     OW41031   6.664   0.675   3.797  0.3079 -0.3626  0.2680
13497SOL    HW141032   6.692   0.677   3.706  0.4940 -0.3636  0.3250
13497SOL    HW241033   6.706   0.751   3.837 -1.8712  1.2201 -0.2475
13498SOL     OW41034   5.247   5.102   0.287 -0.4705 -0.5564 -0.3040
13498SOL    HW141035   5.209   5.041   0.350 -0.6788 -0.3695 -0.2478
13498SOL    HW241036   5.176   5.162   0.265 -0.7043 -1.2221 -1.4796
13499SOL     OW41037   0.764   5.675   5.934  0.3428 -0.6533 -0.5374
13499SOL    HW141038   0.859   5.685   5.932  0.5586 -1.2815  2.2648
13499SOL    HW241039   0.749   5.588   5.970 -1.2788 -0.1165  0.2061
13500SOL     OW41040   5.331   3.448   0.042  0.2719 -0.7119  0.3278
13500SOL    HW141041   5.369   3.361   0.036 -1.1865 -1.5829  2.6035
13500SOL    HW241042   5.240   3.437   0.015 -0.1692 -0.1148  1.4928
13501SOL     OW41043   5.827   2.996   1.148 -0.1279 -0.6645  0.2984
13501SOL    HW141044   5.845   2.907   1.179 -0.9389 -0.2643  2.0593
13501SOL    HW241045   5.741   2.991   1.109  1.0607 -1.2579 -2.4466
13502SOL     OW41046   7.404   2.299   1.500 -0.4334 -0.1601  0.1757
13502SOL    HW141047   7.387   2.214   1.541  0.2182 -0.8365 -0.9206
13502SOL    HW241048   7.500   2.305   1.497 -0.2734 -1.7098 -4.2595
13503SOL     OW41049   2.590   0.535   6.034  0.0346  0.0297  0.3044
13503SOL    HW141050   2.557   0.566   6.118 -0.2459  2.2734 -0.5455
13503SOL    HW241051   2.675   0.496   6.053 -0.5139 -0.5178  1.7439
13504SOL     OW41052   7.566   3.577   3.494  0.4536  0.8745  0.5222
13504SOL    HW141053   7.590   3.485   3.491  1.3546  1.1101 -0.1202
13504SOL    HW241054   7.486   3.580   3.547  0.6711 -0.2083  0.9364
13505SOL     OW41055   3.087   6.647   7.031 -0.1996 -0.3181 -0.2058
13505SOL    HW141056   3.111   6.720   7.088 -0.9737 -0.6628  0.5744
13505SOL    HW241057   3.125   6.670   6.946  0.0737  0.7053  0.1797
13506SOL     OW41058   0.054   5.396   1.940 -0.0733 -0.8101 -0.6254
13506SOL    HW141059  -0.037   5.375   1.957 -0.4711  1.3217  0.2202
13506SOL    HW241060   0.053   5.452   1.863  0.4568 -0.4488 -0.3820
13507SOL     OW41061   0.272   2.625   4.287  0.3344 -0.2473 -0.1078
13507SOL    HW141062   0.322   2.597   4.211  3.3228  0.0079  1.6171
13507SOL    HW241063   0.183   2.639   4.254  1.3408 -0.8054 -3.3450
13508SOL     OW41064   1.595   5.494   6.633 -0.5930  0.1838  0.1758
13508SOL    HW141065   1.555   5.496   6.546  0.3231 -0.0522 -0.2720
13508SOL    HW241066   1.663   5.561   6.629  0.2801 -0.6679  0.2773
13509SOL     OW41067   2.656   2.423   7.373 -0.1025 -0.8044  0.2552
13509SOL    HW141068   2.675   2.367   7.298  0.8319 -0.1775  0.0038
13509SOL    HW241069   2.561   2.424   7.380 -0.3462  0.8300 -2.2444
13510SOL     OW41070   0.886   1.591   2.781  0.0660 -0.2063 -0.1063
13510SOL    HW141071   0.865   1.532   2.708 -0.5888 -0.5854  0.3841
13510SOL    HW241072   0.858   1.677   2.750 -0.0833 -0.3424 -0.3584
13511SOL     OW41073   5.712   6.332   2.544 -0.0879 -0.2112  0.4317
13511SOL    HW141074   5.792   6.351   2.495 -0.3852 -1.4209 -0.5544
13511SOL    HW241075   5.676   6.254   2.502 -2.3538  0.9162  0.1714
13512SOL     OW41076   2.517   5.304   0.944  0.3899  0.1181  0.3987
13512SOL    HW141077   2.516   5.269   0.855  1.1406 -1.3874  0.9445
13512SOL    HW241078   2.610   5.307   0.968  0.4713  3.3309  0.1198
13513SOL     OW41079   5.261   6.618   7.507 -0.6591  0.0730  0.1689
13513SOL    HW141080   5.220   6.592   7.589  0.5326 -0.8041  0.5216
13513SOL    HW241081   5.344   6.570   7.506 -0.5962  0.1599 -1.4875
13514SOL     OW41082   6.841   2.129   6.799 -0.3034  0.2137 -0.2567
13514SOL    HW141083   6.829   2.080   6.717 -0.8154  0.9253 -0.6111
13514SOL    HW241084   6.925   2.173   6.788  0.2786 -0.7438  0.1616
13515SOL     OW41085   0.841   1.004   1.451  0.5115  0.1863  0.2861
13515SOL    HW141086   0.875   1.019   1.539 -0.8909  1.5633  0.6413
13515SOL    HW241087   0.751   0.974   1.464  0.3567  0.2073 -0.6623
13516SOL     OW41088   6.299   6.556   7.580  0.2017  0.0845  0.3843
13516SOL    HW141089   6.224   6.536   7.637  1.9733 -2.9969  1.8942
13516SOL    HW241090   6.369   6.582   7.641  1.1830  0.1131 -0.7209
13517SOL     OW41091   6.544   5.325   7.538 -0.2786  0.5734  0.1565
13517SOL    HW141092   6.542   5.298   7.630 -0.2546  1.4952  0.4415
13517SOL    HW241093   6.594   5.256   7.494  1.2926  1.0102  1.1602
13518SOL     OW41094   3.037   3.454   3.404 -0.0246 -0.4040  0.1253
13518SOL    HW141095   3.123   3.441   3.443 -0.2552 -0.7229  0.5406
13518SOL    HW241096   2.977   3.458   3.479 -0.3867 -0.3171 -0.1640
13519SOL     OW41097   6.475   4.239   3.216  0.1762  0.1496  0.6089
13519SOL    HW141098   6.481   4.213   3.124  0.0459  0.4937  0.5018
13519SOL    HW241099   6.416   4.174   3.255  0.6694 -0.3218  0.5739
13520SOL     OW41100   1.008   6.933   4.318  0.9427 -0.3849  0.8813
13520SOL    HW141101   1.090   6.974   4.345  0.7215  0.9303 -0.3297
13520SOL    HW241102   0.994   6.863   4.382  1.6962  0.9859  2.6211
13521SOL     OW41103   5.432   2.308   1.742  0.1434 -0.2946 -0.4547
13521SOL    HW141104   5.351   2.283   1.698 -0.8815 -1.1051  1.7604
13521SOL    HW241105   5.500   2.259   1.697 -0.9147 -1.4186 -0.8742
13522SOL     OW41106   3.802   6.340   4.732  0.3573 -0.2526 -0.7747
13522SOL    HW141107   3.784   6.385   4.814  0.5365  1.9703 -1.8829
13522SOL    HW241108   3.758   6.255   4.741  0.4396 -0.1104  1.6059
13523SOL     OW41109   2.908   0.152   6.411 -0.1629 -0.3495  0.3873
13523SOL    HW141110   2.861   0.235   6.398 -2.8044 -1.4780  1.7825
13523SOL    HW241111   2.848   0.099   6.464  2.1708 -2.5213  1.0743
13524SOL     OW41112   4.845   1.087   3.723  0.0174  0.3080  0.3081
13524SOL    HW141113   4.825   1.029   3.649  0.8079  0.7032 -0.2336
13524SOL    HW241114   4.905   1.036   3.777 -0.3826  0.1056  0.5719
13525SOL     OW41115   7.421   5.872   1.828 -0.1507  0.8041  0.2137
13525SOL    HW141116   7.344   5.859   1.773  0.2439 -1.2414  0.0523
13525SOL    HW241117   7.387   5.912   1.908 -1.5530 -0.8001  0.4799
13526SOL     OW41118   5.172   5.689   1.078  0.0853  0.0504  0.7626
13526SOL    HW141119   5.114   5.713   1.005 -0.6187  2.2442  1.9306
13526SOL    HW241120   5.252   5.739   1.062  0.6116 -0.8168  0.6221
13527SOL     OW41121   7.418   3.121   2.335  0.3794 -0.3527  0.1786
13527SOL    HW141122   7.385   3.209   2.348 -1.5107 -0.9105 -0.4608
13527SOL    HW241123   7.379   3.070   2.407 -1.5615 -1.3301 -1.4393
13528SOL     OW41124   1.074   5.333   2.967 -0.2602 -0.1972 -0.2420
13528SOL    HW141125   1.000   5.291   2.923 -0.0035 -0.2571 -0.6246
13528SOL    HW241126   1.088   5.414   2.918 -0.2708 -0.0334  0.0237
13529SOL     OW41127   0.307   5.113   6.599 -0.0091 -0.4660 -0.2037
13529SOL    HW141128   0.336   5.111   6.508 -1.4023  1.2399 -0.7332
13529SOL    HW241129   0.349   5.191   6.636 -0.8641 -0.1263  0.0776
13530SOL     OW41130   2.869   4.650   5.383  0.6009  0.1549  0.5107
13530SOL    HW141131   2.794   4.640   5.324  1.1085  0.7146 -0.2389
13530SOL    HW241132   2.866   4.571   5.438 -0.3032 -0.0207  0.2329
13531SOL     OW41133   6.985   4.234   0.047  0.9718  0.6049 -0.1680
13531SOL    HW141134   7.004   4.174  -0.025  0.0150 -0.4640  0.4318
13531SOL    HW241135   6.922   4.187   0.102 -0.5595  2.5146 -0.1488
13532SOL     OW41136   4.880   0.902   1.959  0.2628  0.4221  0.2858
13532SOL    HW141137   4.922   0.848   2.027  1.3368  0.3786 -0.3822
13532SOL    HW241138   4.866   0.842   1.886 -0.2884  0.6199  0.2260
13533SOL     OW41139   0.150   4.243   4.657 -0.0777  0.1459  0.0417
13533SOL    HW141140   0.180   4.192   4.732 -1.0796 -1.3123 -0.4953
13533SOL    HW241141   0.153   4.181   4.584  2.0509  1.8442 -1.4420
13534SOL     OW41142   3.751   2.277   3.213 -0.6100  0.4669  0.4298
13534SOL    HW141143   3.678   2.303   3.157 -0.5949  1.2723  0.7736
13534SOL    HW241144   3.795   2.359   3.235  1.1851 -0.0879 -0.8339
13535SOL     OW41145   1.637   2.968   6.746 -0.1300 -0.6765  0.0800
13535SOL    HW141146   1.608   3.008   6.664  0.5800 -0.5211 -0.0960
13535SOL    HW241147   1.618   3.033   6.813 -0.7527 -0.8215  0.0528
13536SOL     OW41148   2.164   6.413   1.396  0.3239 -0.2209  0.2031
13536SOL    HW141149   2.136   6.503   1.379  0.6947 -0.1465 -0.0272
13536SOL    HW241150   2.116   6.361   1.332  0.6863 -0.1000 -0.1625
13537SOL     OW41151   3.446   6.758   0.799  0.1305 -0.4095 -0.3577
13537SOL    HW141152   3.421   6.837   0.846  2.2596  0.1056  0.0043
13537SOL    HW241153   3.390   6.757   0.721 -0.6591  0.8598  0.1729
13538SOL     OW41154   3.654   5.964   3.471  0.2512  0.7993  0.3526
13538SOL    HW141155   3.699   6.030   3.417  0.4577  0.7857  0.5073
13538SOL    HW241156   3.707   5.885   3.461 -0.8308  0.2144 -1.0605
13539SOL     OW41157   4.057   6.707   1.810 -0.0926 -0.3226 -0.5652
13539SOL    HW141158   3.997   6.642   1.846 -0.0749 -0.0436 -0.0109
13539SOL    HW241159   4.144   6.679   1.841 -0.2526  0.9035  1.1955
13540SOL     OW41160   2.052   3.116   5.847 -0.7738 -0.2515  0.3029
13540SOL    HW141161   1.997   3.194   5.851  1.1155  1.1816 -0.1739
13540SOL    HW241162   2.101   3.117   5.930 -0.2717 -0.5365  0.0153
13541SOL     OW41163   4.345   4.784   1.232 -0.2559 -0.4750 -0.1417
13541SOL    HW141164   4.342   4.829   1.317 -0.7844 -1.1525  0.2064
13541SOL    HW241165   4.385   4.848   1.173 -1.3845  0.6301  0.2414
13542SOL     OW41166   4.770   3.527   5.153  0.3763  0.2362 -0.6407
13542SOL    HW141167   4.802   3.471   5.223  0.7874 -0.3555 -1.2949
13542SOL    HW241168   4.741   3.607   5.198  0.4144 -0.2247  0.2209
13543SOL     OW41169   5.232   4.218   2.396  0.2624  0.6784 -0.1930
13543SOL    HW141170   5.220   4.308   2.366  2.0780  0.8330 -0.5382
13543SOL    HW241171   5.309   4.221   2.453  1.5767 -0.9601 -1.7684
13544SOL     OW41172   6.067   6.957   7.399 -0.6181 -0.1145 -0.4043
13544SOL    HW141173   6.063   6.867   7.366 -0.6297 -0.4716  0.5603
13544SOL    HW241174   6.161   6.975   7.409 -0.6489 -0.5739  0.8660
13545SOL     OW41175   1.495   4.449   0.661  0.0138  0.1397  0.3265
13545SOL    HW141176   1.467   4.510   0.593 -0.6687  0.2541  0.7038
13545SOL    HW241177   1.430   4.458   0.731 -0.4254 -1.4376  0.1625
13546SOL     OW41178   0.349   2.879   1.132 -0.3711  0.2010 -0.6793
13546SOL    HW141179   0.299   2.811   1.086  1.4652  0.5626 -3.3821
13546SOL    HW241180   0.410   2.913   1.067  1.6630  1.5566  1.7628
13547SOL     OW41181   0.443   1.502   0.102 -0.0863 -0.6010 -0.0590
13547SOL    HW141182   0.440   1.504   0.006  0.7502 -1.4247 -0.1235
13547SOL    HW241183   0.524   1.549   0.124 -0.9024  0.6683  0.3217
13548SOL     OW41184   2.967   5.228   5.099  0.4672 -0.3312 -0.4113
13548SOL    HW141185   2.987   5.282   5.022  1.3023  1.3976  0.9526
13548SOL    HW241186   2.956   5.291   5.170 -1.6605 -1.7910  0.6556
13549SOL     OW41187   5.622   6.091   3.752  0.3281 -0.3801  0.1582
13549SOL    HW141188   5.668   6.161   3.798  1.6227 -1.3658  0.4102
13549SOL    HW241189   5.661   6.011   3.786 -0.5817 -1.2078 -0.7102
13550SOL     OW41190   5.368   3.431   6.890  0.2857 -0.1276 -0.8149
13550SOL    HW141191   5.453   3.397   6.861 -0.2125 -0.6009 -1.7617
13550SOL    HW241192   5.337   3.484   6.817 -0.0536  0.3739 -0.3119
13551SOL     OW41193   0.723   1.746   4.574  0.5671 -0.1631  0.0165
13551SOL    HW141194   0.786   1.680   4.603  1.3342  0.4685 -0.1720
13551SOL    HW241195   0.721   1.738   4.479  0.2981 -0.2269  0.0251
13552SOL     OW41196   7.446   5.734   3.184  0.0705 -0.0687 -0.4638
13552SOL    HW141197   7.480   5.751   3.272 -1.1421 -0.0738  0.0222
13552SOL    HW241198   7.470   5.812   3.133 -0.5124  0.6024  0.2693
13553SOL     OW41199   4.155   3.016   4.713  0.0319 -0.5303  0.1456
13553SOL    HW141200   4.216   3.089   4.721  2.7630 -2.5802 -0.5096
13553SOL    HW241201   4.196   2.957   4.650 -3.5833 -1.2346 -1.7949
13554SOL     OW41202   5.011   7.025   1.012  0.4290 -0.3221 -0.0373
13554SOL    HW141203   5.095   6.980   1.008  0.3554 -0.3669 -1.3000
13554SOL    HW241204   5.030   7.109   1.054  0.6968 -1.1854  1.6690
13555SOL     OW41205   0.846   1.880   4.207  0.8356 -0.2942 -0.7944
13555SOL    HW141206   0.904   1.878   4.283  0.9115 -0.2319 -0.8504
13555SOL    HW241207   0.904   1.891   4.132  0.9068 -2.1281 -1.0362
13556SOL     OW41208   6.494   2.234   4.643 -0.3518 -0.1433  0.6221
13556SOL    HW141209   6.447   2.257   4.723 -0.6486  1.0022  0.1448
13556SOL    HW241210   6.583   2.268   4.656 -0.9085  1.8414 -0.2626
13557SOL     OW41211   5.090   0.710   3.472 -0.0416  0.1978  0.1328
13557SOL    HW141212   5.077   0.713   3.377 -0.5631  0.6047  0.2100
13557SOL    HW241213   5.101   0.617   3.491 -1.3587 -0.0398 -0.1604
13558SOL     OW41214   4.909   7.579   5.394  0.2287  0.0187  0.6318
13558SOL    HW141215   4.892   7.667   5.428  0.8688  0.8993 -1.2057
13558SOL    HW241216   4.948   7.532   5.468  0.4125  1.4570  1.4811
13559SOL     OW41217   4.700   6.798   1.194  0.0954  0.0400  0.1684
13559SOL    HW141218   4.673   6.887   1.218 -0.9947 -0.5140  1.0745
13559SOL    HW241219   4.731   6.807   1.103 -0.4140  1.2575  0.0886
13560SOL     OW41220   6.431   6.248   2.770  0.9324 -0.0256 -0.6284
13560SOL    HW141221   6.359   6.284   2.717  0.0120 -0.3462  0.3641
13560SOL    HW241222   6.488   6.322   2.787  0.2447  0.4839 -0.4954
13561SOL     OW41223   3.481   2.190   5.221 -0.0800  0.0300  0.8351
13561SOL    HW141224   3.417   2.150   5.280 -1.3535  0.6301 -0.0810
13561SOL    HW241225   3.429   2.248   5.166  0.5278 -2.3804 -2.6217
13562SOL     OW41226   0.077   4.636   7.417 -0.1728  0.1409  0.0542
13562SOL    HW141227   0.148   4.590   7.463  0.4106  0.3938 -0.5752
13562SOL    HW241228  -0.001   4.585   7.436 -0.4557  1.5341  3.3846
13563SOL     OW41229   3.807   4.914   6.421 -0.5606  0.3559 -0.1398
13563SOL    HW141230   3.713   4.931   6.415 -0.5321  0.1739 -1.5358
13563SOL    HW241231   3.833   4.893   6.331  0.7046 -0.1865  0.3283
13564SOL     OW41232   2.200   2.742   6.094 -0.2487  0.3192 -0.3798
13564SOL    HW141233   2.276   2.684   6.105  0.4875  1.1579 -0.8990
13564SOL    HW241234   2.133   2.704   6.151 -0.3472 -1.9596 -1.8761
13565SOL     OW41235   3.258   0.858   4.419 -0.2100  0.0322 -0.3557
13565SOL    HW141236   3.277   0.839   4.327  0.8634  1.5878 -0.5046
13565SOL    HW241237   3.345   0.868   4.459 -0.6627 -1.0394  0.9264
13566SOL     OW41238   0.575   4.138   7.306 -0.2676 -0.4048  0.5270
13566SOL    HW141239   0.625   4.203   7.257  0.9131 -0.6261  1.3896
13566SOL    HW241240   0.629   4.118   7.382 -1.6649 -0.6681  1.5065
13567SOL     OW41241   2.378   4.718   4.813  0.2388  0.4186 -0.2580
13567SOL    HW141242   2.377   4.813   4.806  1.4464  0.4239 -0.5747
13567SOL    HW241243   2.289   4.694   4.839 -0.0006  1.6489  0.0813
13568SOL     OW41244   3.038   6.862   0.447 -0.4199  0.3567  0.2404
13568SOL    HW141245   3.022   6.866   0.353 -5.6842  0.0091  0.8282
13568SOL    HW241246   3.043   6.769   0.467  1.3249  0.4368  0.3173
13569SOL     OW41247   6.488   6.569   3.702 -0.3669  0.0505 -0.3388
13569SOL    HW141248   6.492   6.663   3.683  2.5866  0.0384 -0.1825
13569SOL    HW241249   6.397   6.554   3.727 -0.6372  3.1848  1.0946
13570SOL     OW41250   6.030   1.895   6.572 -0.1546  0.9687 -0.0471
13570SOL    HW141251   6.093   1.829   6.543 -2.4142 -0.3603 -2.3629
13570SOL    HW241252   6.029   1.888   6.668 -0.0280 -2.1734 -0.1842
13571SOL     OW41253   3.029   4.194   0.083  0.5313  0.1660  0.2666
13571SOL    HW141254   2.968   4.120   0.082  0.7133  0.0018  0.7994
13571SOL    HW241255   3.067   4.192   0.171  1.7885 -0.1319 -0.2615
13572SOL     OW41256   2.966   2.410   2.296  0.4110  0.1062  0.3826
13572SOL    HW141257   2.934   2.455   2.374 -1.2148 -0.1773 -0.0647
13572SOL    HW241258   2.892   2.356   2.268  1.2850 -0.5293 -0.8077
13573SOL     OW41259   4.202   4.124   6.460  0.3498 -0.1786 -0.2022
13573SOL    HW141260   4.220   4.042   6.507 -0.7036 -0.3997 -0.1561
13573SOL    HW241261   4.108   4.120   6.442  0.7105 -0.0557 -2.2727
13574SOL     OW41262   5.672   4.334   0.449  0.4142  0.3175 -0.6391
13574SOL    HW141263   5.580   4.357   0.442  0.0086 -0.2373  1.8373
13574SOL    HW241264   5.714   4.381   0.377 -1.3873  2.9980 -0.1066
13575SOL     OW41265   5.166   4.140   1.238  0.2998  0.4827 -0.4769
13575SOL    HW141266   5.240   4.083   1.259 -0.6488 -0.7569 -0.3643
13575SOL    HW241267   5.133   4.169   1.324 -1.0736 -1.2912 -0.3553
13576SOL     OW41268   7.116   0.891   2.127  0.5918  0.0043 -0.3129
13576SOL    HW141269   7.031   0.849   2.141  0.5384  0.3287  0.3438
13576SOL    HW241270   7.118   0.909   2.033  0.2890 -0.7677 -0.4734
13577SOL     OW41271   0.010   2.256   4.259 -0.1011 -0.0447  0.2950
13577SOL    HW141272  -0.012   2.241   4.351 -1.4532 -1.2577 -0.1797
13577SOL    HW241273   0.051   2.173   4.231  0.5609  0.4160 -0.1258
13578SOL     OW41274   5.047   1.212   5.140  0.4001  0.6942 -0.0516
13578SOL    HW141275   5.022   1.163   5.062  0.7141 -0.0785  0.3167
13578SOL    HW241276   4.983   1.283   5.146 -1.7375 -1.1539  0.8292
13579SOL     OW41277   5.895   5.243   5.322  0.3339 -0.4646  0.5080
13579SOL    HW141278   5.933   5.190   5.252 -3.0493 -2.4617 -0.0385
13579SOL    HW241279   5.861   5.320   5.277  0.4935 -0.4639  0.3868
13580SOL     OW41280   2.310   0.391   2.140  0.1225 -0.0444 -0.7338
13580SOL    HW141281   2.367   0.389   2.218 -0.1660  1.0270 -0.4792
13580SOL    HW241282   2.250   0.464   2.156 -0.1887 -0.0499 -1.7990
13581SOL     OW41283   5.133   1.121   1.681 -0.2170 -0.3594 -0.0861
13581SOL    HW141284   5.188   1.162   1.614 -0.6350  0.8669  0.2963
13581SOL    HW241285   5.058   1.180   1.690 -0.2134 -0.5446  1.3794
13582SOL     OW41286   4.440   1.212   1.687  0.1518 -0.5923 -0.0568
13582SOL    HW141287   4.490   1.274   1.740 -0.6138 -0.7537  0.8807
13582SOL    HW241288   4.349   1.240   1.696 -0.0389 -0.8829 -0.9520
13583SOL     OW41289   6.563   0.795   6.270 -0.3471  0.3809  0.0060
13583SOL    HW141290   6.476   0.831   6.255 -0.2511  0.4217 -0.4660
13583SOL    HW241291   6.607   0.860   6.324 -0.6083  0.3602  0.2450
13584SOL     OW41292   7.337   3.912   5.562  0.3772 -0.3527  0.6508
13584SOL    HW141293   7.401   3.963   5.612  0.3573  1.0552 -0.6825
13584SOL    HW241294   7.268   3.975   5.541  0.4212 -0.8670 -1.1621
13585SOL     OW41295   1.703   4.848   4.761 -0.0750  0.1593 -0.0631
13585SOL    HW141296   1.772   4.782   4.773 -0.2683 -0.0346 -0.0125
13585SOL    HW241297   1.621   4.800   4.773 -0.2054  0.5464  0.6821
13586SOL     OW41298   1.203   2.168   7.528 -0.1956  0.2694 -0.8900
13586SOL    HW141299   1.218   2.110   7.454 -1.1267 -0.4805 -0.5111
13586SOL    HW241300   1.223   2.256   7.494  0.7003 -0.1932 -1.6206
13587SOL     OW41301   4.544   7.261   6.012 -0.1678 -0.1741  0.3917
13587SOL    HW141302   4.583   7.233   5.929 -0.8882  1.8640 -0.7168
13587SOL    HW241303   4.585   7.345   6.030 -0.8675 -0.0527  1.5159
13588SOL     OW41304   3.105   1.547   1.238 -0.6955 -0.5445 -0.2296
13588SOL    HW141305   3.040   1.477   1.240 -1.4129  0.1201  0.2944
13588SOL    HW241306   3.178   1.513   1.290  0.0595 -1.9113 -2.0901
13589SOL     OW41307   1.100   6.376   5.504  0.5943  0.0193 -0.1609
13589SOL    HW141308   1.150   6.338   5.576  1.0370 -0.7570 -0.8611
13589SOL    HW241309   1.009   6.353   5.523  0.9798 -2.9989 -1.4458
13590SOL     OW41310   3.655   5.996   5.250  0.1259 -0.2425  0.1669
13590SOL    HW141311   3.699   5.986   5.335  0.0015  0.3570  0.3073
13590SOL    HW241312   3.590   6.064   5.265 -0.3566 -0.6028 -0.2381
13591SOL     OW41313   0.629   5.296   4.065  0.2894  0.6102  0.3642
13591SOL    HW141314   0.552   5.314   4.119  0.1920 -0.9872  0.8130
13591SOL    HW241315   0.594   5.260   3.984  0.5280  0.0625  0.4932
13592SOL     OW41316   2.992   5.935   4.624  0.1560 -0.3783  0.2381
13592SOL    HW141317   2.967   5.890   4.543  1.5188 -1.3150  0.3138
13592SOL    HW241318   2.917   5.991   4.644 -1.3785 -2.1979 -0.1480
13593SOL     OW41319   4.990   2.614   0.262 -0.1422  0.3243 -0.0772
13593SOL    HW141320   4.901   2.646   0.279 -0.1740  0.4237 -0.4295
13593SOL    HW241321   5.006   2.636   0.171  0.3840  0.6296  0.0893
13594SOL     OW41322   1.723   3.577   2.784  0.9657 -0.9756  0.0348
13594SOL    HW141323   1.776   3.514   2.735 -0.1152 -2.7814  1.0765
13594SOL    HW241324   1.665   3.615   2.718  2.2621 -0.3454 -0.7748
13595SOL     OW41325   2.289   1.418   2.169 -0.1480  0.6627 -0.4351
13595SOL    HW141326   2.335   1.438   2.251 -1.0121 -0.7845  0.4572
13595SOL    HW241327   2.277   1.503   2.127  0.4812  1.4275  0.8635
13596SOL     OW41328   5.745   2.151   0.486 -0.2290 -0.6784 -0.7223
13596SOL    HW141329   5.766   2.058   0.497 -0.3146 -0.5615  0.6903
13596SOL    HW241330   5.651   2.155   0.497 -0.1766 -0.3792 -0.3816
13597SOL     OW41331   4.584   2.405   2.167 -0.0645  0.2663 -0.3225
13597SOL    HW141332   4.539   2.452   2.096  1.7830  1.2420 -0.9144
13597SOL    HW241333   4.556   2.314   2.157 -1.2564  0.6956 -1.1414
13598SOL     OW41334   0.404   0.786   7.263  0.6364 -0.2037  0.2157
13598SOL    HW141335   0.455   0.706   7.252  0.8138  0.1461 -2.0893
13598SOL    HW241336   0.321   0.768   7.219  0.5198  0.7317  0.0345
13599SOL     OW41337   3.851   5.771   6.863 -0.4307  0.0878  0.0020
13599SOL    HW141338   3.938   5.801   6.834 -0.8019 -0.1212 -1.3760
13599SOL    HW241339   3.808   5.741   6.783 -2.5094  1.9744  0.3338
13600SOL     OW41340   6.270   4.726   0.869  0.0399  0.6843  0.4051
13600SOL    HW141341   6.189   4.681   0.892  0.5524  0.3554  1.6790
13600SOL    HW241342   6.243   4.814   0.844 -0.7711  0.3677  0.1365
13601SOL     OW41343   4.479   7.109   4.665  0.8175 -0.0910  0.1756
13601SOL    HW141344   4.487   7.088   4.573 -0.7105  1.1250 -0.2837
13601SOL    HW241345   4.386   7.130   4.677  1.1976  0.8967  1.7246
13602SOL     OW41346   2.805   4.792   0.063  0.1654 -0.0826 -0.2527
13602SOL    HW141347   2.863   4.742   0.006  0.4697  1.7566 -1.6755
13602SOL    HW241348   2.861   4.862   0.098 -0.8855  0.9725 -0.6384
13603SOL     OW41349   3.232   6.148   5.074  0.2391 -0.0611  0.0088
13603SOL    HW141350   3.290   6.222   5.055 -0.3218  0.2356 -0.5694
13603SOL    HW241351   3.279   6.097   5.140  1.3386 -0.0341 -0.7298
13604SOL     OW41352   0.845   6.440   6.404  0.4474  0.4725 -0.2738
13604SOL    HW141353   0.793   6.363   6.381  3.5563 -1.8221 -0.2379
13604SOL    HW241354   0.843   6.443   6.499  0.6524  0.1436 -0.2561
13605SOL     OW41355   6.932   2.725   1.006  0.1626 -0.3361  0.0172
13605SOL    HW141356   6.854   2.715   0.951 -0.1143 -0.0561  0.3575
13605SOL    HW241357   6.987   2.788   0.960  0.2113 -0.5635 -0.2424
13606SOL     OW41358   6.013   6.985   1.133 -0.5437  0.1334 -0.0850
13606SOL    HW141359   6.050   6.898   1.146 -1.0211 -0.0536  0.0177
13606SOL    HW241360   6.079   7.031   1.081 -0.2957 -0.2883 -0.1489
13607SOL     OW41361   5.105   0.806   5.820  0.0228 -0.2436 -0.8689
13607SOL    HW141362   5.157   0.786   5.743  2.5598 -0.6420  0.8232
13607SOL    HW241363   5.117   0.901   5.833 -0.9563 -0.0484 -1.3222
13608SOL     OW41364   0.750   6.657   4.202 -0.6063  0.1103 -0.4183
13608SOL    HW141365   0.709   6.704   4.274 -0.4783  0.4038 -0.5357
13608SOL    HW241366   0.832   6.703   4.186  0.6580 -1.5191  0.9831
13609SOL     OW41367   7.315   5.139   3.384  0.2782 -0.6115 -0.0134
13609SOL    HW141368   7.306   5.107   3.474 -1.4188 -1.9025 -0.5847
13609SOL    HW241369   7.334   5.232   3.393  1.6759 -1.0187  1.6834
13610SOL     OW41370   0.027   2.975   1.200 -0.2107  0.1230  0.3087
13610SOL    HW141371  -0.053   2.980   1.252 -0.0794 -0.6278  0.6070
13610SOL    HW241372   0.060   2.886   1.215  0.1427  0.0816 -0.6023
13611SOL     OW41373   5.859   7.562   5.340 -0.7958 -0.3624  0.0177
13611SOL    HW141374   5.772   7.570   5.302 -1.1068 -0.5458  0.6703
13611SOL    HW241375   5.874   7.645   5.384 -0.3474 -0.0677 -0.6683
13612SOL     OW41376   2.507   2.963   2.907  0.0852 -0.1595  0.0923
13612SOL    HW141377   2.519   2.943   3.000 -1.9643 -0.4706  0.3439
13612SOL    HW241378   2.447   3.037   2.907  0.5221  0.2047 -0.9932
13613SOL     OW41379   3.058   6.984   0.181 -0.4276 -0.1732 -0.1874
13613SOL    HW141380   3.034   7.035   0.104  0.5732  0.8924  0.1734
13613SOL    HW241381   3.152   7.000   0.192  0.0035 -2.4223 -0.2785
13614SOL     OW41382   0.014   5.878   5.942 -0.3125  0.2826 -0.5758
13614SOL    HW141383   0.040   5.799   5.894  0.9630  0.6025 -0.4641
13614SOL    HW241384   0.045   5.862   6.032 -2.0972 -0.0362  0.0235
13615SOL     OW41385   2.999   4.981   6.142  0.3976  0.7174 -0.2807
13615SOL    HW141386   3.025   5.051   6.082  1.2957  1.5522  1.0445
13615SOL    HW241387   2.906   4.966   6.122  0.9707 -0.0257 -2.8242
13616SOL     OW41388   0.064   1.910   3.536 -0.7419 -0.3453  0.5341
13616SOL    HW141389   0.057   1.911   3.631 -2.1621  1.2791  0.4621
13616SOL    HW241390   0.146   1.958   3.518  1.3733 -3.5097  0.9349
13617SOL     OW41391   7.603   4.363   2.263  0.4799  0.7772  0.4310
13617SOL    HW141392   7.674   4.321   2.310 -0.8674  0.4511  2.2629
13617SOL    HW241393   7.600   4.452   2.297  0.1782  0.8756  0.1607
13618SOL     OW41394   7.548   6.947   5.108 -0.2201  0.1627  0.6673
13618SOL    HW141395   7.598   7.024   5.080 -0.8817  0.0523 -0.9570
13618SOL    HW241396   7.613   6.890   5.150  1.1266 -0.0321 -1.4841
13619SOL     OW41397   2.868   1.050   7.563 -0.1739 -0.5608  0.3946
13619SOL    HW141398   2.798   0.985   7.556  0.4659 -1.1046 -1.7534
13619SOL    HW241399   2.829   1.123   7.611 -2.2369 -0.8351 -0.7760
13620SOL     OW41400   4.144   4.312   4.967  1.1302 -0.2043  0.0476
13620SOL    HW141401   4.126   4.294   5.060 -0.8099 -1.0659 -0.4511
13620SOL    HW241402   4.182   4.230   4.935  1.9679  0.1531  0.0867
13621SOL     OW41403   6.141   2.017   5.127  0.1534 -0.2008 -0.0506
13621SOL    HW141404   6.202   2.089   5.113  0.8531 -0.5558  1.0975
13621SOL    HW241405   6.084   2.048   5.198 -0.8175 -0.0043 -0.8867
13622SOL     OW41406   4.763   6.509   4.913  0.4537 -0.3974 -0.0193
13622SOL    HW141407   4.700   6.580   4.924  0.0710 -0.1856 -2.9856
13622SOL    HW241408   4.773   6.499   4.819  1.7500 -3.2145  0.3109
13623SOL     OW41409   5.789   3.895   2.369 -0.5495 -0.0093  0.1922
13623SOL    HW141410   5.697   3.881   2.350 -0.3665 -0.9547 -0.0106
13623SOL    HW241411   5.835   3.822   2.328  0.6605  2.1400 -2.6149
13624SOL     OW41412   2.013   6.457   2.210 -0.1734  0.1470  0.2080
13624SOL    HW141413   1.925   6.494   2.200  0.1212  0.8293  0.1265
13624SOL    HW241414   2.065   6.499   2.142 -0.1411 -1.4284 -0.7977
13625SOL     OW41415   6.430   0.642   4.803 -0.4743  0.4565  0.2853
13625SOL    HW141416   6.484   0.575   4.846 -2.0421 -0.1026  1.5162
13625SOL    HW241417   6.478   0.666   4.725 -0.7958 -3.7538 -1.4654
13626SOL     OW41418   2.678   5.581   4.927  0.0427  0.1234 -0.4210
13626SOL    HW141419   2.592   5.624   4.925 -0.3209 -0.6012 -0.5737
13626SOL    HW241420   2.659   5.491   4.953  0.5319 -0.5590 -2.3208
13627SOL     OW41421   2.630   0.412   1.364 -0.0971 -0.4804  0.0748
13627SOL    HW141422   2.684   0.437   1.288  1.6802  0.4743  1.5619
13627SOL    HW241423   2.561   0.478   1.366 -1.7761 -2.0233 -2.1732
13628SOL     OW41424   0.708   1.216   4.109  0.8341  0.2529 -0.1392
13628SOL    HW141425   0.782   1.161   4.134  0.5935  0.3694  0.9188
13628SOL    HW241426   0.635   1.155   4.098  0.7070  0.2852  0.4577
13629SOL     OW41427   3.689   0.185   2.036  0.0104  0.9576  0.8312
13629SOL    HW141428   3.689   0.121   1.965  2.3327  1.1504  0.5960
13629SOL    HW241429   3.643   0.141   2.107  0.1898 -0.3758  0.1602
13630SOL     OW41430   0.676   2.742   3.516  0.3509 -0.1381 -0.5145
13630SOL    HW141431   0.733   2.668   3.538  2.2421  1.1322 -0.9579
13630SOL    HW241432   0.589   2.714   3.544  1.1641 -2.1530  0.1792
13631SOL     OW41433   5.622   2.635   2.499 -0.1633  0.3012 -0.0102
13631SOL    HW141434   5.557   2.703   2.517 -0.8294  0.7468 -3.5130
13631SOL    HW241435   5.705   2.683   2.490 -0.1472  0.2977  0.1149
13632SOL     OW41436   2.167   1.424   5.933  0.2362 -0.2150 -0.5907
13632SOL    HW141437   2.125   1.340   5.912  1.3951 -1.1524  0.6866
13632SOL    HW241438   2.254   1.400   5.963  0.0800  1.3211  1.2776
13633SOL     OW41439   7.476   3.077   0.268  0.0581  0.0730 -0.2949
13633SOL    HW141440   7.546   3.043   0.324  0.9870 -0.0194 -1.4584
13633SOL    HW241441   7.424   2.999   0.245  0.5839 -0.1425 -0.7808
13634SOL     OW41442   0.355   7.062   4.351 -0.4176 -0.0690 -0.0466
13634SOL    HW141443   0.360   7.108   4.268  0.6891  0.6166  0.3867
13634SOL    HW241444   0.333   7.129   4.415 -0.7646 -0.5002  0.2944
13635SOL     OW41445   0.848   4.076   6.597 -1.0260  0.1101  0.0251
13635SOL    HW141446   0.799   4.017   6.538 -0.6567 -0.6256  0.4373
13635SOL    HW241447   0.935   4.037   6.602 -1.4275 -0.6751  2.1613
13636SOL     OW41448   1.703   4.049   7.110 -0.2437 -0.5053  0.6713
13636SOL    HW141449   1.627   4.053   7.052 -0.6190 -1.9854  1.0085
13636SOL    HW241450   1.768   3.998   7.060  0.3880  0.3887  0.5540
13637SOL     OW41451   6.631   4.403   1.266 -0.4826  0.0070  0.6744
13637SOL    HW141452   6.604   4.494   1.252 -1.7007 -0.6513 -1.7375
13637SOL    HW241453   6.572   4.371   1.335  0.4625  1.2031  2.0918
13638SOL     OW41454   0.570   3.977   0.751  0.6848  0.4829  0.2777
13638SOL    HW141455   0.662   3.996   0.769  1.5877 -1.6395 -1.6214
13638SOL    HW241456   0.556   4.008   0.662 -0.3732  0.5034  0.4361
13639SOL     OW41457   5.791   4.075   0.844 -0.1328  0.1895  0.0011
13639SOL    HW141458   5.879   4.050   0.871 -0.5946  0.3094  1.7355
13639SOL    HW241459   5.782   4.166   0.873 -1.0851 -0.0607  0.5418
13640SOL     OW41460   4.207   3.712   6.313  0.0990  0.0182 -0.2872
13640SOL    HW141461   4.264   3.664   6.253 -1.0900  0.2763 -1.6832
13640SOL    HW241462   4.229   3.804   6.298  1.2445  0.0177  1.2146
13641SOL     OW41463   0.879   3.013   1.848  0.5254  0.2186  0.3405
13641SOL    HW141464   0.901   3.062   1.769 -3.1570  1.0183 -0.3688
13641SOL    HW241465   0.830   2.938   1.817 -0.4217  0.1917  1.8184
13642SOL     OW41466   5.383   0.074   7.430 -1.2230  0.1430  0.5493
13642SOL    HW141467   5.410  -0.014   7.456 -1.6468 -0.0742  0.2643
13642SOL    HW241468   5.382   0.124   7.512  0.7539  0.3692  0.4844
13643SOL     OW41469   3.856   2.899   2.128  0.3469  0.0407  0.4548
13643SOL    HW141470   3.801   2.924   2.053  1.5003  0.3818 -0.2890
13643SOL    HW241471   3.821   2.814   2.155 -1.2443  0.7205  0.6947
13644SOL     OW41472   1.360   3.097   5.629 -0.1198 -0.2295 -0.1440
13644SOL    HW141473   1.286   3.157   5.622 -0.0363 -0.1529 -0.4110
13644SOL    HW241474   1.438   3.154   5.622  0.0360 -0.6234 -4.0580
13645SOL     OW41475   4.862   0.538   4.809 -0.1338 -0.0568  0.5410
13645SOL    HW141476   4.949   0.507   4.785  1.0676  1.1487  2.9560
13645SOL    HW241477   4.802   0.473   4.773  1.6464 -0.3472 -2.1250
13646SOL     OW41478   6.118   6.233   2.058 -0.1645 -0.2236 -0.1272
13646SOL    HW141479   6.129   6.257   2.150  0.7399 -2.4674  0.4215
13646SOL    HW241480   6.173   6.155   2.047 -1.1100 -0.6544 -2.2843
13647SOL     OW41481   7.151   0.453   2.392 -0.6436  0.2503  0.4894
13647SOL    HW141482   7.174   0.490   2.478 -0.3803  0.4335  0.3425
13647SOL    HW241483   7.196   0.510   2.329 -0.1205 -0.4032  0.2650
13648SOL     OW41484   3.522   4.541   0.857  0.1886 -0.2469 -0.0527
13648SOL    HW141485   3.475   4.556   0.939  0.2745 -1.2755  0.1841
13648SOL    HW241486   3.560   4.627   0.836 -0.6401  0.2686  0.4618
13649SOL     OW41487   1.218   4.095   6.683 -0.1190  0.5579  0.1290
13649SOL    HW141488   1.253   4.152   6.614 -1.7429  1.2249 -0.1973
13649SOL    HW241489   1.193   4.015   6.637 -1.2402  1.0181 -0.1156
13650SOL     OW41490   3.742   5.150   3.328  0.2341  0.0522 -0.4897
13650SOL    HW141491   3.677   5.195   3.274  1.3811  0.8651 -1.2443
13650SOL    HW241492   3.811   5.216   3.342  0.6170 -0.5885  0.7935
13651SOL     OW41493   3.808   4.953   3.171 -0.2974 -0.0310 -0.1703
13651SOL    HW141494   3.772   5.013   3.236 -1.0443 -2.0522  1.3881
13651SOL    HW241495   3.902   4.952   3.190 -0.7276 -2.0914  2.3167
13652SOL     OW41496   4.520   2.157   2.130 -1.4486  0.4858 -0.0838
13652SOL    HW141497   4.581   2.086   2.151 -0.1143  2.3935  3.2135
13652SOL    HW241498   4.435   2.124   2.158 -1.2113 -0.5686 -0.5611
13653SOL     OW41499   5.125   5.114   6.506 -0.2187  0.2086  0.1653
13653SOL    HW141500   5.130   5.097   6.412 -2.0357 -1.0798  0.2553
13653SOL    HW241501   5.144   5.208   6.515  0.6784  0.1994 -1.3846
13654SOL     OW41502   1.571   2.246   5.902 -0.0566  0.2013 -0.2245
13654SOL    HW141503   1.624   2.166   5.895 -0.5919 -0.1735 -0.0796
13654SOL    HW241504   1.577   2.270   5.995 -1.6623 -0.9296  0.2252
13655SOL     OW41505   6.980   3.447   4.244  0.1472  0.3125  0.0920
13655SOL    HW141506   7.012   3.359   4.262  0.8633  0.3398 -0.9804
13655SOL    HW241507   7.049   3.505   4.278 -1.2719  0.5975  2.8049
13656SOL     OW41508   2.145   3.984   7.470  0.7639 -0.0138  0.4107
13656SOL    HW141509   2.205   3.914   7.443  0.7419 -0.2868  1.0549
13656SOL    HW241510   2.166   4.056   7.411  0.7803 -0.5579 -0.2732
13657SOL     OW41511   3.662   2.094   4.151  0.1781 -0.5295 -0.0259
13657SOL    HW141512   3.608   2.155   4.200  0.6796  0.3596 -0.5594
13657SOL    HW241513   3.626   2.095   4.063  0.2834 -0.8866 -0.0752
13658SOL     OW41514   7.604   6.157   1.371  0.3683  0.0380  0.9063
13658SOL    HW141515   7.672   6.214   1.335 -0.4285  0.4574  0.0236
13658SOL    HW241516   7.649   6.108   1.440  2.4297 -1.9909 -1.6323
13659SOL     OW41517   4.945   3.154   6.443  0.3467  0.2796 -0.2746
13659SOL    HW141518   4.911   3.200   6.366  1.4835  0.3041 -0.7915
13659SOL    HW241519   5.034   3.188   6.453  0.7504 -0.8618  0.1226
13660SOL     OW41520   3.902   5.637   2.750 -0.3647  0.4915  0.2648
13660SOL    HW141521   3.845   5.703   2.789 -1.1941  0.2817 -0.5847
13660SOL    HW241522   3.848   5.593   2.685  0.4732 -0.3720  0.1300
13661SOL     OW41523   5.173   4.151   7.020  0.0598  0.0354  0.4889
13661SOL    HW141524   5.156   4.104   6.938  0.7966 -1.3966  1.1163
13661SOL    HW241525   5.228   4.225   6.995  1.1152 -0.9451 -0.2055
13662SOL     OW41526   0.449   2.830   2.572 -0.7100 -0.1057  0.1013
13662SOL    HW141527   0.510   2.816   2.645  0.4245  2.0840 -0.3440
13662SOL    HW241528   0.479   2.769   2.504  0.0671 -0.0918  0.4168
13663SOL     OW41529   6.370   3.234   5.615  0.0324  0.2159  0.3808
13663SOL    HW141530   6.303   3.166   5.606 -0.1085 -0.0589  2.9128
13663SOL    HW241531   6.372   3.276   5.529 -1.6359 -1.3570 -0.5117
13664SOL     OW41532   5.764   6.387   6.372  0.2272  0.0895 -0.7768
13664SOL    HW141533   5.849   6.425   6.393  0.6401 -0.3596 -1.6165
13664SOL    HW241534   5.773   6.294   6.394 -0.9084  0.4909  1.6577
13665SOL     OW41535   0.764   5.722   0.849 -0.4895  0.4116 -0.3549
13665SOL    HW141536   0.715   5.803   0.866  0.1509  0.3795  2.0866
13665SOL    HW241537   0.696   5.656   0.833 -1.2556  0.6984  1.4123
13666SOL     OW41538   6.050   4.255   0.417 -0.4249 -0.5844  0.6393
13666SOL    HW141539   6.098   4.268   0.499 -0.7585 -0.5128  0.8248
13666SOL    HW241540   6.000   4.336   0.405  1.9782  0.7848 -1.2541
13667SOL     OW41541   3.700   4.229   6.924  0.1344  0.3598  0.0464
13667SOL    HW141542   3.657   4.295   6.980  1.0445  1.0056  0.0032
13667SOL    HW241543   3.683   4.259   6.835  0.6815  0.6205  0.0301
13668SOL     OW41544   6.814   4.516   5.813  0.0230 -0.2825  0.4558
13668SOL    HW141545   6.826   4.440   5.869 -0.9535 -0.0022  1.0839
13668SOL    HW241546   6.738   4.561   5.850 -1.6036 -0.8595 -1.9386
13669SOL     OW41547   0.799   4.341   4.640  0.1159  0.0455 -0.2508
13669SOL    HW141548   0.721   4.333   4.586 -0.1965 -1.3256  0.3619
13669SOL    HW241549   0.872   4.332   4.578 -0.2266 -0.2450 -0.6167
13670SOL     OW41550   3.319   6.957   1.512 -0.2678 -0.1019 -0.9118
13670SOL    HW141551   3.271   6.890   1.560 -0.2082  1.2404  1.1159
13670SOL    HW241552   3.252   7.007   1.465 -0.6130  0.2119 -0.0927
13671SOL     OW41553   2.367   4.174   7.546  0.1995 -0.5467  0.3655
13671SOL    HW141554   2.447   4.225   7.561 -0.4849  0.7998 -0.3936
13671SOL    HW241555   2.375   4.142   7.456 -1.0356  1.4309 -0.5272
13672SOL     OW41556   5.035   2.727   1.114 -0.6671  0.4140 -1.0439
13672SOL    HW141557   4.958   2.669   1.115 -0.5449  0.2516 -1.0312
13672SOL    HW241558   5.055   2.743   1.206 -0.2689 -0.1005 -1.0386
13673SOL     OW41559   5.936   1.023   0.157  0.1857 -0.0503 -0.3120
13673SOL    HW141560   5.916   1.105   0.202 -1.4604 -0.7703  0.3634
13673SOL    HW241561   6.013   0.988   0.202 -1.2080 -0.5799  1.7896
13674SOL     OW41562   5.450   4.803   5.630  0.1966 -0.4700 -0.1354
13674SOL    HW141563   5.398   4.871   5.673  3.4227  1.7660  0.6124
13674SOL    HW241564   5.438   4.819   5.536 -0.9735 -0.4786  0.0004
13675SOL     OW41565   4.581   0.514   5.003 -0.4925 -0.1640 -0.2662
13675SOL    HW141566   4.655   0.521   4.943 -0.1120  0.0634  0.2240
13675SOL    HW241567   4.534   0.436   4.974 -1.0774  0.6926 -1.6986
13676SOL     OW41568   6.153   6.393   1.582 -0.4319  0.3598 -0.1042
13676SOL    HW141569   6.177   6.483   1.603  0.0421  0.2282 -0.0787
13676SOL    HW241570   6.102   6.400   1.501 -0.6188  0.6744  0.0398
13677SOL     OW41571   6.782   1.606   2.223 -0.4482 -0.3500  0.5948
13677SOL    HW141572   6.870   1.592   2.258  1.2008  3.0807 -1.5538
13677SOL    HW241573   6.733   1.647   2.294  1.1886  1.8309  0.5451
13678SOL     OW41574   2.523   0.259   1.057 -0.4235  0.4796  0.1673
13678SOL    HW141575   2.455   0.246   0.991  0.0098 -2.1873  0.1510
13678SOL    HW241576   2.495   0.337   1.105 -1.4615  1.7013 -2.2295
13679SOL     OW41577   3.383   6.729   6.426 -0.1143 -0.0625 -0.2724
13679SOL    HW141578   3.390   6.804   6.367 -0.5711 -0.2485 -0.5655
13679SOL    HW241579   3.376   6.653   6.368 -1.9819 -0.1327 -0.0241
13680SOL     OW41580   1.664   1.198   4.342  0.2565 -0.4726  0.1607
13680SOL    HW141581   1.661   1.268   4.407  0.8155 -0.3663  0.0777
13680SOL    HW241582   1.573   1.171   4.332  0.2325 -0.9879  1.5298
13681SOL     OW41583   3.681   0.342   0.828 -0.1529  0.1841 -0.0722
13681SOL    HW141584   3.632   0.393   0.892  0.0072 -0.9947  1.0505
13681SOL    HW241585   3.614   0.298   0.776 -0.2856  1.1074 -0.6979
13682SOL     OW41586   5.594   6.194   5.106  0.3586  0.0950 -0.2473
13682SOL    HW141587   5.586   6.151   5.021 -1.9120  0.8577 -0.4736
13682SOL    HW241588   5.576   6.286   5.088 -2.4402 -0.0502  1.3459
13683SOL     OW41589   5.690   3.477   3.985 -0.1270 -0.1991 -0.3599
13683SOL    HW141590   5.673   3.571   3.989  4.5232  0.9399 -1.2502
13683SOL    HW241591   5.719   3.453   4.074  0.8212 -0.2191 -0.6626
13684SOL     OW41592   5.783   1.400   2.449  0.8037 -0.2680  0.3404
13684SOL    HW141593   5.826   1.425   2.367 -0.9728 -2.9608 -1.5501
13684SOL    HW241594   5.848   1.347   2.495  1.0618 -0.5758 -0.3692
13685SOL     OW41595   1.354   2.358   3.436  0.0996 -0.3691  0.6958
13685SOL    HW141596   1.324   2.386   3.522 -0.5038 -0.6487  0.5866
13685SOL    HW241597   1.450   2.363   3.440  0.0342  1.4185  0.7595
13686SOL     OW41598   6.816   4.941   0.836 -0.1853 -0.5617 -0.1502
13686SOL    HW141599   6.905   4.975   0.844 -0.4291 -0.2575  1.4338
13686SOL    HW241600   6.825   4.864   0.779  0.8168  0.3979 -1.3697
13687SOL     OW41601   0.348   2.766   2.999  0.4216 -0.1364  0.0541
13687SOL    HW141602   0.371   2.752   2.907  1.0973 -2.3397  0.5010
13687SOL    HW241603   0.253   2.772   2.999  0.2843 -1.7428 -0.6539
13688SOL     OW41604   0.949   4.580   5.949  0.0691  0.3505 -0.0907
13688SOL    HW141605   1.038   4.605   5.972  0.2898 -0.4684 -0.0484
13688SOL    HW241606   0.958   4.524   5.873 -0.5008  1.1485 -0.7638
13689SOL     OW41607   0.623   7.171   3.269 -0.0351 -0.4240 -0.3981
13689SOL    HW141608   0.619   7.154   3.364  1.4074 -2.4713 -0.6336
13689SOL    HW241609   0.570   7.250   3.257 -0.2309 -0.0751  2.1098
13690SOL     OW41610   2.415   0.768   2.487 -0.1651 -0.0720 -0.0118
13690SOL    HW141611   2.328   0.781   2.526  0.1354 -0.6929  0.8971
13690SOL    HW241612   2.397   0.738   2.398 -0.8719  1.5802 -0.4693
13691SOL     OW41613   4.020   7.393   5.619 -0.0017 -0.0479 -0.0397
13691SOL    HW141614   3.928   7.372   5.602 -0.1907  1.4175 -0.9113
13691SOL    HW241615   4.067   7.314   5.592 -0.9242 -0.5190 -0.3340
13692SOL     OW41616   3.757   0.431   1.979  0.2011 -0.2439  0.1451
13692SOL    HW141617   3.727   0.341   1.994  2.6652 -0.7314  3.0025
13692SOL    HW241618   3.758   0.471   2.065  0.4332  2.1507 -0.8924
13693SOL     OW41619   5.117   2.466   2.302 -0.0269 -0.3868 -0.4983
13693SOL    HW141620   5.154   2.392   2.349 -3.0302 -2.2703 -0.8520
13693SOL    HW241621   5.028   2.439   2.279 -0.8624  2.8707 -1.7554
13694SOL     OW41622   3.542   3.940   1.353 -0.6451  0.4418  0.0871
13694SOL    HW141623   3.542   3.857   1.402  1.6651  0.8321  0.8989
13694SOL    HW241624   3.635   3.961   1.342 -1.1168  1.3318 -2.9425
13695SOL     OW41625   5.707   7.345   4.131 -0.1127 -0.5534 -0.6474
13695SOL    HW141626   5.802   7.341   4.127  0.1175  1.9469  0.8922
13695SOL    HW241627   5.683   7.287   4.203  0.2372 -0.9876 -0.8749
13696SOL     OW41628   1.298   5.618   1.198 -0.1366 -0.0870 -0.0620
13696SOL    HW141629   1.217   5.668   1.206  0.3751  0.5681  1.3175
13696SOL    HW241630   1.289   5.548   1.263  1.1569  1.1158  1.4994
13697SOL     OW41631   1.007   4.155   5.424  0.1887 -0.1451 -0.1807
13697SOL    HW141632   1.090   4.192   5.454 -0.7899  0.3733  2.1028
13697SOL    HW241633   1.010   4.063   5.451 -0.2779  0.0666  0.6178
13698SOL     OW41634   1.005   4.619   0.071 -0.7779 -0.2204  0.3654
13698SOL    HW141635   0.972   4.667   0.147  0.7833 -0.1193  1.0190
13698SOL    HW241636   0.938   4.631   0.004 -0.9579  1.9705  0.8485
13699SOL     OW41637   3.746   0.927   1.865  0.1705 -0.1193  0.1640
13699SOL    HW141638   3.776   0.841   1.835 -1.3831 -0.7265  0.2485
13699SOL    HW241639   3.652   0.927   1.847 -0.4973  0.2731  3.2164
13700SOL     OW41640   1.508   5.066   6.473  0.5666 -0.2382 -0.0588
13700SOL    HW141641   1.451   5.059   6.396  0.5688  0.1541 -0.0984
13700SOL    HW241642   1.531   4.976   6.494 -0.8541 -0.4780  0.5414
13701SOL     OW41643   7.512   1.421   5.938 -0.2216 -1.0612  0.1286
13701SOL    HW141644   7.581   1.462   5.989 -1.2368 -1.6582  2.0993
13701SOL    HW241645   7.554   1.347   5.895  0.4998 -1.0139  0.7411
13702SOL     OW41646   2.073   7.373   6.828 -0.3399 -0.1756  0.0930
13702SOL    HW141647   1.996   7.388   6.884 -0.9585 -3.8576  0.4822
13702SOL    HW241648   2.147   7.396   6.884 -1.0578  2.0527  0.2142
13703SOL     OW41649   4.114   4.530   6.277  0.4054  0.1304  0.2843
13703SOL    HW141650   4.087   4.535   6.186 -0.7246  0.4110  0.6206
13703SOL    HW241651   4.062   4.596   6.321 -0.7989 -1.5618  1.5399
13704SOL     OW41652   6.399   2.183   5.074 -0.1884 -0.2646  0.6738
13704SOL    HW141653   6.416   2.260   5.128 -2.1458  0.6864  0.0177
13704SOL    HW241654   6.434   2.110   5.125 -0.0504  0.8352  2.2149
13705SOL     OW41655   5.401   2.006   2.750  0.5472  0.0219 -0.1728
13705SOL    HW141656   5.443   2.081   2.709 -0.4378  0.2679 -0.7829
13705SOL    HW241657   5.329   2.044   2.801  0.9796 -0.3883  0.7536
13706SOL     OW41658   3.741   6.978   0.018  0.2797 -0.0625  0.0067
13706SOL    HW141659   3.815   6.932  -0.023 -0.1275 -1.4841  0.7829
13706SOL    HW241660   3.664   6.935  -0.018 -0.1542  0.7537 -0.0540
13707SOL     OW41661   5.582   6.387   2.816  0.5969  0.4675 -0.1692
13707SOL    HW141662   5.649   6.408   2.881  0.2613  1.3114 -0.0878
13707SOL    HW241663   5.631   6.368   2.736  1.1067 -1.9429  0.6276
13708SOL     OW41664   5.676   5.300   2.874  0.1552 -0.4444  0.5878
13708SOL    HW141665   5.655   5.391   2.892  2.1547  0.0170  0.9188
13708SOL    HW241666   5.656   5.288   2.781 -1.3733 -0.0830  0.8478
13709SOL     OW41667   3.123   5.543   2.421  0.2860 -0.4730  0.2144
13709SOL    HW141668   3.179   5.483   2.470 -1.2924 -0.4965  2.0703
13709SOL    HW241669   3.075   5.591   2.487 -0.6470  0.7838 -1.3022
13710SOL     OW41670   5.421   7.337   0.732  0.7646 -0.0967 -0.2672
13710SOL    HW141671   5.397   7.265   0.674  3.5479 -1.0119 -0.4560
13710SOL    HW241672   5.471   7.397   0.676 -1.2896  1.9414 -0.0530
13711SOL     OW41673   5.668   2.330   3.007  0.1085 -0.1912 -0.3615
13711SOL    HW141674   5.749   2.376   3.030 -0.1832  0.3022 -0.3134
13711SOL    HW241675   5.633   2.378   2.932 -2.9160  3.0244  2.7276
13712SOL     OW41676   2.079   4.433   6.508  0.0713  0.4360  0.2545
13712SOL    HW141677   2.141   4.504   6.525  0.6358 -0.0008  0.0453
13712SOL    HW241678   2.003   4.454   6.562  0.9524  0.2424  1.6346
13713SOL     OW41679   3.217   3.851   2.605 -0.0592 -0.5925  0.0909
13713SOL    HW141680   3.139   3.796   2.613  0.3639 -1.1877  0.2432
13713SOL    HW241681   3.263   3.839   2.688 -0.3989  0.7041  0.4951
13714SOL     OW41682   1.241   1.859   7.349 -0.3231  0.4428 -0.3406
13714SOL    HW141683   1.262   1.784   7.293  0.6378  1.1298 -0.9329
13714SOL    HW241684   1.150   1.846   7.373  0.0465 -1.3515  0.2517
13715SOL     OW41685   1.358   3.570   5.721  0.3602 -0.3844 -0.0253
13715SOL    HW141686   1.331   3.484   5.691  0.5183 -0.1990 -0.7171
13715SOL    HW241687   1.302   3.588   5.796  1.0311 -1.5321  0.7877
13716SOL     OW41688   2.844   2.013   1.746  0.2669  0.1755 -0.2569
13716SOL    HW141689   2.876   1.972   1.666 -0.1895 -0.0162 -0.3429
13716SOL    HW241690   2.780   2.078   1.716  0.0844  0.0928 -0.0478
13717SOL     OW41691   3.634   7.167   7.401 -0.2095 -0.0484 -0.1706
13717SOL    HW141692   3.625   7.184   7.495 -1.6200 -0.1074 -0.2789
13717SOL    HW241693   3.630   7.253   7.360 -1.1073 -0.1231 -0.2676
13718SOL     OW41694   7.542   7.030   2.015  0.1827  0.0945  0.0010
13718SOL    HW141695   7.613   6.981   2.057  0.2780  0.4985  0.3168
13718SOL    HW241696   7.557   7.121   2.041  1.0783  0.5865 -2.0793
13719SOL     OW41697   1.634   7.160   0.866  0.3646 -0.1951 -0.4319
13719SOL    HW141698   1.632   7.245   0.822  0.4050  0.1011  0.1427
13719SOL    HW241699   1.543   7.132   0.870  0.1478  0.6792  1.0514
13720SOL     OW41700   1.991   7.612   6.692  0.1259  0.6126  0.5932
13720SOL    HW141701   1.969   7.535   6.641 -0.4556  0.5074  0.9940
13720SOL    HW241702   2.081   7.596   6.723  0.7896  1.0278 -1.0149
13721SOL     OW41703   0.447   2.854   5.618  0.2008  0.1765  0.5668
13721SOL    HW141704   0.490   2.770   5.632 -1.1655 -0.5968  0.3330
13721SOL    HW241705   0.434   2.888   5.707 -0.1887 -0.3684  0.7261
13722SOL     OW41706   1.057   0.861   4.752  0.4466 -0.4665 -0.5703
13722SOL    HW141707   1.098   0.840   4.836 -0.8149 -0.2908  0.1010
13722SOL    HW241708   1.125   0.909   4.704  0.3763  1.7020  1.3394
13723SOL     OW41709   5.347   0.163   2.049 -0.2673 -0.5335 -0.0426
13723SOL    HW141710   5.331   0.253   2.021 -2.6028 -0.7096  0.5436
13723SOL    HW241711   5.327   0.163   2.142  1.0990 -1.3901  0.2900
13724SOL     OW41712   1.159   0.178   4.489 -0.5466  0.2361  0.3668
13724SOL    HW141713   1.254   0.174   4.500 -0.5984 -1.1418  0.5085
13724SOL    HW241714   1.147   0.183   4.394 -0.3319 -2.8045  0.0648
13725SOL     OW41715   0.987   0.946   2.878 -0.4353  0.0011 -0.3149
13725SOL    HW141716   0.948   0.992   2.952 -0.7259 -0.2387 -0.3205
13725SOL    HW241717   0.933   0.971   2.803  1.2875  2.2191 -0.9237
13726SOL     OW41718   0.164   7.411   6.978  0.4251 -0.1079 -0.4752
13726SOL    HW141719   0.212   7.427   6.896  0.2831  1.8214 -0.2288
13726SOL    HW241720   0.073   7.432   6.957  0.4085  0.5304  0.2126
13727SOL     OW41721   6.791   5.762   4.862 -0.2364  0.1942 -0.2314
13727SOL    HW141722   6.744   5.684   4.892  0.8867 -0.1165  0.7534
13727SOL    HW241723   6.841   5.732   4.786  1.9401 -0.6673  1.4450
13728SOL     OW41724   1.663   2.693   3.716  0.1117 -0.2751  0.1916
13728SOL    HW141725   1.669   2.735   3.630 -2.3013 -1.2479 -0.5278
13728SOL    HW241726   1.737   2.632   3.718  0.8897  0.6086 -0.6858
13729SOL     OW41727   3.951   1.763   5.840  0.8164 -0.5201  0.4116
13729SOL    HW141728   3.951   1.855   5.814 -2.6381 -0.3814  0.4415
13729SOL    HW241729   3.959   1.714   5.759  2.7078 -0.2560  0.3990
13730SOL     OW41730   3.783   0.061   6.438 -0.2223  0.3043 -0.6866
13730SOL    HW141731   3.855   0.094   6.384  1.4384 -1.5451  0.2444
13730SOL    HW241732   3.713   0.042   6.376  0.3217  1.5119 -1.7116
13731SOL     OW41733   3.555   0.459   2.364  0.1522  0.3409 -0.6061
13731SOL    HW141734   3.544   0.543   2.319 -0.4065  1.6249  1.7717
13731SOL    HW241735   3.581   0.483   2.453  3.1048 -2.1051 -0.6352
13732SOL     OW41736   2.790   3.889   7.150 -0.1813  0.0258  0.2530
13732SOL    HW141737   2.712   3.892   7.094 -0.1459  0.2849  0.2143
13732SOL    HW241738   2.862   3.870   7.089 -0.5742 -3.2473  0.6732
13733SOL     OW41739   5.410   4.548   7.481 -0.1044  0.5161 -0.1995
13733SOL    HW141740   5.332   4.592   7.516 -0.2093  1.3145 -1.3815
13733SOL    HW241741   5.375   4.482   7.422  0.0891  1.3847 -1.3298
13734SOL     OW41742   6.237   4.957   5.051  0.2182  0.2543 -0.0561
13734SOL    HW141743   6.280   4.885   5.004  1.4700  0.0386  1.3310
13734SOL    HW241744   6.199   4.916   5.128 -0.4342  0.8405 -0.0613
13735SOL     OW41745   5.873   3.684   6.481  0.3651  0.1814  0.5517
13735SOL    HW141746   5.889   3.729   6.563  1.0200 -1.6351  1.4750
13735SOL    HW241747   5.945   3.710   6.423  1.6844 -0.9091  1.6319
13736SOL     OW41748   7.230   4.636   5.917  0.5129 -0.4091 -0.0228
13736SOL    HW141749   7.173   4.619   5.992  1.2961 -0.2429  0.6226
13736SOL    HW241750   7.173   4.628   5.841 -0.0931 -1.4861  0.5304
13737SOL     OW41751   6.640   0.947   0.374 -0.5602 -0.0836 -0.6229
13737SOL    HW141752   6.652   0.967   0.281 -0.1294 -0.3588 -0.6285
13737SOL    HW241753   6.702   1.003   0.419 -1.2932  0.5956 -0.4438
13738SOL     OW41754   0.521   6.116   5.252  0.1384  0.1259 -0.0664
13738SOL    HW141755   0.488   6.027   5.263 -0.8316  0.3374 -1.0879
13738SOL    HW241756   0.527   6.128   5.157 -0.5439  1.4232  0.0366
13739SOL     OW41757   4.901   3.896   0.954 -0.0852 -0.7124 -0.1124
13739SOL    HW141758   4.869   3.806   0.950  1.6695 -1.5510  2.3523
13739SOL    HW241759   4.987   3.893   0.911  0.0414 -0.2282  0.0950
13740SOL     OW41760   0.975   6.730   7.557 -0.5803  0.1958  0.1420
13740SOL    HW141761   0.932   6.664   7.504 -0.8941  0.4755  0.0463
13740SOL    HW241762   0.990   6.687   7.642 -2.6711  0.6508  0.7848
13741SOL     OW41763   1.155   3.417   7.289  0.9581  0.2769 -0.2617
13741SOL    HW141764   1.181   3.367   7.212  0.5039 -1.5825  0.7123
13741SOL    HW241765   1.121   3.351   7.349  0.6060  1.7603  1.2429
13742SOL     OW41766   2.071   2.090   0.714  0.6064  0.5222  0.3232
13742SOL    HW141767   2.155   2.130   0.691 -0.3775  1.6539 -1.5579
13742SOL    HW241768   2.007   2.136   0.661 -1.0053 -1.5714  0.3022
13743SOL     OW41769   1.278   0.941   2.863 -0.0104  0.2190 -0.1695
13743SOL    HW141770   1.190   0.958   2.830 -0.0573 -0.6860 -0.5371
13743SOL    HW241771   1.337   0.974   2.795 -0.0822 -0.1567 -0.4139
13744SOL     OW41772   2.148   6.799   1.057 -0.0472  0.1936 -0.2083
13744SOL    HW141773   2.163   6.726   0.996 -0.1954  2.2797 -2.8999
13744SOL    HW241774   2.054   6.813   1.054  0.0316  0.7670 -0.0085
13745SOL     OW41775   1.916   6.422   6.881  0.0663  0.5835 -0.1209
13745SOL    HW141776   1.880   6.464   6.959  0.9599  1.6664 -0.2759
13745SOL    HW241777   1.948   6.337   6.912 -3.1088 -0.7590 -0.0823
13746SOL     OW41778   2.928   3.222   0.902  0.1466 -0.0845  0.2060
13746SOL    HW141779   2.962   3.285   0.838  0.2436 -0.8706 -0.5264
13746SOL    HW241780   2.855   3.268   0.944 -0.0913  0.3465 -0.6534
13747SOL     OW41781   2.903   6.031   5.997 -0.4096  0.0405 -0.9047
13747SOL    HW141782   2.926   6.009   5.907  1.8505 -0.6376 -0.2263
13747SOL    HW241783   2.889   5.947   6.040 -1.2473  0.3505 -0.5419
13748SOL     OW41784   0.498   5.922   1.084 -0.4457  0.2049  0.2688
13748SOL    HW141785   0.487   5.960   1.172 -2.7333  0.5429 -0.1159
13748SOL    HW241786   0.524   5.832   1.100 -0.6890  0.3006  1.2868
13749SOL     OW41787   5.726   7.134   5.956 -0.3699 -0.2309  0.0795
13749SOL    HW141788   5.686   7.221   5.962  1.4302  0.7633 -1.2187
13749SOL    HW241789   5.820   7.151   5.958  0.0299 -2.2363  0.4801
13750SOL     OW41790   6.397   2.861   4.144 -0.6445 -0.4319  0.0172
13750SOL    HW141791   6.357   2.808   4.075 -1.0564  0.6129 -0.5617
13750SOL    HW241792   6.480   2.890   4.106 -1.2449  0.8286 -0.3792
13751SOL     OW41793   4.488   1.628   4.070 -0.7997 -0.3007  0.0875
13751SOL    HW141794   4.456   1.634   4.160 -1.1970 -0.2705 -0.0529
13751SOL    HW241795   4.583   1.623   4.078 -0.8086  0.1483  0.4869
13752SOL     OW41796   2.653   6.228   1.232  0.0372  0.2728 -0.5245
13752SOL    HW141797   2.564   6.234   1.268  0.0741 -0.2605 -0.3292
13752SOL    HW241798   2.641   6.238   1.137 -0.4312 -1.3172 -0.6673
13753SOL     OW41799   5.511   5.804   3.158  0.3649 -0.3103  0.1165
13753SOL    HW141800   5.426   5.816   3.115  0.0807 -2.9621 -0.2488
13753SOL    HW241801   5.523   5.882   3.211 -2.9544 -0.4001  1.2174
13754SOL     OW41802   3.396   5.243   6.271  0.2166  0.9028  0.4657
13754SOL    HW141803   3.318   5.242   6.217  0.1809 -0.8068  0.4921
13754SOL    HW241804   3.468   5.233   6.209  0.3893  1.9170  0.4900
13755SOL     OW41805   6.841   0.450   7.155 -0.2065 -0.0536 -0.0934
13755SOL    HW141806   6.776   0.458   7.225  0.1690  1.7783  0.1011
13755SOL    HW241807   6.851   0.539   7.122 -0.1359 -0.8067 -2.2927
13756SOL     OW41808   1.785   6.686   2.970  0.7287  0.2861 -0.2117
13756SOL    HW141809   1.865   6.717   2.928  0.9645 -0.0238  0.0015
13756SOL    HW241810   1.723   6.759   2.961  1.1184  0.6314 -0.1459
13757SOL     OW41811   6.931   4.536   1.045  0.3280 -0.0981 -0.1931
13757SOL    HW141812   6.878   4.456   1.041 -1.4139  0.9990 -0.4195
13757SOL    HW241813   6.928   4.571   0.956  0.6408  0.4607  0.0090
13758SOL     OW41814   0.124   5.612   3.589 -0.2962  0.7597 -0.0377
13758SOL    HW141815   0.204   5.604   3.538 -1.2813 -1.8718 -1.3665
13758SOL    HW241816   0.148   5.580   3.676  0.0703 -0.4254 -0.5434
13759SOL     OW41817   0.180   4.876   3.889  0.2664 -0.3992 -0.2186
13759SOL    HW141818   0.239   4.940   3.847  1.3573 -1.6623 -0.6863
13759SOL    HW241819   0.177   4.903   3.981  0.8695  0.2146 -0.3719
13760SOL     OW41820   1.845   1.118   6.449 -0.4435 -0.1178 -0.1908
13760SOL    HW141821   1.757   1.093   6.476 -0.6069  0.5336 -0.1169
13760SOL    HW241822   1.902   1.050   6.487 -0.6912  0.5969  1.5374
13761SOL     OW41823   0.358   2.126   3.017  0.3513 -0.4566 -0.6432
13761SOL    HW141824   0.289   2.178   2.975  1.2052  1.1906 -0.1337
13761SOL    HW241825   0.360   2.044   2.968 -0.1800  0.5258 -2.4028
13762SOL     OW41826   6.599   2.565   3.172  0.1489  0.8371 -0.0465
13762SOL    HW141827   6.601   2.647   3.123  0.5209  0.9967  0.2351
13762SOL    HW241828   6.574   2.590   3.261  0.0506  0.6195 -0.0108
13763SOL     OW41829   2.413   4.100   7.295  0.2815 -0.2773 -0.0020
13763SOL    HW141830   2.504   4.101   7.267  0.4346 -2.1189  0.2992
13763SOL    HW241831   2.365   4.141   7.223  1.1622 -0.9188 -0.9772
13764SOL     OW41832   6.269   1.611   1.673  0.4942  0.2648 -0.0426
13764SOL    HW141833   6.202   1.678   1.659 -0.4273 -0.9022 -1.6203
13764SOL    HW241834   6.352   1.657   1.659 -0.0167  1.4681  0.7327
13765SOL     OW41835   1.772   3.760   4.152  0.0641 -0.1729  0.0036
13765SOL    HW141836   1.721   3.774   4.072 -0.0846 -2.0905 -0.2897
13765SOL    HW241837   1.707   3.761   4.222  0.2542  2.0269  0.2274
13766SOL     OW41838   3.854   0.786   7.402 -0.1756 -0.3869 -0.6884
13766SOL    HW141839   3.862   0.864   7.346  0.4391 -0.7490 -1.1083
13766SOL    HW241840   3.942   0.772   7.436 -0.4718 -0.3844  0.0896
13767SOL     OW41841   2.148   3.455   0.246  0.1340  0.2514 -0.1190
13767SOL    HW141842   2.198   3.418   0.319  1.4931  2.3288  0.0730
13767SOL    HW241843   2.106   3.532   0.282 -1.4883 -0.2549 -0.8633
13768SOL     OW41844   1.615   5.459   5.277  0.0609 -0.2349 -0.0019
13768SOL    HW141845   1.565   5.515   5.336 -0.4707  0.1427 -0.7896
13768SOL    HW241846   1.635   5.381   5.328  1.4858  0.9646  1.3875
13769SOL     OW41847   5.910   5.058   4.351  0.4430 -0.4551  0.1757
13769SOL    HW141848   5.958   5.126   4.399  0.4664 -1.4302  1.5860
13769SOL    HW241849   5.822   5.094   4.340  0.8859  0.4494 -0.5062
13770SOL     OW41850   0.652   2.537   2.593  0.3072  0.1823  0.3373
13770SOL    HW141851   0.571   2.539   2.542  0.7800 -3.5054 -0.8595
13770SOL    HW241852   0.625   2.563   2.681 -1.7066  1.1027 -0.4790
13771SOL     OW41853   0.306   4.583   1.888  0.0774  0.1728 -0.0747
13771SOL    HW141854   0.343   4.538   1.964 -0.6036 -0.1105  0.0919
13771SOL    HW241855   0.382   4.603   1.833  0.8043  2.0907  1.5464
13772SOL     OW41856   4.716   4.322   1.105  0.0190 -0.4478 -0.1090
13772SOL    HW141857   4.627   4.355   1.109  0.4345  0.6486  0.6390
13772SOL    HW241858   4.711   4.246   1.047 -1.0884  0.5492 -1.3903
13773SOL     OW41859   4.838   7.526   0.801 -0.0482  0.0532  0.0884
13773SOL    HW141860   4.781   7.572   0.739 -1.0010 -1.2568 -0.0304
13773SOL    HW241861   4.925   7.530   0.760  0.1271  2.4989  0.5104
13774SOL     OW41862   2.089   5.326   1.985 -0.3765  0.4405 -0.3145
13774SOL    HW141863   2.171   5.283   1.960  0.2597  0.2734  1.8385
13774SOL    HW241864   2.021   5.280   1.936  0.5609 -1.3058 -0.0634
13775SOL     OW41865   3.239   3.695   6.916 -0.6135  0.3189  0.4527
13775SOL    HW141866   3.270   3.642   6.990 -1.3619 -3.1158 -1.4841
13775SOL    HW241867   3.319   3.726   6.874  0.0347 -1.6203  0.1366
13776SOL     OW41868   3.792   7.618   6.854  0.3810 -0.0363 -0.1863
13776SOL    HW141869   3.833   7.661   6.929 -0.5625 -0.6285  0.6964
13776SOL    HW241870   3.728   7.682   6.821 -0.7875 -0.5869  0.9225
13777SOL     OW41871   5.011   1.674   5.256  0.4206  0.1344  0.2325
13777SOL    HW141872   5.048   1.726   5.327  3.1495 -0.9400 -0.3074
13777SOL    HW241873   5.044   1.715   5.177  1.2638 -1.3731 -0.2424
13778SOL     OW41874   5.039   3.695   4.186 -0.2552  0.4098  0.3916
13778SOL    HW141875   5.008   3.604   4.179 -0.7320  0.4672  1.6659
13778SOL    HW241876   4.964   3.748   4.161  0.1247  0.4673 -0.6884
13779SOL     OW41877   4.028   0.531   5.158 -0.6294 -0.2849 -0.1904
13779SOL    HW141878   4.075   0.564   5.235  0.5525 -0.3598 -0.8615
13779SOL    HW241879   4.056   0.587   5.086 -0.1121 -1.5060 -0.9697
13780SOL     OW41880   3.315   0.115   3.208  0.4471 -0.2484 -0.5019
13780SOL    HW141881   3.325   0.167   3.287 -1.1731 -0.4858 -0.0973
13780SOL    HW241882   3.296   0.026   3.240 -2.2375  0.0395 -1.0596
13781SOL     OW41883   1.756   6.558   2.180 -0.1089  0.0974  0.3716
13781SOL    HW141884   1.664   6.538   2.164  0.0453  0.0518 -0.5164
13781SOL    HW241885   1.776   6.630   2.120  0.7181 -0.6228 -0.2386
13782SOL     OW41886   7.440   1.439   5.242  0.3908 -0.0188  0.3164
13782SOL    HW141887   7.472   1.405   5.159 -0.1702 -1.8385  0.7942
13782SOL    HW241888   7.366   1.382   5.264  0.3796  0.5762  1.9332
13783SOL     OW41889   5.410   7.315   6.638  0.2709 -0.3842  0.6692
13783SOL    HW141890   5.324   7.309   6.596  0.4832  1.4149 -0.1326
13783SOL    HW241891   5.406   7.397   6.688  1.4336 -0.4190  0.8355
13784SOL     OW41892   6.505   4.485   4.769  0.0490 -0.1412 -0.2087
13784SOL    HW141893   6.494   4.393   4.745  2.2069 -0.5038 -0.0198
13784SOL    HW241894   6.447   4.533   4.710  0.0334 -1.5232 -1.3554
13785SOL     OW41895   4.619   2.946   1.973  0.0621 -0.5091  0.1427
13785SOL    HW141896   4.561   2.981   2.040 -1.6759 -0.9171 -1.0960
13785SOL    HW241897   4.562   2.924   1.900  1.8039 -0.7124 -1.2405
13786SOL     OW41898   4.455   0.748   5.034 -0.0019 -0.2403 -0.2168
13786SOL    HW141899   4.510   0.809   5.083 -2.1054  0.1115  1.9064
13786SOL    HW241900   4.509   0.670   5.022  1.3500  0.5160  0.6621
13787SOL     OW41901   3.200   7.498   2.741  0.0833 -0.0883 -0.4901
13787SOL    HW141902   3.186   7.589   2.714  0.8954  0.0898 -0.3215
13787SOL    HW241903   3.271   7.467   2.684 -0.0366 -0.5482 -0.3908
13788SOL     OW41904   3.976   1.053   7.252 -0.1415  0.3623 -0.2369
13788SOL    HW141905   4.025   1.132   7.229 -0.8135  0.4589 -1.4163
13788SOL    HW241906   3.944   1.070   7.340  0.7315  0.9015 -0.0132
13789SOL     OW41907   7.488   5.444   0.046 -0.4230 -0.3740  0.5832
13789SOL    HW141908   7.581   5.466   0.032 -0.0813 -1.7236  0.6003
13789SOL    HW241909   7.469   5.478   0.134  0.1167 -0.2795  0.6725
13790SOL     OW41910   5.563   0.106   5.551 -0.4738  0.4058  0.3263
13790SOL    HW141911   5.653   0.133   5.532  0.0189 -0.3723  1.4052
13790SOL    HW241912   5.544   0.146   5.636 -0.3028 -1.2355  1.1784
13791SOL     OW41913   3.880   4.417   4.897  0.0043  0.5797  0.0190
13791SOL    HW141914   3.944   4.354   4.932 -0.8959  0.3024  1.2404
13791SOL    HW241915   3.827   4.365   4.836  1.2914  0.9598 -1.5141
13792SOL     OW41916   1.717   5.676   7.622  0.1033  0.3202  0.5335
13792SOL    HW141917   1.638   5.624   7.642  0.3046 -0.2296 -0.0609
13792SOL    HW241918   1.745   5.709   7.707 -1.0991  1.0105  0.6903
13793SOL     OW41919   2.619   6.816   7.149 -0.2861  0.2481  0.2232
13793SOL    HW141920   2.599   6.776   7.064  0.9315  1.2869 -0.5778
13793SOL    HW241921   2.683   6.757   7.188 -0.2251  0.1952  0.0486
13794SOL     OW41922   3.634   1.732   4.122  0.2622  0.2739  0.3533
13794SOL    HW141923   3.729   1.736   4.119  0.2694  0.9359  1.1056
13794SOL    HW241924   3.609   1.798   4.187 -0.6398 -0.6987  1.0377
13795SOL     OW41925   5.754   6.341   4.900 -0.2427 -1.0368  0.2529
13795SOL    HW141926   5.677   6.329   4.845 -0.8848 -0.0923  0.9117
13795SOL    HW241927   5.772   6.434   4.897  0.1463 -1.0741  1.0526
13796SOL     OW41928   7.511   5.504   6.991  0.3586 -0.4413 -0.2413
13796SOL    HW141929   7.561   5.580   6.963 -0.0129  0.4094  1.3106
13796SOL    HW241930   7.576   5.445   7.028  0.4546 -0.1768  0.0143
13797SOL     OW41931   2.226   3.757   1.650 -0.3919 -0.3335  0.3963
13797SOL    HW141932   2.182   3.749   1.734  0.3267  1.0077  0.9408
13797SOL    HW241933   2.187   3.689   1.595 -2.1579 -0.0705  1.2571
13798SOL     OW41934   2.785   0.152   0.056 -0.3938  0.2343 -0.5896
13798SOL    HW141935   2.768   0.079  -0.003  0.5684  1.1342 -2.0408
13798SOL    HW241936   2.776   0.230   0.001  0.3963  1.1132  0.4810
13799SOL     OW41937   4.613   1.556   4.374 -0.1026 -0.4243  0.2190
13799SOL    HW141938   4.626   1.586   4.464  0.0559 -0.8919  0.3548
13799SOL    HW241939   4.540   1.494   4.380  0.4541 -1.0920  0.1650
13800SOL     OW41940   1.803   4.582   3.790 -0.7633 -0.2329  0.1864
13800SOL    HW141941   1.717   4.549   3.764 -1.0018  1.4839 -1.4481
13800SOL    HW241942   1.784   4.668   3.829  0.3135  1.1665 -2.1957
13801SOL     OW41943   1.035   3.661   0.314 -0.5202  0.3584 -0.7072
13801SOL    HW141944   1.129   3.676   0.309 -0.2455 -0.2131  1.5952
13801SOL    HW241945   1.026   3.566   0.319 -1.0064  0.4728  1.4463
13802SOL     OW41946   6.820   6.173   0.638 -0.1939  0.0652  0.1096
13802SOL    HW141947   6.909   6.201   0.663 -1.2820  1.2562  3.1750
13802SOL    HW241948   6.818   6.080   0.661 -0.3243  0.5293  2.2119
13803SOL     OW41949   2.853   6.614   1.282  0.2861  0.3143 -0.4487
13803SOL    HW141950   2.862   6.652   1.195 -0.5228  0.5422 -0.4399
13803SOL    HW241951   2.760   6.591   1.289  0.2208  0.8052  0.5571
13804SOL     OW41952   7.538   5.775   6.781  0.2934  0.6556 -0.5327
13804SOL    HW141953   7.595   5.790   6.857  0.7189  0.5345 -0.8236
13804SOL    HW241954   7.464   5.835   6.794  0.8503  1.3596 -0.5194
13805SOL     OW41955   7.203   1.478   2.898 -0.3804 -0.3631  0.2173
13805SOL    HW141956   7.158   1.408   2.851 -0.0170 -1.5278  1.5245
13805SOL    HW241957   7.278   1.435   2.939 -0.2556  0.7554  1.2168
13806SOL     OW41958   7.386   7.269   7.031  0.4208  0.5510  0.1409
13806SOL    HW141959   7.410   7.348   6.982  0.9848 -0.1246 -0.6918
13806SOL    HW241960   7.355   7.302   7.115  1.8269  1.6019  0.2744
13807SOL     OW41961   5.170   4.333   3.696 -0.1531 -0.4144  0.4252
13807SOL    HW141962   5.146   4.426   3.697  1.0540 -0.0990  0.7320
13807SOL    HW241963   5.094   4.290   3.655 -0.7516  0.6868  0.3284
13808SOL     OW41964   4.603   4.017   5.062 -0.1889 -0.4348 -0.4830
13808SOL    HW141965   4.568   4.026   5.150  2.8341 -0.0164  0.8036
13808SOL    HW241966   4.557   4.083   5.010 -1.1642  0.1436  1.0643
13809SOL     OW41967   4.486   5.164   1.473 -0.2600 -0.1012  0.0913
13809SOL    HW141968   4.428   5.159   1.549  1.4236  0.8289  1.5196
13809SOL    HW241969   4.427   5.171   1.398 -2.0248 -2.6876  1.1016
13810SOL     OW41970   2.062   6.978   6.865  0.5500  0.3695 -0.0744
13810SOL    HW141971   1.974   6.998   6.832  0.9788  0.5286 -1.1629
13810SOL    HW241972   2.090   7.058   6.910  0.0062  0.1948  0.5882
13811SOL     OW41973   6.962   4.647   3.121 -0.6092 -0.4241 -0.2571
13811SOL    HW141974   7.012   4.575   3.081  0.7451  0.1225  0.3853
13811SOL    HW241975   6.906   4.604   3.186 -0.4446 -0.9875 -0.4792
13812SOL     OW41976   7.084   7.137   0.933 -0.2747  0.2921 -0.3947
13812SOL    HW141977   7.170   7.153   0.895 -0.4772 -1.5600 -1.7208
13812SOL    HW241978   7.102   7.095   1.018  0.1157  1.8222  0.3223
13813SOL     OW41979   0.730   0.480   5.252 -0.2279  0.3955 -0.4760
13813SOL    HW141980   0.787   0.407   5.273  0.2889  0.4136 -1.7682
13813SOL    HW241981   0.790   0.554   5.238 -0.6496  0.7023 -0.6798
13814SOL     OW41982   5.101   7.298   2.612 -0.2103 -0.7637 -0.2745
13814SOL    HW141983   5.016   7.309   2.569  1.0400  1.3089 -2.4222
13814SOL    HW241984   5.157   7.260   2.545  0.9080 -0.9377  0.7260
13815SOL     OW41985   1.535   7.202   6.836  0.1726 -0.3251  0.1548
13815SOL    HW141986   1.555   7.234   6.924 -1.0877 -1.0933  0.7513
13815SOL    HW241987   1.459   7.253   6.808  0.6915  0.0575 -0.5838
13816SOL     OW41988   5.514   6.825   7.451 -0.0402 -0.4633  0.1464
13816SOL    HW141989   5.547   6.882   7.521  2.4212 -0.8338 -0.5981
13816SOL    HW241990   5.472   6.884   7.389  1.7427  0.5242 -0.2015
13817SOL     OW41991   6.369   4.099   0.148 -0.2914 -0.4472  0.6901
13817SOL    HW141992   6.411   4.167   0.201 -2.2614  1.3937  0.0400
13817SOL    HW241993   6.279   4.096   0.181 -0.9622 -0.8161 -1.0805
13818SOL     OW41994   3.502   0.419   5.396 -1.0115 -0.0263  0.2105
13818SOL    HW141995   3.466   0.335   5.367 -1.3249  0.0090  0.4855
13818SOL    HW241996   3.513   0.470   5.316  2.3406 -1.4923 -0.4214
13819SOL     OW41997   1.077   5.615   3.283 -0.2163  0.3441  0.3190
13819SOL    HW141998   1.014   5.559   3.329  0.3764 -1.3773 -0.8578
13819SOL    HW241999   1.042   5.703   3.293 -2.5533 -0.4836  0.1836
13820SOL     OW42000   6.409   5.345   1.806  0.6957 -0.6124  0.1415
13820SOL    HW142001   6.330   5.384   1.844  0.4672 -2.0082  1.1481
13820SOL    HW242002   6.474   5.348   1.875  0.2454 -3.2698  0.7960
13821SOL     OW42003   5.095   4.601   3.694  0.1872 -0.1225 -0.3576
13821SOL    HW142004   5.126   4.639   3.612  0.6947 -1.2357 -0.7019
13821SOL    HW242005   5.000   4.613   3.693  0.2269  0.1416 -0.9567
13822SOL     OW42006   4.307   4.950   4.605 -0.4162 -0.3180  0.1109
13822SOL    HW142007   4.316   5.043   4.585  0.4664 -0.4838 -0.2988
13822SOL    HW242008   4.274   4.911   4.524  0.5905 -0.5717 -0.1944
13823SOL     OW42009   5.142   3.578   5.317  0.1124  0.5001 -0.0607
13823SOL    HW142010   5.104   3.567   5.404 -2.1786 -0.2690 -1.0796
13823SOL    HW242011   5.115   3.666   5.290  0.9141  0.7823  0.0448
13824SOL     OW42012   4.267   2.067   2.787  0.4073  0.1037 -0.0300
13824SOL    HW142013   4.293   2.027   2.870 -1.8012 -2.2274 -0.3387
13824SOL    HW242014   4.297   2.005   2.720 -1.5112 -0.2069 -0.6572
13825SOL     OW42015   5.365   2.843   4.641 -0.7010 -0.1698 -0.8548
13825SOL    HW142016   5.368   2.751   4.668 -0.3695  0.1422  0.2093
13825SOL    HW242017   5.282   2.875   4.675 -0.0411  0.3684  0.3059
13826SOL     OW42018   2.123   6.533   4.834 -0.3531  0.1955 -0.3567
13826SOL    HW142019   2.031   6.508   4.823 -1.3472  2.6814  1.4181
13826SOL    HW242020   2.157   6.470   4.897 -1.5345  0.5955  0.7351
13827SOL     OW42021   5.680   2.250   5.193  0.4271 -0.1876 -0.3690
13827SOL    HW142022   5.622   2.201   5.135  2.3340 -1.3490 -1.3893
13827SOL    HW242023   5.731   2.306   5.134  0.2566  0.9330  0.5176
13828SOL     OW42024   2.689   2.346   0.019  0.0369 -0.1981 -0.4368
13828SOL    HW142025   2.598   2.331   0.047  0.2180 -0.6811 -0.0906
13828SOL    HW242026   2.682   2.362  -0.075 -0.4939  0.6239 -0.2638
13829SOL     OW42027   6.886   3.739   4.994  0.1650 -0.2539 -0.2772
13829SOL    HW142028   6.886   3.829   5.027 -0.2168  0.0400 -1.0505
13829SOL    HW242029   6.901   3.685   5.072 -1.0502  0.3977  0.4587
13830SOL     OW42030   4.002   1.638   4.685 -0.0182  0.8896  0.4299
13830SOL    HW142031   4.075   1.694   4.712 -0.0628  0.7072  0.9243
13830SOL    HW242032   3.952   1.623   4.765 -0.4362  0.7721  0.1479
13831SOL     OW42033   3.527   3.865   7.278  0.0770 -0.0246 -0.2830
13831SOL    HW142034   3.563   3.903   7.198 -1.2289  0.8270 -0.5087
13831SOL    HW242035   3.511   3.940   7.336 -2.0692 -0.2088 -0.5307
13832SOL     OW42036   4.263   5.812   2.317 -0.1979 -0.1446  0.3867
13832SOL    HW142037   4.281   5.900   2.285 -2.4970 -0.2790 -1.4567
13832SOL    HW242038   4.205   5.825   2.392 -0.6897 -0.0867 -0.0016
13833SOL     OW42039   6.166   6.235   2.377 -0.3093 -0.8774 -0.4213
13833SOL    HW142040   6.251   6.249   2.336  0.4700  0.4009  1.5044
13833SOL    HW242041   6.186   6.193   2.460 -1.7377 -2.1679 -0.6670
13834SOL     OW42042   2.362   2.514   0.320 -0.3783  0.3507 -0.5262
13834SOL    HW142043   2.445   2.553   0.294  0.5558 -2.1044 -1.4969
13834SOL    HW242044   2.310   2.512   0.239 -0.0140 -1.2260 -0.7634
13835SOL     OW42045   4.923   0.996   3.977  0.4683  0.3371  1.0768
13835SOL    HW142046   4.903   1.088   3.959  1.3888  0.1015 -1.4959
13835SOL    HW242047   5.012   0.997   4.013  0.6346  0.4152  0.6609
13836SOL     OW42048   2.096   3.522   7.588 -0.0583  0.1198  0.3485
13836SOL    HW142049   2.085   3.605   7.636  1.0441  0.6487 -0.2515
13836SOL    HW242050   2.085   3.454   7.654 -2.1222  0.6838  0.6321
13837SOL     OW42051   6.556   0.145   0.486 -0.2518 -0.1500 -0.3336
13837SOL    HW142052   6.633   0.129   0.540 -0.4694 -1.7169 -0.4442
13837SOL    HW242053   6.503   0.206   0.538  0.2169 -0.4822  0.5620
13838SOL     OW42054   6.706   4.369   1.743 -0.2330  0.2518  0.1440
13838SOL    HW142055   6.685   4.303   1.677 -1.7570  0.2172  0.6318
13838SOL    HW242056   6.723   4.319   1.823 -1.9798  0.4393  0.6652
13839SOL     OW42057   3.906   3.861   1.759 -0.0096  0.3497 -0.3405
13839SOL    HW142058   3.951   3.806   1.696 -0.0127  1.2022 -1.1108
13839SOL    HW242059   3.841   3.804   1.800 -0.4552 -0.0595 -1.5842
13840SOL     OW42060   3.003   5.622   1.949  0.1071  0.1602 -0.0010
13840SOL    HW142061   3.029   5.670   2.027 -2.1717 -0.7062  1.3786
13840SOL    HW242062   3.036   5.675   1.876 -2.1274  3.8656  1.3997
13841SOL     OW42063   2.968   7.131   1.939  0.5445 -0.6311  0.2788
13841SOL    HW142064   3.031   7.093   1.877  1.3247 -0.7991  1.1575
13841SOL    HW242065   2.883   7.122   1.895  1.1217 -0.4298 -0.9103
13842SOL     OW42066   2.944   2.835   0.036 -0.7063  0.0151  0.2105
13842SOL    HW142067   2.962   2.895   0.108  0.5782 -1.4561  1.1767
13842SOL    HW242068   2.928   2.751   0.078 -0.4595 -0.7700 -1.2029
13843SOL     OW42069   0.877   0.932   0.940  0.2974 -0.1680 -0.0205
13843SOL    HW142070   0.844   0.855   0.988  1.9573 -0.1133  1.3107
13843SOL    HW242071   0.913   0.896   0.860 -0.1601 -0.6042 -0.0386
13844SOL     OW42072   2.420   7.163   6.818  0.6041 -0.0086 -0.2007
13844SOL    HW142073   2.424   7.205   6.904 -0.8293 -3.0101  1.4897
13844SOL    HW242074   2.327   7.157   6.798  0.9170  1.4426 -2.5123
13845SOL     OW42075   7.356   3.663   6.634 -0.0823  0.2952  0.1876
13845SOL    HW142076   7.326   3.666   6.725  0.5477  0.8982  0.3816
13845SOL    HW242077   7.337   3.573   6.606  0.0905 -0.0212  1.0463
13846SOL     OW42078   0.050   1.902   7.154  0.3761 -0.0425  0.5221
13846SOL    HW142079   0.008   1.880   7.237 -1.5984 -1.2877 -0.7179
13846SOL    HW242080   0.090   1.820   7.125 -1.1640 -0.3530 -0.9158
13847SOL     OW42081   3.623   3.950   7.019  0.4148 -0.3441 -0.3715
13847SOL    HW142082   3.661   4.029   6.979 -1.8592  0.2797 -1.4402
13847SOL    HW242083   3.678   3.878   6.987  2.2280  0.7234  0.2187
13848SOL     OW42084   6.975   1.005   2.999  0.1504  0.6908 -0.9447
13848SOL    HW142085   6.921   0.971   3.070  1.3644  2.3757  0.8930
13848SOL    HW242086   7.049   0.945   2.993 -0.3579  0.0960 -1.3722
13849SOL     OW42087   2.170   0.592   2.525 -0.4086  0.1024  0.5427
13849SOL    HW142088   2.142   0.647   2.452 -0.6408 -1.3478 -0.4840
13849SOL    HW242089   2.090   0.550   2.556 -0.0711 -0.5241  0.5881
13850SOL     OW42090   5.048   3.725   3.153  0.4954 -0.8758 -0.2038
13850SOL    HW142091   5.068   3.816   3.130 -0.3913 -0.3908  0.8201
13850SOL    HW242092   5.073   3.674   3.076  1.8273  0.1238 -0.4680
13851SOL     OW42093   5.913   0.378   1.100 -0.1687  0.2390 -0.0538
13851SOL    HW142094   5.872   0.464   1.110 -1.3727 -0.3439  0.3401
13851SOL    HW242095   5.991   0.382   1.154 -1.3810  0.3890  1.7918
13852SOL     OW42096   3.707   0.941   5.605 -0.4143  0.3530 -0.0991
13852SOL    HW142097   3.670   0.873   5.549 -4.8637  2.7646 -0.5645
13852SOL    HW242098   3.738   1.008   5.543  0.8877  0.2111  0.3721
13853SOL     OW42099   7.323   0.010   7.071  0.3409 -0.4350 -0.1294
13853SOL    HW142100   7.303   0.006   7.165  0.8803  0.8380  0.0572
13853SOL    HW242101   7.238  -0.006   7.029 -0.2717  0.7331  0.6036
13854SOL     OW42102   5.672   1.737   3.513 -0.2248 -0.0723  0.0761
13854SOL    HW142103   5.602   1.753   3.576  0.4183 -0.5527  0.9242
13854SOL    HW242104   5.686   1.823   3.472 -0.2941  0.3751  0.9565
13855SOL     OW42105   2.460   1.535   0.112 -0.0057 -0.6510  0.7623
13855SOL    HW142106   2.442   1.623   0.080  3.5101 -0.2095 -0.3719
13855SOL    HW242107   2.459   1.543   0.207 -0.7710  0.3230  0.6943
13856SOL     OW42108   4.372   6.307   1.767  0.5088 -0.2512  0.3371
13856SOL    HW142109   4.420   6.365   1.826 -0.2536  3.1309 -2.0180
13856SOL    HW242110   4.428   6.297   1.691  0.5777 -2.7156  0.6336
13857SOL     OW42111   7.372   3.741   0.534 -0.4422 -0.3807 -0.4758
13857SOL    HW142112   7.298   3.790   0.500 -1.0908 -1.5010 -0.7118
13857SOL    HW242113   7.364   3.654   0.495  1.0835 -0.4826 -0.6246
13858SOL     OW42114   3.675   4.835   2.189  0.0624  0.5920  0.1833
13858SOL    HW142115   3.646   4.919   2.155 -1.4916  0.0486  0.1050
13858SOL    HW242116   3.597   4.781   2.190  1.1919 -1.1423 -0.5758
13859SOL     OW42117   3.946   5.887   1.134 -0.2389  0.0707  0.3134
13859SOL    HW142118   3.953   5.907   1.041  0.6464 -2.4354 -0.2416
13859SOL    HW242119   4.028   5.921   1.172 -1.2745  2.5082  0.5637
13860SOL     OW42120   1.054   0.648   1.822 -0.3093  0.4516  0.1581
13860SOL    HW142121   1.124   0.712   1.809 -1.7658  1.9586 -0.6354
13860SOL    HW242122   0.982   0.698   1.860 -1.6457 -0.6009 -0.8625
13861SOL     OW42123   7.100   3.296   0.291  0.0719  0.4941  0.4144
13861SOL    HW142124   7.119   3.370   0.233  0.9219 -0.3214 -0.3783
13861SOL    HW242125   7.028   3.250   0.248  1.4553 -0.7672 -0.6637
13862SOL     OW42126   3.168   1.749   6.358 -0.4869  0.2536 -0.2380
13862SOL    HW142127   3.259   1.774   6.375 -0.0464 -2.1318  1.3005
13862SOL    HW242128   3.125   1.758   6.443 -1.3225 -0.1016 -0.6214
13863SOL     OW42129   6.145   5.801   1.083 -0.4857 -0.0657 -0.2393
13863SOL    HW142130   6.227   5.841   1.114 -0.4234  0.2157 -0.7675
13863SOL    HW242131   6.080   5.826   1.149  0.0005 -0.9158  0.5838
13864SOL     OW42132   5.746   2.107   3.812  0.2196 -0.3607  0.1500
13864SOL    HW142133   5.667   2.061   3.841 -0.9224  0.2944 -1.7351
13864SOL    HW242134   5.816   2.041   3.819 -0.8407 -1.5284  0.1494
13865SOL     OW42135   1.907   0.448   4.205 -0.4820  0.7072 -0.5451
13865SOL    HW142136   1.931   0.421   4.117 -1.4646  0.1161 -0.6489
13865SOL    HW242137   1.832   0.394   4.227  0.6970 -0.3076  1.2746
13866SOL     OW42138   6.910   5.000   5.402 -0.4641 -0.1501 -0.4939
13866SOL    HW142139   6.909   4.990   5.498  0.7627  0.0757 -0.4424
13866SOL    HW242140   6.848   5.070   5.385  1.3064  1.7365  0.4091
13867SOL     OW42141   2.697   6.817   4.263  0.5670  0.4036  0.5358
13867SOL    HW142142   2.624   6.879   4.266 -1.3410 -1.7444  1.2537
13867SOL    HW242143   2.733   6.828   4.176 -1.6905  0.4023 -0.4744
13868SOL     OW42144   1.675   2.463   7.211 -0.3537 -0.4196  0.4201
13868SOL    HW142145   1.770   2.449   7.203 -0.3255  0.5908 -2.2479
13868SOL    HW242146   1.636   2.388   7.166 -0.6350  0.7130 -1.3589
13869SOL     OW42147   7.088   5.942   2.117 -0.3014 -0.0523  0.7197
13869SOL    HW142148   7.125   5.867   2.163  1.2510 -0.0004 -0.3522
13869SOL    HW242149   7.163   5.980   2.070 -1.7877 -0.2704 -2.0350
13870SOL     OW42150   4.784   5.275   3.581 -0.1235 -0.1267 -0.7151
13870SOL    HW142151   4.791   5.186   3.617 -1.7261  0.1222  0.2830
13870SOL    HW242152   4.875   5.304   3.572  0.3878 -1.2811  0.4177
13871SOL     OW42153   7.583   1.804   1.951 -0.4324 -0.1210  0.3573
13871SOL    HW142154   7.543   1.733   1.902 -1.1897  0.0577  0.7089
13871SOL    HW242155   7.533   1.882   1.925  0.0208  0.1932  0.4112
13872SOL     OW42156   0.680   7.042   5.549 -0.1748 -0.4896  0.4318
13872SOL    HW142157   0.685   7.058   5.454  0.1082  0.9581  0.6840
13872SOL    HW242158   0.643   7.122   5.585  2.1537  0.0366  1.8381
13873SOL     OW42159   2.217   5.094   3.685 -0.4946  0.3777  0.1098
13873SOL    HW142160   2.265   5.058   3.611 -0.1390 -1.4915  1.1760
13873SOL    HW242161   2.266   5.173   3.710  0.3500  0.0845 -0.5811
13874SOL     OW42162   7.397   0.959   5.900  0.3530 -0.0027  0.2352
13874SOL    HW142163   7.398   0.991   5.810  0.0359  0.4522  0.3877
13874SOL    HW242164   7.451   1.021   5.949  2.3698 -1.4622 -0.0099
13875SOL     OW42165   2.993   1.817   0.258  0.2828  0.1089  0.5955
13875SOL    HW142166   2.998   1.913   0.258  1.1840  0.1020  2.5407
13875SOL    HW242167   2.900   1.799   0.274  0.3460  0.6922  1.7205
13876SOL     OW42168   7.039   1.763   6.765  0.0800  0.1039 -0.3144
13876SOL    HW142169   7.007   1.720   6.844 -0.1012  1.8547  0.6133
13876SOL    HW242170   6.963   1.766   6.707 -0.1936  0.1479  0.0428
13877SOL     OW42171   4.387   7.621   1.867 -0.1314  0.1059  0.2234
13877SOL    HW142172   4.332   7.583   1.935  0.9907 -0.4263  0.8530
13877SOL    HW242173   4.474   7.626   1.906 -0.0705  2.7130 -0.0560
13878SOL     OW42174   5.345   0.882   3.547  0.1540 -0.5242  0.1732
13878SOL    HW142175   5.400   0.949   3.588 -0.3653 -0.6227  1.0666
13878SOL    HW242176   5.286   0.932   3.489  1.2955 -0.4422 -0.9664
13879SOL     OW42177   2.042   5.767   6.541  0.1860  0.0684 -0.0791
13879SOL    HW142178   2.043   5.671   6.539  1.5462  0.0728 -0.5246
13879SOL    HW242179   1.954   5.790   6.512  0.4481 -1.0405 -1.9677
13880SOL     OW42180   3.245   5.463   5.691 -0.2487  0.4332  0.0069
13880SOL    HW142181   3.249   5.547   5.737  0.5692 -0.2110  1.1602
13880SOL    HW242182   3.300   5.475   5.613 -1.2111  1.3657 -0.5577
13881SOL     OW42183   2.630   3.963   5.029  0.2897  0.4594 -0.5584
13881SOL    HW142184   2.700   4.027   5.019  0.7820 -0.1397 -0.9634
13881SOL    HW242185   2.674   3.880   5.045 -0.3565  0.3418  0.8123
13882SOL     OW42186   4.249   2.219   3.091  0.0202 -0.2836  0.0123
13882SOL    HW142187   4.253   2.277   3.167  0.8592  0.6797 -0.7463
13882SOL    HW242188   4.166   2.242   3.048  1.1006  1.6204 -1.2162
13883SOL     OW42189   5.927   4.852   6.077  0.1267  0.5206 -0.6691
13883SOL    HW142190   5.864   4.921   6.057 -0.1255  0.2781 -0.7267
13883SOL    HW242191   5.944   4.809   5.993  0.2049  0.4493 -0.6173
13884SOL     OW42192   7.179   2.509   6.248  0.4452  0.5407  0.4002
13884SOL    HW142193   7.212   2.598   6.235  0.2688  0.2801 -2.3890
13884SOL    HW242194   7.198   2.464   6.166 -0.5444 -1.6683  1.3100
13885SOL     OW42195   1.992   5.208   1.260  0.0479 -0.5239 -0.3190
13885SOL    HW142196   1.950   5.199   1.175 -0.7981 -0.8334  0.1145
13885SOL    HW242197   1.999   5.118   1.293  3.3608 -0.8044 -1.4181
13886SOL     OW42198   6.982   2.903   0.011  0.2049  0.7291 -0.2770
13886SOL    HW142199   6.998   2.907   0.105 -0.2618 -0.0561 -0.1540
13886SOL    HW242200   6.908   2.843   0.002 -0.7741  2.0026 -1.0338
13887SOL     OW42201   4.643   2.681   1.920 -0.1074  0.1894  0.5687
13887SOL    HW142202   4.708   2.656   1.855  0.6276  0.2083  1.2753
13887SOL    HW242203   4.655   2.775   1.931  0.3460  0.0551  1.3188
13888SOL     OW42204   0.399   5.158   5.934 -0.0555 -0.6025 -0.2030
13888SOL    HW142205   0.435   5.216   6.001 -1.6809  0.3858 -0.1374
13888SOL    HW242206   0.454   5.172   5.857 -0.3056  0.9079 -0.1324
13889SOL     OW42207   7.325   3.381   2.397 -0.5843 -0.1416  0.6925
13889SOL    HW142208   7.234   3.393   2.424 -0.9463 -0.1937 -0.4756
13889SOL    HW242209   7.329   3.415   2.308  1.1137  2.0605  1.5372
13890SOL     OW42210   3.274   0.199   6.140  0.1478  0.3357 -0.1955
13890SOL    HW142211   3.219   0.146   6.082 -0.5587  0.3876  0.4012
13890SOL    HW242212   3.348   0.225   6.086  0.7377 -1.6024 -0.3969
13891SOL     OW42213   3.555   5.780   1.943 -0.5327  0.0926 -0.2588
13891SOL    HW142214   3.508   5.793   2.025 -0.9935  0.0605 -0.5167
13891SOL    HW242215   3.591   5.867   1.923 -0.1010  0.0161  0.1668
13892SOL     OW42216   3.858   3.637   7.223 -0.4485  0.5398  0.0181
13892SOL    HW142217   3.805   3.661   7.299  0.5425 -0.4222  1.0695
13892SOL    HW242218   3.949   3.646   7.253  0.0954 -4.2119  0.6336
13893SOL     OW42219   3.948   3.894   5.293 -0.1322 -0.1121  0.2607
13893SOL    HW142220   3.873   3.892   5.233  0.0376 -2.6008  0.0264
13893SOL    HW242221   3.924   3.959   5.359 -3.0753 -1.6519  0.8904
13894SOL     OW42222   0.625   7.499   0.333  0.4055 -0.0238 -0.8857
13894SOL    HW142223   0.570   7.569   0.366  0.2497 -0.2474 -0.6694
13894SOL    HW242224   0.680   7.541   0.267  0.7321  0.4292 -0.3323
13895SOL     OW42225   1.887   0.344   1.144 -0.7002 -0.4003 -0.7408
13895SOL    HW142226   1.951   0.275   1.124 -0.5016 -0.2714 -0.5605
13895SOL    HW242227   1.867   0.383   1.060  1.4345  1.2871 -0.5684
13896SOL     OW42228   0.372   5.553   5.145  0.4106  0.6119  0.4003
13896SOL    HW142229   0.451   5.588   5.186  1.6357 -1.0876 -0.3713
13896SOL    HW242230   0.359   5.468   5.187 -0.4066  0.4177 -0.2180
13897SOL     OW42231   2.257   2.075   6.858 -0.2999 -0.7474  0.2103
13897SOL    HW142232   2.255   2.120   6.942  2.1079  1.1856 -0.6303
13897SOL    HW242233   2.344   2.095   6.823 -1.4448 -0.9231 -3.0385
13898SOL     OW42234   6.068   2.635   4.165 -0.6462  0.1503 -0.4904
13898SOL    HW142235   6.122   2.659   4.241  0.8031  2.6826 -2.1868
13898SOL    HW242236   6.132   2.616   4.096 -1.9422 -1.2352 -1.3593
13899SOL     OW42237   3.755   2.061   7.175 -0.1631  0.0877  0.0820
13899SOL    HW142238   3.767   2.084   7.083 -0.1744  0.8576  0.2623
13899SOL    HW242239   3.733   1.968   7.174  1.2876 -0.2624 -0.5801
13900SOL     OW42240   2.385   1.494   0.922 -0.1328 -0.1677  0.1528
13900SOL    HW142241   2.348   1.534   1.002 -1.2873 -0.3596 -0.2682
13900SOL    HW242242   2.324   1.424   0.900 -0.8384  0.9919 -1.8894
13901SOL     OW42243   6.388   2.369   0.423  0.2633  0.2519 -0.2401
13901SOL    HW142244   6.454   2.410   0.367  0.2819  0.7300  0.1241
13901SOL    HW242245   6.414   2.394   0.512 -0.5699  0.6810 -0.1120
13902SOL     OW42246   3.682   1.705   6.285 -0.2413 -0.8277 -0.6402
13902SOL    HW142247   3.752   1.692   6.349  0.4277 -0.9281 -1.3721
13902SOL    HW242248   3.671   1.800   6.280 -0.3759 -0.8236 -0.3000
13903SOL     OW42249   5.445   6.996   1.863  0.0507  0.4913  0.6097
13903SOL    HW142250   5.430   6.907   1.832  0.1985 -0.4250  2.9732
13903SOL    HW242251   5.501   6.986   1.940 -1.4957  2.4213  2.1212
13904SOL     OW42252   3.218   0.047   7.076  0.1694 -0.0239 -0.7801
13904SOL    HW142253   3.294   0.045   7.135  0.2900 -0.0469 -0.9374
13904SOL    HW242254   3.153   0.098   7.124 -1.3436 -3.5459  1.3201
13905SOL     OW42255   1.641   3.921   4.424  0.1986 -0.3136 -0.0188
13905SOL    HW142256   1.590   4.001   4.409  0.1988  0.6033  3.8341
13905SOL    HW242257   1.592   3.852   4.380 -1.4719  1.3548 -0.8948
13906SOL     OW42258   6.209   3.899   2.517  0.2300  0.0944 -0.0981
13906SOL    HW142259   6.160   3.979   2.501 -0.3673 -0.0938  0.7069
13906SOL    HW242260   6.300   3.927   2.521  0.0158  0.7600  0.2905
13907SOL     OW42261   3.216   7.296   1.667 -0.8187 -0.0785 -0.2357
13907SOL    HW142262   3.127   7.312   1.638 -0.9986  0.9878  0.8760
13907SOL    HW242263   3.212   7.213   1.714 -1.4184  0.4393  0.6364
13908SOL     OW42264   4.820   3.383   5.413  0.4840 -0.0014  0.2900
13908SOL    HW142265   4.822   3.424   5.500  1.7108 -0.7948  0.6483
13908SOL    HW242266   4.889   3.318   5.415  0.2907 -0.2856 -1.1780
13909SOL     OW42267   2.151   0.332   5.526 -0.5145 -0.2187 -0.1072
13909SOL    HW142268   2.181   0.301   5.611 -0.6306 -1.2803 -0.4311
13909SOL    HW242269   2.207   0.287   5.463  0.5254  1.6395 -0.5692
13910SOL     OW42270   3.460   6.400   1.650 -0.3476  0.0141  0.1319
13910SOL    HW142271   3.369   6.401   1.680 -0.7137  2.0833 -0.8277
13910SOL    HW242272   3.463   6.330   1.584 -1.8938  1.3174 -1.4364
13911SOL     OW42273   6.162   4.755   1.835 -0.3916  0.1392 -0.0684
13911SOL    HW142274   6.074   4.792   1.840 -0.0583  0.8041  1.2420
13911SOL    HW242275   6.219   4.825   1.867  0.6399 -0.2428 -1.0069
13912SOL     OW42276   5.365   6.398   4.227 -0.0070 -0.1604  0.5933
13912SOL    HW142277   5.282   6.368   4.192  0.3702 -1.4473  0.7506
13912SOL    HW242278   5.430   6.341   4.187  0.7711  0.5817  0.7666
13913SOL     OW42279   3.722   6.390   2.413 -0.6931  0.6541 -0.3117
13913SOL    HW142280   3.768   6.472   2.394  1.1793 -0.4434 -0.7862
13913SOL    HW242281   3.760   6.326   2.352 -2.3726 -0.5113 -0.2202
13914SOL     OW42282   3.657   1.446   2.254  0.1660 -0.1367  0.0218
13914SOL    HW142283   3.662   1.498   2.334  2.6921 -3.5558  2.4039
13914SOL    HW242284   3.572   1.402   2.259 -0.6958  1.3869 -0.4984
13915SOL     OW42285   0.947   5.092   3.635  0.1676 -0.4398  0.3675
13915SOL    HW142286   0.910   5.122   3.552  1.2194 -0.5332 -0.1616
13915SOL    HW242287   0.950   4.996   3.627 -1.2591 -0.5772  1.2044
13916SOL     OW42288   7.588   4.366   1.554  0.2462 -0.3049  0.2232
13916SOL    HW142289   7.571   4.403   1.641  0.8211  0.5685 -0.0234
13916SOL    HW242290   7.672   4.322   1.563  0.6968  0.4834 -0.0978
13917SOL     OW42291   1.812   3.920   6.886  0.1869  0.8205  0.0554
13917SOL    HW142292   1.723   3.906   6.854 -0.4788 -2.6495  2.7648
13917SOL    HW242293   1.858   3.839   6.866  1.3724  0.7951  2.4674
13918SOL     OW42294   4.151   0.393   5.900 -0.4313  0.2363  0.0161
13918SOL    HW142295   4.189   0.321   5.848 -1.3242  0.5352 -1.0900
13918SOL    HW242296   4.208   0.467   5.882 -0.3869  0.1852 -0.0568
13919SOL     OW42297   6.745   5.553   0.985 -0.1771  0.0914  0.4008
13919SOL    HW142298   6.786   5.637   0.962 -0.9378  0.6182  0.9191
13919SOL    HW242299   6.751   5.501   0.905 -0.9411  1.1514 -0.3857
13920SOL     OW42300   5.615   6.666   3.217 -0.0925  0.3765 -0.2385
13920SOL    HW142301   5.559   6.669   3.294 -0.2061 -0.1999 -0.2963
13920SOL    HW242302   5.554   6.663   3.143  0.0155  0.9065 -0.3551
13921SOL     OW42303   6.897   3.163   0.157 -0.4614 -0.0592  0.1063
13921SOL    HW142304   6.936   3.077   0.149 -0.9710 -0.3468  0.6267
13921SOL    HW242305   6.880   3.191   0.067  1.6798  0.4295 -0.1775
13922SOL     OW42306   0.313   7.043   0.744  0.1859  0.0567 -0.1129
13922SOL    HW142307   0.253   7.117   0.739  0.1228  0.1161  1.2364
13922SOL    HW242308   0.293   6.991   0.666 -0.3157  1.0448 -0.6561
13923SOL     OW42309   1.387   4.201   7.035 -0.4232  0.5868  0.0461
13923SOL    HW142310   1.318   4.266   7.052  0.6519  1.6277  0.6589
13923SOL    HW242311   1.349   4.118   7.060 -2.1462  0.8338 -1.5762
13924SOL     OW42312   1.251   6.332   6.123 -0.3277  0.1436  0.4257
13924SOL    HW142313   1.332   6.379   6.105  0.2182 -0.5437  1.0089
13924SOL    HW242314   1.243   6.335   6.219  0.0938 -1.5180  0.5447
13925SOL     OW42315   0.991   3.767   6.852 -0.0945  0.0510  0.2424
13925SOL    HW142316   1.017   3.792   6.764  1.5429  0.8823  0.9266
13925SOL    HW242317   0.922   3.828   6.875 -0.0886  0.2337 -0.2229
13926SOL     OW42318   6.287   1.268   2.334 -0.5844  0.0379  0.1422
13926SOL    HW142319   6.348   1.302   2.270 -2.9451 -2.0667 -3.5710
13926SOL    HW242320   6.253   1.346   2.379  0.3384  1.7829 -2.0080
13927SOL     OW42321   7.547   7.488   6.349  0.1665  0.1349  0.0741
13927SOL    HW142322   7.622   7.496   6.290 -1.5336  2.0466 -2.0347
13927SOL    HW242323   7.492   7.421   6.309  0.0752 -0.2270  0.7968
13928SOL     OW42324   6.255   5.888   2.820  0.0331  0.4976  0.2576
13928SOL    HW142325   6.205   5.822   2.772  1.0264 -0.1666  0.1093
13928SOL    HW242326   6.346   5.861   2.811  0.4593  1.8602  0.2638
13929SOL     OW42327   4.779   2.969   2.388 -0.3410 -0.2078  0.2125
13929SOL    HW142328   4.773   2.874   2.399 -1.9403 -0.3239 -1.2863
13929SOL    HW242329   4.714   3.005   2.448  0.9666  0.0503  1.5381
13930SOL     OW42330   1.196   3.940   6.442 -0.0970 -0.0690 -0.2793
13930SOL    HW142331   1.281   3.913   6.407  0.0208  0.5929 -0.5053
13930SOL    HW242332   1.143   3.961   6.365 -0.1820  0.3671 -0.1053
13931SOL     OW42333   4.806   2.821   4.016 -0.7463 -0.0994 -0.0887
13931SOL    HW142334   4.810   2.725   4.017 -0.7390 -0.1032 -0.5262
13931SOL    HW242335   4.832   2.846   4.104  0.1752 -0.4650 -0.2470
13932SOL     OW42336   0.396   0.070   4.697 -0.1411  0.3867  0.4859
13932SOL    HW142337   0.309   0.081   4.659  0.2062  0.5104 -0.2905
13932SOL    HW242338   0.399   0.133   4.769 -1.8526 -1.8213  2.6697
13933SOL     OW42339   5.618   7.322   0.330  0.2263 -0.1971  0.4178
13933SOL    HW142340   5.700   7.277   0.308 -0.7867 -1.7747 -0.3161
13933SOL    HW242341   5.600   7.296   0.420  0.6050  0.3169  0.6522
13934SOL     OW42342   4.601   5.218   4.367  0.2921 -0.0391  0.4104
13934SOL    HW142343   4.667   5.160   4.406  1.4343  1.9035  1.5360
13934SOL    HW242344   4.517   5.179   4.392  1.0021 -1.3032  0.9585
13935SOL     OW42345   1.236   4.434   2.304  0.3500  0.3132 -0.0074
13935SOL    HW142346   1.150   4.394   2.293 -0.3004  1.2291  1.3816
13935SOL    HW242347   1.254   4.477   2.221 -0.4482 -0.0382 -0.3736
13936SOL     OW42348   1.042   3.796   3.497 -0.0095  0.0723 -0.0818
13936SOL    HW142349   1.008   3.778   3.584  1.0036 -0.9379  0.1211
13936SOL    HW242350   1.069   3.888   3.500 -1.0114  0.3652  0.2997
13937SOL     OW42351   1.817   7.457   1.668  0.0962 -0.4837  0.8213
13937SOL    HW142352   1.798   7.363   1.673 -1.3888 -0.1903  1.2110
13937SOL    HW242353   1.732   7.499   1.683  0.8774  0.9389  1.4521
13938SOL     OW42354   1.138   5.268   3.404  0.1904 -0.3511  0.3132
13938SOL    HW142355   1.195   5.303   3.335 -0.5312 -0.9495 -0.5991
13938SOL    HW242356   1.093   5.346   3.438  0.3495 -0.0849 -0.0717
13939SOL     OW42357   4.449   7.497   6.370 -0.2101 -0.4277  0.1416
13939SOL    HW142358   4.519   7.493   6.305 -1.2886 -1.3867 -0.9900
13939SOL    HW242359   4.438   7.406   6.400 -1.0164 -0.3056  0.2469
13940SOL     OW42360   4.557   5.448   5.318 -0.0163  0.3322  0.1851
13940SOL    HW142361   4.578   5.356   5.301 -0.9040  0.3101 -0.9408
13940SOL    HW242362   4.482   5.445   5.378  1.1408  0.3702  1.6820
13941SOL     OW42363   5.445   5.051   4.548  0.3236  0.5435  0.7445
13941SOL    HW142364   5.475   5.138   4.577  1.0876  0.8600 -0.9081
13941SOL    HW242365   5.353   5.048   4.575  0.4104  1.6686  1.2422
13942SOL     OW42366   6.160   6.730   1.105  0.0783  0.0841  0.1577
13942SOL    HW142367   6.177   6.767   1.192  0.8901 -0.9730  0.4614
13942SOL    HW242368   6.246   6.723   1.064 -0.0720 -1.2808  0.0422
13943SOL     OW42369   7.589   0.168   1.174 -0.3713 -0.3855  0.5447
13943SOL    HW142370   7.614   0.085   1.213  2.2523  0.2146  0.3035
13943SOL    HW242371   7.591   0.152   1.080  0.8506  0.0951  0.4728
13944SOL     OW42372   1.385   4.338   2.011 -0.0922  0.4619 -0.1765
13944SOL    HW142373   1.328   4.415   2.024  0.7852  1.7558 -3.1757
13944SOL    HW242374   1.470   4.366   2.044 -0.1130  0.2364  0.0659
13945SOL     OW42375   6.878   7.215   3.548 -0.2471 -0.2174  0.1330
13945SOL    HW142376   6.850   7.169   3.469 -1.4779  0.9625 -0.1781
13945SOL    HW242377   6.957   7.170   3.577 -0.9497 -1.9676 -0.5879
13946SOL     OW42378   4.780   0.311   3.268 -0.2959 -0.1524  0.4320
13946SOL    HW142379   4.747   0.336   3.354  1.5220  1.8303  0.6468
13946SOL    HW242380   4.875   0.320   3.275  0.1586 -2.6582 -1.0124
13947SOL     OW42381   6.166   3.779   3.477 -0.6454  0.3029  0.1496
13947SOL    HW142382   6.170   3.717   3.549  1.1899  0.1146 -0.0753
13947SOL    HW242383   6.179   3.726   3.398 -3.9684  0.2732 -0.5615
13948SOL     OW42384   3.462   7.392   4.003  0.0891  0.2248  0.1660
13948SOL    HW142385   3.383   7.365   4.050 -0.6160  2.0582  0.1099
13948SOL    HW242386   3.490   7.471   4.049  0.8443  0.6205 -0.9498
13949SOL     OW42387   0.164   5.960   2.918 -0.2960  0.3094  0.0612
13949SOL    HW142388   0.152   5.885   2.860  0.8859 -0.2172  0.4644
13949SOL    HW242389   0.128   6.034   2.869  0.2214 -0.2038 -1.1478
13950SOL     OW42390   5.384   6.210   3.388 -0.0429  0.6190 -0.6033
13950SOL    HW142391   5.370   6.214   3.483 -0.0875  2.2810 -0.6428
13950SOL    HW242392   5.399   6.301   3.363  1.7418  0.0158 -1.9357
13951SOL     OW42393   3.795   7.095   2.872 -0.5001 -0.1627 -0.6333
13951SOL    HW142394   3.781   7.038   2.796  0.2745 -1.9153  0.4816
13951SOL    HW242395   3.708   7.121   2.900 -1.0588 -2.7010  0.1910
13952SOL     OW42396   2.583   3.372   0.011  0.0358  0.5138 -0.7190
13952SOL    HW142397   2.560   3.445   0.069  0.1168  0.9812 -1.2701
13952SOL    HW242398   2.499   3.331  -0.010  0.1334 -0.7887  1.1594
13953SOL     OW42399   0.995   5.404   6.072  0.7987 -0.0960 -0.2240
13953SOL    HW142400   1.045   5.485   6.058  1.5008 -0.6303 -0.9028
13953SOL    HW242401   0.914   5.433   6.114  1.6908  0.7864  0.9389
13954SOL     OW42402   7.571   6.326   0.679  0.0927 -0.0145  0.7742
13954SOL    HW142403   7.516   6.248   0.674 -0.2377  0.1156  1.9991
13954SOL    HW242404   7.601   6.340   0.590  0.1604 -1.5471  0.5249
13955SOL     OW42405   6.131   3.726   0.084  0.9175  0.1497 -0.5091
13955SOL    HW142406   6.146   3.752  -0.007  0.3347  1.7981 -0.1591
13955SOL    HW242407   6.218   3.702   0.117  1.2939  0.5218 -1.2151
13956SOL     OW42408   0.769   0.077   5.845  0.3607 -0.1250  0.0194
13956SOL    HW142409   0.801   0.115   5.927  1.0587 -1.2483  0.2818
13956SOL    HW242410   0.674   0.088   5.849  0.4329  0.3054  0.7294
13957SOL     OW42411   6.705   7.427   0.732  0.2077 -0.2062 -0.0608
13957SOL    HW142412   6.756   7.351   0.703  2.2451  0.8610  0.5813
13957SOL    HW242413   6.732   7.498   0.673 -0.6278  0.3646  0.2310
13958SOL     OW42414   0.648   2.201   3.065 -0.0148  0.0294  0.1227
13958SOL    HW142415   0.565   2.153   3.072  0.2618 -0.6746 -1.1364
13958SOL    HW242416   0.713   2.143   3.106  0.1378 -0.1873 -0.4222
13959SOL     OW42417   3.209   0.919   1.174  0.5603  0.1293 -0.2865
13959SOL    HW142418   3.179   0.848   1.117 -0.0528  0.7131 -0.6895
13959SOL    HW242419   3.188   0.887   1.263 -0.0842 -0.0247 -0.4860
13960SOL     OW42420   4.865   2.270   4.047  0.5071 -1.0219 -0.2944
13960SOL    HW142421   4.844   2.225   3.966 -1.1697 -0.2791 -0.3145
13960SOL    HW242422   4.873   2.199   4.112 -2.2415 -1.4451 -0.2860
13961SOL     OW42423   6.131   4.683   2.800  0.3084  0.5461 -0.1375
13961SOL    HW142424   6.049   4.662   2.845  0.3473 -0.7970 -0.6438
13961SOL    HW242425   6.185   4.727   2.866  0.3354 -1.2957  1.1148
13962SOL     OW42426   4.729   0.539   1.373 -0.4397 -0.0705 -0.3159
13962SOL    HW142427   4.679   0.538   1.292 -1.4147  0.0433  0.2662
13962SOL    HW242428   4.733   0.631   1.398  1.1749  0.0715 -1.0101
13963SOL     OW42429   4.592   2.739   7.004 -0.0138 -0.5850  0.1497
13963SOL    HW142430   4.651   2.693   6.945  0.0805 -1.0891  0.6369
13963SOL    HW242431   4.607   2.700   7.089 -0.3211 -0.0177  0.4704
13964SOL     OW42432   1.530   1.287   2.048 -0.3901  0.6072 -0.4441
13964SOL    HW142433   1.577   1.279   2.131  2.6406 -1.3551 -2.1753
13964SOL    HW242434   1.560   1.369   2.011 -0.7004  0.8225 -0.2262
13965SOL     OW42435   1.905   7.070   1.321  0.5003  0.3189  0.2404
13965SOL    HW142436   1.826   7.117   1.346  0.8204  0.4764  0.9610
13965SOL    HW242437   1.955   7.061   1.402  1.9088  1.5178 -0.4486
13966SOL     OW42438   2.115   5.724   7.403  0.0231  0.3541 -0.0441
13966SOL    HW142439   2.064   5.804   7.415  0.3019  0.5566 -0.1956
13966SOL    HW242440   2.062   5.670   7.344 -1.0935 -0.4094  1.5507
13967SOL     OW42441   1.718   3.224   0.101 -0.4804  0.2803 -0.3266
13967SOL    HW142442   1.755   3.207   0.187 -2.0071  1.7865  0.6931
13967SOL    HW242443   1.791   3.213   0.040  0.7718 -0.2225  1.2135
13968SOL     OW42444   7.321   4.985   5.562 -0.4092 -0.6050 -0.0950
13968SOL    HW142445   7.382   5.005   5.633 -1.8488  1.5575  0.6407
13968SOL    HW242446   7.234   4.999   5.601 -1.2861 -0.4572 -1.9839
13969SOL     OW42447   4.273   1.635   5.092  0.1172 -0.2147 -0.1175
13969SOL    HW142448   4.203   1.686   5.050 -0.9314 -0.5255  1.1620
13969SOL    HW242449   4.293   1.684   5.171 -0.4144 -1.3927  0.7753
13970SOL     OW42450   3.801   4.928   5.445  0.1472  0.3891  0.1833
13970SOL    HW142451   3.778   4.954   5.356 -0.2346  0.9386  0.4338
13970SOL    HW242452   3.892   4.898   5.439 -0.9732 -3.1877 -1.0973
13971SOL     OW42453   3.576   5.490   4.421 -0.5260  0.1663 -0.1379
13971SOL    HW142454   3.583   5.423   4.353 -1.6643  0.4822 -0.5987
13971SOL    HW242455   3.615   5.568   4.380  1.4063 -0.3526  0.6400
13972SOL     OW42456   6.196   5.861   5.809  0.6126 -0.4950  0.2877
13972SOL    HW142457   6.179   5.941   5.760  4.2067  0.0831 -0.3293
13972SOL    HW242458   6.224   5.798   5.743  0.2386 -1.4552  1.0301
13973SOL     OW42459   5.219   5.688   5.942 -0.3506 -0.3943  0.3619
13973SOL    HW142460   5.302   5.654   5.907 -1.1227 -0.8582 -1.1075
13973SOL    HW242461   5.227   5.783   5.935  0.2337 -0.4129  0.6868
13974SOL     OW42462   2.854   5.061   6.483 -0.0225  0.1565 -0.6648
13974SOL    HW142463   2.797   5.138   6.483 -1.7189 -0.9579 -2.8337
13974SOL    HW242464   2.930   5.087   6.431  0.5773  1.0600  0.6225
13975SOL     OW42465   7.227   1.596   0.046  0.3602  0.0518 -0.3290
13975SOL    HW142466   7.313   1.628   0.019  0.9881 -1.0488  0.2723
13975SOL    HW242467   7.167   1.668   0.027  1.5421  1.1523 -0.0150
13976SOL     OW42468   0.087   0.009   3.534  0.6753  0.5866  0.0190
13976SOL    HW142469   0.080   0.059   3.453 -0.2646  1.6715  0.7429
13976SOL    HW242470   0.079  -0.083   3.507 -1.1928  0.9977 -0.9534
13977SOL     OW42471   3.522   5.258   0.737  0.4001  0.1316 -0.0008
13977SOL    HW142472   3.585   5.292   0.801 -0.8624 -1.7549  2.4280
13977SOL    HW242473   3.476   5.189   0.784 -3.5097  1.3827 -1.6251
13978SOL     OW42474   1.927   7.034   4.108 -0.2691 -0.2427 -0.1019
13978SOL    HW142475   1.950   7.029   4.200 -1.7615  0.0931  0.3086
13978SOL    HW242476   2.010   7.016   4.062  0.7934  0.9120  1.2669
13979SOL     OW42477   7.241   7.439   2.468  0.5452  0.0561  0.7856
13979SOL    HW142478   7.253   7.392   2.551 -0.5115  1.2058  1.6230
13979SOL    HW242479   7.204   7.524   2.493 -2.5417 -0.6055 -1.0333
13980SOL     OW42480   4.869   2.197   3.770 -0.3720 -0.1857  0.2538
13980SOL    HW142481   4.833   2.128   3.714 -0.0526 -0.4616  0.3864
13980SOL    HW242482   4.956   2.214   3.734 -0.8081  0.8194 -0.3631
13981SOL     OW42483   1.156   4.964   2.062 -0.4721 -0.1169 -0.5159
13981SOL    HW142484   1.147   5.027   2.133  1.6517 -0.9905  0.6182
13981SOL    HW242485   1.242   4.982   2.024 -0.3469 -1.5176 -0.9556
13982SOL     OW42486   1.479   5.813   5.493 -0.1751  0.2633  0.1426
13982SOL    HW142487   1.450   5.897   5.529 -0.1974  1.3100 -2.1818
13982SOL    HW242488   1.403   5.779   5.446  0.7625  0.4929 -1.5907
13983SOL     OW42489   2.796   5.954   0.061  0.1129 -0.1717  0.1325
13983SOL    HW142490   2.885   5.919   0.060  0.2150  0.0859  0.1132
13983SOL    HW242491   2.753   5.912  -0.014  0.5543  0.5532 -0.5365
13984SOL     OW42492   4.560   2.203   5.485 -0.1577  0.3776  0.2591
13984SOL    HW142493   4.473   2.235   5.511 -0.6045  1.5583 -2.4256
13984SOL    HW242494   4.620   2.272   5.512 -0.5220  1.2364 -1.0638
13985SOL     OW42495   7.306   0.932   3.754  0.8134 -0.0182 -0.1500
13985SOL    HW142496   7.326   0.973   3.670 -1.4866  0.7181 -0.4284
13985SOL    HW242497   7.286   1.005   3.812  0.1211 -0.6030  0.3600
13986SOL     OW42498   6.725   4.068   1.362  0.3645 -0.0169  0.3079
13986SOL    HW142499   6.815   4.042   1.380 -0.1800 -2.0895  0.3384
13986SOL    HW242500   6.694   4.107   1.443  1.0735  0.2193  0.4686
13987SOL     OW42501   1.753   4.549   0.717  0.0732  0.1819 -0.2821
13987SOL    HW142502   1.664   4.514   0.721  0.0606 -0.0800 -1.9318
13987SOL    HW242503   1.795   4.498   0.647  1.4375  0.4802  0.2943
13988SOL     OW42504   5.798   6.244   1.307  0.2582  0.5568  0.0811
13988SOL    HW142505   5.855   6.175   1.340  1.5497  1.2332 -0.6512
13988SOL    HW242506   5.742   6.200   1.243  2.5748  0.5149 -2.0568
13989SOL     OW42507   5.368   3.962   5.540  0.0248 -0.2331 -0.0270
13989SOL    HW142508   5.312   4.038   5.559 -2.0207 -1.8411  0.8698
13989SOL    HW242509   5.345   3.937   5.450 -0.1681 -0.4506  0.0807
13990SOL     OW42510   4.347   3.006   7.112  0.6322 -0.0017 -0.3271
13990SOL    HW142511   4.287   3.074   7.083  1.4199  1.0914  0.5062
13990SOL    HW242512   4.372   2.960   7.032  1.2095  1.6413 -1.1385
13991SOL     OW42513   7.289   7.552   4.882 -0.4786 -0.1229 -0.0076
13991SOL    HW142514   7.273   7.635   4.838 -2.0967 -0.2671  0.2240
13991SOL    HW242515   7.311   7.491   4.812 -0.0693  0.3256 -0.2683
13992SOL     OW42516   7.499   1.737   4.583 -0.8092  0.3372  0.1484
13992SOL    HW142517   7.557   1.785   4.642 -0.5225  1.6183 -1.1270
13992SOL    HW242518   7.414   1.780   4.593 -0.7159  0.6814 -0.4941
13993SOL     OW42519   3.459   6.901   5.059 -0.4845 -0.5033 -0.7728
13993SOL    HW142520   3.372   6.883   5.096 -1.2931  0.4942 -2.0859
13993SOL    HW242521   3.509   6.936   5.133 -1.2222 -0.9813 -0.0213
13994SOL     OW42522   4.168   5.431   5.215  0.0205  0.1583  0.6814
13994SOL    HW142523   4.209   5.345   5.208 -0.8369 -0.1292 -2.3593
13994SOL    HW242524   4.226   5.489   5.167 -0.3208  0.9354  1.1868
13995SOL     OW42525   4.030   0.669   1.901 -0.5691 -0.4899  0.2582
13995SOL    HW142526   4.041   0.580   1.933  2.3023  0.1975  1.4442
13995SOL    HW242527   3.941   0.693   1.927 -1.5079 -3.0314 -0.3267
13996SOL     OW42528   4.087   2.617   2.049 -0.2407  0.0084 -0.4547
13996SOL    HW142529   4.077   2.570   2.132 -0.3446  0.5592 -0.1564
13996SOL    HW242530   4.155   2.682   2.066 -1.7332  1.5424 -0.1756
13997SOL     OW42531   4.782   3.296   6.744  0.0336  0.0867  0.1436
13997SOL    HW142532   4.759   3.220   6.691 -3.1971  1.2768 -0.4430
13997SOL    HW242533   4.773   3.370   6.684 -0.6370  1.2103  1.5603
13998SOL     OW42534   2.641   6.373   5.703  0.2997  0.4327 -0.1902
13998SOL    HW142535   2.718   6.347   5.753  0.1086  0.0943 -0.0677
13998SOL    HW242536   2.617   6.458   5.738  0.1947  0.2187  0.2677
13999SOL     OW42537   5.313   7.131   7.028  0.0406 -0.2743 -0.4043
13999SOL    HW142538   5.313   7.223   7.002  1.7235 -0.2640 -0.4905
13999SOL    HW242539   5.405   7.110   7.042 -0.2569 -2.0775 -0.8510
14000SOL     OW42540   7.386   0.174   5.585  0.0002  0.2330 -0.6302
14000SOL    HW142541   7.305   0.220   5.604 -0.6619 -0.0597 -2.5574
14000SOL    HW242542   7.419   0.214   5.504  1.3342 -0.2217 -0.3433
14001SOL     OW42543   4.514   1.560   0.334  0.6107 -0.1568 -0.1816
14001SOL    HW142544   4.458   1.514   0.271 -1.2881 -0.4399  1.6076
14001SOL    HW242545   4.507   1.652   0.308  0.0746 -0.3014 -0.5781
14002SOL     OW42546   1.087   1.695   1.878  0.2181  0.3363  0.0561
14002SOL    HW142547   1.151   1.762   1.853  1.3775 -0.1792  1.5151
14002SOL    HW242548   1.099   1.625   1.814  1.4907  0.0387  0.5895
14003SOL     OW42549   1.946   2.289   5.124  0.0198  0.4358 -0.3067
14003SOL    HW142550   1.858   2.322   5.106 -1.3126 -1.3237  2.2789
14003SOL    HW242551   1.944   2.198   5.094  0.7442  0.1870  0.3734
14004SOL     OW42552   5.946   4.114   6.252  0.2279  0.2427 -0.0862
14004SOL    HW142553   5.865   4.150   6.216  0.6727  0.5998 -0.7531
14004SOL    HW242554   5.917   4.056   6.322 -0.5961  0.4935 -0.2048
14005SOL     OW42555   2.085   0.045   0.738 -0.1051 -0.0190 -0.1060
14005SOL    HW142556   2.139   0.007   0.807  1.1018 -3.7964 -2.7336
14005SOL    HW242557   1.995   0.027   0.765  0.1783  0.9980  1.6382
14006SOL     OW42558   4.859   7.046   2.016 -0.0504 -0.4789 -0.8285
14006SOL    HW142559   4.769   7.030   2.042  0.2946 -1.6421 -0.2949
14006SOL    HW242560   4.904   7.069   2.098  0.3793 -1.0912 -0.8837
14007SOL     OW42561   1.196   4.632   1.754  0.4684 -0.0904  0.0609
14007SOL    HW142562   1.241   4.693   1.812  1.5500 -1.9285  1.2756
14007SOL    HW242563   1.108   4.623   1.791  0.5397  0.1927  0.2950
14008SOL     OW42564   0.282   1.826   5.334  0.3063  0.2536  0.9115
14008SOL    HW142565   0.242   1.739   5.326 -1.8712  1.1651  1.1476
14008SOL    HW242566   0.322   1.826   5.421  1.4739 -0.9223  0.4084
14009SOL     OW42567   2.398   4.955   4.026  0.6347 -0.4471  0.3709
14009SOL    HW142568   2.311   4.975   3.992  0.4744 -0.3163  0.8582
14009SOL    HW242569   2.454   4.953   3.948  0.0116 -1.6164 -0.0745
14010SOL     OW42570   0.398   4.195   3.054  0.1162  0.5508  0.2152
14010SOL    HW142571   0.435   4.264   3.110  1.2780  0.5719 -0.5380
14010SOL    HW242572   0.391   4.119   3.110  0.7624  0.7243  0.5398
14011SOL     OW42573   4.012   7.057   3.571  0.0907  0.7563 -0.1044
14011SOL    HW142574   4.018   7.032   3.663  0.3240 -0.7237 -0.4890
14011SOL    HW242575   4.039   6.978   3.523 -2.6488  0.5564 -1.5090
14012SOL     OW42576   2.780   3.711   1.490 -0.4605  0.3276 -0.3220
14012SOL    HW142577   2.864   3.674   1.461 -0.5944 -0.4641  0.2826
14012SOL    HW242578   2.779   3.799   1.452  0.1036 -0.0871 -1.3505
14013SOL     OW42579   0.871   6.616   5.984  0.3713 -0.4460 -0.3180
14013SOL    HW142580   0.788   6.569   5.979 -1.1892  2.0704  0.0026
14013SOL    HW242581   0.903   6.617   5.894  0.0025 -1.3419 -0.4700
14014SOL     OW42582   5.691   2.808   6.222  0.0647  0.4634  0.2699
14014SOL    HW142583   5.783   2.809   6.246 -0.0168 -1.6443  0.8372
14014SOL    HW242584   5.644   2.795   6.304 -0.4747 -2.2699 -0.3803
14015SOL     OW42585   6.161   6.236   7.120 -0.0579  0.2674  0.2570
14015SOL    HW142586   6.167   6.265   7.211 -0.5136  1.0816  0.0309
14015SOL    HW242587   6.207   6.152   7.120 -1.5846 -0.6508  1.6285
14016SOL     OW42588   6.819   7.000   3.381 -0.7836  0.0676 -0.6778
14016SOL    HW142589   6.838   6.970   3.292 -1.7023 -2.2040 -0.1925
14016SOL    HW242590   6.807   6.919   3.431 -1.7919  1.2931  1.1744
14017SOL     OW42591   4.828   4.629   4.247 -0.2571  0.3863 -0.2130
14017SOL    HW142592   4.850   4.536   4.257  1.2839  0.8518  1.0149
14017SOL    HW242593   4.773   4.648   4.323 -0.8468  0.4277 -0.6386
14018SOL     OW42594   4.060   1.892   0.770  0.0109  0.4981 -0.0668
14018SOL    HW142595   4.143   1.855   0.799 -0.9677 -0.7602  1.2340
14018SOL    HW242596   4.084   1.978   0.734  2.1163 -0.6477 -1.6042
14019SOL     OW42597   7.555   0.421   6.733  0.2495 -0.0615 -0.5873
14019SOL    HW142598   7.481   0.378   6.776  1.3793 -1.5254 -0.0063
14019SOL    HW242599   7.536   0.413   6.640 -1.3825  1.6099 -0.4737
14020SOL     OW42600   2.132   1.046   4.697  0.2261  0.4586 -0.1577
14020SOL    HW142601   2.178   1.070   4.617 -0.0627 -0.8491 -0.7300
14020SOL    HW242602   2.091   0.962   4.678 -0.8338  0.6831  0.9666
14021SOL     OW42603   3.377   0.949   7.498  0.0979  0.0767 -0.4240
14021SOL    HW142604   3.472   0.958   7.494  0.2345  3.5284  3.6311
14021SOL    HW242605   3.344   1.013   7.435  0.6189  1.3231  0.5187
14022SOL     OW42606   5.957   3.739   4.109 -0.2007  0.4526 -0.1010
14022SOL    HW142607   5.874   3.778   4.080 -0.0156  1.5083  0.7310
14022SOL    HW242608   6.021   3.766   4.043 -0.3606  0.3101 -0.3155
14023SOL     OW42609   6.478   6.786   4.826 -0.4152  0.0287 -0.4090
14023SOL    HW142610   6.505   6.746   4.909  0.4347 -1.0275 -1.1687
14023SOL    HW242611   6.391   6.750   4.810  0.0277 -0.9426 -0.7003
14024SOL     OW42612   1.415   3.233   1.010  0.1195 -0.5115  0.0314
14024SOL    HW142613   1.403   3.168   0.941  0.3578  0.9230 -1.4387
14024SOL    HW242614   1.420   3.317   0.963 -1.4263  0.7294  1.9300
14025SOL     OW42615   5.025   3.829   7.617 -0.0170 -0.0397 -0.3031
14025SOL    HW142616   4.944   3.878   7.625 -0.2013 -0.3826 -0.0651
14025SOL    HW242617   5.020   3.787   7.530  0.4308  0.8752 -0.7843
14026SOL     OW42618   0.221   1.947   1.730  0.1608 -0.4177 -0.0721
14026SOL    HW142619   0.222   1.870   1.786 -0.3780  0.1150  0.6842
14026SOL    HW242620   0.257   2.017   1.784 -0.2893  0.0822 -0.4049
14027SOL     OW42621   0.119   7.090   1.251  0.8885 -0.0248  0.1027
14027SOL    HW142622   0.101   7.025   1.183  1.1990  0.5823 -0.5707
14027SOL    HW242623   0.199   7.058   1.294  0.9832 -0.1356 -0.1572
14028SOL     OW42624   6.867   7.538   3.251 -0.1350  0.2260  0.7464
14028SOL    HW142625   6.916   7.563   3.329  0.6884  1.3017 -0.0841
14028SOL    HW242626   6.932   7.495   3.195 -0.2821  1.0360 -0.0697
14029SOL     OW42627   4.980   1.336   1.566  0.0139 -0.0217  0.2780
14029SOL    HW142628   4.957   1.397   1.635  0.7291  0.3296  0.2170
14029SOL    HW242629   5.063   1.370   1.530  0.0234 -0.5927 -0.2663
14030SOL     OW42630   4.060   6.287   6.484  0.2842 -0.1870  0.4579
14030SOL    HW142631   4.119   6.359   6.462 -0.6872  0.9621  1.3983
14030SOL    HW242632   4.017   6.317   6.565 -0.4760 -1.6358  0.6093
14031SOL     OW42633   5.033   4.218   6.439 -0.8090  0.1487  0.2516
14031SOL    HW142634   4.987   4.182   6.363 -0.1677  2.6043 -1.4163
14031SOL    HW242635   5.117   4.173   6.441 -1.4170 -1.0023  0.4559
14032SOL     OW42636   7.252   1.885   0.485 -0.3560 -0.3762 -0.2905
14032SOL    HW142637   7.295   1.914   0.566  0.1359 -0.6838 -0.4380
14032SOL    HW242638   7.192   1.956   0.463 -0.5369 -0.3089  0.3750
14033SOL     OW42639   0.455   1.816   2.062  0.6470 -0.2369 -0.2043
14033SOL    HW142640   0.482   1.729   2.092  0.8008  0.3073  1.3416
14033SOL    HW242641   0.364   1.805   2.035  0.4960 -0.7717  0.5034
14034SOL     OW42642   7.476   5.165   3.851  0.0764  0.1509 -0.1400
14034SOL    HW142643   7.436   5.249   3.830  1.0307  0.6402 -0.0224
14034SOL    HW242644   7.564   5.169   3.813  0.7026 -0.1650  1.2266
14035SOL     OW42645   4.677   0.526   5.403  0.1360  0.1593  0.0864
14035SOL    HW142646   4.680   0.621   5.394 -0.0744  0.0157 -2.1163
14035SOL    HW242647   4.619   0.498   5.332  1.4755 -1.7130 -0.3232
14036SOL     OW42648   1.042   6.321   5.197  0.0440 -0.2405 -0.4003
14036SOL    HW142649   0.953   6.355   5.189  0.7006  1.5456 -0.6313
14036SOL    HW242650   1.038   6.262   5.272 -1.1724  0.4592  0.1272
14037SOL     OW42651   1.059   7.532   0.727 -0.2172  0.3522 -0.2772
14037SOL    HW142652   1.047   7.494   0.815  0.2829 -1.2414 -0.8590
14037SOL    HW242653   1.048   7.626   0.740 -1.0852  0.0758  1.3328
14038SOL     OW42654   6.018   7.616   2.638  1.0023 -0.4875  0.6835
14038SOL    HW142655   5.980   7.607   2.551 -1.5528  0.5820  1.5974
14038SOL    HW242656   6.001   7.532   2.680 -0.4094 -0.0291  1.0731
14039SOL     OW42657   0.036   4.670   2.813  0.1842  0.0046 -0.0670
14039SOL    HW142658   0.084   4.745   2.848  1.3746 -2.0179  3.1052
14039SOL    HW242659   0.091   4.636   2.743  0.5015  1.0808 -0.3428
14040SOL     OW42660   2.780   0.475   7.294  0.2131 -0.4378  0.4363
14040SOL    HW142661   2.857   0.508   7.247 -1.2659  0.6842 -1.2845
14040SOL    HW242662   2.713   0.542   7.282 -1.2223 -1.6247  1.4712
14041SOL     OW42663   6.794   6.574   4.988 -0.4237 -0.1849  0.3006
14041SOL    HW142664   6.704   6.599   5.011 -0.9771 -1.2127 -0.6429
14041SOL    HW242665   6.788   6.544   4.898  1.2461  1.4587 -0.4031
14042SOL     OW42666   4.671   1.826   3.403 -0.2322  0.4484  0.4083
14042SOL    HW142667   4.718   1.825   3.319 -0.8916 -2.1803 -0.0071
14042SOL    HW242668   4.580   1.808   3.380 -0.3245 -0.9552  1.6965
14043SOL     OW42669   0.257   6.922   6.228  0.0511 -0.2023  0.0097
14043SOL    HW142670   0.281   6.857   6.294  2.2876  0.1275 -0.4065
14043SOL    HW242671   0.309   6.898   6.151 -0.9780  0.6200 -0.9794
14044SOL     OW42672   5.820   0.457   0.508  0.2739  0.0394 -0.2557
14044SOL    HW142673   5.729   0.432   0.524  0.2218  1.1241  1.4221
14044SOL    HW242674   5.870   0.378   0.529 -0.2825 -0.6698 -1.5098
14045SOL     OW42675   5.012   3.903   2.173  0.3216  0.5685 -0.3029
14045SOL    HW142676   4.948   3.918   2.243 -0.7861 -1.2782 -0.8585
14045SOL    HW242677   5.094   3.936   2.209 -0.8279  2.6702  0.5893
14046SOL     OW42678   3.697   4.163   2.948  0.5686  0.5569  0.2882
14046SOL    HW142679   3.744   4.224   2.893  0.3882  0.9603  0.5728
14046SOL    HW242680   3.757   4.143   3.020  0.8654 -0.0945 -0.1331
14047SOL     OW42681   6.933   5.954   6.552  0.8198  0.3568 -0.4695
14047SOL    HW142682   7.007   5.936   6.610 -0.4607  0.5706  1.3507
14047SOL    HW242683   6.889   6.030   6.592 -1.4518 -0.9305 -0.3426
14048SOL     OW42684   6.548   1.529   3.887 -0.2376 -0.3071 -0.1502
14048SOL    HW142685   6.636   1.564   3.872  0.3214 -1.2411  0.8483
14048SOL    HW242686   6.544   1.451   3.831 -1.0735  0.6663 -1.5043
14049SOL     OW42687   1.128   6.595   5.322  0.3133  0.5136  0.4347
14049SOL    HW142688   1.153   6.671   5.375 -1.2340  0.8746  0.6824
14049SOL    HW242689   1.115   6.525   5.386  1.8068 -0.0103  0.2011
14050SOL     OW42690   0.876   5.178   6.422 -0.0061 -0.3771  0.5312
14050SOL    HW142691   0.953   5.225   6.454  0.9873 -0.5274 -1.4997
14050SOL    HW242692   0.802   5.220   6.466  1.1224  0.7984  1.3533
14051SOL     OW42693   6.536   1.071   4.693  0.2975 -0.3382  0.0984
14051SOL    HW142694   6.594   1.010   4.649 -0.7123 -1.2408 -0.0201
14051SOL    HW242695   6.478   1.016   4.745  1.0085  0.6437  2.0704
14052SOL     OW42696   1.289   4.363   2.703  0.2169  0.2308  0.4782
14052SOL    HW142697   1.302   4.407   2.787 -0.5879  1.9748 -0.2535
14052SOL    HW242698   1.197   4.379   2.683  0.0752 -1.2751 -0.1505
14053SOL     OW42699   2.154   4.072   4.757 -0.5938  0.2397 -0.1071
14053SOL    HW142700   2.246   4.091   4.739  0.0773 -2.1748  0.4485
14053SOL    HW242701   2.137   4.115   4.841  0.0827  0.4981 -0.0933
14054SOL     OW42702   0.826   7.397   3.184 -0.0293 -0.7584  0.1701
14054SOL    HW142703   0.762   7.332   3.213  0.1135 -0.1335  2.0066
14054SOL    HW242704   0.841   7.453   3.260  0.1850  1.1881 -1.2081
14055SOL     OW42705   3.149   5.850   3.572  0.4270 -0.3763 -0.2678
14055SOL    HW142706   3.079   5.843   3.636 -0.7752  0.2492 -1.4683
14055SOL    HW242707   3.201   5.924   3.602  0.1070 -0.3300  0.1878
14056SOL     OW42708   6.772   4.358   7.201  0.1668 -0.2048 -0.3284
14056SOL    HW142709   6.794   4.416   7.128  0.1211  0.5517  0.2477
14056SOL    HW242710   6.828   4.387   7.273 -1.8637  1.0334  0.8362
14057SOL     OW42711   2.252   7.200   5.272  0.1833 -0.0366  0.1561
14057SOL    HW142712   2.272   7.107   5.286  1.6874  0.0252 -1.2584
14057SOL    HW242713   2.233   7.206   5.179  1.1660  1.2409  0.0162
14058SOL     OW42714   4.355   0.564   5.525 -0.1136  0.5265  0.0195
14058SOL    HW142715   4.396   0.649   5.540  0.3669  0.1672  0.8231
14058SOL    HW242716   4.369   0.546   5.432  2.5124 -0.0557  0.4504
14059SOL     OW42717   1.095   1.954   3.003  0.1518 -0.0797  0.0144
14059SOL    HW142718   1.113   1.913   3.088 -1.2859 -0.8250 -0.0095
14059SOL    HW242719   1.096   1.881   2.941  0.6005  0.3811 -0.5270
14060SOL     OW42720   0.712   6.298   6.977  1.0703 -0.5626  0.5852
14060SOL    HW142721   0.739   6.234   6.911 -0.8780  0.4279 -1.2782
14060SOL    HW242722   0.784   6.361   6.980  1.1651 -0.5954 -0.6249
14061SOL     OW42723   0.962   3.732   4.090 -0.2331 -0.2941  0.2776
14061SOL    HW142724   0.987   3.814   4.131  0.0194 -0.2114 -0.0352
14061SOL    HW242725   1.020   3.725   4.014 -0.0591 -0.8962  0.4605
14062SOL     OW42726   0.239   7.291   4.471 -0.0429 -0.7167  0.0429
14062SOL    HW142727   0.166   7.301   4.532  0.4550  0.1404  0.5207
14062SOL    HW242728   0.294   7.368   4.487 -0.2331 -0.1032 -1.9494
14063SOL     OW42729   5.923   6.697   0.089 -0.2539  0.6414 -0.0494
14063SOL    HW142730   5.965   6.783   0.083  0.4184  0.3101 -0.1697
14063SOL    HW242731   5.978   6.647   0.150 -0.1692  0.0274 -0.6193
14064SOL     OW42732   0.129   2.529   7.065 -0.0738 -0.1301 -0.5358
14064SOL    HW142733   0.157   2.533   6.974  0.7082 -0.8006 -0.3400
14064SOL    HW242734   0.166   2.607   7.105  0.9174 -0.6261 -0.4523
14065SOL     OW42735   6.964   5.631   1.236  0.1424 -0.3460  0.4296
14065SOL    HW142736   7.035   5.576   1.270 -1.3816 -1.0643  2.6492
14065SOL    HW242737   6.975   5.715   1.280 -0.5221 -0.5424  0.9732
14066SOL     OW42738   2.873   1.041   1.058  0.1935 -0.2693  0.8285
14066SOL    HW142739   2.947   1.014   1.004 -0.7768 -1.7105  0.1617
14066SOL    HW242740   2.845   1.124   1.019 -0.3440 -1.1673 -0.7721
14067SOL     OW42741   4.169   5.967   1.250 -0.1298 -0.2194  0.2449
14067SOL    HW142742   4.142   5.934   1.335  1.1103  0.1919  0.8339
14067SOL    HW242743   4.247   6.020   1.269  1.0045 -1.2364 -1.2917
14068SOL     OW42744   3.493   1.431   7.391 -0.4759  0.3314  0.4186
14068SOL    HW142745   3.406   1.464   7.369  0.3881  2.6049  0.0829
14068SOL    HW242746   3.513   1.367   7.323 -1.9085 -0.3114  0.5769
14069SOL     OW42747   4.380   6.767   3.997 -0.1119 -0.0078  0.0080
14069SOL    HW142748   4.326   6.733   3.925  0.9806  0.2684 -0.9849
14069SOL    HW242749   4.398   6.857   3.972 -0.2135  0.2840  0.9538
14070SOL     OW42750   3.889   6.015   0.115  0.1968  0.0902  0.1616
14070SOL    HW142751   3.936   5.956   0.056 -0.1139  1.2473 -1.3097
14070SOL    HW242752   3.875   6.094   0.063  0.8757  1.6091  2.1620
14071SOL     OW42753   3.362   6.670   3.739 -0.0638  0.5221  0.2147
14071SOL    HW142754   3.453   6.640   3.734 -0.6667 -1.4133  0.0282
14071SOL    HW242755   3.313   6.606   3.687 -1.5785  1.3506  0.5725
14072SOL     OW42756   0.936   3.825   0.939 -0.5166 -0.6654  0.9301
14072SOL    HW142757   0.898   3.908   0.909 -0.2155 -0.0491  2.1542
14072SOL    HW242758   0.997   3.800   0.871 -1.6807 -0.6591 -0.1544
14073SOL     OW42759   1.912   0.800   4.912 -0.5419 -0.2203 -0.1054
14073SOL    HW142760   1.909   0.707   4.934 -1.4616 -0.2383 -0.2812
14073SOL    HW242761   1.923   0.801   4.816  0.4244 -0.1377 -0.0066
14074SOL     OW42762   1.524   4.060   3.817  0.5466  0.3994 -0.2124
14074SOL    HW142763   1.461   4.118   3.858  1.9695  0.5634  1.9322
14074SOL    HW242764   1.567   4.114   3.750 -1.3595  0.3316 -1.5745
14075SOL     OW42765   1.339   4.792   2.384 -0.0987  0.9189 -0.1912
14075SOL    HW142766   1.358   4.803   2.477 -0.2930 -1.3644  0.1696
14075SOL    HW242767   1.246   4.770   2.380  0.2964 -0.8403 -0.6999
14076SOL     OW42768   3.498   1.266   3.209 -0.2490 -0.4358  0.1618
14076SOL    HW142769   3.481   1.180   3.249  2.5351  0.1438  2.9633
14076SOL    HW242770   3.457   1.328   3.269 -0.3431  0.3005 -0.6547
14077SOL     OW42771   5.901   4.942   5.209  0.2888 -0.2614  0.2776
14077SOL    HW142772   5.906   4.914   5.117  0.2327 -1.4711  0.6254
14077SOL    HW242773   5.919   4.863   5.259  1.6346  0.6556  1.3200
14078SOL     OW42774   1.721   5.132   1.433 -0.3697  0.1870 -0.2552
14078SOL    HW142775   1.796   5.139   1.492 -0.9715  0.3991  0.5022
14078SOL    HW242776   1.706   5.038   1.424  0.4220  0.1235 -0.9832
14079SOL     OW42777   4.313   3.360   0.488 -0.1577 -0.2780 -0.6478
14079SOL    HW142778   4.313   3.415   0.410 -1.7693  1.8385  0.7271
14079SOL    HW242779   4.391   3.385   0.536 -0.2596 -0.0404 -0.6026
14080SOL     OW42780   0.047   2.927   3.204 -0.1716 -0.3304  0.2159
14080SOL    HW142781   0.053   2.873   3.283  3.1191 -0.4877  0.0203
14080SOL    HW242782   0.085   3.012   3.231 -2.5715  0.9781 -0.2571
14081SOL     OW42783   6.065   4.569   4.790  0.2131 -0.0157  0.0443
14081SOL    HW142784   6.155   4.541   4.804  0.1370 -0.4594 -0.3165
14081SOL    HW242785   6.064   4.662   4.810  0.6097 -0.1481  0.6883
14082SOL     OW42786   5.756   6.442   4.342 -0.0837 -0.1374  0.0599
14082SOL    HW142787   5.737   6.361   4.389 -0.9037  0.2741  0.4542
14082SOL    HW242788   5.671   6.476   4.316  0.3219 -0.0971 -1.3118
14083SOL     OW42789   2.982   0.904   3.512 -0.0035  0.0607 -0.2612
14083SOL    HW142790   2.985   0.890   3.607  2.5707 -2.1041 -0.5218
14083SOL    HW242791   2.960   0.997   3.502 -0.2747  0.3687  2.4480
14084SOL     OW42792   0.908   3.923   0.209  0.2965  0.4690 -0.2134
14084SOL    HW142793   0.941   3.940   0.121 -1.0660 -1.7004 -1.2069
14084SOL    HW242794   0.966   3.855   0.243  2.8543  3.4060  1.9612
14085SOL     OW42795   6.974   0.456   6.193  0.0839  0.5822 -0.1725
14085SOL    HW142796   7.050   0.439   6.137 -0.9464  0.4665 -1.5954
14085SOL    HW242797   7.011   0.475   6.279  1.6734 -0.6774 -0.5274
14086SOL     OW42798   2.344   2.943   0.861 -0.4063 -0.8753 -0.1144
14086SOL    HW142799   2.394   2.896   0.929 -0.2097  0.0891  0.4245
14086SOL    HW242800   2.258   2.902   0.863 -0.5971 -0.4563  1.1552
14087SOL     OW42801   1.728   6.859   7.103  0.3216 -0.3562  0.1059
14087SOL    HW142802   1.740   6.783   7.046  5.1714 -0.1129  0.3511
14087SOL    HW242803   1.736   6.823   7.192 -2.5875 -0.0978  0.5679
14088SOL     OW42804   6.505   6.164   6.147  0.1707 -0.3978  0.1319
14088SOL    HW142805   6.566   6.091   6.157  2.4072  1.2454 -0.7585
14088SOL    HW242806   6.434   6.145   6.208  0.7270 -3.2301  0.0082
14089SOL     OW42807   6.858   4.435   4.475  0.3722 -0.6896 -0.4237
14089SOL    HW142808   6.930   4.400   4.528 -0.2288  0.2190  1.0486
14089SOL    HW242809   6.902   4.487   4.408  1.1041  0.6789  1.0605
14090SOL     OW42810   5.115   6.312   3.563 -0.2912  0.1999  0.1000
14090SOL    HW142811   5.161   6.395   3.558  0.8575 -0.4169  0.2440
14090SOL    HW242812   5.137   6.278   3.650 -1.6563  0.2451  0.4939
14091SOL     OW42813   2.788   3.104   7.292  0.0160 -0.2682 -0.2042
14091SOL    HW142814   2.866   3.063   7.330 -0.4299 -0.6973  0.2636
14091SOL    HW242815   2.775   3.184   7.343 -0.0565 -0.3813 -0.0446
14092SOL     OW42816   0.512   4.479   6.820 -0.1501  0.1745  0.0663
14092SOL    HW142817   0.534   4.495   6.728 -2.8272  0.2844 -0.6516
14092SOL    HW242818   0.503   4.384   6.827  0.2600  0.1492  0.2845
14093SOL     OW42819   7.545   7.578   0.035  0.3052 -0.0565 -0.1374
14093SOL    HW142820   7.636   7.549   0.038  0.3070 -0.0145  0.1721
14093SOL    HW242821   7.499   7.520   0.095 -0.1772 -1.1593 -1.5000
14094SOL     OW42822   6.642   4.138   1.610 -0.2278  0.2502 -0.3803
14094SOL    HW142823   6.551   4.165   1.623 -0.0938  0.4481  0.1821
14094SOL    HW242824   6.663   4.086   1.687  0.4146  0.9580 -0.0613
14095SOL     OW42825   6.097   7.175   5.108  0.0351  0.3064  0.0470
14095SOL    HW142826   6.068   7.097   5.059  1.9120  0.0580 -0.7664
14095SOL    HW242827   6.127   7.140   5.192 -0.4301  0.3518  0.2365
14096SOL     OW42828   1.199   5.730   0.543 -0.3665 -0.4132  0.3537
14096SOL    HW142829   1.287   5.701   0.564 -0.6144 -1.2255  0.3001
14096SOL    HW242830   1.149   5.716   0.624 -0.4594  0.0020  0.3713
14097SOL     OW42831   4.012   5.880   0.345 -0.2159  0.6061  0.0691
14097SOL    HW142832   4.002   5.785   0.341 -0.9222  0.6838 -0.2406
14097SOL    HW242833   3.984   5.910   0.258 -2.9938  1.3383  1.1164
14098SOL     OW42834   2.820   7.032   7.137  0.4873  0.1576 -0.0639
14098SOL    HW142835   2.888   7.010   7.201  1.0087 -0.8216 -0.9360
14098SOL    HW242836   2.748   6.972   7.157  0.1902  0.6183  0.3052
14099SOL     OW42837   1.727   7.204   1.723 -0.1134  0.5839 -0.2358
14099SOL    HW142838   1.652   7.188   1.781  0.0867  2.9719  0.8343
14099SOL    HW242839   1.803   7.180   1.776 -0.0285 -1.7802 -1.3001
14100SOL     OW42840   5.816   7.303   3.716 -0.0400 -0.2309  0.1047
14100SOL    HW142841   5.880   7.323   3.784  0.9142 -1.2377 -0.4629
14100SOL    HW242842   5.744   7.364   3.732  0.7697  0.4853  1.1551
14101SOL     OW42843   0.785   7.462   5.682 -0.1660  0.6176  0.4995
14101SOL    HW142844   0.765   7.540   5.734 -2.3719  0.9648 -0.7434
14101SOL    HW242845   0.737   7.475   5.600  1.7493 -0.7407 -0.9269
14102SOL     OW42846   2.647   0.101   6.973 -0.1969 -0.1800  0.2489
14102SOL    HW142847   2.696   0.171   6.931 -1.1444  0.3043 -0.0826
14102SOL    HW242848   2.638   0.130   7.064  0.2884 -0.3590  0.3544
14103SOL     OW42849   2.209   1.016   1.766 -0.1204 -0.0714 -0.0608
14103SOL    HW142850   2.264   0.975   1.699  0.3789 -0.4533  0.5713
14103SOL    HW242851   2.151   1.075   1.717  0.1028 -0.4905 -0.8427
14104SOL     OW42852   3.147   2.932   0.606  0.2426 -0.0539 -0.2870
14104SOL    HW142853   3.223   2.876   0.621 -0.6545 -0.9941  0.8474
14104SOL    HW242854   3.179   3.000   0.546  2.1097 -0.1231  0.5737
14105SOL     OW42855   6.422   3.467   1.961  0.2255 -0.1463  0.2258
14105SOL    HW142856   6.341   3.431   1.999 -0.3577  2.4041  1.6438
14105SOL    HW242857   6.482   3.475   2.035  1.2283 -0.5492 -0.5244
14106SOL     OW42858   3.124   4.873   4.801  0.5521 -0.1143 -0.1267
14106SOL    HW142859   3.055   4.808   4.806  1.3203 -0.9348  0.1775
14106SOL    HW242860   3.156   4.867   4.711 -1.3873  2.0288 -1.0535
14107SOL     OW42861   3.362   0.686   7.558  0.4969  0.1108  0.1343
14107SOL    HW142862   3.343   0.767   7.509  2.4283  0.4600 -0.1013
14107SOL    HW242863   3.384   0.715   7.646  2.1463 -0.0482 -0.2041
14108SOL     OW42864   0.153   4.912   5.349 -0.0517 -0.1307  0.2967
14108SOL    HW142865   0.208   4.985   5.376 -0.0271 -0.8560  2.3856
14108SOL    HW242866   0.068   4.930   5.389 -0.6587 -0.2374 -0.8869
14109SOL     OW42867   6.172   6.927   2.975 -0.1386 -0.2028  0.2570
14109SOL    HW142868   6.227   6.862   3.019  0.2682  1.0601  1.6754
14109SOL    HW242869   6.105   6.949   3.039  0.5273  1.7645  0.3323
14110SOL     OW42870   4.193   6.443   4.471 -0.0774 -0.1727 -0.3560
14110SOL    HW142871   4.199   6.375   4.538 -0.2216  0.8004  0.6897
14110SOL    HW242872   4.114   6.493   4.495  0.6194  1.0153 -0.4375
14111SOL     OW42873   0.400   6.192   3.339  0.3658 -0.2994 -0.4116
14111SOL    HW142874   0.342   6.227   3.406 -1.3840 -0.2840 -1.8460
14111SOL    HW242875   0.449   6.268   3.307  1.7736 -0.4359  1.3165
14112SOL     OW42876   3.100   7.258   6.585  0.0436  0.1318  0.5288
14112SOL    HW142877   3.036   7.191   6.610  0.8638 -2.0219 -2.5836
14112SOL    HW242878   3.140   7.285   6.668 -1.0700 -2.4813  2.0392
14113SOL     OW42879   5.127   4.649   4.298 -0.2278 -0.1626 -0.2618
14113SOL    HW142880   5.156   4.718   4.238  0.2658  0.0495  0.2141
14113SOL    HW242881   5.031   4.658   4.299 -0.5222 -1.8559 -3.0160
14114SOL     OW42882   0.250   1.656   3.538 -0.2062  0.1631  0.0716
14114SOL    HW142883   0.249   1.589   3.469  0.2348  0.0840  0.1443
14114SOL    HW242884   0.174   1.711   3.517 -1.9294 -1.5998  1.2614
14115SOL     OW42885   1.804   1.440   5.567 -0.0071  0.0682 -0.0816
14115SOL    HW142886   1.762   1.445   5.653  1.4985 -1.2855  0.7967
14115SOL    HW242887   1.857   1.520   5.562 -2.4561  1.7280 -1.1537
14116SOL     OW42888   4.034   5.173   6.211  0.2815 -0.2229  0.3062
14116SOL    HW142889   4.025   5.082   6.240  0.2580  0.0417  1.1874
14116SOL    HW242890   4.129   5.188   6.210  0.2794 -0.2019  0.3724
14117SOL     OW42891   4.709   7.428   4.440  0.2428 -0.0476  0.5583
14117SOL    HW142892   4.724   7.498   4.377  0.4833  1.2060  1.9626
14117SOL    HW242893   4.614   7.415   4.440 -0.1986  2.4490  2.4600
14118SOL     OW42894   4.097   0.655   0.717 -0.3320  0.4146 -0.4326
14118SOL    HW142895   4.150   0.708   0.776  0.6011  0.6668 -1.4579
14118SOL    HW242896   4.078   0.714   0.644  0.8320 -0.6773 -1.6585
14119SOL     OW42897   0.278   2.196   3.915  0.8853 -0.5096  0.2208
14119SOL    HW142898   0.330   2.196   3.996  0.4571 -0.6188  0.4970
14119SOL    HW242899   0.253   2.104   3.903  1.5187 -0.6100 -0.4089
14120SOL     OW42900   4.254   3.656   2.501  0.2278  0.4839  0.6090
14120SOL    HW142901   4.313   3.588   2.532 -0.2223 -0.4273 -0.4749
14120SOL    HW242902   4.208   3.685   2.580 -2.7645 -3.5550  0.6934
14121SOL     OW42903   0.327   4.700   1.600  0.1706 -0.2842 -0.1494
14121SOL    HW142904   0.237   4.714   1.630 -0.9542 -1.3639 -2.7455
14121SOL    HW242905   0.346   4.609   1.624  0.4398 -0.1704  0.0720
14122SOL     OW42906   3.291   0.880   6.091  0.5301 -0.3600 -0.0318
14122SOL    HW142907   3.217   0.919   6.138  1.3266 -1.5588  2.3682
14122SOL    HW242908   3.365   0.887   6.151  1.9263 -0.9866 -1.5728
14123SOL     OW42909   0.203   2.587   5.097  0.2486  0.1229 -0.4015
14123SOL    HW142910   0.242   2.520   5.153  0.6382  0.6592 -0.0121
14123SOL    HW242911   0.192   2.663   5.155 -1.7491 -0.1261 -0.3993
14124SOL     OW42912   0.453   5.771   4.708  0.6150  0.4683 -0.1618
14124SOL    HW142913   0.443   5.749   4.800  2.6457 -1.2337 -0.2704
14124SOL    HW242914   0.370   5.812   4.683 -0.2204  0.3437  2.2226
14125SOL     OW42915   4.959   0.011   2.717  0.1566  0.3598  0.6681
14125SOL    HW142916   4.939  -0.072   2.760  1.2058 -0.5136 -0.4734
14125SOL    HW242917   5.049   0.030   2.744  0.7926 -0.1460 -0.9876
14126SOL     OW42918   5.650   3.442   2.320 -0.1150 -0.1259 -0.0520
14126SOL    HW142919   5.690   3.462   2.404  0.6974 -0.6449 -0.3087
14126SOL    HW242920   5.666   3.519   2.266  0.7033 -0.3930 -0.2053
14127SOL     OW42921   4.611   1.442   2.372 -0.2102  0.1223 -0.1079
14127SOL    HW142922   4.547   1.484   2.429 -1.4001 -0.7214 -0.7706
14127SOL    HW242923   4.575   1.455   2.284  1.0798  0.5356 -0.5977
14128SOL     OW42924   2.046   4.118   6.947  0.7247  0.8826  0.1079
14128SOL    HW142925   2.021   4.202   6.910  2.5937  0.5699 -2.1127
14128SOL    HW242926   1.977   4.058   6.920  0.2615  1.3623  0.2237
14129SOL     OW42927   2.688   6.495   7.321 -0.4422  0.1468  0.1060
14129SOL    HW142928   2.612   6.550   7.301 -0.2722  0.7566  1.0250
14129SOL    HW242929   2.744   6.502   7.244 -0.4456  1.2543  0.1878
14130SOL     OW42930   6.691   0.404   0.256  0.1591  0.6041  0.7953
14130SOL    HW142931   6.736   0.391   0.339  0.0627 -0.8010  0.6535
14130SOL    HW242932   6.728   0.338   0.198  0.6582  1.9477 -0.4812
14131SOL     OW42933   0.253   1.965   6.149  0.3647  0.2247  0.0786
14131SOL    HW142934   0.338   1.979   6.190  1.7059 -1.9602 -1.6887
14131SOL    HW242935   0.263   2.001   6.060  0.4229 -2.2538 -1.0129
14132SOL     OW42936   1.140   5.800   2.515  0.1729 -0.4992 -0.0205
14132SOL    HW142937   1.098   5.879   2.551 -0.0359 -0.2022 -0.8927
14132SOL    HW242938   1.205   5.775   2.581 -0.9558 -0.6166  1.0823
14133SOL     OW42939   2.207   1.137   2.570  0.2394  0.0982 -0.2360
14133SOL    HW142940   2.230   1.081   2.643 -1.2824  1.8176  1.6862
14133SOL    HW242941   2.290   1.160   2.529  1.2534  0.1273  1.7688
14134SOL     OW42942   1.848   1.753   6.863  0.4485  0.2068 -0.3857
14134SOL    HW142943   1.882   1.695   6.932 -0.8711  1.3381  1.3055
14134SOL    HW242944   1.926   1.778   6.813  1.0110 -3.4646 -1.6492
14135SOL     OW42945   4.754   1.237   6.934  0.3576 -0.1093  0.0304
14135SOL    HW142946   4.732   1.326   6.959 -0.7374 -0.0647 -1.0406
14135SOL    HW242947   4.689   1.182   6.978 -0.3651 -0.1813 -1.0894
14136SOL     OW42948   5.550   4.191   4.967 -0.7302  0.5925  0.1209
14136SOL    HW142949   5.461   4.170   4.996 -0.3567 -2.0873 -0.3637
14136SOL    HW242950   5.600   4.201   5.049 -0.8292 -1.3221  0.4707
14137SOL     OW42951   6.572   1.165   6.174  0.3028  0.5029 -0.3454
14137SOL    HW142952   6.570   1.260   6.176 -0.1714  0.4847  0.0958
14137SOL    HW242953   6.665   1.143   6.165  0.6399  0.9738  1.5468
14138SOL     OW42954   1.749   4.855   5.117 -0.1588 -0.1556  0.6135
14138SOL    HW142955   1.808   4.928   5.133 -1.0656  1.2485 -1.9192
14138SOL    HW242956   1.794   4.801   5.052 -1.7611  1.2604 -1.8189
14139SOL     OW42957   0.059   1.555   0.348 -0.1961 -0.3881 -0.0797
14139SOL    HW142958   0.001   1.482   0.371 -0.8489  0.2903  0.4844
14139SOL    HW242959   0.103   1.526   0.268 -0.6026 -1.3100  0.0181
14140SOL     OW42960   4.597   3.427   2.078 -0.3869  0.0489  0.2749
14140SOL    HW142961   4.586   3.355   2.016 -0.7114  0.8008 -0.5465
14140SOL    HW242962   4.516   3.426   2.129 -0.6471  0.2159 -0.1351
14141SOL     OW42963   4.011   6.635   5.636  0.6317 -0.3216 -0.3801
14141SOL    HW142964   3.971   6.621   5.722 -1.5668  3.2738 -0.6362
14141SOL    HW242965   3.947   6.599   5.574  0.4686  0.2989 -0.5842
14142SOL     OW42966   2.792   1.624   2.672 -0.7192  0.1595  0.1043
14142SOL    HW142967   2.798   1.685   2.746 -2.5999 -1.3493  1.6123
14142SOL    HW242968   2.720   1.657   2.619 -0.6348  0.1739 -0.0025
14143SOL     OW42969   6.968   3.517   6.976  0.5844  0.3487 -0.0155
14143SOL    HW142970   6.928   3.434   7.003  0.9094  0.0903 -0.3208
14143SOL    HW242971   7.052   3.492   6.939  0.9925  0.8829  0.5311
14144SOL     OW42972   6.167   4.678   0.480  0.0898 -0.4292  0.2887
14144SOL    HW142973   6.124   4.647   0.560  0.3742  0.0483  0.6317
14144SOL    HW242974   6.126   4.628   0.410  0.4629 -1.5173  0.8153
14145SOL     OW42975   7.614   7.075   3.489 -0.2917  0.0052  0.0594
14145SOL    HW142976   7.607   7.009   3.559  1.0047  0.1815  0.3715
14145SOL    HW242977   7.529   7.119   3.490 -0.8731 -1.0752  0.4266
14146SOL     OW42978   2.638   3.835   2.992 -0.1699 -0.3425  0.4234
14146SOL    HW142979   2.720   3.882   2.980 -0.0926 -0.5402  0.1676
14146SOL    HW242980   2.628   3.827   3.087  0.0522 -0.2278  0.4562
14147SOL     OW42981   1.988   1.572   1.801 -0.6534  0.1214 -0.1971
14147SOL    HW142982   1.901   1.533   1.800 -1.0471  0.9476  0.6783
14147SOL    HW242983   1.979   1.652   1.853  0.4453  0.6534 -0.7836
14148SOL     OW42984   3.257   4.463   7.270  0.6443 -0.2447 -0.2406
14148SOL    HW142985   3.309   4.425   7.199  2.1049 -1.7525  1.5397
14148SOL    HW242986   3.175   4.413   7.270  0.4877  0.0052 -1.0648
14149SOL     OW42987   2.797   3.414   0.340 -0.1988 -0.3073  0.5386
14149SOL    HW142988   2.856   3.444   0.409 -0.5019  1.0250  0.2358
14149SOL    HW242989   2.713   3.456   0.360  0.3369  2.2601 -2.0727
14150SOL     OW42990   6.672   6.600   0.185  0.1236 -0.2920  0.0915
14150SOL    HW142991   6.669   6.531   0.118  0.9444 -0.0123 -0.2411
14150SOL    HW242992   6.658   6.681   0.136  1.6089 -0.0026  0.1084
14151SOL     OW42993   1.314   1.123   5.846  0.4932  0.2358 -0.0217
14151SOL    HW142994   1.223   1.093   5.846  0.2606  0.8949 -0.8292
14151SOL    HW242995   1.366   1.043   5.845 -0.0648 -0.1569  0.9939
14152SOL     OW42996   1.033   5.733   1.113 -0.0546 -0.5740 -0.0823
14152SOL    HW142997   0.992   5.647   1.122 -0.2766 -0.3460  1.3554
14152SOL    HW242998   0.960   5.795   1.117  0.2999 -0.2153  1.5025
14153SOL     OW42999   4.885   7.336   4.621  0.1320  0.3694 -0.7001
14153SOL    HW143000   4.846   7.253   4.649 -0.3661  1.5111  2.3881
14153SOL    HW243001   4.823   7.371   4.556 -1.0014 -0.5068 -0.1350
14154SOL     OW43002   3.421   4.761   4.843  0.2495  0.3474 -0.1736
14154SOL    HW143003   3.394   4.678   4.805 -0.8456  0.4618  0.2929
14154SOL    HW243004   3.435   4.741   4.936  0.2372  0.6237 -0.1107
14155SOL     OW43005   4.646   2.948   6.836 -0.0125 -0.2601 -0.7988
14155SOL    HW143006   4.553   2.968   6.822 -0.1184 -0.1923 -0.0507
14155SOL    HW243007   4.645   2.872   6.894  0.4025 -0.3508 -0.9124
14156SOL     OW43008   0.799   4.521   3.592 -0.4313 -0.1237 -0.0414
14156SOL    HW143009   0.805   4.486   3.503 -0.6594 -0.7511  0.1847
14156SOL    HW243010   0.850   4.602   3.590 -0.2378 -0.2593 -0.6795
14157SOL     OW43011   6.062   1.830   2.349  0.0611  0.7941  0.0523
14157SOL    HW143012   6.029   1.814   2.261 -1.4014  0.9670  0.5528
14157SOL    HW243013   6.129   1.897   2.338  0.5939  0.1163 -1.0382
14158SOL     OW43014   1.161   4.175   4.337 -0.2380 -0.7939 -0.2016
14158SOL    HW143015   1.141   4.172   4.431 -1.4127 -0.2477 -0.4175
14158SOL    HW243016   1.129   4.260   4.308  1.3991 -0.3524 -0.8402
14159SOL     OW43017   7.128   5.005   3.247  0.5087  0.2865 -0.3186
14159SOL    HW143018   7.181   4.925   3.245  0.5768  0.3224  0.1053
14159SOL    HW243019   7.181   5.068   3.295  0.2037  0.4093 -0.1387
14160SOL     OW43020   7.167   4.297   3.012  0.2498  0.2661  0.2997
14160SOL    HW143021   7.129   4.236   2.949 -0.7806  0.6119  0.5670
14160SOL    HW243022   7.098   4.362   3.026  0.9094  0.8417  0.8897
14161SOL     OW43023   3.482   1.308   4.250 -0.5561  0.0014  0.4283
14161SOL    HW143024   3.520   1.332   4.334 -0.0045 -0.6130  0.3595
14161SOL    HW243025   3.495   1.214   4.243  3.6018  0.4766 -2.2768
14162SOL     OW43026   4.348   0.744   2.283 -0.1482  0.1085  0.6684
14162SOL    HW143027   4.344   0.833   2.318  0.2828  0.4266 -0.0679
14162SOL    HW243028   4.407   0.750   2.208 -1.8817 -0.2997 -0.8029
14163SOL     OW43029   7.001   3.002   1.020  0.2566 -0.1439  0.4465
14163SOL    HW143030   7.093   3.019   1.040 -0.0411 -0.1347  1.9324
14163SOL    HW243031   6.958   3.001   1.105 -0.6472 -3.0339  0.0741
14164SOL     OW43032   5.656   2.082   1.593 -0.1344 -0.2038  0.0058
14164SOL    HW143033   5.742   2.046   1.570  0.1645 -1.1264  2.2495
14164SOL    HW243034   5.611   2.092   1.510  2.3261  0.8604 -1.3275
14165SOL     OW43035   5.426   3.792   1.190 -0.2892  0.0660 -0.8120
14165SOL    HW143036   5.428   3.699   1.169 -0.2178 -0.2757  0.6547
14165SOL    HW243037   5.362   3.828   1.128 -1.8435 -1.3104 -0.1050
14166SOL     OW43038   2.204   7.536   0.974  0.0434 -0.0462  0.0184
14166SOL    HW143039   2.127   7.511   1.025 -0.1120 -1.2768 -0.7872
14166SOL    HW243040   2.278   7.517   1.032 -0.1449 -1.1853 -0.0965
14167SOL     OW43041   1.406   2.745   5.166 -0.1994 -0.2262  0.3459
14167SOL    HW143042   1.355   2.702   5.234  1.1121  0.0980  1.5985
14167SOL    HW243043   1.341   2.783   5.107 -1.3679 -1.6637  0.6541
14168SOL     OW43044   1.062   4.252   1.820  0.2917 -0.0595 -0.3149
14168SOL    HW143045   1.149   4.214   1.830 -0.4315 -1.8681 -0.4845
14168SOL    HW243046   1.052   4.264   1.726  0.2085 -0.2132 -0.3254
14169SOL     OW43047   5.654   3.652   2.162  0.4386 -0.0185  0.3422
14169SOL    HW143048   5.747   3.654   2.142  0.5003 -1.0519  0.4570
14169SOL    HW243049   5.612   3.692   2.086  0.7578 -2.6625 -1.3301
14170SOL     OW43050   3.828   5.411   0.464 -0.5076  0.0203 -0.4062
14170SOL    HW143051   3.864   5.419   0.376 -3.3790 -0.0624 -1.7061
14170SOL    HW243052   3.818   5.317   0.477  0.6158 -0.0159  0.3843
14171SOL     OW43053   4.054   2.764   2.727  0.2737  0.0556  0.1311
14171SOL    HW143054   3.988   2.794   2.664  0.5308  0.0770 -0.1297
14171SOL    HW243055   4.100   2.693   2.682 -0.9314 -1.4031  1.0688
14172SOL     OW43056   5.854   2.238   5.601  0.0954  0.2471  0.1098
14172SOL    HW143057   5.794   2.164   5.613 -1.0389  0.8107 -1.6415
14172SOL    HW243058   5.824   2.280   5.520  0.8343  2.5009  0.9292
14173SOL     OW43059   6.830   2.386   3.427  0.2334  0.6844 -0.1775
14173SOL    HW143060   6.791   2.345   3.504  0.2081 -0.7117 -0.8903
14173SOL    HW243061   6.756   2.407   3.371  0.3402  0.0499 -0.5750
14174SOL     OW43062   0.673   3.703   0.580 -0.1340 -0.7042 -0.6163
14174SOL    HW143063   0.757   3.725   0.620 -1.5196  1.8951  1.1275
14174SOL    HW243064   0.669   3.608   0.583  2.1230 -0.8250  0.5450
14175SOL     OW43065   1.849   5.229   3.242  0.0545  0.4776  0.1200
14175SOL    HW143066   1.905   5.228   3.320  1.3453 -0.1366 -0.7865
14175SOL    HW243067   1.779   5.167   3.263  0.3408  0.3797  0.8231
14176SOL     OW43068   4.042   3.402   7.394  0.1088  0.1297  0.1919
14176SOL    HW143069   3.949   3.409   7.416  0.2702 -0.6305  1.1966
14176SOL    HW243070   4.087   3.447   7.466  0.5054  1.0132 -0.5889
14177SOL     OW43071   2.069   4.507   5.493  0.1575 -0.1606 -0.5755
14177SOL    HW143072   2.043   4.503   5.585 -0.3521  0.1538 -0.7045
14177SOL    HW243073   2.154   4.551   5.494  0.1786 -0.2057 -0.2545
14178SOL     OW43074   4.941   6.866   5.572 -0.1083 -0.2379  0.1818
14178SOL    HW143075   4.997   6.838   5.500 -1.8314 -0.8994 -0.9490
14178SOL    HW243076   4.967   6.810   5.645  2.0086  0.7907  0.3005
14179SOL     OW43077   1.032   4.369   4.218  0.6522 -0.3251  0.2391
14179SOL    HW143078   1.005   4.348   4.128  2.5742  1.1048 -0.7444
14179SOL    HW243079   0.950   4.371   4.268 -0.5208 -0.6431 -1.5784
14180SOL     OW43080   7.404   4.545   2.752 -0.4846 -0.2771  0.4084
14180SOL    HW143081   7.469   4.480   2.724 -0.5783 -1.4230  2.6399
14180SOL    HW243082   7.353   4.563   2.673  1.8782 -0.0687 -1.1875
14181SOL     OW43083   3.524   2.574   1.560 -0.1023 -0.0277  0.3665
14181SOL    HW143084   3.432   2.551   1.545 -0.0396  0.2835 -0.5716
14181SOL    HW243085   3.548   2.626   1.484  1.3710 -1.6015 -0.2922
14182SOL     OW43086   2.419   4.514   6.057  0.1229  0.7270 -0.0663
14182SOL    HW143087   2.416   4.530   5.963  0.7226  0.9007 -0.0620
14182SOL    HW243088   2.364   4.437   6.070 -0.0882  0.7929 -0.5351
14183SOL     OW43089   5.513   5.437   1.392  0.5393  0.0386  0.2450
14183SOL    HW143090   5.494   5.477   1.307  0.7086  0.5606  0.4446
14183SOL    HW243091   5.608   5.433   1.395  0.6466  1.9446  1.2443
14184SOL     OW43092   6.151   3.575   5.732 -0.4659  0.1300 -0.6007
14184SOL    HW143093   6.237   3.560   5.694 -0.1458 -0.0461  0.1813
14184SOL    HW243094   6.103   3.494   5.714  0.2069 -0.6045  0.7509
14185SOL     OW43095   0.247   1.127   7.397  0.4481 -0.4515 -0.2951
14185SOL    HW143096   0.220   1.184   7.325  1.4758  0.6792  0.1726
14185SOL    HW243097   0.335   1.097   7.372  0.0481 -1.6009 -0.3842
14186SOL     OW43098   2.012   3.866   0.735 -0.5090  0.4325  0.2643
14186SOL    HW143099   1.941   3.862   0.799 -0.1295  1.5828  0.7903
14186SOL    HW243100   2.049   3.778   0.733 -3.5553 -1.0097 -1.9326
14187SOL     OW43101   5.302   7.023   7.268 -0.2442  0.5298 -0.6419
14187SOL    HW143102   5.296   7.037   7.173 -0.7490 -0.5168 -0.7782
14187SOL    HW243103   5.311   7.111   7.304  0.4806  0.9201 -1.6932
14188SOL     OW43104   0.039   4.986   0.480  0.4000 -0.0014 -0.4204
14188SOL    HW143105  -0.046   4.943   0.482  0.8896 -1.0181  1.6457
14188SOL    HW243106   0.062   4.998   0.572  0.8617  3.6766 -0.8675
14189SOL     OW43107   0.150   1.268   5.135  0.6344 -0.2974 -0.4338
14189SOL    HW143108   0.196   1.337   5.183  0.2900  1.1969 -2.1756
14189SOL    HW243109   0.149   1.194   5.196  2.1660  0.7825  0.9985
14190SOL     OW43110   2.082   6.932   3.219  0.7616  0.2480  0.6141
14190SOL    HW143111   2.108   6.879   3.144 -0.3392 -0.5196  0.7441
14190SOL    HW243112   1.992   6.904   3.238 -0.2113  2.7929  0.1339
14191SOL     OW43113   0.997   6.352   1.496  0.5088  0.1597 -0.1083
14191SOL    HW143114   1.091   6.344   1.510  0.4337  0.4462  0.5968
14191SOL    HW243115   0.967   6.261   1.486  0.5623 -0.1210  1.7849
14192SOL     OW43116   1.681   5.802   6.040 -0.1156  0.0687  0.1123
14192SOL    HW143117   1.676   5.721   6.092  0.4811 -0.0789 -0.0501
14192SOL    HW243118   1.591   5.832   6.035 -0.3493 -0.5881  0.1789
14193SOL     OW43119   5.499   1.103   5.785  0.2171 -0.1369  0.2197
14193SOL    HW143120   5.574   1.125   5.730 -0.9239  0.9731 -0.9681
14193SOL    HW243121   5.509   1.157   5.863  0.0879  0.8443 -0.4320
14194SOL     OW43122   6.558   6.107   2.113  0.0070 -0.1176  0.1480
14194SOL    HW143123   6.585   6.103   2.022  0.9171  0.6574  0.3685
14194SOL    HW243124   6.626   6.059   2.161 -0.6716 -0.8620  0.3866
14195SOL     OW43125   1.660   0.078   3.665  0.2039  0.9144  0.2223
14195SOL    HW143126   1.752   0.088   3.686  0.6868 -2.2095  0.0741
14195SOL    HW243127   1.657   0.006   3.602 -2.4438 -0.1977  1.4506
14196SOL     OW43128   2.717   2.115   0.297 -0.6664 -0.7314  0.5809
14196SOL    HW143129   2.775   2.100   0.372 -2.1908 -1.5515  1.6558
14196SOL    HW243130   2.639   2.155   0.335 -0.0632  2.3568 -1.1167
14197SOL     OW43131   0.305   4.406   7.552 -0.2143 -0.2389  0.3636
14197SOL    HW143132   0.396   4.380   7.563 -0.7536 -2.4680  0.0761
14197SOL    HW243133   0.275   4.428   7.640  0.2779 -0.6714  0.6415
14198SOL     OW43134   4.543   5.023   0.198 -0.1651  0.0636 -0.2241
14198SOL    HW143135   4.455   5.040   0.166 -0.4642  0.2645  0.6805
14198SOL    HW243136   4.598   5.022   0.119 -1.0486 -0.6227 -0.8394
14199SOL     OW43137   2.458   3.080   5.284  0.1706 -0.4685 -0.4852
14199SOL    HW143138   2.406   3.159   5.296  0.6880 -0.1079 -0.5568
14199SOL    HW243139   2.450   3.060   5.191 -0.0709 -0.5820 -0.4411
14200SOL     OW43140   4.827   5.744   1.713  0.8712 -0.3197  0.1189
14200SOL    HW143141   4.869   5.669   1.670  1.9159  0.9527 -1.1776
14200SOL    HW243142   4.783   5.791   1.642  0.9805  0.7735  0.7524
14201SOL     OW43143   3.445   3.652   7.425 -0.0375  0.1460  0.3264
14201SOL    HW143144   3.459   3.572   7.374  0.0262  0.2160  0.2347
14201SOL    HW243145   3.493   3.720   7.378 -1.1493  0.5151 -0.3387
14202SOL     OW43146   2.514   4.505   4.912  0.3152 -0.7650 -0.0022
14202SOL    HW143147   2.440   4.460   4.953  0.4475 -0.3901  0.6574
14202SOL    HW243148   2.478   4.588   4.882 -0.2934 -1.8709 -2.5547
14203SOL     OW43149   0.693   6.520   2.266  0.2654  0.8674  0.0427
14203SOL    HW143150   0.627   6.586   2.286 -1.1002 -1.1180  2.6731
14203SOL    HW243151   0.645   6.437   2.261  2.3026 -0.4150  0.2103
14204SOL     OW43152   6.599   0.388   5.206  0.0460 -0.1798  0.6715
14204SOL    HW143153   6.520   0.440   5.222  0.2851  0.4684 -0.1866
14204SOL    HW243154   6.661   0.416   5.273  0.8761  2.1575 -0.9399
14205SOL     OW43155   2.196   0.242   5.776 -0.2138 -0.3000  0.2456
14205SOL    HW143156   2.131   0.183   5.814 -0.8373  0.2664  0.0770
14205SOL    HW243157   2.246   0.275   5.851  0.0024 -0.8755  0.3571
14206SOL     OW43158   4.829   5.849   2.596  0.5417  0.5113  0.3102
14206SOL    HW143159   4.895   5.917   2.590  0.6122  0.3422 -1.4874
14206SOL    HW243160   4.751   5.887   2.556  0.0766  0.1060  0.8068
14207SOL     OW43161   2.291   6.756   3.358 -0.0858  0.4224  0.3444
14207SOL    HW143162   2.229   6.716   3.420  0.3695 -0.6857  0.0995
14207SOL    HW243163   2.235   6.802   3.296 -0.7147 -0.8163 -0.0521
14208SOL     OW43164   5.851   0.183   2.812 -0.5996 -0.1122  0.2791
14208SOL    HW143165   5.808   0.109   2.854 -2.1178  0.5312 -0.0793
14208SOL    HW243166   5.923   0.145   2.762 -2.0664 -1.4800 -0.8629
14209SOL     OW43167   3.280   4.316   2.155  0.5788  0.4022 -0.0539
14209SOL    HW143168   3.355   4.323   2.096  0.1971 -1.1893 -0.7700
14209SOL    HW243169   3.234   4.400   2.145  0.5348  0.1956 -2.0411
14210SOL     OW43170   5.425   3.140   3.912  0.0224  0.0113  0.4591
14210SOL    HW143171   5.452   3.119   4.002  2.2091 -2.1628 -0.5916
14210SOL    HW243172   5.500   3.186   3.875 -0.3926 -0.1589 -0.6170
14211SOL     OW43173   2.413   1.114   0.922  0.3727 -0.1440 -0.3480
14211SOL    HW143174   2.373   1.028   0.910  0.5894 -0.3666  0.4449
14211SOL    HW243175   2.338   1.173   0.937  0.2917 -0.4514  0.5133
14212SOL     OW43176   5.951   3.143   1.802 -0.3628 -0.2344 -0.6542
14212SOL    HW143177   5.866   3.101   1.815 -0.1241 -1.4734 -2.6887
14212SOL    HW243178   6.009   3.099   1.864 -0.9634 -0.1274 -0.0080
14213SOL     OW43179   5.080   3.466   3.839  0.3285  0.4544 -0.2703
14213SOL    HW143180   5.090   3.516   3.920 -1.1557 -0.2794  0.4100
14213SOL    HW243181   5.057   3.378   3.868  0.9507 -0.1325 -1.4800
14214SOL     OW43182   0.081   4.628   5.234  0.6597 -0.3971  0.2501
14214SOL    HW143183   0.053   4.636   5.143  2.2506 -0.5610 -0.2926
14214SOL    HW243184   0.124   4.711   5.254 -1.7790  0.6164  1.6869
14215SOL     OW43185   5.368   2.232   2.429 -0.1367  0.4386  0.7820
14215SOL    HW143186   5.390   2.255   2.519  0.0621 -2.5370  1.5979
14215SOL    HW243187   5.400   2.306   2.377 -0.1772  2.2013  3.0902
14216SOL     OW43188   0.726   7.523   6.287  0.3296  0.0048  0.3084
14216SOL    HW143189   0.645   7.502   6.241  0.7094 -1.7321  0.3572
14216SOL    HW243190   0.789   7.457   6.256  1.3757  0.5491  1.1994
14217SOL     OW43191   1.729   3.268   7.276 -0.0734 -0.2553 -0.2555
14217SOL    HW143192   1.735   3.285   7.182 -0.4396  0.4156 -0.1616
14217SOL    HW243193   1.650   3.314   7.304 -0.2671 -0.9117  0.2826
14218SOL     OW43194   0.044   6.106   0.945 -0.1191 -0.2606  0.3044
14218SOL    HW143195  -0.007   6.181   0.912  0.0808  1.0279  2.7220
14218SOL    HW243196   0.005   6.086   1.030  1.6372 -1.0932  0.9576
14219SOL     OW43197   0.445   4.466   7.275  0.1357  0.8466 -0.4060
14219SOL    HW143198   0.473   4.460   7.184 -1.2990  0.0705 -0.8268
14219SOL    HW243199   0.515   4.425   7.325  0.3544  0.1419 -1.2818
14220SOL     OW43200   0.751   2.709   7.228  0.8584 -0.5579  0.2224
14220SOL    HW143201   0.670   2.665   7.255  0.0085  0.3681 -0.7313
14220SOL    HW243202   0.814   2.687   7.296  0.2011 -2.4369  0.2859
14221SOL     OW43203   1.721   7.542   4.621  0.5625 -0.6899 -0.1122
14221SOL    HW143204   1.678   7.544   4.535 -2.6345  0.0041  1.3450
14221SOL    HW243205   1.727   7.449   4.642  0.5577 -0.8363 -0.7340
14222SOL     OW43206   3.982   0.149   2.093 -0.3942 -0.0817 -0.3229
14222SOL    HW143207   3.888   0.154   2.109 -0.3910  2.4293 -0.7126
14222SOL    HW243208   3.990   0.134   1.999 -0.4434  1.2077 -0.5509
14223SOL     OW43209   3.389   5.509   3.168  0.9980 -0.6219 -0.5795
14223SOL    HW143210   3.406   5.498   3.075 -1.7351  0.0851 -1.2472
14223SOL    HW243211   3.352   5.425   3.195 -1.6065  0.2721 -1.0752
14224SOL     OW43212   4.858   3.753   2.675 -0.0177 -0.2572 -0.1390
14224SOL    HW143213   4.857   3.751   2.771 -0.7918 -0.1400 -0.1432
14224SOL    HW243214   4.799   3.683   2.649  0.1409 -0.2448 -0.5307
14225SOL     OW43215   3.145   3.429   0.093  0.3864 -0.4360  0.3832
14225SOL    HW143216   3.089   3.397   0.022 -2.4342  2.1000  1.2393
14225SOL    HW243217   3.152   3.523   0.077  2.2711 -0.2886  1.8095
14226SOL     OW43218   3.381   0.997   1.368 -0.5378 -0.4050 -0.2542
14226SOL    HW143219   3.331   0.993   1.286  0.4200 -0.0039 -0.8705
14226SOL    HW243220   3.453   0.935   1.356  0.7534  1.0868 -0.5284
14227SOL     OW43221   3.991   2.170   2.164 -0.4294  0.5865 -0.2791
14227SOL    HW143222   4.001   2.101   2.229 -0.4565 -0.4402 -1.3153
14227SOL    HW243223   4.052   2.145   2.094 -0.4912  1.5836 -0.7043
14228SOL     OW43224   1.553   0.182   2.774  0.6030  0.0653  0.0362
14228SOL    HW143225   1.551   0.086   2.769  1.5016  0.0768 -1.0754
14228SOL    HW243226   1.595   0.201   2.858  0.8958 -0.5399  0.0345
14229SOL     OW43227   5.185   5.424   5.803  0.3279  0.5922 -0.3621
14229SOL    HW143228   5.258   5.481   5.782  1.0041  0.8500  2.2832
14229SOL    HW243229   5.124   5.479   5.852 -0.1982 -0.3175  0.0483
14230SOL     OW43230   1.255   2.920   2.318  0.3731 -0.4788 -0.2044
14230SOL    HW143231   1.340   2.964   2.316  0.9612 -1.5661  0.3606
14230SOL    HW243232   1.239   2.895   2.227 -0.1675  1.2142 -0.6187
14231SOL     OW43233   0.875   0.427   2.684  0.1307  0.2009 -0.7391
14231SOL    HW143234   0.917   0.376   2.615  0.8228 -2.2051  1.3133
14231SOL    HW243235   0.789   0.385   2.696  0.1256  0.4147  0.0267
14232SOL     OW43236   2.016   1.452   0.983 -0.3100 -0.8616 -0.2677
14232SOL    HW143237   2.104   1.444   1.019 -0.2058 -0.4078 -0.4187
14232SOL    HW243238   2.005   1.545   0.966 -1.8063 -0.4626  2.2957
14233SOL     OW43239   7.421   6.209   0.232 -0.3268  0.5563  0.4686
14233SOL    HW143240   7.367   6.165   0.167 -0.5785  0.2799  0.8558
14233SOL    HW243241   7.370   6.203   0.313  0.6618 -0.4739  1.0388
14234SOL     OW43242   6.367   0.502   5.277  0.4665  0.2888 -0.0953
14234SOL    HW143243   6.344   0.489   5.369 -5.0271  2.0713 -0.8810
14234SOL    HW243244   6.404   0.590   5.274  2.1225 -0.3397  0.4604
14235SOL     OW43245   1.065   7.292   4.001 -0.6556  0.5103  0.0289
14235SOL    HW143246   1.036   7.333   4.082 -1.2905  0.1711 -0.0195
14235SOL    HW243247   1.018   7.209   3.998 -0.3588  0.3532 -0.5059
14236SOL     OW43248   2.138   0.597   1.694 -0.6274 -0.1122 -0.3843
14236SOL    HW143249   2.165   0.524   1.638  0.7226 -1.6015  2.0265
14236SOL    HW243250   2.048   0.576   1.719 -0.4189 -0.7030 -0.1093
14237SOL     OW43251   6.313   1.626   5.246  0.2311  0.2434 -0.0288
14237SOL    HW143252   6.261   1.699   5.214 -0.3667  0.9346  2.3630
14237SOL    HW243253   6.279   1.550   5.198 -2.7468  0.7299  1.1215
14238SOL     OW43254   4.636   2.404   3.904 -0.0906  0.8250  0.2234
14238SOL    HW143255   4.725   2.388   3.935 -0.0797  1.7150  0.6769
14238SOL    HW243256   4.593   2.319   3.909  0.5720  0.5039  0.5379
14239SOL     OW43257   6.390   3.954   6.009  0.4466 -0.1400  0.2064
14239SOL    HW143258   6.366   3.909   5.929  0.3500  2.4042 -1.3060
14239SOL    HW243259   6.310   3.956   6.061  0.5817 -2.0583  0.5584
14240SOL     OW43260   3.557   4.635   1.781 -0.1477 -0.8373 -0.3653
14240SOL    HW143261   3.650   4.657   1.788 -0.3814  0.5105 -1.1750
14240SOL    HW243262   3.514   4.718   1.763 -1.5880 -1.3671  0.4885
14241SOL     OW43263   6.686   5.045   7.487 -0.2775 -0.0383  0.2703
14241SOL    HW143264   6.781   5.041   7.486 -0.2958 -0.4875  0.3516
14241SOL    HW243265   6.659   4.977   7.549 -0.6167  0.6905  0.9455
14242SOL     OW43266   7.370   3.768   2.514  0.4410 -0.1670 -0.3869
14242SOL    HW143267   7.351   3.814   2.596 -0.3314 -0.5002 -0.3663
14242SOL    HW243268   7.403   3.836   2.456  2.2092 -0.1486  0.5775
14243SOL     OW43269   1.721   3.149   1.930 -1.0503 -0.2569 -0.3953
14243SOL    HW143270   1.792   3.214   1.933 -2.8501  1.8332 -0.8963
14243SOL    HW243271   1.724   3.115   1.841 -1.2033  0.4601 -0.6822
14244SOL     OW43272   0.223   7.415   1.449  0.5296  0.5532  0.4797
14244SOL    HW143273   0.266   7.329   1.448 -0.1284  0.2224 -0.4481
14244SOL    HW243274   0.252   7.455   1.531 -1.3573 -1.6717  2.3865
14245SOL     OW43275   5.698   1.990   5.987 -0.2581  0.4623  0.2537
14245SOL    HW143276   5.716   1.992   5.893 -0.9648 -1.2936  0.0280
14245SOL    HW243277   5.755   2.057   6.025  0.9061  0.3977 -1.2976
14246SOL     OW43278   6.911   7.336   6.941  0.3439  0.0555  0.1193
14246SOL    HW143279   6.893   7.268   7.006 -1.5032  0.8141  0.4636
14246SOL    HW243280   6.849   7.318   6.870  0.7821  0.5737 -0.4009
14247SOL     OW43281   0.204   0.378   1.500 -0.4439  0.0571  0.4016
14247SOL    HW143282   0.211   0.330   1.418  0.7847  0.2205  0.3823
14247SOL    HW243283   0.133   0.441   1.485 -1.7816 -1.4310  0.2900
14248SOL     OW43284   0.207   0.542   3.177  0.2677  0.4064  0.1552
14248SOL    HW143285   0.269   0.530   3.106 -0.7491  1.1596 -0.8956
14248SOL    HW243286   0.201   0.456   3.218 -0.3107 -0.4760 -1.6749
14249SOL     OW43287   1.999   2.849   1.929 -0.4451 -0.6039 -0.2466
14249SOL    HW143288   1.935   2.778   1.919 -2.0909  0.9401 -1.1438
14249SOL    HW243289   2.084   2.807   1.913 -1.5481 -1.9249 -3.3758
14250SOL     OW43290   4.404   0.544   5.255 -0.4588 -0.0297  0.0289
14250SOL    HW143291   4.438   0.629   5.225  2.2486 -1.7820 -2.4968
14250SOL    HW243292   4.360   0.508   5.178 -2.2784 -0.6665  1.3031
14251SOL     OW43293   0.387   1.852   7.289 -0.0196 -0.1314  0.5425
14251SOL    HW143294   0.456   1.897   7.241 -1.0950  0.7558 -0.2124
14251SOL    HW243295   0.384   1.764   7.250  0.0789  0.1243 -0.0481
14252SOL     OW43296   0.805   6.604   1.022 -0.0801 -0.7180  0.1857
14252SOL    HW143297   0.793   6.602   1.117 -0.2499  2.2523  0.3228
14252SOL    HW243298   0.897   6.626   1.010 -0.6600  1.6862 -0.2092
14253SOL     OW43299   2.548   7.093   5.513 -0.1322  0.3562  0.7311
14253SOL    HW143300   2.614   7.141   5.463 -0.2030 -1.7795 -1.5798
14253SOL    HW243301   2.492   7.161   5.551  0.3163  2.1276 -1.5771
14254SOL     OW43302   2.787   0.109   0.317 -0.8621  0.9075  0.3890
14254SOL    HW143303   2.788   0.014   0.329 -0.4600  0.9549  0.7551
14254SOL    HW243304   2.766   0.121   0.224 -2.9396  0.5006  0.7451
14255SOL     OW43305   6.222   6.375   7.355 -0.1844 -0.1286 -0.1303
14255SOL    HW143306   6.301   6.341   7.397  1.1794  1.4142 -1.3180
14255SOL    HW243307   6.195   6.448   7.411 -0.1293  0.0482 -0.3366
14256SOL     OW43308   7.289   2.135   5.865  0.4973 -0.3633 -0.3029
14256SOL    HW143309   7.258   2.096   5.783 -0.2141 -0.7598  0.1461
14256SOL    HW243310   7.327   2.062   5.913  0.6457 -0.1863 -0.1500
14257SOL     OW43311   2.120   5.608   0.009 -0.1238 -0.7714  0.1871
14257SOL    HW143312   2.124   5.655  -0.074 -1.4500 -0.2905  0.3730
14257SOL    HW243313   2.194   5.547   0.005  1.8570  1.4864  0.0582
14258SOL     OW43314   0.298   3.595   6.595  0.1044 -0.0502 -0.2653
14258SOL    HW143315   0.255   3.524   6.642  0.3867 -0.2543 -0.3167
14258SOL    HW243316   0.244   3.672   6.614  0.7046  0.0672  1.1413
14259SOL     OW43317   0.831   4.562   2.370  0.0603 -0.2069 -0.0986
14259SOL    HW143318   0.887   4.506   2.424  0.5005 -0.6919 -1.0278
14259SOL    HW243319   0.826   4.645   2.417  2.5077  0.2399 -0.5309
14260SOL     OW43320   4.528   1.490   6.963  0.0239 -0.1290 -0.0640
14260SOL    HW143321   4.511   1.510   6.871  0.6047  1.4044  0.1303
14260SOL    HW243322   4.622   1.504   6.974  0.8177 -4.1763 -0.1108
14261SOL     OW43323   3.631   6.365   6.227  0.1831 -0.1010  0.3693
14261SOL    HW143324   3.657   6.322   6.146 -1.2429  0.5409 -0.4684
14261SOL    HW243325   3.698   6.433   6.241 -0.8249  1.4273 -1.6527
14262SOL     OW43326   0.094   3.390   0.112 -0.0479  0.0170 -0.0784
14262SOL    HW143327   0.003   3.385   0.141 -0.4916 -0.0474 -1.3873
14262SOL    HW243328   0.144   3.410   0.191 -0.8089 -3.0141  1.2977
14263SOL     OW43329   0.706   1.118   0.871  0.2059 -0.3383  0.7931
14263SOL    HW143330   0.667   1.044   0.825 -0.3700  0.6072 -0.2903
14263SOL    HW243331   0.779   1.080   0.920 -2.3068 -2.2560  3.3160
14264SOL     OW43332   5.262   6.099   6.251 -0.0754 -0.3810  0.0946
14264SOL    HW143333   5.351   6.065   6.240  0.6066  1.3970 -0.3359
14264SOL    HW243334   5.273   6.178   6.304 -1.4925 -0.4393  0.5212
14265SOL     OW43335   2.359   1.944   6.160 -0.1020 -0.4781 -0.2806
14265SOL    HW143336   2.370   1.849   6.161 -0.3005 -0.4974  0.2288
14265SOL    HW243337   2.429   1.976   6.216 -0.7225 -0.4013  0.4644
14266SOL     OW43338   1.933   0.671   2.801  0.5082 -0.1119  0.2673
14266SOL    HW143339   1.871   0.705   2.865 -2.0161 -1.3480 -1.3467
14266SOL    HW243340   1.946   0.743   2.740 -0.6508 -0.3080 -0.2454
14267SOL     OW43341   0.870   1.627   4.008  0.2597  0.5459 -0.2924
14267SOL    HW143342   0.804   1.597   4.071  0.5202  0.0900 -0.2288
14267SOL    HW243343   0.825   1.693   3.956  0.0079  0.8576  0.3025
14268SOL     OW43344   2.294   5.181   0.135 -0.0570  0.2904 -0.5007
14268SOL    HW143345   2.389   5.184   0.121 -0.0295  1.1148 -0.2256
14268SOL    HW243346   2.277   5.252   0.197 -0.9076  0.3895 -0.8336
14269SOL     OW43347   4.821   4.788   0.637  0.7804 -0.0807  0.0634
14269SOL    HW143348   4.827   4.819   0.546 -1.3710  0.5907  0.0931
14269SOL    HW243349   4.806   4.694   0.629  0.7558 -0.0509 -0.2539
14270SOL     OW43350   3.203   0.456   2.293 -0.1853 -0.2829 -0.5721
14270SOL    HW143351   3.114   0.431   2.269 -0.1390 -1.1556  0.1390
14270SOL    HW243352   3.257   0.422   2.222 -0.4731  0.9259 -1.4096
14271SOL     OW43353   3.220   2.478   3.971  0.3809 -0.1587  0.1799
14271SOL    HW143354   3.199   2.396   4.016 -0.3698 -1.0601 -1.6935
14271SOL    HW243355   3.169   2.544   4.018 -0.0045 -0.9719  0.9406
14272SOL     OW43356   6.156   4.210   4.520  0.2424  0.1384  0.0343
14272SOL    HW143357   6.237   4.236   4.476  0.6610 -1.3379 -0.1223
14272SOL    HW243358   6.140   4.121   4.489 -1.8318  0.6350 -0.4695
14273SOL     OW43359   6.751   2.931   1.928 -0.4566  0.6023 -0.1765
14273SOL    HW143360   6.732   2.899   1.840  0.5111  0.1125 -0.2243
14273SOL    HW243361   6.722   3.022   1.927 -2.6876 -0.0425 -0.2357
14274SOL     OW43362   1.864   6.754   4.818  0.5232  0.5203  0.5124
14274SOL    HW143363   1.945   6.800   4.841  0.5239  0.5633  0.4231
14274SOL    HW243364   1.859   6.682   4.881  0.0663  1.1584  1.2182
14275SOL     OW43365   1.932   5.291   4.605  0.5074  0.2066  0.0816
14275SOL    HW143366   1.941   5.218   4.544  0.7631  0.0273  0.3286
14275SOL    HW243367   1.922   5.249   4.691  1.2481  0.4671  0.3013
14276SOL     OW43368   1.423   0.466   4.969  0.0249 -0.6015  0.3420
14276SOL    HW143369   1.385   0.389   5.012  0.0865 -1.2641 -0.7549
14276SOL    HW243370   1.355   0.495   4.907  0.3159 -0.2560  0.1777
14277SOL     OW43371   0.313   0.779   2.938 -0.0849 -0.1670 -0.3210
14277SOL    HW143372   0.343   0.704   2.990  0.1001  1.3675  1.9102
14277SOL    HW243373   0.391   0.833   2.927 -0.7094  0.8790  0.2487
14278SOL     OW43374   4.575   2.589   3.030 -0.0375  0.1768  0.0955
14278SOL    HW143375   4.599   2.527   3.100  0.7401 -0.5696 -0.8080
14278SOL    HW243376   4.602   2.674   3.064  0.7795 -0.2392  0.5216
14279SOL     OW43377   1.878   3.165   0.324 -0.2763 -0.3405 -0.0158
14279SOL    HW143378   1.863   3.071   0.330 -1.3330 -0.3143 -1.8016
14279SOL    HW243379   1.844   3.200   0.407 -0.4712 -1.4419  0.3850
14280SOL     OW43380   6.560   2.534   6.066 -0.0750 -0.0560  0.2176
14280SOL    HW143381   6.577   2.584   5.986 -3.4572  1.0760  0.0629
14280SOL    HW243382   6.537   2.601   6.131 -0.6845 -1.1615  1.1722
14281SOL     OW43383   1.909   5.642   6.263 -0.2126  0.4498  0.3455
14281SOL    HW143384   1.912   5.562   6.314 -0.0854 -0.1820 -0.6324
14281SOL    HW243385   1.877   5.709   6.324  3.1511  0.5021  2.2496
14282SOL     OW43386   1.240   4.145   2.968 -0.0174  0.0156 -0.0479
14282SOL    HW143387   1.225   4.156   2.875  1.7362 -0.8090 -0.4682
14282SOL    HW243388   1.184   4.071   2.993  1.6672 -1.7062 -1.1232
14283SOL     OW43389   6.391   3.486   1.373 -0.1042 -0.1299  0.4313
14283SOL    HW143390   6.324   3.418   1.377  1.0373 -1.4030 -0.9801
14283SOL    HW243391   6.413   3.503   1.464 -0.1242 -1.9607  0.8086
14284SOL     OW43392   5.020   0.904   1.170 -0.1454  0.3939  0.3320
14284SOL    HW143393   5.047   0.972   1.231  1.6736 -0.7672  0.9029
14284SOL    HW243394   5.018   0.824   1.224 -1.2540 -0.1784 -0.5287
14285SOL     OW43395   3.772   5.422   3.800  0.5464 -0.0330  0.6233
14285SOL    HW143396   3.739   5.508   3.827 -0.7441  1.2506 -4.0875
14285SOL    HW243397   3.860   5.439   3.767  0.7794 -0.7707  0.8449
14286SOL     OW43398   3.174   2.736   1.866  0.1778  0.4841  1.0207
14286SOL    HW143399   3.262   2.718   1.900 -0.3061 -1.3869  1.3568
14286SOL    HW243400   3.189   2.767   1.777  1.1325 -4.4681 -0.8637
14287SOL     OW43401   0.406   4.258   1.842 -0.0755 -0.4786 -0.0208
14287SOL    HW143402   0.358   4.250   1.925  1.3732 -1.8953  0.7324
14287SOL    HW243403   0.498   4.260   1.868  0.3874 -0.3170 -1.5813
14288SOL     OW43404   3.336   0.701   2.682 -0.3730 -0.2869 -0.2259
14288SOL    HW143405   3.428   0.724   2.670 -0.4324 -0.4519 -1.0872
14288SOL    HW243406   3.304   0.763   2.747  0.4855 -0.6029  0.5153
14289SOL     OW43407   7.553   0.880   4.074 -0.4149  0.0276  0.0214
14289SOL    HW143408   7.637   0.889   4.119  0.5392  0.1664 -1.7024
14289SOL    HW243409   7.533   0.968   4.043 -1.3664  0.0504  0.6511
14290SOL     OW43410   5.298   2.317   0.102  0.3366 -0.0591  0.1662
14290SOL    HW143411   5.343   2.402   0.099  1.1997 -0.5012  0.3801
14290SOL    HW243412   5.208   2.339   0.124  0.8151  0.7226  1.4363
14291SOL     OW43413   6.595   7.348   0.265 -0.0128 -0.2138 -0.0483
14291SOL    HW143414   6.675   7.298   0.253 -0.7090 -1.4005  0.0981
14291SOL    HW243415   6.597   7.377   0.356  0.0452 -0.6108  0.0758
14292SOL     OW43416   1.705   0.026   5.397  0.0208  0.0817  0.0768
14292SOL    HW143417   1.634  -0.036   5.383 -2.1462  2.2974  0.4978
14292SOL    HW243418   1.698   0.088   5.324  1.2445  0.6274  0.3852
14293SOL     OW43419   2.562   1.294   7.527 -0.2936  0.2715  0.5835
14293SOL    HW143420   2.495   1.226   7.542  0.3287 -0.2554  1.0492
14293SOL    HW243421   2.516   1.376   7.545 -1.7615  0.2304 -2.3349
14294SOL     OW43422   4.305   1.828   1.695 -0.0096  0.2740 -0.1899
14294SOL    HW143423   4.260   1.871   1.622 -0.3239 -0.9494 -0.7391
14294SOL    HW243424   4.353   1.898   1.739 -1.3161  1.3590 -0.4451
14295SOL     OW43425   5.916   5.101   1.142  0.2437 -0.2373  0.1987
14295SOL    HW143426   5.827   5.121   1.170  0.4288  0.0523  0.5919
14295SOL    HW243427   5.948   5.183   1.104 -0.0583 -0.6678 -1.0286
14296SOL     OW43428   1.690   1.368   6.708 -0.6215 -0.1136 -0.4699
14296SOL    HW143429   1.761   1.315   6.744 -1.2628 -0.5725  0.1468
14296SOL    HW243430   1.672   1.328   6.623  0.9982  1.0690 -1.4318
14297SOL     OW43431   6.628   6.860   5.480  0.2558 -0.1268  0.1073
14297SOL    HW143432   6.690   6.932   5.494 -1.5107  1.2558  1.2779
14297SOL    HW243433   6.681   6.781   5.484  2.0312  1.0307  0.4015
14298SOL     OW43434   3.446   1.837   6.450 -0.1420 -0.4867 -0.0181
14298SOL    HW143435   3.535   1.873   6.456 -0.5240  0.4229  0.3562
14298SOL    HW243436   3.395   1.892   6.510 -0.9176 -1.1213 -0.0992
14299SOL     OW43437   5.658   6.240   7.611  0.2633 -0.1413  0.1498
14299SOL    HW143438   5.631   6.149   7.615  0.5776 -0.2915 -0.7541
14299SOL    HW243439   5.729   6.248   7.675 -0.1895 -0.3711  0.6830
14300SOL     OW43440   2.398   6.302   0.403  0.2253  0.4630  0.2841
14300SOL    HW143441   2.433   6.251   0.330  1.8903  1.8047  0.0827
14300SOL    HW243442   2.335   6.363   0.362  0.8007  0.8905  0.0278
14301SOL     OW43443   2.494   6.646   4.551  0.4252 -0.1016  0.3798
14301SOL    HW143444   2.437   6.573   4.577  1.4187 -0.8758  0.4189
14301SOL    HW243445   2.439   6.700   4.493  0.1602 -1.7243 -0.9436
14302SOL     OW43446   4.721   2.945   3.790 -0.5595  0.6427  0.2194
14302SOL    HW143447   4.733   3.030   3.833  2.8071  0.1837  0.4494
14302SOL    HW243448   4.751   2.881   3.855  0.8898 -0.3546 -1.3548
14303SOL     OW43449   3.433   0.540   0.154 -0.2856  0.0842  0.8379
14303SOL    HW143450   3.468   0.468   0.101 -0.3275 -0.6304  1.7466
14303SOL    HW243451   3.388   0.496   0.226 -2.1164  0.9972  0.3122
14304SOL     OW43452   3.397   7.073   3.792 -0.1965  0.1432  0.3309
14304SOL    HW143453   3.393   7.156   3.745  0.9093  0.6817  1.1186
14304SOL    HW243454   3.491   7.058   3.806 -0.4239 -0.7593  1.0216
14305SOL     OW43455   3.852   3.846   6.614  0.1357  0.5723  0.5663
14305SOL    HW143456   3.873   3.805   6.698 -0.6820  0.2574  0.6183
14305SOL    HW243457   3.856   3.774   6.551  0.5716  0.7750  0.3554
14306SOL     OW43458   4.691   6.223   3.379  0.2934 -0.2079  0.5541
14306SOL    HW143459   4.610   6.206   3.426 -0.3925  0.6960 -0.2594
14306SOL    HW243460   4.667   6.287   3.312  1.8176  0.5864  0.7207
14307SOL     OW43461   2.591   5.786   1.805 -0.2469  0.3664  0.4753
14307SOL    HW143462   2.563   5.720   1.742 -1.2055  0.4587  0.7884
14307SOL    HW243463   2.671   5.823   1.767 -0.9763  0.6486 -0.8356
14308SOL     OW43464   0.366   6.746   2.568  0.1912 -0.2598 -0.4038
14308SOL    HW143465   0.336   6.733   2.658  0.3754  0.9266 -0.1575
14308SOL    HW243466   0.461   6.736   2.573  0.2705  0.4519 -0.3281
14309SOL     OW43467   1.404   5.055   3.721  0.3962  0.0320  0.2201
14309SOL    HW143468   1.398   4.995   3.795  0.3674  0.5040  0.6080
14309SOL    HW243469   1.347   5.129   3.745  0.3173  0.1511 -0.3095
14310SOL     OW43470   2.007   0.587   4.425 -0.5343  0.4098  0.3696
14310SOL    HW143471   2.054   0.641   4.361 -0.9880 -0.8823 -1.1486
14310SOL    HW243472   1.970   0.516   4.372  0.1453 -1.4476  2.2677
14311SOL     OW43473   1.294   1.397   1.090 -0.0239 -0.5071  0.1675
14311SOL    HW143474   1.295   1.347   1.008 -0.8112  0.3583 -0.3960
14311SOL    HW243475   1.301   1.331   1.158  1.6615 -1.1756 -0.5978
14312SOL     OW43476   4.476   4.213   2.142  0.2080  0.5520  0.4651
14312SOL    HW143477   4.422   4.239   2.068 -1.5195  0.4137  1.6236
14312SOL    HW243478   4.473   4.117   2.142  0.8662  0.5264  0.2518
14313SOL     OW43479   2.179   2.494   0.074 -0.0648  0.2398  0.5688
14313SOL    HW143480   2.235   2.536   0.008  0.5080 -1.9416 -0.4681
14313SOL    HW243481   2.122   2.563   0.106  1.7437  2.0678  0.0340
14314SOL     OW43482   4.491   7.355   3.678 -0.0084 -0.1589 -0.5063
14314SOL    HW143483   4.405   7.318   3.695 -0.6974  0.4526 -2.4574
14314SOL    HW243484   4.535   7.291   3.623 -0.1521  0.6010 -1.5357
14315SOL     OW43485   1.448   4.650   4.694  0.2577 -0.1914 -0.1691
14315SOL    HW143486   1.473   4.592   4.621 -0.6189  1.1048 -1.5562
14315SOL    HW243487   1.491   4.611   4.771  2.0425 -1.0596 -1.5197
14316SOL     OW43488   2.557   5.021   2.246  0.0231  0.3964 -0.4171
14316SOL    HW143489   2.652   5.030   2.251  0.2078 -0.4234 -1.7867
14316SOL    HW243490   2.523   5.102   2.285  1.3461  1.8865 -2.1265
14317SOL     OW43491   5.427   3.199   1.921  0.1903  0.7793 -0.5889
14317SOL    HW143492   5.495   3.252   1.880  1.2200  1.3195  1.6798
14317SOL    HW243493   5.377   3.260   1.975  1.3235 -0.4148  1.9773
14318SOL     OW43494   7.485   6.115   3.896 -0.0606 -0.1476 -0.2628
14318SOL    HW143495   7.429   6.186   3.865 -0.7610  0.5066  2.2488
14318SOL    HW243496   7.574   6.143   3.875 -0.3183  1.5851  0.7708
14319SOL     OW43497   3.193   3.055   1.898  0.0753  0.7778 -0.2525
14319SOL    HW143498   3.212   3.072   1.805  3.1411 -0.7919 -0.0346
14319SOL    HW243499   3.106   3.016   1.897 -0.1743  1.2236 -2.4109
14320SOL     OW43500   3.032   6.253   2.843 -0.7499 -0.5113  0.8194
14320SOL    HW143501   3.083   6.269   2.922  1.2709  1.2881 -0.7210
14320SOL    HW243502   3.081   6.185   2.796 -0.1980  0.5875 -0.2547
14321SOL     OW43503   2.159   2.085   5.147  0.1186  0.1167 -0.8061
14321SOL    HW143504   2.222   2.035   5.094  0.9939  1.4817 -1.1095
14321SOL    HW243505   2.208   2.163   5.174 -1.4983  1.3048 -1.1808
14322SOL     OW43506   6.697   5.330   3.074 -0.3994 -0.1407 -0.0717
14322SOL    HW143507   6.632   5.387   3.116  0.8427  0.6410  0.8380
14322SOL    HW243508   6.689   5.247   3.121 -0.0521  0.2693  0.7397
14323SOL     OW43509   5.671   3.762   4.000  0.1141  0.4980 -1.1732
14323SOL    HW143510   5.661   3.831   4.065 -1.0700 -1.5830  1.0129
14323SOL    HW243511   5.609   3.784   3.931 -2.5773  0.1022  0.9686
14324SOL     OW43512   3.266   5.889   1.557  0.3104  0.3783  0.3390
14324SOL    HW143513   3.206   5.954   1.594  0.1918 -0.1541  1.1152
14324SOL    HW243514   3.234   5.874   1.468 -1.8239 -1.1963  1.3016
14325SOL     OW43515   1.065   2.730   3.171 -0.3117  0.0468  0.1847
14325SOL    HW143516   1.072   2.814   3.215  0.4925  0.4712 -0.7293
14325SOL    HW243517   1.063   2.751   3.078  0.2661 -0.9697 -0.0723
14326SOL     OW43518   0.214   6.991   7.332 -0.3707  0.8653 -0.2449
14326SOL    HW143519   0.184   7.054   7.266 -0.9971 -0.6381 -1.4659
14326SOL    HW243520   0.212   6.906   7.287  1.4196  0.0810  1.0234
14327SOL     OW43521   1.124   0.129   0.501 -0.1603 -0.0700 -0.5165
14327SOL    HW143522   1.201   0.124   0.557 -0.8691  0.7489  0.5674
14327SOL    HW243523   1.073   0.050   0.523  0.2781 -0.5332 -1.1249
14328SOL     OW43524   1.048   3.941   5.599 -0.1909  0.1324 -0.2861
14328SOL    HW143525   1.025   3.861   5.552  1.5326 -0.1331 -0.7376
14328SOL    HW243526   1.141   3.931   5.619 -0.3436  1.2856  1.1488
14329SOL     OW43527   1.459   7.479   6.467 -0.0737 -0.0178  0.2095
14329SOL    HW143528   1.551   7.477   6.442 -0.0135 -0.3844  0.4624
14329SOL    HW243529   1.451   7.553   6.527 -0.2089  0.8462 -0.8444
14330SOL     OW43530   7.257   0.664   7.252  0.5434  0.1918 -0.3526
14330SOL    HW143531   7.281   0.686   7.342 -0.0675  1.3420 -0.4604
14330SOL    HW243532   7.334   0.619   7.217  0.8539 -0.1027  0.6770
14331SOL     OW43533   1.595   1.323   6.457 -0.3235  0.3387  0.3540
14331SOL    HW143534   1.677   1.311   6.408 -1.9884 -2.3823 -2.0892
14331SOL    HW243535   1.569   1.413   6.436  2.2324  1.5525  1.7718
14332SOL     OW43536   0.326   5.061   3.786  0.3619 -0.3909  0.3211
14332SOL    HW143537   0.404   5.067   3.841 -0.0596  1.2073  0.8080
14332SOL    HW243538   0.357   5.076   3.697  0.5494  0.8265  0.5803
14333SOL     OW43539   3.741   1.730   3.454 -0.2710 -0.3103  0.7746
14333SOL    HW143540   3.647   1.751   3.456 -0.4007 -0.7761 -0.0068
14333SOL    HW243541   3.769   1.739   3.545 -0.4372  2.6346  0.6348
14334SOL     OW43542   0.684   4.814   4.081 -0.0124 -0.0613 -0.2449
14334SOL    HW143543   0.635   4.734   4.064  0.3090 -0.5341  0.9183
14334SOL    HW243544   0.757   4.812   4.018  0.9956 -1.6049  0.9019
14335SOL     OW43545   2.871   1.857   3.190  0.9380 -0.2249 -0.1649
14335SOL    HW143546   2.798   1.796   3.204 -0.4694  1.6538  1.2087
14335SOL    HW243547   2.906   1.833   3.104 -1.8477 -0.6904 -1.2714
14336SOL     OW43548   0.694   2.016   0.245  0.2145  0.3266 -0.3688
14336SOL    HW143549   0.666   1.985   0.331  3.0214 -0.1162  0.5025
14336SOL    HW243550   0.622   2.070   0.214 -1.3917 -0.4656  1.7136
14337SOL     OW43551   7.440   7.290   6.609 -0.7951 -0.1590 -0.2301
14337SOL    HW143552   7.416   7.209   6.564 -2.6922 -0.8332  1.8008
14337SOL    HW243553   7.436   7.357   6.541  0.3400 -1.6528 -1.8594
14338SOL     OW43554   0.360   4.869   4.675 -0.1433 -0.4245  0.0233
14338SOL    HW143555   0.434   4.925   4.698  0.2427 -0.4196 -1.1583
14338SOL    HW243556   0.382   4.833   4.589 -1.3087 -0.7875 -0.1536
14339SOL     OW43557   5.270   6.119   6.618  0.0866 -0.2302  0.2940
14339SOL    HW143558   5.351   6.137   6.569 -0.0050 -0.7058 -0.0505
14339SOL    HW243559   5.286   6.154   6.705  0.9431 -0.9379  0.4401
14340SOL     OW43560   7.531   1.556   1.868  0.3323 -0.3294 -0.1226
14340SOL    HW143561   7.620   1.521   1.881  0.7087  0.4855 -0.4242
14340SOL    HW243562   7.475   1.500   1.922  0.8025 -1.8684 -1.1567
14341SOL     OW43563   5.255   4.418   2.699 -0.9183 -0.2666  0.0939
14341SOL    HW143564   5.229   4.367   2.622  1.6249 -1.1924 -0.2547
14341SOL    HW243565   5.231   4.508   2.678  2.6754  0.1414 -3.4397
14342SOL     OW43566   0.329   5.796   1.343  0.3817 -0.4987  0.0088
14342SOL    HW143567   0.327   5.744   1.262  1.8198  0.2654 -0.5530
14342SOL    HW243568   0.420   5.791   1.372 -0.1988 -1.0937  1.8317
14343SOL     OW43569   2.227   6.931   6.112  0.0648 -0.1061  0.0008
14343SOL    HW143570   2.261   6.844   6.090 -0.0262  0.0408 -0.7682
14343SOL    HW243571   2.144   6.914   6.156 -0.9263 -0.4108 -1.8533
14344SOL     OW43572   1.596   4.555   0.245  0.1237  0.2813  0.9418
14344SOL    HW143573   1.602   4.464   0.274  0.1143 -0.3724 -1.0280
14344SOL    HW243574   1.512   4.585   0.281 -0.2153 -0.7114  1.0178
14345SOL     OW43575   2.105   7.338   5.461 -0.2591  0.3099 -0.5200
14345SOL    HW143576   2.151   7.420   5.445  0.5846 -0.0636 -0.1435
14345SOL    HW243577   2.149   7.275   5.404  0.1209 -0.1809  0.2863
14346SOL     OW43578   1.003   1.232   4.718 -0.5985 -0.8804  0.0970
14346SOL    HW143579   0.972   1.159   4.772 -1.2197 -1.2471 -0.7206
14346SOL    HW243580   1.026   1.191   4.635 -0.5971 -0.1980 -0.2460
14347SOL     OW43581   6.165   4.807   4.776 -0.7900 -0.5187  0.5944
14347SOL    HW143582   6.123   4.893   4.777  0.5080  0.1490  1.7062
14347SOL    HW243583   6.252   4.823   4.741 -0.7419 -1.5008  0.2292
14348SOL     OW43584   3.058   6.763   2.298 -0.3737 -0.0683 -0.1908
14348SOL    HW143585   3.049   6.764   2.202  0.0787  1.5713 -0.2501
14348SOL    HW243586   3.003   6.835   2.328 -0.2918 -0.3874  0.7643
14349SOL     OW43587   4.303   6.096   3.180 -0.3029  0.4139  0.6846
14349SOL    HW143588   4.272   6.073   3.092 -2.6685  1.9638  1.0348
14349SOL    HW243589   4.390   6.134   3.166 -1.0477  1.5614 -1.1185
14350SOL     OW43590   3.068   5.822   6.056  0.3130  0.2225 -0.2449
14350SOL    HW143591   3.118   5.759   6.108 -0.1664 -1.0362 -1.2237
14350SOL    HW243592   2.995   5.770   6.020  0.1426  1.2390 -1.4471
14351SOL     OW43593   6.269   5.748   7.132 -0.4403 -0.0969  0.3155
14351SOL    HW143594   6.273   5.723   7.224  0.5163 -2.7898 -0.3899
14351SOL    HW243595   6.317   5.680   7.086 -1.8262  0.5759 -2.3095
14352SOL     OW43596   4.923   6.381   5.771 -0.3107 -0.2795  0.2691
14352SOL    HW143597   4.834   6.388   5.807 -0.1980 -1.1095  0.7447
14352SOL    HW243598   4.928   6.291   5.738  0.1541 -0.0483 -0.2938
14353SOL     OW43599   3.228   3.973   3.994  0.0342 -0.2100  0.5738
14353SOL    HW143600   3.310   3.942   4.032  0.5607  1.5228  0.9631
14353SOL    HW243601   3.209   4.055   4.040  0.4650  1.7927 -2.4511
14354SOL     OW43602   2.363   1.069   5.979  0.2970  0.2370  0.2477
14354SOL    HW143603   2.351   1.013   6.055 -0.3423 -0.8637 -0.6232
14354SOL    HW243604   2.390   1.009   5.909  2.1606  1.3880 -0.0996
14355SOL     OW43605   2.697   3.394   6.327 -0.4423  0.1579  0.1876
14355SOL    HW143606   2.642   3.409   6.250 -0.4430 -0.0712  0.1449
14355SOL    HW243607   2.731   3.306   6.316 -0.1926  0.2386  0.2935
14356SOL     OW43608   3.415   6.501   4.736  0.1581 -0.0254 -0.8045
14356SOL    HW143609   3.322   6.493   4.714 -0.5549  2.5873  0.8397
14356SOL    HW243610   3.440   6.588   4.707  1.3658  0.3364  1.0803
14357SOL     OW43611   6.387   1.982   4.544  0.0701  0.0893 -0.6638
14357SOL    HW143612   6.449   2.033   4.597 -0.4952  0.3018 -0.1958
14357SOL    HW243613   6.428   1.979   4.457 -0.4883  2.5374 -1.1019
14358SOL     OW43614   6.663   7.462   5.048  0.4529  0.1768 -0.1684
14358SOL    HW143615   6.714   7.424   5.120 -0.8605  0.4067  0.9166
14358SOL    HW243616   6.714   7.538   5.020  0.3537  0.8459  1.3958
14359SOL     OW43617   2.346   5.076   6.134 -0.1666 -0.5222 -0.8338
14359SOL    HW143618   2.400   5.055   6.210 -1.9309 -1.9240  0.1114
14359SOL    HW243619   2.262   5.102   6.172 -0.7471 -0.2098 -2.2969
14360SOL     OW43620   4.763   6.655   2.509 -0.1637 -0.2116  0.5089
14360SOL    HW143621   4.727   6.728   2.559 -0.9502 -0.4790  0.3315
14360SOL    HW243622   4.831   6.696   2.455 -0.5370  0.3794  0.4750
14361SOL     OW43623   2.395   4.168   4.667 -0.5947  0.1987  0.4049
14361SOL    HW143624   2.454   4.093   4.666 -1.8356 -0.8141  0.5995
14361SOL    HW243625   2.394   4.200   4.577 -0.6548 -0.5153  0.1487
14362SOL     OW43626   2.977   1.240   3.231 -0.4268 -0.3655  0.2703
14362SOL    HW143627   3.022   1.323   3.248  0.2008 -0.8467  1.0148
14362SOL    HW243628   3.047   1.180   3.204 -0.7301 -0.9254  0.7179
14363SOL     OW43629   3.618   4.827   5.625 -0.4255 -0.6653  0.0526
14363SOL    HW143630   3.529   4.820   5.593  0.7093  0.2317 -3.7947
14363SOL    HW243631   3.665   4.876   5.557  2.8356 -0.3450  2.2755
14364SOL     OW43632   6.083   4.501   2.368 -0.5243  0.2721 -0.0976
14364SOL    HW143633   6.174   4.528   2.377 -0.7664  0.7966  0.9759
14364SOL    HW243634   6.061   4.462   2.453 -0.7095 -1.7577 -1.0104
14365SOL     OW43635   3.454   2.612   2.312  0.0362  0.2391  0.5126
14365SOL    HW143636   3.361   2.593   2.297  0.2571 -0.3223 -0.1911
14365SOL    HW243637   3.482   2.546   2.375  0.1400 -0.0913  0.1283
14366SOL     OW43638   4.035   1.011   2.532  0.3577 -0.2344  0.3576
14366SOL    HW143639   4.009   1.081   2.593 -1.4216 -1.0700  0.6257
14366SOL    HW243640   4.068   0.941   2.588  0.5118 -0.2680  0.2239
14367SOL     OW43641   6.438   6.760   6.976 -0.1130  0.0188 -0.2545
14367SOL    HW143642   6.432   6.855   6.963  2.5172  0.5161  1.3858
14367SOL    HW243643   6.378   6.742   7.048  0.1393  0.6110  0.1055
14368SOL     OW43644   5.841   0.304   5.977 -0.4299 -0.1618 -0.4238
14368SOL    HW143645   5.845   0.262   6.062 -0.5691  1.8708  0.6595
14368SOL    HW243646   5.932   0.301   5.945 -0.1935 -0.1381  0.2285
14369SOL     OW43647   0.488   2.038   6.273  0.1777 -0.8636 -0.2685
14369SOL    HW143648   0.583   2.027   6.284  0.1502 -0.9507 -0.1028
14369SOL    HW243649   0.458   2.069   6.359 -0.0065 -1.2720 -0.1803
14370SOL     OW43650   3.452   2.463   5.040  0.3612  0.0345 -0.2213
14370SOL    HW143651   3.393   2.526   5.082  2.1069 -0.4725  3.3845
14370SOL    HW243652   3.512   2.518   4.989 -0.3766  0.9510 -0.1379
14371SOL     OW43653   6.328   5.677   0.033 -0.3726 -0.2191 -0.3046
14371SOL    HW143654   6.267   5.750   0.042 -1.7549 -0.9099 -3.0183
14371SOL    HW243655   6.295   5.611   0.094  0.1996  0.9147  1.3035
14372SOL     OW43656   6.535   4.309   5.427 -0.1932 -0.3187 -0.5863
14372SOL    HW143657   6.514   4.392   5.385  1.7333  0.7420  0.3900
14372SOL    HW243658   6.517   4.324   5.520 -1.4751 -1.6095 -0.5860
14373SOL     OW43659   7.151   2.705   2.280 -0.4337 -0.4575  0.4488
14373SOL    HW143660   7.073   2.682   2.330  0.3606  0.8185  2.3924
14373SOL    HW243661   7.120   2.709   2.189 -2.2618 -1.4436  0.9679
14374SOL     OW43662   7.562   5.487   5.366 -0.3771  0.3503 -0.6607
14374SOL    HW143663   7.557   5.570   5.414 -0.1001 -0.2437  0.4471
14374SOL    HW243664   7.471   5.462   5.350 -0.5439 -0.1246  0.8417
14375SOL     OW43665   0.063   2.525   3.577 -0.2769 -0.3797  0.0895
14375SOL    HW143666   0.055   2.539   3.483 -0.5268  1.7944  0.3827
14375SOL    HW243667   0.091   2.434   3.586  1.9231 -0.0180 -2.1724
14376SOL     OW43668   5.713   3.082   6.545  0.5652  0.0960  0.0443
14376SOL    HW143669   5.768   3.128   6.609 -0.1447  1.1441 -0.0716
14376SOL    HW243670   5.635   3.137   6.537  0.3849 -0.3165 -1.2784
14377SOL     OW43671   1.675   4.470   6.490 -0.9027 -0.0180 -0.6791
14377SOL    HW143672   1.611   4.496   6.424 -2.6534 -1.0264  0.5630
14377SOL    HW243673   1.740   4.419   6.441 -1.8694 -0.2786 -1.7407
14378SOL     OW43674   4.794   1.706   6.234 -0.3656  0.3224  0.2096
14378SOL    HW143675   4.802   1.768   6.307 -2.1267  0.6548  0.1661
14378SOL    HW243676   4.737   1.637   6.268 -0.0741 -0.2384 -0.4225
14379SOL     OW43677   4.102   0.526   0.214 -0.5150  0.1325 -0.2542
14379SOL    HW143678   4.194   0.532   0.189  0.1276 -0.0718  1.8810
14379SOL    HW243679   4.081   0.613   0.248 -1.3091  0.3535 -1.2538
14380SOL     OW43680   3.217   0.885   2.877 -0.5223 -0.0610 -0.1024
14380SOL    HW143681   3.254   0.969   2.905 -1.1601  0.1484  0.1385
14380SOL    HW243682   3.139   0.909   2.827 -0.9314 -0.5168  0.3077
14381SOL     OW43683   0.906   1.206   5.372  0.0727 -0.5371  0.9255
14381SOL    HW143684   0.869   1.287   5.338 -0.1670 -0.7936  0.5630
14381SOL    HW243685   0.998   1.225   5.387  0.6073 -0.8820 -1.4652
14382SOL     OW43686   6.692   0.508   7.370 -0.3151 -0.4387  0.4978
14382SOL    HW143687   6.741   0.472   7.444  0.0840 -1.4007 -0.2217
14382SOL    HW243688   6.680   0.600   7.393  0.0100 -0.6574  1.6495
14383SOL     OW43689   3.157   5.894   5.254 -0.2585  0.2266 -0.1583
14383SOL    HW143690   3.066   5.890   5.225 -0.9429 -2.6017  1.9316
14383SOL    HW243691   3.198   5.816   5.215  0.7386  0.4175  0.4716
14384SOL     OW43692   2.997   3.297   2.486 -0.8764  0.4173  0.3829
14384SOL    HW143693   3.073   3.333   2.530 -0.4084  0.6321 -0.5803
14384SOL    HW243694   2.924   3.354   2.512 -1.0328 -0.6448  2.4870
14385NA      NA43695   3.241   1.663   2.024  0.5733 -0.0621 -0.0740
14386NA      NA43696   6.587   1.592   0.069  0.2349 -0.3432  0.3173
14387NA      NA43697   3.617   2.615   4.156 -0.2942 -0.0556 -0.0872
14388NA      NA43698   4.821   1.471   0.643  0.5297  0.0813  0.4793
14389NA      NA43699   5.657   6.633   5.747  0.1412 -0.1279  0.1916
14390NA      NA43700   6.621   3.895   5.551  0.3421 -0.4575 -0.4449
14391NA      NA43701   5.011   3.649   3.732  0.1744  0.2276  0.3235
14392NA      NA43702   0.098   5.396   0.452  0.2486 -0.3490  0.1380
14393NA      NA43703   7.601   4.463   5.304  0.0675  0.0490 -0.0460
14394NA      NA43704   2.971   2.768   1.997  0.6326 -0.3850  0.3323
14395NA      NA43705   6.073   0.092   4.584  0.2187  0.1377 -0.1422
14396NA      NA43706   4.248   2.625   6.020 -0.0044  0.2230  0.3807
14397NA      NA43707   4.960   1.691   5.741 -0.1347 -0.2850  0.2847
14398NA      NA43708   3.312   0.874   5.876  0.1102 -0.0840  0.3443
14399NA      NA43709   4.164   7.386   6.039 -0.1997  0.0066 -0.9141
14400NA      NA43710   3.998   2.757   6.630  0.0762  0.2320 -0.2458
14401NA      NA43711   1.169   1.472   3.708 -0.1021 -0.2039  0.3383
14402NA      NA43712   3.340   6.194   4.434  0.3864 -0.5023  0.6796
14403NA      NA43713   3.262   4.045   2.512  0.0639  0.3870  0.4898
14404NA      NA43714   6.470   0.940   2.847  0.2071 -0.3200  0.3637
14405NA      NA43715   0.452   6.937   0.885 -0.4379 -0.0253  0.2251
14406NA      NA43716   0.752   7.071   0.130  0.3598 -0.4424 -0.0150
14407NA      NA43717   5.218   3.486   6.432  0.2118  0.2665 -0.7173
14408NA      NA43718   6.102   6.200   3.571  0.1806 -0.1044 -0.4850
14409NA      NA43719   0.519   0.441   1.022 -0.2897  0.1447  0.1398
14410NA      NA43720   7.495   4.658   2.940  0.1442 -0.1336  0.2329
14411NA      NA43721   0.286   3.320   0.670 -0.2184  0.0042 -0.0953
14412NA      NA43722   1.990   3.989   4.626  0.0218  0.0879  0.2910
14413NA      NA43723   1.859   3.020   4.638 -0.1639 -0.0430  0.0057
14414NA      NA43724   5.369   4.048   0.125  0.1256 -0.3523 -0.2452
14415NA      NA43725   3.691   1.311   3.136 -0.3949 -0.3800 -0.1011
14416NA      NA43726   1.358   6.965   5.993 -0.2086 -0.3257  0.3648
14417NA      NA43727   6.088   6.626   4.125 -0.4615 -0.4381 -0.0926
14418NA      NA43728   7.301   1.621   5.225 -0.2052  0.2440 -0.0404
14419NA      NA43729   6.857   4.793   1.695  0.4854 -0.0120  0.3119
14420NA      NA43730   2.801   0.531   3.306  0.1835 -0.2178  0.3123
14421NA      NA43731   3.658   1.559   6.124  0.2026  0.1869  0.4328
14422NA      NA43732   5.870   3.371   0.076  0.4176 -0.4065  0.1110
14423NA      NA43733   0.221   2.863   2.557 -0.4997  0.0521 -0.3133
14424NA      NA43734   6.214   2.201   1.358  0.3594  0.1421 -0.1957
14425NA      NA43735   5.249   5.682   6.150  0.2813  0.6468  0.3652
14426CL      CL43736   3.037   7.162   0.937 -0.1046 -0.2816 -0.2635
14427CL      CL43737   6.645   1.001   7.218 -0.4890  0.3599 -0.1907
14428CL      CL43738   1.564   5.795   1.724 -0.0914  0.2318 -0.0076
14429CL      CL43739   5.629   2.034   5.671  0.2011 -0.1740 -0.0960
14430CL      CL43740   5.082   1.733   6.631 -0.1362  0.0510  0.0543
14431CL      CL43741   3.206   7.535   5.255 -0.0042 -0.1288 -0.3482
14432CL      CL43742   6.493   2.444   0.740  0.7009  0.0518 -0.2842
14433CL      CL43743   3.370   5.389   2.884 -0.4935 -0.2542 -0.1558
14434CL      CL43744   2.170   3.584   5.336  0.3773 -0.0029 -0.2564
14435CL      CL43745   0.139   7.544   0.714  0.0628 -0.1237  0.5896
14436CL      CL43746   4.489   6.946   6.657  0.0303  0.2417  0.1427
14437CL      CL43747   4.168   4.686   5.673 -0.3451 -0.4442 -0.1731
14438CL      CL43748   6.745   4.182   2.703  0.4551 -0.2627  0.0027
14439CL      CL43749   6.799   1.669   6.588 -0.1784 -0.1665  0.1191
14440CL      CL43750   2.058   1.072   3.044  0.2718 -0.3138 -0.2557
14441CL      CL43751   4.636   0.268   0.736  0.0440 -0.0324  0.2299
14442CL      CL43752   3.758   2.610   0.408 -0.5129 -0.1420 -0.4736
14443CL      CL43753   5.246   4.500   2.305 -0.1239 -0.5802 -0.3928
14444CL      CL43754   3.616   2.773   3.088  0.0243 -0.5097  0.4227
14445CL      CL43755   5.367   5.130   2.559  0.4508  0.2614 -0.3865
14446CL      CL43756   7.087   5.946   1.394 -0.1669  0.0626 -0.2956
14447CL      CL43757   4.701   1.595   4.725 -0.5241 -0.2854  0.1097
14448CL      CL43758   5.561   7.507   3.689 -0.3241  0.5743 -0.0622
14449CL      CL43759   5.518   5.475   4.315 -0.0509  0.2216  0.1772
14450CL      CL43760   0.803   0.898   1.822 -0.2468 -0.2302  0.0010
14451CL      CL43761   0.575   2.020   7.115  0.4942 -0.1828  0.0448
14452CL      CL43762   4.013   3.322   6.448  0.1146 -0.5678 -0.1660
14453CL      CL43763   0.295   0.803   5.843  0.5351 -0.6700  0.1230
14454CL      CL43764   6.011   6.287   3.773 -0.2122  0.1328 -0.3867
14455CL      CL43765   7.527   7.196   7.406 -0.0538  0.0198 -0.2173
14456CL      CL43766   4.714   6.079   0.981 -0.0376 -0.1725  0.0474
14457CL      CL43767   0.847   7.565   3.459  0.1193  0.1665 -0.2415
14458CL      CL43768   0.094   6.672   0.793  0.7117 -0.2836 -0.0481
14459CL      CL43769   1.248   0.238   5.110  0.1640  0.0353  0.3190
14460CL      CL43770   4.363   5.048   1.773 -0.1138 -0.4189  0.6938
14461CL      CL43771   4.272   5.445   7.316 -0.5127  0.1242 -0.0756
14462CL      CL43772   1.556   5.328   5.795  0.2119 -0.1848 -0.3451
14463CL      CL43773   6.054   1.833   1.760  0.3699  0.4548 -0.0473
14464CL      CL43774   3.088   6.033   0.431  0.0894 -0.1529  0.2886
14465CL      CL43775   1.206   4.684   6.025 -0.4404  0.3436 -0.1618
14466CL      CL43776   4.523   0.996   0.095  0.4313 -0.0320  0.1886
14467CL      CL43777   1.571   3.798   1.146 -0.6523 -0.6263 -0.0681
14468CL      CL43778   6.879   4.589   6.998 -0.2100  0.2909  0.0163
14469CL      CL43779   4.365   0.789   2.860  0.1948 -0.6462 -0.7589
14470CL      CL43780   1.135   7.287   0.026  0.1477  0.0675 -0.3008
14471CL      CL43781   5.436   2.118   4.992 -0.0868 -0.1998 -0.0008
14472CL      CL43782   4.946   4.615   7.253  0.4707  0.1086 -0.1183
14473CL      CL43783   7.464   5.423   2.311 -0.0243  0.1092 -0.0974
14474CL      CL43784   6.051   6.510   6.417  0.0270  0.1448  0.1432
14475CL      CL43785   4.653   7.540   6.137 -0.0437  0.0657  0.4706
14476CL      CL43786   3.631   2.648   4.857 -0.5329 -0.1460  0.0735
14477CL      CL43787   3.306   4.435   6.030  0.3962  0.0501 -0.0247
14478CL      CL43788   1.206   6.861   5.847 -0.1001 -0.2816 -0.3464
14479CL      CL43789   0.993   4.439   2.630 -0.1936  0.9355  0.1924
14480CL      CL43790   4.793   3.460   5.713  0.2451  0.3893  0.1978
14481CL      CL43791   1.187   0.595   3.487 -0.0064  0.2525  0.5898
14482CL      CL43792   3.913   6.447   1.931 -0.1954  0.0862  0.0189
   7.62575   7.62575   7.62575
