;
;   File g3npocore_petim_betagalactose.itp  was generated
;   By user: sairam (1000)
;   On host: sairam
;   At date: Tue. September  2 13:01:26 2023
;
;   This is a standalone topology file
;
;   Created by:
;   ParmEd:       amb2gro_top_gro.py, VERSION 3.4.1
;   Executable:   amb2gro_top_gro.py
;   Library dir:  /usr/local/gromacs/share/gromacs/top
;   Command line:
;     ./amb2gro_top_gro.py -p g3npocore_petim_betagalactose.prmtop -c g3npocore_petim_betagalactose.inpcrd -t g3npocore_petim_betagalactose.itp -g g3npocore_petim_betagalactose.gro -b g3npocore_petim_betagalactose.pdb
;

;[ defaults ]
;; nbfunc        comb-rule       gen-pairs       fudgeLJ fudgeQQ
;1               2               yes             0.5          0.83333333  
;
;[ atomtypes ]
;; name    at.num    mass    charge ptype  sigma      epsilon
;os             8  16.000000  0.00000000  A     0.30000123        0.71128
;c3             6  12.010000  0.00000000  A     0.33996695      0.4577296
;h1             1   1.008000  0.00000000  A      0.2471353      0.0656888
;hc             1   1.008000  0.00000000  A     0.26495328      0.0656888
;n3             7  14.010000  0.00000000  A     0.32499985        0.71128
;h2             1   1.008000  0.00000000  A     0.22931733      0.0656888
;oh             8  16.000000  0.00000000  A     0.30664734      0.8803136
;ho             1   1.008000  0.00000000  A              0              0


[ moleculetype ]
; Name            nrexcl
g3npocore_petim_betagalactose        3

[ atoms ]
;   nr       type  resnr residue  atom   cgnr    charge       mass  typeB    chargeB      massB
; residue    1 aaa rtp aaa q -0.0
    1         os      1    aaa     O1      1 -0.43807400  16.000000   ; qtot -0.438074
    2         c3      1    aaa     C1      2 0.04509800  12.010000   ; qtot -0.392976
    3         h1      1    aaa     H1      3 0.04771700   1.008000   ; qtot -0.345259
    4         h1      1    aaa     H2      4 0.04771700   1.008000   ; qtot -0.297542
    5         c3      1    aaa     C2      5 0.04509800  12.010000   ; qtot -0.252444
    6         h1      1    aaa     H3      6 0.04771700   1.008000   ; qtot -0.204727
    7         h1      1    aaa     H4      7 0.04771700   1.008000   ; qtot -0.157010
    8         c3      1    aaa     C3      8 0.05658600  12.010000   ; qtot -0.100424
    9         hc      1    aaa     H5      9 0.04933800   1.008000   ; qtot -0.051086
   10         hc      1    aaa     H6     10 0.04933800   1.008000   ; qtot -0.001748
   11         c3      1    aaa     C4     11 0.05658600  12.010000   ; qtot 0.054838
   12         hc      1    aaa     H7     12 0.04933800   1.008000   ; qtot 0.104176
   13         hc      1    aaa     H8     13 0.04933800   1.008000   ; qtot 0.153514
   14         c3      1    aaa     C5     14 0.00989700  12.010000   ; qtot 0.163411
   15         h1      1    aaa     H9     15 0.04845500   1.008000   ; qtot 0.211866
   16         h1      1    aaa    H10     16 0.04845500   1.008000   ; qtot 0.260321
   17         c3      1    aaa     C6     17 0.00989700  12.010000   ; qtot 0.270218
   18         h1      1    aaa    H11     18 0.04845500   1.008000   ; qtot 0.318673
   19         h1      1    aaa    H12     19 0.04845500   1.008000   ; qtot 0.367128
   20         n3      1    aaa     N1     20 -0.59936800  14.010000   ; qtot -0.232240
   21         n3      1    aaa     N2     21 -0.59936800  14.010000   ; qtot -0.831608
   22         c3      1    aaa     C7     22 0.08030200  12.010000   ; qtot -0.751306
   23         h1      1    aaa    H13     23 0.05071600   1.008000   ; qtot -0.700590
   24         h1      1    aaa    H14     24 0.05071600   1.008000   ; qtot -0.649874
   25         c3      1    aaa     C8     25 0.08030200  12.010000   ; qtot -0.569572
   26         h1      1    aaa    H15     26 0.05071600   1.008000   ; qtot -0.518856
   27         h1      1    aaa    H16     27 0.05071600   1.008000   ; qtot -0.468140
   28         c3      1    aaa     C9     28 0.08030200  12.010000   ; qtot -0.387838
   29         h1      1    aaa    H17     29 0.05071600   1.008000   ; qtot -0.337122
   30         h1      1    aaa    H18     30 0.05071600   1.008000   ; qtot -0.286406
   31         c3      1    aaa    C10     31 0.08030200  12.010000   ; qtot -0.206104
   32         h1      1    aaa    H19     32 0.05071600   1.008000   ; qtot -0.155388
   33         h1      1    aaa    H20     33 0.05071600   1.008000   ; qtot -0.104672
   34         c3      1    aaa    C11     34 0.10287800  12.010000   ; qtot -0.001794
   35         hc      1    aaa    H21     35 0.06787400   1.008000   ; qtot 0.066080
   36         hc      1    aaa    H22     36 0.06787400   1.008000   ; qtot 0.133954
   37         c3      1    aaa    C12     37 0.10287800  12.010000   ; qtot 0.236832
   38         hc      1    aaa    H23     38 0.06787400   1.008000   ; qtot 0.304706
   39         hc      1    aaa    H24     39 0.06787400   1.008000   ; qtot 0.372580
   40         c3      1    aaa    C13     40 0.10287800  12.010000   ; qtot 0.475458
   41         hc      1    aaa    H25     41 0.06787400   1.008000   ; qtot 0.543332
   42         hc      1    aaa    H26     42 0.06787400   1.008000   ; qtot 0.611206
   43         c3      1    aaa    C14     43 0.10287800  12.010000   ; qtot 0.714084
   44         hc      1    aaa    H27     44 0.06787400   1.008000   ; qtot 0.781958
   45         hc      1    aaa    H28     45 0.06787400   1.008000   ; qtot 0.849832
   46         c3      1    aaa    C15     46 -0.72585200  12.010000   ; qtot 0.123980
   47         h1      1    aaa    H29     47 0.25669700   1.008000   ; qtot 0.380677
   48         h1      1    aaa    H30     48 0.25669700   1.008000   ; qtot 0.637374
   49         c3      1    aaa    C16     49 -0.72585200  12.010000   ; qtot -0.088478
   50         h1      1    aaa    H31     50 0.25669700   1.008000   ; qtot 0.168219
   51         h1      1    aaa    H32     51 0.25669700   1.008000   ; qtot 0.424916
   52         c3      1    aaa    C17     52 -0.72585200  12.010000   ; qtot -0.300936
   53         h1      1    aaa    H33     53 0.25669700   1.008000   ; qtot -0.044239
   54         h1      1    aaa    H34     54 0.25669700   1.008000   ; qtot 0.212458
   55         c3      1    aaa    C18     55 -0.72585200  12.010000   ; qtot -0.513394
   56         h1      1    aaa    H35     56 0.25669700   1.008000   ; qtot -0.256697
   57         h1      1    aaa    H36     57 0.25669700   1.008000   ; qtot -0.000000
; residue    2 bbb rtp bbb q -0.0
   58         n3      2    bbb     N1     58 -0.59685800  14.010000   ; qtot -0.596858
   59         c3      2    bbb     C1     59 0.10137000  12.010000   ; qtot -0.495488
   60         h1      2    bbb     H1     60 0.04411300   1.008000   ; qtot -0.451375
   61         h1      2    bbb     H2     61 0.04411300   1.008000   ; qtot -0.407262
   62         c3      2    bbb     C2     62 0.10137000  12.010000   ; qtot -0.305892
   63         h1      2    bbb     H3     63 0.04411300   1.008000   ; qtot -0.261779
   64         h1      2    bbb     H4     64 0.04411300   1.008000   ; qtot -0.217666
   65         c3      2    bbb     C3     65 -0.00195300  12.010000   ; qtot -0.219619
   66         h1      2    bbb     H5     66 0.05064400   1.008000   ; qtot -0.168975
   67         h1      2    bbb     H6     67 0.05064400   1.008000   ; qtot -0.118331
   68         c3      2    bbb     C4     68 -0.01612100  12.010000   ; qtot -0.134452
   69         hc      2    bbb     H7     69 0.04936100   1.008000   ; qtot -0.085091
   70         hc      2    bbb     H8     70 0.04936100   1.008000   ; qtot -0.035730
   71         c3      2    bbb     C5     71 0.11363000  12.010000   ; qtot 0.077900
   72         hc      2    bbb     H9     72 0.06265900   1.008000   ; qtot 0.140559
   73         hc      2    bbb    H10     73 0.06265900   1.008000   ; qtot 0.203218
   74         c3      2    bbb     C6     74 0.11363000  12.010000   ; qtot 0.316848
   75         hc      2    bbb    H11     75 0.06265900   1.008000   ; qtot 0.379507
   76         hc      2    bbb    H12     76 0.06265900   1.008000   ; qtot 0.442166
   77         c3      2    bbb     C7     77 0.05858200  12.010000   ; qtot 0.500748
   78         h1      2    bbb    H13     78 0.06123400   1.008000   ; qtot 0.561982
   79         h1      2    bbb    H14     79 0.06123400   1.008000   ; qtot 0.623216
   80         c3      2    bbb     C8     80 -0.72423400  12.010000   ; qtot -0.101018
   81         h1      2    bbb    H15     81 0.25637600   1.008000   ; qtot 0.155358
   82         h1      2    bbb    H16     82 0.25637600   1.008000   ; qtot 0.411734
   83         c3      2    bbb     C9     83 -0.72423400  12.010000   ; qtot -0.312500
   84         h1      2    bbb    H17     84 0.25637600   1.008000   ; qtot -0.056124
   85         h1      2    bbb    H18     85 0.25637600   1.008000   ; qtot 0.200252
   86         os      2    bbb     O1     86 -0.20025300  16.000000   ; qtot -0.000001
; residue    3 bbb rtp bbb q -0.0
   87         n3      3    bbb     N1     87 -0.59685800  14.010000   ; qtot -0.596859
   88         c3      3    bbb     C1     88 0.10137000  12.010000   ; qtot -0.495489
   89         h1      3    bbb     H1     89 0.04411300   1.008000   ; qtot -0.451376
   90         h1      3    bbb     H2     90 0.04411300   1.008000   ; qtot -0.407263
   91         c3      3    bbb     C2     91 0.10137000  12.010000   ; qtot -0.305893
   92         h1      3    bbb     H3     92 0.04411300   1.008000   ; qtot -0.261780
   93         h1      3    bbb     H4     93 0.04411300   1.008000   ; qtot -0.217667
   94         c3      3    bbb     C3     94 -0.00195300  12.010000   ; qtot -0.219620
   95         h1      3    bbb     H5     95 0.05064400   1.008000   ; qtot -0.168976
   96         h1      3    bbb     H6     96 0.05064400   1.008000   ; qtot -0.118332
   97         c3      3    bbb     C4     97 -0.01612100  12.010000   ; qtot -0.134453
   98         hc      3    bbb     H7     98 0.04936100   1.008000   ; qtot -0.085092
   99         hc      3    bbb     H8     99 0.04936100   1.008000   ; qtot -0.035731
  100         c3      3    bbb     C5    100 0.11363000  12.010000   ; qtot 0.077899
  101         hc      3    bbb     H9    101 0.06265900   1.008000   ; qtot 0.140558
  102         hc      3    bbb    H10    102 0.06265900   1.008000   ; qtot 0.203217
  103         c3      3    bbb     C6    103 0.11363000  12.010000   ; qtot 0.316847
  104         hc      3    bbb    H11    104 0.06265900   1.008000   ; qtot 0.379506
  105         hc      3    bbb    H12    105 0.06265900   1.008000   ; qtot 0.442165
  106         c3      3    bbb     C7    106 0.05858200  12.010000   ; qtot 0.500747
  107         h1      3    bbb    H13    107 0.06123400   1.008000   ; qtot 0.561981
  108         h1      3    bbb    H14    108 0.06123400   1.008000   ; qtot 0.623215
  109         c3      3    bbb     C8    109 -0.72423400  12.010000   ; qtot -0.101019
  110         h1      3    bbb    H15    110 0.25637600   1.008000   ; qtot 0.155357
  111         h1      3    bbb    H16    111 0.25637600   1.008000   ; qtot 0.411733
  112         c3      3    bbb     C9    112 -0.72423400  12.010000   ; qtot -0.312501
  113         h1      3    bbb    H17    113 0.25637600   1.008000   ; qtot -0.056125
  114         h1      3    bbb    H18    114 0.25637600   1.008000   ; qtot 0.200251
  115         os      3    bbb     O1    115 -0.20025300  16.000000   ; qtot -0.000002
; residue    4 bbb rtp bbb q -0.0
  116         n3      4    bbb     N1    116 -0.59685800  14.010000   ; qtot -0.596860
  117         c3      4    bbb     C1    117 0.10137000  12.010000   ; qtot -0.495490
  118         h1      4    bbb     H1    118 0.04411300   1.008000   ; qtot -0.451377
  119         h1      4    bbb     H2    119 0.04411300   1.008000   ; qtot -0.407264
  120         c3      4    bbb     C2    120 0.10137000  12.010000   ; qtot -0.305894
  121         h1      4    bbb     H3    121 0.04411300   1.008000   ; qtot -0.261781
  122         h1      4    bbb     H4    122 0.04411300   1.008000   ; qtot -0.217668
  123         c3      4    bbb     C3    123 -0.00195300  12.010000   ; qtot -0.219621
  124         h1      4    bbb     H5    124 0.05064400   1.008000   ; qtot -0.168977
  125         h1      4    bbb     H6    125 0.05064400   1.008000   ; qtot -0.118333
  126         c3      4    bbb     C4    126 -0.01612100  12.010000   ; qtot -0.134454
  127         hc      4    bbb     H7    127 0.04936100   1.008000   ; qtot -0.085093
  128         hc      4    bbb     H8    128 0.04936100   1.008000   ; qtot -0.035732
  129         c3      4    bbb     C5    129 0.11363000  12.010000   ; qtot 0.077898
  130         hc      4    bbb     H9    130 0.06265900   1.008000   ; qtot 0.140557
  131         hc      4    bbb    H10    131 0.06265900   1.008000   ; qtot 0.203216
  132         c3      4    bbb     C6    132 0.11363000  12.010000   ; qtot 0.316846
  133         hc      4    bbb    H11    133 0.06265900   1.008000   ; qtot 0.379505
  134         hc      4    bbb    H12    134 0.06265900   1.008000   ; qtot 0.442164
  135         c3      4    bbb     C7    135 0.05858200  12.010000   ; qtot 0.500746
  136         h1      4    bbb    H13    136 0.06123400   1.008000   ; qtot 0.561980
  137         h1      4    bbb    H14    137 0.06123400   1.008000   ; qtot 0.623214
  138         c3      4    bbb     C8    138 -0.72423400  12.010000   ; qtot -0.101020
  139         h1      4    bbb    H15    139 0.25637600   1.008000   ; qtot 0.155356
  140         h1      4    bbb    H16    140 0.25637600   1.008000   ; qtot 0.411732
  141         c3      4    bbb     C9    141 -0.72423400  12.010000   ; qtot -0.312502
  142         h1      4    bbb    H17    142 0.25637600   1.008000   ; qtot -0.056126
  143         h1      4    bbb    H18    143 0.25637600   1.008000   ; qtot 0.200250
  144         os      4    bbb     O1    144 -0.20025300  16.000000   ; qtot -0.000003
; residue    5 bbb rtp bbb q -0.0
  145         n3      5    bbb     N1    145 -0.59685800  14.010000   ; qtot -0.596861
  146         c3      5    bbb     C1    146 0.10137000  12.010000   ; qtot -0.495491
  147         h1      5    bbb     H1    147 0.04411300   1.008000   ; qtot -0.451378
  148         h1      5    bbb     H2    148 0.04411300   1.008000   ; qtot -0.407265
  149         c3      5    bbb     C2    149 0.10137000  12.010000   ; qtot -0.305895
  150         h1      5    bbb     H3    150 0.04411300   1.008000   ; qtot -0.261782
  151         h1      5    bbb     H4    151 0.04411300   1.008000   ; qtot -0.217669
  152         c3      5    bbb     C3    152 -0.00195300  12.010000   ; qtot -0.219622
  153         h1      5    bbb     H5    153 0.05064400   1.008000   ; qtot -0.168978
  154         h1      5    bbb     H6    154 0.05064400   1.008000   ; qtot -0.118334
  155         c3      5    bbb     C4    155 -0.01612100  12.010000   ; qtot -0.134455
  156         hc      5    bbb     H7    156 0.04936100   1.008000   ; qtot -0.085094
  157         hc      5    bbb     H8    157 0.04936100   1.008000   ; qtot -0.035733
  158         c3      5    bbb     C5    158 0.11363000  12.010000   ; qtot 0.077897
  159         hc      5    bbb     H9    159 0.06265900   1.008000   ; qtot 0.140556
  160         hc      5    bbb    H10    160 0.06265900   1.008000   ; qtot 0.203215
  161         c3      5    bbb     C6    161 0.11363000  12.010000   ; qtot 0.316845
  162         hc      5    bbb    H11    162 0.06265900   1.008000   ; qtot 0.379504
  163         hc      5    bbb    H12    163 0.06265900   1.008000   ; qtot 0.442163
  164         c3      5    bbb     C7    164 0.05858200  12.010000   ; qtot 0.500745
  165         h1      5    bbb    H13    165 0.06123400   1.008000   ; qtot 0.561979
  166         h1      5    bbb    H14    166 0.06123400   1.008000   ; qtot 0.623213
  167         c3      5    bbb     C8    167 -0.72423400  12.010000   ; qtot -0.101021
  168         h1      5    bbb    H15    168 0.25637600   1.008000   ; qtot 0.155355
  169         h1      5    bbb    H16    169 0.25637600   1.008000   ; qtot 0.411731
  170         c3      5    bbb     C9    170 -0.72423400  12.010000   ; qtot -0.312503
  171         h1      5    bbb    H17    171 0.25637600   1.008000   ; qtot -0.056127
  172         h1      5    bbb    H18    172 0.25637600   1.008000   ; qtot 0.200249
  173         os      5    bbb     O1    173 -0.20025300  16.000000   ; qtot -0.000004
; residue    6 bbb rtp bbb q -0.0
  174         n3      6    bbb     N1    174 -0.59685800  14.010000   ; qtot -0.596862
  175         c3      6    bbb     C1    175 0.10137000  12.010000   ; qtot -0.495492
  176         h1      6    bbb     H1    176 0.04411300   1.008000   ; qtot -0.451379
  177         h1      6    bbb     H2    177 0.04411300   1.008000   ; qtot -0.407266
  178         c3      6    bbb     C2    178 0.10137000  12.010000   ; qtot -0.305896
  179         h1      6    bbb     H3    179 0.04411300   1.008000   ; qtot -0.261783
  180         h1      6    bbb     H4    180 0.04411300   1.008000   ; qtot -0.217670
  181         c3      6    bbb     C3    181 -0.00195300  12.010000   ; qtot -0.219623
  182         h1      6    bbb     H5    182 0.05064400   1.008000   ; qtot -0.168979
  183         h1      6    bbb     H6    183 0.05064400   1.008000   ; qtot -0.118335
  184         c3      6    bbb     C4    184 -0.01612100  12.010000   ; qtot -0.134456
  185         hc      6    bbb     H7    185 0.04936100   1.008000   ; qtot -0.085095
  186         hc      6    bbb     H8    186 0.04936100   1.008000   ; qtot -0.035734
  187         c3      6    bbb     C5    187 0.11363000  12.010000   ; qtot 0.077896
  188         hc      6    bbb     H9    188 0.06265900   1.008000   ; qtot 0.140555
  189         hc      6    bbb    H10    189 0.06265900   1.008000   ; qtot 0.203214
  190         c3      6    bbb     C6    190 0.11363000  12.010000   ; qtot 0.316844
  191         hc      6    bbb    H11    191 0.06265900   1.008000   ; qtot 0.379503
  192         hc      6    bbb    H12    192 0.06265900   1.008000   ; qtot 0.442162
  193         c3      6    bbb     C7    193 0.05858200  12.010000   ; qtot 0.500744
  194         h1      6    bbb    H13    194 0.06123400   1.008000   ; qtot 0.561978
  195         h1      6    bbb    H14    195 0.06123400   1.008000   ; qtot 0.623212
  196         c3      6    bbb     C8    196 -0.72423400  12.010000   ; qtot -0.101022
  197         h1      6    bbb    H15    197 0.25637600   1.008000   ; qtot 0.155354
  198         h1      6    bbb    H16    198 0.25637600   1.008000   ; qtot 0.411730
  199         c3      6    bbb     C9    199 -0.72423400  12.010000   ; qtot -0.312504
  200         h1      6    bbb    H17    200 0.25637600   1.008000   ; qtot -0.056128
  201         h1      6    bbb    H18    201 0.25637600   1.008000   ; qtot 0.200248
  202         os      6    bbb     O1    202 -0.20025300  16.000000   ; qtot -0.000005
; residue    7 bbb rtp bbb q -0.0
  203         n3      7    bbb     N1    203 -0.59685800  14.010000   ; qtot -0.596863
  204         c3      7    bbb     C1    204 0.10137000  12.010000   ; qtot -0.495493
  205         h1      7    bbb     H1    205 0.04411300   1.008000   ; qtot -0.451380
  206         h1      7    bbb     H2    206 0.04411300   1.008000   ; qtot -0.407267
  207         c3      7    bbb     C2    207 0.10137000  12.010000   ; qtot -0.305897
  208         h1      7    bbb     H3    208 0.04411300   1.008000   ; qtot -0.261784
  209         h1      7    bbb     H4    209 0.04411300   1.008000   ; qtot -0.217671
  210         c3      7    bbb     C3    210 -0.00195300  12.010000   ; qtot -0.219624
  211         h1      7    bbb     H5    211 0.05064400   1.008000   ; qtot -0.168980
  212         h1      7    bbb     H6    212 0.05064400   1.008000   ; qtot -0.118336
  213         c3      7    bbb     C4    213 -0.01612100  12.010000   ; qtot -0.134457
  214         hc      7    bbb     H7    214 0.04936100   1.008000   ; qtot -0.085096
  215         hc      7    bbb     H8    215 0.04936100   1.008000   ; qtot -0.035735
  216         c3      7    bbb     C5    216 0.11363000  12.010000   ; qtot 0.077895
  217         hc      7    bbb     H9    217 0.06265900   1.008000   ; qtot 0.140554
  218         hc      7    bbb    H10    218 0.06265900   1.008000   ; qtot 0.203213
  219         c3      7    bbb     C6    219 0.11363000  12.010000   ; qtot 0.316843
  220         hc      7    bbb    H11    220 0.06265900   1.008000   ; qtot 0.379502
  221         hc      7    bbb    H12    221 0.06265900   1.008000   ; qtot 0.442161
  222         c3      7    bbb     C7    222 0.05858200  12.010000   ; qtot 0.500743
  223         h1      7    bbb    H13    223 0.06123400   1.008000   ; qtot 0.561977
  224         h1      7    bbb    H14    224 0.06123400   1.008000   ; qtot 0.623211
  225         c3      7    bbb     C8    225 -0.72423400  12.010000   ; qtot -0.101023
  226         h1      7    bbb    H15    226 0.25637600   1.008000   ; qtot 0.155353
  227         h1      7    bbb    H16    227 0.25637600   1.008000   ; qtot 0.411729
  228         c3      7    bbb     C9    228 -0.72423400  12.010000   ; qtot -0.312505
  229         h1      7    bbb    H17    229 0.25637600   1.008000   ; qtot -0.056129
  230         h1      7    bbb    H18    230 0.25637600   1.008000   ; qtot 0.200247
  231         os      7    bbb     O1    231 -0.20025300  16.000000   ; qtot -0.000006
; residue    8 bbb rtp bbb q -0.0
  232         n3      8    bbb     N1    232 -0.59685800  14.010000   ; qtot -0.596864
  233         c3      8    bbb     C1    233 0.10137000  12.010000   ; qtot -0.495494
  234         h1      8    bbb     H1    234 0.04411300   1.008000   ; qtot -0.451381
  235         h1      8    bbb     H2    235 0.04411300   1.008000   ; qtot -0.407268
  236         c3      8    bbb     C2    236 0.10137000  12.010000   ; qtot -0.305898
  237         h1      8    bbb     H3    237 0.04411300   1.008000   ; qtot -0.261785
  238         h1      8    bbb     H4    238 0.04411300   1.008000   ; qtot -0.217672
  239         c3      8    bbb     C3    239 -0.00195300  12.010000   ; qtot -0.219625
  240         h1      8    bbb     H5    240 0.05064400   1.008000   ; qtot -0.168981
  241         h1      8    bbb     H6    241 0.05064400   1.008000   ; qtot -0.118337
  242         c3      8    bbb     C4    242 -0.01612100  12.010000   ; qtot -0.134458
  243         hc      8    bbb     H7    243 0.04936100   1.008000   ; qtot -0.085097
  244         hc      8    bbb     H8    244 0.04936100   1.008000   ; qtot -0.035736
  245         c3      8    bbb     C5    245 0.11363000  12.010000   ; qtot 0.077894
  246         hc      8    bbb     H9    246 0.06265900   1.008000   ; qtot 0.140553
  247         hc      8    bbb    H10    247 0.06265900   1.008000   ; qtot 0.203212
  248         c3      8    bbb     C6    248 0.11363000  12.010000   ; qtot 0.316842
  249         hc      8    bbb    H11    249 0.06265900   1.008000   ; qtot 0.379501
  250         hc      8    bbb    H12    250 0.06265900   1.008000   ; qtot 0.442160
  251         c3      8    bbb     C7    251 0.05858200  12.010000   ; qtot 0.500742
  252         h1      8    bbb    H13    252 0.06123400   1.008000   ; qtot 0.561976
  253         h1      8    bbb    H14    253 0.06123400   1.008000   ; qtot 0.623210
  254         c3      8    bbb     C8    254 -0.72423400  12.010000   ; qtot -0.101024
  255         h1      8    bbb    H15    255 0.25637600   1.008000   ; qtot 0.155352
  256         h1      8    bbb    H16    256 0.25637600   1.008000   ; qtot 0.411728
  257         c3      8    bbb     C9    257 -0.72423400  12.010000   ; qtot -0.312506
  258         h1      8    bbb    H17    258 0.25637600   1.008000   ; qtot -0.056130
  259         h1      8    bbb    H18    259 0.25637600   1.008000   ; qtot 0.200246
  260         os      8    bbb     O1    260 -0.20025300  16.000000   ; qtot -0.000007
; residue    9 bbb rtp bbb q -0.0
  261         n3      9    bbb     N1    261 -0.59685800  14.010000   ; qtot -0.596865
  262         c3      9    bbb     C1    262 0.10137000  12.010000   ; qtot -0.495495
  263         h1      9    bbb     H1    263 0.04411300   1.008000   ; qtot -0.451382
  264         h1      9    bbb     H2    264 0.04411300   1.008000   ; qtot -0.407269
  265         c3      9    bbb     C2    265 0.10137000  12.010000   ; qtot -0.305899
  266         h1      9    bbb     H3    266 0.04411300   1.008000   ; qtot -0.261786
  267         h1      9    bbb     H4    267 0.04411300   1.008000   ; qtot -0.217673
  268         c3      9    bbb     C3    268 -0.00195300  12.010000   ; qtot -0.219626
  269         h1      9    bbb     H5    269 0.05064400   1.008000   ; qtot -0.168982
  270         h1      9    bbb     H6    270 0.05064400   1.008000   ; qtot -0.118338
  271         c3      9    bbb     C4    271 -0.01612100  12.010000   ; qtot -0.134459
  272         hc      9    bbb     H7    272 0.04936100   1.008000   ; qtot -0.085098
  273         hc      9    bbb     H8    273 0.04936100   1.008000   ; qtot -0.035737
  274         c3      9    bbb     C5    274 0.11363000  12.010000   ; qtot 0.077893
  275         hc      9    bbb     H9    275 0.06265900   1.008000   ; qtot 0.140552
  276         hc      9    bbb    H10    276 0.06265900   1.008000   ; qtot 0.203211
  277         c3      9    bbb     C6    277 0.11363000  12.010000   ; qtot 0.316841
  278         hc      9    bbb    H11    278 0.06265900   1.008000   ; qtot 0.379500
  279         hc      9    bbb    H12    279 0.06265900   1.008000   ; qtot 0.442159
  280         c3      9    bbb     C7    280 0.05858200  12.010000   ; qtot 0.500741
  281         h1      9    bbb    H13    281 0.06123400   1.008000   ; qtot 0.561975
  282         h1      9    bbb    H14    282 0.06123400   1.008000   ; qtot 0.623209
  283         c3      9    bbb     C8    283 -0.72423400  12.010000   ; qtot -0.101025
  284         h1      9    bbb    H15    284 0.25637600   1.008000   ; qtot 0.155351
  285         h1      9    bbb    H16    285 0.25637600   1.008000   ; qtot 0.411727
  286         c3      9    bbb     C9    286 -0.72423400  12.010000   ; qtot -0.312507
  287         h1      9    bbb    H17    287 0.25637600   1.008000   ; qtot -0.056131
  288         h1      9    bbb    H18    288 0.25637600   1.008000   ; qtot 0.200245
  289         os      9    bbb     O1    289 -0.20025300  16.000000   ; qtot -0.000008
; residue   10 bbb rtp bbb q -0.0
  290         n3     10    bbb     N1    290 -0.59685800  14.010000   ; qtot -0.596866
  291         c3     10    bbb     C1    291 0.10137000  12.010000   ; qtot -0.495496
  292         h1     10    bbb     H1    292 0.04411300   1.008000   ; qtot -0.451383
  293         h1     10    bbb     H2    293 0.04411300   1.008000   ; qtot -0.407270
  294         c3     10    bbb     C2    294 0.10137000  12.010000   ; qtot -0.305900
  295         h1     10    bbb     H3    295 0.04411300   1.008000   ; qtot -0.261787
  296         h1     10    bbb     H4    296 0.04411300   1.008000   ; qtot -0.217674
  297         c3     10    bbb     C3    297 -0.00195300  12.010000   ; qtot -0.219627
  298         h1     10    bbb     H5    298 0.05064400   1.008000   ; qtot -0.168983
  299         h1     10    bbb     H6    299 0.05064400   1.008000   ; qtot -0.118339
  300         c3     10    bbb     C4    300 -0.01612100  12.010000   ; qtot -0.134460
  301         hc     10    bbb     H7    301 0.04936100   1.008000   ; qtot -0.085099
  302         hc     10    bbb     H8    302 0.04936100   1.008000   ; qtot -0.035738
  303         c3     10    bbb     C5    303 0.11363000  12.010000   ; qtot 0.077892
  304         hc     10    bbb     H9    304 0.06265900   1.008000   ; qtot 0.140551
  305         hc     10    bbb    H10    305 0.06265900   1.008000   ; qtot 0.203210
  306         c3     10    bbb     C6    306 0.11363000  12.010000   ; qtot 0.316840
  307         hc     10    bbb    H11    307 0.06265900   1.008000   ; qtot 0.379499
  308         hc     10    bbb    H12    308 0.06265900   1.008000   ; qtot 0.442158
  309         c3     10    bbb     C7    309 0.05858200  12.010000   ; qtot 0.500740
  310         h1     10    bbb    H13    310 0.06123400   1.008000   ; qtot 0.561974
  311         h1     10    bbb    H14    311 0.06123400   1.008000   ; qtot 0.623208
  312         c3     10    bbb     C8    312 -0.72423400  12.010000   ; qtot -0.101026
  313         h1     10    bbb    H15    313 0.25637600   1.008000   ; qtot 0.155350
  314         h1     10    bbb    H16    314 0.25637600   1.008000   ; qtot 0.411726
  315         c3     10    bbb     C9    315 -0.72423400  12.010000   ; qtot -0.312508
  316         h1     10    bbb    H17    316 0.25637600   1.008000   ; qtot -0.056132
  317         h1     10    bbb    H18    317 0.25637600   1.008000   ; qtot 0.200244
  318         os     10    bbb     O1    318 -0.20025300  16.000000   ; qtot -0.000009
; residue   11 bbb rtp bbb q -0.0
  319         n3     11    bbb     N1    319 -0.59685800  14.010000   ; qtot -0.596867
  320         c3     11    bbb     C1    320 0.10137000  12.010000   ; qtot -0.495497
  321         h1     11    bbb     H1    321 0.04411300   1.008000   ; qtot -0.451384
  322         h1     11    bbb     H2    322 0.04411300   1.008000   ; qtot -0.407271
  323         c3     11    bbb     C2    323 0.10137000  12.010000   ; qtot -0.305901
  324         h1     11    bbb     H3    324 0.04411300   1.008000   ; qtot -0.261788
  325         h1     11    bbb     H4    325 0.04411300   1.008000   ; qtot -0.217675
  326         c3     11    bbb     C3    326 -0.00195300  12.010000   ; qtot -0.219628
  327         h1     11    bbb     H5    327 0.05064400   1.008000   ; qtot -0.168984
  328         h1     11    bbb     H6    328 0.05064400   1.008000   ; qtot -0.118340
  329         c3     11    bbb     C4    329 -0.01612100  12.010000   ; qtot -0.134461
  330         hc     11    bbb     H7    330 0.04936100   1.008000   ; qtot -0.085100
  331         hc     11    bbb     H8    331 0.04936100   1.008000   ; qtot -0.035739
  332         c3     11    bbb     C5    332 0.11363000  12.010000   ; qtot 0.077891
  333         hc     11    bbb     H9    333 0.06265900   1.008000   ; qtot 0.140550
  334         hc     11    bbb    H10    334 0.06265900   1.008000   ; qtot 0.203209
  335         c3     11    bbb     C6    335 0.11363000  12.010000   ; qtot 0.316839
  336         hc     11    bbb    H11    336 0.06265900   1.008000   ; qtot 0.379498
  337         hc     11    bbb    H12    337 0.06265900   1.008000   ; qtot 0.442157
  338         c3     11    bbb     C7    338 0.05858200  12.010000   ; qtot 0.500739
  339         h1     11    bbb    H13    339 0.06123400   1.008000   ; qtot 0.561973
  340         h1     11    bbb    H14    340 0.06123400   1.008000   ; qtot 0.623207
  341         c3     11    bbb     C8    341 -0.72423400  12.010000   ; qtot -0.101027
  342         h1     11    bbb    H15    342 0.25637600   1.008000   ; qtot 0.155349
  343         h1     11    bbb    H16    343 0.25637600   1.008000   ; qtot 0.411725
  344         c3     11    bbb     C9    344 -0.72423400  12.010000   ; qtot -0.312509
  345         h1     11    bbb    H17    345 0.25637600   1.008000   ; qtot -0.056133
  346         h1     11    bbb    H18    346 0.25637600   1.008000   ; qtot 0.200243
  347         os     11    bbb     O1    347 -0.20025300  16.000000   ; qtot -0.000010
; residue   12 bbb rtp bbb q -0.0
  348         n3     12    bbb     N1    348 -0.59685800  14.010000   ; qtot -0.596868
  349         c3     12    bbb     C1    349 0.10137000  12.010000   ; qtot -0.495498
  350         h1     12    bbb     H1    350 0.04411300   1.008000   ; qtot -0.451385
  351         h1     12    bbb     H2    351 0.04411300   1.008000   ; qtot -0.407272
  352         c3     12    bbb     C2    352 0.10137000  12.010000   ; qtot -0.305902
  353         h1     12    bbb     H3    353 0.04411300   1.008000   ; qtot -0.261789
  354         h1     12    bbb     H4    354 0.04411300   1.008000   ; qtot -0.217676
  355         c3     12    bbb     C3    355 -0.00195300  12.010000   ; qtot -0.219629
  356         h1     12    bbb     H5    356 0.05064400   1.008000   ; qtot -0.168985
  357         h1     12    bbb     H6    357 0.05064400   1.008000   ; qtot -0.118341
  358         c3     12    bbb     C4    358 -0.01612100  12.010000   ; qtot -0.134462
  359         hc     12    bbb     H7    359 0.04936100   1.008000   ; qtot -0.085101
  360         hc     12    bbb     H8    360 0.04936100   1.008000   ; qtot -0.035740
  361         c3     12    bbb     C5    361 0.11363000  12.010000   ; qtot 0.077890
  362         hc     12    bbb     H9    362 0.06265900   1.008000   ; qtot 0.140549
  363         hc     12    bbb    H10    363 0.06265900   1.008000   ; qtot 0.203208
  364         c3     12    bbb     C6    364 0.11363000  12.010000   ; qtot 0.316838
  365         hc     12    bbb    H11    365 0.06265900   1.008000   ; qtot 0.379497
  366         hc     12    bbb    H12    366 0.06265900   1.008000   ; qtot 0.442156
  367         c3     12    bbb     C7    367 0.05858200  12.010000   ; qtot 0.500738
  368         h1     12    bbb    H13    368 0.06123400   1.008000   ; qtot 0.561972
  369         h1     12    bbb    H14    369 0.06123400   1.008000   ; qtot 0.623206
  370         c3     12    bbb     C8    370 -0.72423400  12.010000   ; qtot -0.101028
  371         h1     12    bbb    H15    371 0.25637600   1.008000   ; qtot 0.155348
  372         h1     12    bbb    H16    372 0.25637600   1.008000   ; qtot 0.411724
  373         c3     12    bbb     C9    373 -0.72423400  12.010000   ; qtot -0.312510
  374         h1     12    bbb    H17    374 0.25637600   1.008000   ; qtot -0.056134
  375         h1     12    bbb    H18    375 0.25637600   1.008000   ; qtot 0.200242
  376         os     12    bbb     O1    376 -0.20025300  16.000000   ; qtot -0.000011
; residue   13 bbb rtp bbb q -0.0
  377         n3     13    bbb     N1    377 -0.59685800  14.010000   ; qtot -0.596869
  378         c3     13    bbb     C1    378 0.10137000  12.010000   ; qtot -0.495499
  379         h1     13    bbb     H1    379 0.04411300   1.008000   ; qtot -0.451386
  380         h1     13    bbb     H2    380 0.04411300   1.008000   ; qtot -0.407273
  381         c3     13    bbb     C2    381 0.10137000  12.010000   ; qtot -0.305903
  382         h1     13    bbb     H3    382 0.04411300   1.008000   ; qtot -0.261790
  383         h1     13    bbb     H4    383 0.04411300   1.008000   ; qtot -0.217677
  384         c3     13    bbb     C3    384 -0.00195300  12.010000   ; qtot -0.219630
  385         h1     13    bbb     H5    385 0.05064400   1.008000   ; qtot -0.168986
  386         h1     13    bbb     H6    386 0.05064400   1.008000   ; qtot -0.118342
  387         c3     13    bbb     C4    387 -0.01612100  12.010000   ; qtot -0.134463
  388         hc     13    bbb     H7    388 0.04936100   1.008000   ; qtot -0.085102
  389         hc     13    bbb     H8    389 0.04936100   1.008000   ; qtot -0.035741
  390         c3     13    bbb     C5    390 0.11363000  12.010000   ; qtot 0.077889
  391         hc     13    bbb     H9    391 0.06265900   1.008000   ; qtot 0.140548
  392         hc     13    bbb    H10    392 0.06265900   1.008000   ; qtot 0.203207
  393         c3     13    bbb     C6    393 0.11363000  12.010000   ; qtot 0.316837
  394         hc     13    bbb    H11    394 0.06265900   1.008000   ; qtot 0.379496
  395         hc     13    bbb    H12    395 0.06265900   1.008000   ; qtot 0.442155
  396         c3     13    bbb     C7    396 0.05858200  12.010000   ; qtot 0.500737
  397         h1     13    bbb    H13    397 0.06123400   1.008000   ; qtot 0.561971
  398         h1     13    bbb    H14    398 0.06123400   1.008000   ; qtot 0.623205
  399         c3     13    bbb     C8    399 -0.72423400  12.010000   ; qtot -0.101029
  400         h1     13    bbb    H15    400 0.25637600   1.008000   ; qtot 0.155347
  401         h1     13    bbb    H16    401 0.25637600   1.008000   ; qtot 0.411723
  402         c3     13    bbb     C9    402 -0.72423400  12.010000   ; qtot -0.312511
  403         h1     13    bbb    H17    403 0.25637600   1.008000   ; qtot -0.056135
  404         h1     13    bbb    H18    404 0.25637600   1.008000   ; qtot 0.200241
  405         os     13    bbb     O1    405 -0.20025300  16.000000   ; qtot -0.000012
; residue   14 bbb rtp bbb q -0.0
  406         n3     14    bbb     N1    406 -0.59685800  14.010000   ; qtot -0.596870
  407         c3     14    bbb     C1    407 0.10137000  12.010000   ; qtot -0.495500
  408         h1     14    bbb     H1    408 0.04411300   1.008000   ; qtot -0.451387
  409         h1     14    bbb     H2    409 0.04411300   1.008000   ; qtot -0.407274
  410         c3     14    bbb     C2    410 0.10137000  12.010000   ; qtot -0.305904
  411         h1     14    bbb     H3    411 0.04411300   1.008000   ; qtot -0.261791
  412         h1     14    bbb     H4    412 0.04411300   1.008000   ; qtot -0.217678
  413         c3     14    bbb     C3    413 -0.00195300  12.010000   ; qtot -0.219631
  414         h1     14    bbb     H5    414 0.05064400   1.008000   ; qtot -0.168987
  415         h1     14    bbb     H6    415 0.05064400   1.008000   ; qtot -0.118343
  416         c3     14    bbb     C4    416 -0.01612100  12.010000   ; qtot -0.134464
  417         hc     14    bbb     H7    417 0.04936100   1.008000   ; qtot -0.085103
  418         hc     14    bbb     H8    418 0.04936100   1.008000   ; qtot -0.035742
  419         c3     14    bbb     C5    419 0.11363000  12.010000   ; qtot 0.077888
  420         hc     14    bbb     H9    420 0.06265900   1.008000   ; qtot 0.140547
  421         hc     14    bbb    H10    421 0.06265900   1.008000   ; qtot 0.203206
  422         c3     14    bbb     C6    422 0.11363000  12.010000   ; qtot 0.316836
  423         hc     14    bbb    H11    423 0.06265900   1.008000   ; qtot 0.379495
  424         hc     14    bbb    H12    424 0.06265900   1.008000   ; qtot 0.442154
  425         c3     14    bbb     C7    425 0.05858200  12.010000   ; qtot 0.500736
  426         h1     14    bbb    H13    426 0.06123400   1.008000   ; qtot 0.561970
  427         h1     14    bbb    H14    427 0.06123400   1.008000   ; qtot 0.623204
  428         c3     14    bbb     C8    428 -0.72423400  12.010000   ; qtot -0.101030
  429         h1     14    bbb    H15    429 0.25637600   1.008000   ; qtot 0.155346
  430         h1     14    bbb    H16    430 0.25637600   1.008000   ; qtot 0.411722
  431         c3     14    bbb     C9    431 -0.72423400  12.010000   ; qtot -0.312512
  432         h1     14    bbb    H17    432 0.25637600   1.008000   ; qtot -0.056136
  433         h1     14    bbb    H18    433 0.25637600   1.008000   ; qtot 0.200240
  434         os     14    bbb     O1    434 -0.20025300  16.000000   ; qtot -0.000013
; residue   15 bbb rtp bbb q -0.0
  435         n3     15    bbb     N1    435 -0.59685800  14.010000   ; qtot -0.596871
  436         c3     15    bbb     C1    436 0.10137000  12.010000   ; qtot -0.495501
  437         h1     15    bbb     H1    437 0.04411300   1.008000   ; qtot -0.451388
  438         h1     15    bbb     H2    438 0.04411300   1.008000   ; qtot -0.407275
  439         c3     15    bbb     C2    439 0.10137000  12.010000   ; qtot -0.305905
  440         h1     15    bbb     H3    440 0.04411300   1.008000   ; qtot -0.261792
  441         h1     15    bbb     H4    441 0.04411300   1.008000   ; qtot -0.217679
  442         c3     15    bbb     C3    442 -0.00195300  12.010000   ; qtot -0.219632
  443         h1     15    bbb     H5    443 0.05064400   1.008000   ; qtot -0.168988
  444         h1     15    bbb     H6    444 0.05064400   1.008000   ; qtot -0.118344
  445         c3     15    bbb     C4    445 -0.01612100  12.010000   ; qtot -0.134465
  446         hc     15    bbb     H7    446 0.04936100   1.008000   ; qtot -0.085104
  447         hc     15    bbb     H8    447 0.04936100   1.008000   ; qtot -0.035743
  448         c3     15    bbb     C5    448 0.11363000  12.010000   ; qtot 0.077887
  449         hc     15    bbb     H9    449 0.06265900   1.008000   ; qtot 0.140546
  450         hc     15    bbb    H10    450 0.06265900   1.008000   ; qtot 0.203205
  451         c3     15    bbb     C6    451 0.11363000  12.010000   ; qtot 0.316835
  452         hc     15    bbb    H11    452 0.06265900   1.008000   ; qtot 0.379494
  453         hc     15    bbb    H12    453 0.06265900   1.008000   ; qtot 0.442153
  454         c3     15    bbb     C7    454 0.05858200  12.010000   ; qtot 0.500735
  455         h1     15    bbb    H13    455 0.06123400   1.008000   ; qtot 0.561969
  456         h1     15    bbb    H14    456 0.06123400   1.008000   ; qtot 0.623203
  457         c3     15    bbb     C8    457 -0.72423400  12.010000   ; qtot -0.101031
  458         h1     15    bbb    H15    458 0.25637600   1.008000   ; qtot 0.155345
  459         h1     15    bbb    H16    459 0.25637600   1.008000   ; qtot 0.411721
  460         c3     15    bbb     C9    460 -0.72423400  12.010000   ; qtot -0.312513
  461         h1     15    bbb    H17    461 0.25637600   1.008000   ; qtot -0.056137
  462         h1     15    bbb    H18    462 0.25637600   1.008000   ; qtot 0.200239
  463         os     15    bbb     O1    463 -0.20025300  16.000000   ; qtot -0.000014
; residue   16 bbb rtp bbb q -0.0
  464         n3     16    bbb     N1    464 -0.59685800  14.010000   ; qtot -0.596872
  465         c3     16    bbb     C1    465 0.10137000  12.010000   ; qtot -0.495502
  466         h1     16    bbb     H1    466 0.04411300   1.008000   ; qtot -0.451389
  467         h1     16    bbb     H2    467 0.04411300   1.008000   ; qtot -0.407276
  468         c3     16    bbb     C2    468 0.10137000  12.010000   ; qtot -0.305906
  469         h1     16    bbb     H3    469 0.04411300   1.008000   ; qtot -0.261793
  470         h1     16    bbb     H4    470 0.04411300   1.008000   ; qtot -0.217680
  471         c3     16    bbb     C3    471 -0.00195300  12.010000   ; qtot -0.219633
  472         h1     16    bbb     H5    472 0.05064400   1.008000   ; qtot -0.168989
  473         h1     16    bbb     H6    473 0.05064400   1.008000   ; qtot -0.118345
  474         c3     16    bbb     C4    474 -0.01612100  12.010000   ; qtot -0.134466
  475         hc     16    bbb     H7    475 0.04936100   1.008000   ; qtot -0.085105
  476         hc     16    bbb     H8    476 0.04936100   1.008000   ; qtot -0.035744
  477         c3     16    bbb     C5    477 0.11363000  12.010000   ; qtot 0.077886
  478         hc     16    bbb     H9    478 0.06265900   1.008000   ; qtot 0.140545
  479         hc     16    bbb    H10    479 0.06265900   1.008000   ; qtot 0.203204
  480         c3     16    bbb     C6    480 0.11363000  12.010000   ; qtot 0.316834
  481         hc     16    bbb    H11    481 0.06265900   1.008000   ; qtot 0.379493
  482         hc     16    bbb    H12    482 0.06265900   1.008000   ; qtot 0.442152
  483         c3     16    bbb     C7    483 0.05858200  12.010000   ; qtot 0.500734
  484         h1     16    bbb    H13    484 0.06123400   1.008000   ; qtot 0.561968
  485         h1     16    bbb    H14    485 0.06123400   1.008000   ; qtot 0.623202
  486         c3     16    bbb     C8    486 -0.72423400  12.010000   ; qtot -0.101032
  487         h1     16    bbb    H15    487 0.25637600   1.008000   ; qtot 0.155344
  488         h1     16    bbb    H16    488 0.25637600   1.008000   ; qtot 0.411720
  489         c3     16    bbb     C9    489 -0.72423400  12.010000   ; qtot -0.312514
  490         h1     16    bbb    H17    490 0.25637600   1.008000   ; qtot -0.056138
  491         h1     16    bbb    H18    491 0.25637600   1.008000   ; qtot 0.200238
  492         os     16    bbb     O1    492 -0.20025300  16.000000   ; qtot -0.000015
; residue   17 bbb rtp bbb q -0.0
  493         n3     17    bbb     N1    493 -0.59685800  14.010000   ; qtot -0.596873
  494         c3     17    bbb     C1    494 0.10137000  12.010000   ; qtot -0.495503
  495         h1     17    bbb     H1    495 0.04411300   1.008000   ; qtot -0.451390
  496         h1     17    bbb     H2    496 0.04411300   1.008000   ; qtot -0.407277
  497         c3     17    bbb     C2    497 0.10137000  12.010000   ; qtot -0.305907
  498         h1     17    bbb     H3    498 0.04411300   1.008000   ; qtot -0.261794
  499         h1     17    bbb     H4    499 0.04411300   1.008000   ; qtot -0.217681
  500         c3     17    bbb     C3    500 -0.00195300  12.010000   ; qtot -0.219634
  501         h1     17    bbb     H5    501 0.05064400   1.008000   ; qtot -0.168990
  502         h1     17    bbb     H6    502 0.05064400   1.008000   ; qtot -0.118346
  503         c3     17    bbb     C4    503 -0.01612100  12.010000   ; qtot -0.134467
  504         hc     17    bbb     H7    504 0.04936100   1.008000   ; qtot -0.085106
  505         hc     17    bbb     H8    505 0.04936100   1.008000   ; qtot -0.035745
  506         c3     17    bbb     C5    506 0.11363000  12.010000   ; qtot 0.077885
  507         hc     17    bbb     H9    507 0.06265900   1.008000   ; qtot 0.140544
  508         hc     17    bbb    H10    508 0.06265900   1.008000   ; qtot 0.203203
  509         c3     17    bbb     C6    509 0.11363000  12.010000   ; qtot 0.316833
  510         hc     17    bbb    H11    510 0.06265900   1.008000   ; qtot 0.379492
  511         hc     17    bbb    H12    511 0.06265900   1.008000   ; qtot 0.442151
  512         c3     17    bbb     C7    512 0.05858200  12.010000   ; qtot 0.500733
  513         h1     17    bbb    H13    513 0.06123400   1.008000   ; qtot 0.561967
  514         h1     17    bbb    H14    514 0.06123400   1.008000   ; qtot 0.623201
  515         c3     17    bbb     C8    515 -0.72423400  12.010000   ; qtot -0.101033
  516         h1     17    bbb    H15    516 0.25637600   1.008000   ; qtot 0.155343
  517         h1     17    bbb    H16    517 0.25637600   1.008000   ; qtot 0.411719
  518         c3     17    bbb     C9    518 -0.72423400  12.010000   ; qtot -0.312515
  519         h1     17    bbb    H17    519 0.25637600   1.008000   ; qtot -0.056139
  520         h1     17    bbb    H18    520 0.25637600   1.008000   ; qtot 0.200237
  521         os     17    bbb     O1    521 -0.20025300  16.000000   ; qtot -0.000016
; residue   18 bbb rtp bbb q -0.0
  522         n3     18    bbb     N1    522 -0.59685800  14.010000   ; qtot -0.596874
  523         c3     18    bbb     C1    523 0.10137000  12.010000   ; qtot -0.495504
  524         h1     18    bbb     H1    524 0.04411300   1.008000   ; qtot -0.451391
  525         h1     18    bbb     H2    525 0.04411300   1.008000   ; qtot -0.407278
  526         c3     18    bbb     C2    526 0.10137000  12.010000   ; qtot -0.305908
  527         h1     18    bbb     H3    527 0.04411300   1.008000   ; qtot -0.261795
  528         h1     18    bbb     H4    528 0.04411300   1.008000   ; qtot -0.217682
  529         c3     18    bbb     C3    529 -0.00195300  12.010000   ; qtot -0.219635
  530         h1     18    bbb     H5    530 0.05064400   1.008000   ; qtot -0.168991
  531         h1     18    bbb     H6    531 0.05064400   1.008000   ; qtot -0.118347
  532         c3     18    bbb     C4    532 -0.01612100  12.010000   ; qtot -0.134468
  533         hc     18    bbb     H7    533 0.04936100   1.008000   ; qtot -0.085107
  534         hc     18    bbb     H8    534 0.04936100   1.008000   ; qtot -0.035746
  535         c3     18    bbb     C5    535 0.11363000  12.010000   ; qtot 0.077884
  536         hc     18    bbb     H9    536 0.06265900   1.008000   ; qtot 0.140543
  537         hc     18    bbb    H10    537 0.06265900   1.008000   ; qtot 0.203202
  538         c3     18    bbb     C6    538 0.11363000  12.010000   ; qtot 0.316832
  539         hc     18    bbb    H11    539 0.06265900   1.008000   ; qtot 0.379491
  540         hc     18    bbb    H12    540 0.06265900   1.008000   ; qtot 0.442150
  541         c3     18    bbb     C7    541 0.05858200  12.010000   ; qtot 0.500732
  542         h1     18    bbb    H13    542 0.06123400   1.008000   ; qtot 0.561966
  543         h1     18    bbb    H14    543 0.06123400   1.008000   ; qtot 0.623200
  544         c3     18    bbb     C8    544 -0.72423400  12.010000   ; qtot -0.101034
  545         h1     18    bbb    H15    545 0.25637600   1.008000   ; qtot 0.155342
  546         h1     18    bbb    H16    546 0.25637600   1.008000   ; qtot 0.411718
  547         c3     18    bbb     C9    547 -0.72423400  12.010000   ; qtot -0.312516
  548         h1     18    bbb    H17    548 0.25637600   1.008000   ; qtot -0.056140
  549         h1     18    bbb    H18    549 0.25637600   1.008000   ; qtot 0.200236
  550         os     18    bbb     O1    550 -0.20025300  16.000000   ; qtot -0.000017
; residue   19 bbb rtp bbb q -0.0
  551         n3     19    bbb     N1    551 -0.59685800  14.010000   ; qtot -0.596875
  552         c3     19    bbb     C1    552 0.10137000  12.010000   ; qtot -0.495505
  553         h1     19    bbb     H1    553 0.04411300   1.008000   ; qtot -0.451392
  554         h1     19    bbb     H2    554 0.04411300   1.008000   ; qtot -0.407279
  555         c3     19    bbb     C2    555 0.10137000  12.010000   ; qtot -0.305909
  556         h1     19    bbb     H3    556 0.04411300   1.008000   ; qtot -0.261796
  557         h1     19    bbb     H4    557 0.04411300   1.008000   ; qtot -0.217683
  558         c3     19    bbb     C3    558 -0.00195300  12.010000   ; qtot -0.219636
  559         h1     19    bbb     H5    559 0.05064400   1.008000   ; qtot -0.168992
  560         h1     19    bbb     H6    560 0.05064400   1.008000   ; qtot -0.118348
  561         c3     19    bbb     C4    561 -0.01612100  12.010000   ; qtot -0.134469
  562         hc     19    bbb     H7    562 0.04936100   1.008000   ; qtot -0.085108
  563         hc     19    bbb     H8    563 0.04936100   1.008000   ; qtot -0.035747
  564         c3     19    bbb     C5    564 0.11363000  12.010000   ; qtot 0.077883
  565         hc     19    bbb     H9    565 0.06265900   1.008000   ; qtot 0.140542
  566         hc     19    bbb    H10    566 0.06265900   1.008000   ; qtot 0.203201
  567         c3     19    bbb     C6    567 0.11363000  12.010000   ; qtot 0.316831
  568         hc     19    bbb    H11    568 0.06265900   1.008000   ; qtot 0.379490
  569         hc     19    bbb    H12    569 0.06265900   1.008000   ; qtot 0.442149
  570         c3     19    bbb     C7    570 0.05858200  12.010000   ; qtot 0.500731
  571         h1     19    bbb    H13    571 0.06123400   1.008000   ; qtot 0.561965
  572         h1     19    bbb    H14    572 0.06123400   1.008000   ; qtot 0.623199
  573         c3     19    bbb     C8    573 -0.72423400  12.010000   ; qtot -0.101035
  574         h1     19    bbb    H15    574 0.25637600   1.008000   ; qtot 0.155341
  575         h1     19    bbb    H16    575 0.25637600   1.008000   ; qtot 0.411717
  576         c3     19    bbb     C9    576 -0.72423400  12.010000   ; qtot -0.312517
  577         h1     19    bbb    H17    577 0.25637600   1.008000   ; qtot -0.056141
  578         h1     19    bbb    H18    578 0.25637600   1.008000   ; qtot 0.200235
  579         os     19    bbb     O1    579 -0.20025300  16.000000   ; qtot -0.000018
; residue   20 bbb rtp bbb q -0.0
  580         n3     20    bbb     N1    580 -0.59685800  14.010000   ; qtot -0.596876
  581         c3     20    bbb     C1    581 0.10137000  12.010000   ; qtot -0.495506
  582         h1     20    bbb     H1    582 0.04411300   1.008000   ; qtot -0.451393
  583         h1     20    bbb     H2    583 0.04411300   1.008000   ; qtot -0.407280
  584         c3     20    bbb     C2    584 0.10137000  12.010000   ; qtot -0.305910
  585         h1     20    bbb     H3    585 0.04411300   1.008000   ; qtot -0.261797
  586         h1     20    bbb     H4    586 0.04411300   1.008000   ; qtot -0.217684
  587         c3     20    bbb     C3    587 -0.00195300  12.010000   ; qtot -0.219637
  588         h1     20    bbb     H5    588 0.05064400   1.008000   ; qtot -0.168993
  589         h1     20    bbb     H6    589 0.05064400   1.008000   ; qtot -0.118349
  590         c3     20    bbb     C4    590 -0.01612100  12.010000   ; qtot -0.134470
  591         hc     20    bbb     H7    591 0.04936100   1.008000   ; qtot -0.085109
  592         hc     20    bbb     H8    592 0.04936100   1.008000   ; qtot -0.035748
  593         c3     20    bbb     C5    593 0.11363000  12.010000   ; qtot 0.077882
  594         hc     20    bbb     H9    594 0.06265900   1.008000   ; qtot 0.140541
  595         hc     20    bbb    H10    595 0.06265900   1.008000   ; qtot 0.203200
  596         c3     20    bbb     C6    596 0.11363000  12.010000   ; qtot 0.316830
  597         hc     20    bbb    H11    597 0.06265900   1.008000   ; qtot 0.379489
  598         hc     20    bbb    H12    598 0.06265900   1.008000   ; qtot 0.442148
  599         c3     20    bbb     C7    599 0.05858200  12.010000   ; qtot 0.500730
  600         h1     20    bbb    H13    600 0.06123400   1.008000   ; qtot 0.561964
  601         h1     20    bbb    H14    601 0.06123400   1.008000   ; qtot 0.623198
  602         c3     20    bbb     C8    602 -0.72423400  12.010000   ; qtot -0.101036
  603         h1     20    bbb    H15    603 0.25637600   1.008000   ; qtot 0.155340
  604         h1     20    bbb    H16    604 0.25637600   1.008000   ; qtot 0.411716
  605         c3     20    bbb     C9    605 -0.72423400  12.010000   ; qtot -0.312518
  606         h1     20    bbb    H17    606 0.25637600   1.008000   ; qtot -0.056142
  607         h1     20    bbb    H18    607 0.25637600   1.008000   ; qtot 0.200234
  608         os     20    bbb     O1    608 -0.20025300  16.000000   ; qtot -0.000019
; residue   21 bbb rtp bbb q -0.0
  609         n3     21    bbb     N1    609 -0.59685800  14.010000   ; qtot -0.596877
  610         c3     21    bbb     C1    610 0.10137000  12.010000   ; qtot -0.495507
  611         h1     21    bbb     H1    611 0.04411300   1.008000   ; qtot -0.451394
  612         h1     21    bbb     H2    612 0.04411300   1.008000   ; qtot -0.407281
  613         c3     21    bbb     C2    613 0.10137000  12.010000   ; qtot -0.305911
  614         h1     21    bbb     H3    614 0.04411300   1.008000   ; qtot -0.261798
  615         h1     21    bbb     H4    615 0.04411300   1.008000   ; qtot -0.217685
  616         c3     21    bbb     C3    616 -0.00195300  12.010000   ; qtot -0.219638
  617         h1     21    bbb     H5    617 0.05064400   1.008000   ; qtot -0.168994
  618         h1     21    bbb     H6    618 0.05064400   1.008000   ; qtot -0.118350
  619         c3     21    bbb     C4    619 -0.01612100  12.010000   ; qtot -0.134471
  620         hc     21    bbb     H7    620 0.04936100   1.008000   ; qtot -0.085110
  621         hc     21    bbb     H8    621 0.04936100   1.008000   ; qtot -0.035749
  622         c3     21    bbb     C5    622 0.11363000  12.010000   ; qtot 0.077881
  623         hc     21    bbb     H9    623 0.06265900   1.008000   ; qtot 0.140540
  624         hc     21    bbb    H10    624 0.06265900   1.008000   ; qtot 0.203199
  625         c3     21    bbb     C6    625 0.11363000  12.010000   ; qtot 0.316829
  626         hc     21    bbb    H11    626 0.06265900   1.008000   ; qtot 0.379488
  627         hc     21    bbb    H12    627 0.06265900   1.008000   ; qtot 0.442147
  628         c3     21    bbb     C7    628 0.05858200  12.010000   ; qtot 0.500729
  629         h1     21    bbb    H13    629 0.06123400   1.008000   ; qtot 0.561963
  630         h1     21    bbb    H14    630 0.06123400   1.008000   ; qtot 0.623197
  631         c3     21    bbb     C8    631 -0.72423400  12.010000   ; qtot -0.101037
  632         h1     21    bbb    H15    632 0.25637600   1.008000   ; qtot 0.155339
  633         h1     21    bbb    H16    633 0.25637600   1.008000   ; qtot 0.411715
  634         c3     21    bbb     C9    634 -0.72423400  12.010000   ; qtot -0.312519
  635         h1     21    bbb    H17    635 0.25637600   1.008000   ; qtot -0.056143
  636         h1     21    bbb    H18    636 0.25637600   1.008000   ; qtot 0.200233
  637         os     21    bbb     O1    637 -0.20025300  16.000000   ; qtot -0.000020
; residue   22 bbb rtp bbb q -0.0
  638         n3     22    bbb     N1    638 -0.59685800  14.010000   ; qtot -0.596878
  639         c3     22    bbb     C1    639 0.10137000  12.010000   ; qtot -0.495508
  640         h1     22    bbb     H1    640 0.04411300   1.008000   ; qtot -0.451395
  641         h1     22    bbb     H2    641 0.04411300   1.008000   ; qtot -0.407282
  642         c3     22    bbb     C2    642 0.10137000  12.010000   ; qtot -0.305912
  643         h1     22    bbb     H3    643 0.04411300   1.008000   ; qtot -0.261799
  644         h1     22    bbb     H4    644 0.04411300   1.008000   ; qtot -0.217686
  645         c3     22    bbb     C3    645 -0.00195300  12.010000   ; qtot -0.219639
  646         h1     22    bbb     H5    646 0.05064400   1.008000   ; qtot -0.168995
  647         h1     22    bbb     H6    647 0.05064400   1.008000   ; qtot -0.118351
  648         c3     22    bbb     C4    648 -0.01612100  12.010000   ; qtot -0.134472
  649         hc     22    bbb     H7    649 0.04936100   1.008000   ; qtot -0.085111
  650         hc     22    bbb     H8    650 0.04936100   1.008000   ; qtot -0.035750
  651         c3     22    bbb     C5    651 0.11363000  12.010000   ; qtot 0.077880
  652         hc     22    bbb     H9    652 0.06265900   1.008000   ; qtot 0.140539
  653         hc     22    bbb    H10    653 0.06265900   1.008000   ; qtot 0.203198
  654         c3     22    bbb     C6    654 0.11363000  12.010000   ; qtot 0.316828
  655         hc     22    bbb    H11    655 0.06265900   1.008000   ; qtot 0.379487
  656         hc     22    bbb    H12    656 0.06265900   1.008000   ; qtot 0.442146
  657         c3     22    bbb     C7    657 0.05858200  12.010000   ; qtot 0.500728
  658         h1     22    bbb    H13    658 0.06123400   1.008000   ; qtot 0.561962
  659         h1     22    bbb    H14    659 0.06123400   1.008000   ; qtot 0.623196
  660         c3     22    bbb     C8    660 -0.72423400  12.010000   ; qtot -0.101038
  661         h1     22    bbb    H15    661 0.25637600   1.008000   ; qtot 0.155338
  662         h1     22    bbb    H16    662 0.25637600   1.008000   ; qtot 0.411714
  663         c3     22    bbb     C9    663 -0.72423400  12.010000   ; qtot -0.312520
  664         h1     22    bbb    H17    664 0.25637600   1.008000   ; qtot -0.056144
  665         h1     22    bbb    H18    665 0.25637600   1.008000   ; qtot 0.200232
  666         os     22    bbb     O1    666 -0.20025300  16.000000   ; qtot -0.000021
; residue   23 bbb rtp bbb q -0.0
  667         n3     23    bbb     N1    667 -0.59685800  14.010000   ; qtot -0.596879
  668         c3     23    bbb     C1    668 0.10137000  12.010000   ; qtot -0.495509
  669         h1     23    bbb     H1    669 0.04411300   1.008000   ; qtot -0.451396
  670         h1     23    bbb     H2    670 0.04411300   1.008000   ; qtot -0.407283
  671         c3     23    bbb     C2    671 0.10137000  12.010000   ; qtot -0.305913
  672         h1     23    bbb     H3    672 0.04411300   1.008000   ; qtot -0.261800
  673         h1     23    bbb     H4    673 0.04411300   1.008000   ; qtot -0.217687
  674         c3     23    bbb     C3    674 -0.00195300  12.010000   ; qtot -0.219640
  675         h1     23    bbb     H5    675 0.05064400   1.008000   ; qtot -0.168996
  676         h1     23    bbb     H6    676 0.05064400   1.008000   ; qtot -0.118352
  677         c3     23    bbb     C4    677 -0.01612100  12.010000   ; qtot -0.134473
  678         hc     23    bbb     H7    678 0.04936100   1.008000   ; qtot -0.085112
  679         hc     23    bbb     H8    679 0.04936100   1.008000   ; qtot -0.035751
  680         c3     23    bbb     C5    680 0.11363000  12.010000   ; qtot 0.077879
  681         hc     23    bbb     H9    681 0.06265900   1.008000   ; qtot 0.140538
  682         hc     23    bbb    H10    682 0.06265900   1.008000   ; qtot 0.203197
  683         c3     23    bbb     C6    683 0.11363000  12.010000   ; qtot 0.316827
  684         hc     23    bbb    H11    684 0.06265900   1.008000   ; qtot 0.379486
  685         hc     23    bbb    H12    685 0.06265900   1.008000   ; qtot 0.442145
  686         c3     23    bbb     C7    686 0.05858200  12.010000   ; qtot 0.500727
  687         h1     23    bbb    H13    687 0.06123400   1.008000   ; qtot 0.561961
  688         h1     23    bbb    H14    688 0.06123400   1.008000   ; qtot 0.623195
  689         c3     23    bbb     C8    689 -0.72423400  12.010000   ; qtot -0.101039
  690         h1     23    bbb    H15    690 0.25637600   1.008000   ; qtot 0.155337
  691         h1     23    bbb    H16    691 0.25637600   1.008000   ; qtot 0.411713
  692         c3     23    bbb     C9    692 -0.72423400  12.010000   ; qtot -0.312521
  693         h1     23    bbb    H17    693 0.25637600   1.008000   ; qtot -0.056145
  694         h1     23    bbb    H18    694 0.25637600   1.008000   ; qtot 0.200231
  695         os     23    bbb     O1    695 -0.20025300  16.000000   ; qtot -0.000022
; residue   24 bbb rtp bbb q -0.0
  696         n3     24    bbb     N1    696 -0.59685800  14.010000   ; qtot -0.596880
  697         c3     24    bbb     C1    697 0.10137000  12.010000   ; qtot -0.495510
  698         h1     24    bbb     H1    698 0.04411300   1.008000   ; qtot -0.451397
  699         h1     24    bbb     H2    699 0.04411300   1.008000   ; qtot -0.407284
  700         c3     24    bbb     C2    700 0.10137000  12.010000   ; qtot -0.305914
  701         h1     24    bbb     H3    701 0.04411300   1.008000   ; qtot -0.261801
  702         h1     24    bbb     H4    702 0.04411300   1.008000   ; qtot -0.217688
  703         c3     24    bbb     C3    703 -0.00195300  12.010000   ; qtot -0.219641
  704         h1     24    bbb     H5    704 0.05064400   1.008000   ; qtot -0.168997
  705         h1     24    bbb     H6    705 0.05064400   1.008000   ; qtot -0.118353
  706         c3     24    bbb     C4    706 -0.01612100  12.010000   ; qtot -0.134474
  707         hc     24    bbb     H7    707 0.04936100   1.008000   ; qtot -0.085113
  708         hc     24    bbb     H8    708 0.04936100   1.008000   ; qtot -0.035752
  709         c3     24    bbb     C5    709 0.11363000  12.010000   ; qtot 0.077878
  710         hc     24    bbb     H9    710 0.06265900   1.008000   ; qtot 0.140537
  711         hc     24    bbb    H10    711 0.06265900   1.008000   ; qtot 0.203196
  712         c3     24    bbb     C6    712 0.11363000  12.010000   ; qtot 0.316826
  713         hc     24    bbb    H11    713 0.06265900   1.008000   ; qtot 0.379485
  714         hc     24    bbb    H12    714 0.06265900   1.008000   ; qtot 0.442144
  715         c3     24    bbb     C7    715 0.05858200  12.010000   ; qtot 0.500726
  716         h1     24    bbb    H13    716 0.06123400   1.008000   ; qtot 0.561960
  717         h1     24    bbb    H14    717 0.06123400   1.008000   ; qtot 0.623194
  718         c3     24    bbb     C8    718 -0.72423400  12.010000   ; qtot -0.101040
  719         h1     24    bbb    H15    719 0.25637600   1.008000   ; qtot 0.155336
  720         h1     24    bbb    H16    720 0.25637600   1.008000   ; qtot 0.411712
  721         c3     24    bbb     C9    721 -0.72423400  12.010000   ; qtot -0.312522
  722         h1     24    bbb    H17    722 0.25637600   1.008000   ; qtot -0.056146
  723         h1     24    bbb    H18    723 0.25637600   1.008000   ; qtot 0.200230
  724         os     24    bbb     O1    724 -0.20025300  16.000000   ; qtot -0.000023
; residue   25 bbb rtp bbb q -0.0
  725         n3     25    bbb     N1    725 -0.59685800  14.010000   ; qtot -0.596881
  726         c3     25    bbb     C1    726 0.10137000  12.010000   ; qtot -0.495511
  727         h1     25    bbb     H1    727 0.04411300   1.008000   ; qtot -0.451398
  728         h1     25    bbb     H2    728 0.04411300   1.008000   ; qtot -0.407285
  729         c3     25    bbb     C2    729 0.10137000  12.010000   ; qtot -0.305915
  730         h1     25    bbb     H3    730 0.04411300   1.008000   ; qtot -0.261802
  731         h1     25    bbb     H4    731 0.04411300   1.008000   ; qtot -0.217689
  732         c3     25    bbb     C3    732 -0.00195300  12.010000   ; qtot -0.219642
  733         h1     25    bbb     H5    733 0.05064400   1.008000   ; qtot -0.168998
  734         h1     25    bbb     H6    734 0.05064400   1.008000   ; qtot -0.118354
  735         c3     25    bbb     C4    735 -0.01612100  12.010000   ; qtot -0.134475
  736         hc     25    bbb     H7    736 0.04936100   1.008000   ; qtot -0.085114
  737         hc     25    bbb     H8    737 0.04936100   1.008000   ; qtot -0.035753
  738         c3     25    bbb     C5    738 0.11363000  12.010000   ; qtot 0.077877
  739         hc     25    bbb     H9    739 0.06265900   1.008000   ; qtot 0.140536
  740         hc     25    bbb    H10    740 0.06265900   1.008000   ; qtot 0.203195
  741         c3     25    bbb     C6    741 0.11363000  12.010000   ; qtot 0.316825
  742         hc     25    bbb    H11    742 0.06265900   1.008000   ; qtot 0.379484
  743         hc     25    bbb    H12    743 0.06265900   1.008000   ; qtot 0.442143
  744         c3     25    bbb     C7    744 0.05858200  12.010000   ; qtot 0.500725
  745         h1     25    bbb    H13    745 0.06123400   1.008000   ; qtot 0.561959
  746         h1     25    bbb    H14    746 0.06123400   1.008000   ; qtot 0.623193
  747         c3     25    bbb     C8    747 -0.72423400  12.010000   ; qtot -0.101041
  748         h1     25    bbb    H15    748 0.25637600   1.008000   ; qtot 0.155335
  749         h1     25    bbb    H16    749 0.25637600   1.008000   ; qtot 0.411711
  750         c3     25    bbb     C9    750 -0.72423400  12.010000   ; qtot -0.312523
  751         h1     25    bbb    H17    751 0.25637600   1.008000   ; qtot -0.056147
  752         h1     25    bbb    H18    752 0.25637600   1.008000   ; qtot 0.200229
  753         os     25    bbb     O1    753 -0.20025300  16.000000   ; qtot -0.000024
; residue   26 bbb rtp bbb q -0.0
  754         n3     26    bbb     N1    754 -0.59685800  14.010000   ; qtot -0.596882
  755         c3     26    bbb     C1    755 0.10137000  12.010000   ; qtot -0.495512
  756         h1     26    bbb     H1    756 0.04411300   1.008000   ; qtot -0.451399
  757         h1     26    bbb     H2    757 0.04411300   1.008000   ; qtot -0.407286
  758         c3     26    bbb     C2    758 0.10137000  12.010000   ; qtot -0.305916
  759         h1     26    bbb     H3    759 0.04411300   1.008000   ; qtot -0.261803
  760         h1     26    bbb     H4    760 0.04411300   1.008000   ; qtot -0.217690
  761         c3     26    bbb     C3    761 -0.00195300  12.010000   ; qtot -0.219643
  762         h1     26    bbb     H5    762 0.05064400   1.008000   ; qtot -0.168999
  763         h1     26    bbb     H6    763 0.05064400   1.008000   ; qtot -0.118355
  764         c3     26    bbb     C4    764 -0.01612100  12.010000   ; qtot -0.134476
  765         hc     26    bbb     H7    765 0.04936100   1.008000   ; qtot -0.085115
  766         hc     26    bbb     H8    766 0.04936100   1.008000   ; qtot -0.035754
  767         c3     26    bbb     C5    767 0.11363000  12.010000   ; qtot 0.077876
  768         hc     26    bbb     H9    768 0.06265900   1.008000   ; qtot 0.140535
  769         hc     26    bbb    H10    769 0.06265900   1.008000   ; qtot 0.203194
  770         c3     26    bbb     C6    770 0.11363000  12.010000   ; qtot 0.316824
  771         hc     26    bbb    H11    771 0.06265900   1.008000   ; qtot 0.379483
  772         hc     26    bbb    H12    772 0.06265900   1.008000   ; qtot 0.442142
  773         c3     26    bbb     C7    773 0.05858200  12.010000   ; qtot 0.500724
  774         h1     26    bbb    H13    774 0.06123400   1.008000   ; qtot 0.561958
  775         h1     26    bbb    H14    775 0.06123400   1.008000   ; qtot 0.623192
  776         c3     26    bbb     C8    776 -0.72423400  12.010000   ; qtot -0.101042
  777         h1     26    bbb    H15    777 0.25637600   1.008000   ; qtot 0.155334
  778         h1     26    bbb    H16    778 0.25637600   1.008000   ; qtot 0.411710
  779         c3     26    bbb     C9    779 -0.72423400  12.010000   ; qtot -0.312524
  780         h1     26    bbb    H17    780 0.25637600   1.008000   ; qtot -0.056148
  781         h1     26    bbb    H18    781 0.25637600   1.008000   ; qtot 0.200228
  782         os     26    bbb     O1    782 -0.20025300  16.000000   ; qtot -0.000025
; residue   27 bbb rtp bbb q -0.0
  783         n3     27    bbb     N1    783 -0.59685800  14.010000   ; qtot -0.596883
  784         c3     27    bbb     C1    784 0.10137000  12.010000   ; qtot -0.495513
  785         h1     27    bbb     H1    785 0.04411300   1.008000   ; qtot -0.451400
  786         h1     27    bbb     H2    786 0.04411300   1.008000   ; qtot -0.407287
  787         c3     27    bbb     C2    787 0.10137000  12.010000   ; qtot -0.305917
  788         h1     27    bbb     H3    788 0.04411300   1.008000   ; qtot -0.261804
  789         h1     27    bbb     H4    789 0.04411300   1.008000   ; qtot -0.217691
  790         c3     27    bbb     C3    790 -0.00195300  12.010000   ; qtot -0.219644
  791         h1     27    bbb     H5    791 0.05064400   1.008000   ; qtot -0.169000
  792         h1     27    bbb     H6    792 0.05064400   1.008000   ; qtot -0.118356
  793         c3     27    bbb     C4    793 -0.01612100  12.010000   ; qtot -0.134477
  794         hc     27    bbb     H7    794 0.04936100   1.008000   ; qtot -0.085116
  795         hc     27    bbb     H8    795 0.04936100   1.008000   ; qtot -0.035755
  796         c3     27    bbb     C5    796 0.11363000  12.010000   ; qtot 0.077875
  797         hc     27    bbb     H9    797 0.06265900   1.008000   ; qtot 0.140534
  798         hc     27    bbb    H10    798 0.06265900   1.008000   ; qtot 0.203193
  799         c3     27    bbb     C6    799 0.11363000  12.010000   ; qtot 0.316823
  800         hc     27    bbb    H11    800 0.06265900   1.008000   ; qtot 0.379482
  801         hc     27    bbb    H12    801 0.06265900   1.008000   ; qtot 0.442141
  802         c3     27    bbb     C7    802 0.05858200  12.010000   ; qtot 0.500723
  803         h1     27    bbb    H13    803 0.06123400   1.008000   ; qtot 0.561957
  804         h1     27    bbb    H14    804 0.06123400   1.008000   ; qtot 0.623191
  805         c3     27    bbb     C8    805 -0.72423400  12.010000   ; qtot -0.101043
  806         h1     27    bbb    H15    806 0.25637600   1.008000   ; qtot 0.155333
  807         h1     27    bbb    H16    807 0.25637600   1.008000   ; qtot 0.411709
  808         c3     27    bbb     C9    808 -0.72423400  12.010000   ; qtot -0.312525
  809         h1     27    bbb    H17    809 0.25637600   1.008000   ; qtot -0.056149
  810         h1     27    bbb    H18    810 0.25637600   1.008000   ; qtot 0.200227
  811         os     27    bbb     O1    811 -0.20025300  16.000000   ; qtot -0.000026
; residue   28 bbb rtp bbb q -0.0
  812         n3     28    bbb     N1    812 -0.59685800  14.010000   ; qtot -0.596884
  813         c3     28    bbb     C1    813 0.10137000  12.010000   ; qtot -0.495514
  814         h1     28    bbb     H1    814 0.04411300   1.008000   ; qtot -0.451401
  815         h1     28    bbb     H2    815 0.04411300   1.008000   ; qtot -0.407288
  816         c3     28    bbb     C2    816 0.10137000  12.010000   ; qtot -0.305918
  817         h1     28    bbb     H3    817 0.04411300   1.008000   ; qtot -0.261805
  818         h1     28    bbb     H4    818 0.04411300   1.008000   ; qtot -0.217692
  819         c3     28    bbb     C3    819 -0.00195300  12.010000   ; qtot -0.219645
  820         h1     28    bbb     H5    820 0.05064400   1.008000   ; qtot -0.169001
  821         h1     28    bbb     H6    821 0.05064400   1.008000   ; qtot -0.118357
  822         c3     28    bbb     C4    822 -0.01612100  12.010000   ; qtot -0.134478
  823         hc     28    bbb     H7    823 0.04936100   1.008000   ; qtot -0.085117
  824         hc     28    bbb     H8    824 0.04936100   1.008000   ; qtot -0.035756
  825         c3     28    bbb     C5    825 0.11363000  12.010000   ; qtot 0.077874
  826         hc     28    bbb     H9    826 0.06265900   1.008000   ; qtot 0.140533
  827         hc     28    bbb    H10    827 0.06265900   1.008000   ; qtot 0.203192
  828         c3     28    bbb     C6    828 0.11363000  12.010000   ; qtot 0.316822
  829         hc     28    bbb    H11    829 0.06265900   1.008000   ; qtot 0.379481
  830         hc     28    bbb    H12    830 0.06265900   1.008000   ; qtot 0.442140
  831         c3     28    bbb     C7    831 0.05858200  12.010000   ; qtot 0.500722
  832         h1     28    bbb    H13    832 0.06123400   1.008000   ; qtot 0.561956
  833         h1     28    bbb    H14    833 0.06123400   1.008000   ; qtot 0.623190
  834         c3     28    bbb     C8    834 -0.72423400  12.010000   ; qtot -0.101044
  835         h1     28    bbb    H15    835 0.25637600   1.008000   ; qtot 0.155332
  836         h1     28    bbb    H16    836 0.25637600   1.008000   ; qtot 0.411708
  837         c3     28    bbb     C9    837 -0.72423400  12.010000   ; qtot -0.312526
  838         h1     28    bbb    H17    838 0.25637600   1.008000   ; qtot -0.056150
  839         h1     28    bbb    H18    839 0.25637600   1.008000   ; qtot 0.200226
  840         os     28    bbb     O1    840 -0.20025300  16.000000   ; qtot -0.000027
; residue   29 bbb rtp bbb q -0.0
  841         n3     29    bbb     N1    841 -0.59685800  14.010000   ; qtot -0.596885
  842         c3     29    bbb     C1    842 0.10137000  12.010000   ; qtot -0.495515
  843         h1     29    bbb     H1    843 0.04411300   1.008000   ; qtot -0.451402
  844         h1     29    bbb     H2    844 0.04411300   1.008000   ; qtot -0.407289
  845         c3     29    bbb     C2    845 0.10137000  12.010000   ; qtot -0.305919
  846         h1     29    bbb     H3    846 0.04411300   1.008000   ; qtot -0.261806
  847         h1     29    bbb     H4    847 0.04411300   1.008000   ; qtot -0.217693
  848         c3     29    bbb     C3    848 -0.00195300  12.010000   ; qtot -0.219646
  849         h1     29    bbb     H5    849 0.05064400   1.008000   ; qtot -0.169002
  850         h1     29    bbb     H6    850 0.05064400   1.008000   ; qtot -0.118358
  851         c3     29    bbb     C4    851 -0.01612100  12.010000   ; qtot -0.134479
  852         hc     29    bbb     H7    852 0.04936100   1.008000   ; qtot -0.085118
  853         hc     29    bbb     H8    853 0.04936100   1.008000   ; qtot -0.035757
  854         c3     29    bbb     C5    854 0.11363000  12.010000   ; qtot 0.077873
  855         hc     29    bbb     H9    855 0.06265900   1.008000   ; qtot 0.140532
  856         hc     29    bbb    H10    856 0.06265900   1.008000   ; qtot 0.203191
  857         c3     29    bbb     C6    857 0.11363000  12.010000   ; qtot 0.316821
  858         hc     29    bbb    H11    858 0.06265900   1.008000   ; qtot 0.379480
  859         hc     29    bbb    H12    859 0.06265900   1.008000   ; qtot 0.442139
  860         c3     29    bbb     C7    860 0.05858200  12.010000   ; qtot 0.500721
  861         h1     29    bbb    H13    861 0.06123400   1.008000   ; qtot 0.561955
  862         h1     29    bbb    H14    862 0.06123400   1.008000   ; qtot 0.623189
  863         c3     29    bbb     C8    863 -0.72423400  12.010000   ; qtot -0.101045
  864         h1     29    bbb    H15    864 0.25637600   1.008000   ; qtot 0.155331
  865         h1     29    bbb    H16    865 0.25637600   1.008000   ; qtot 0.411707
  866         c3     29    bbb     C9    866 -0.72423400  12.010000   ; qtot -0.312527
  867         h1     29    bbb    H17    867 0.25637600   1.008000   ; qtot -0.056151
  868         h1     29    bbb    H18    868 0.25637600   1.008000   ; qtot 0.200225
  869         os     29    bbb     O1    869 -0.20025300  16.000000   ; qtot -0.000028
; residue   30 ccc rtp ccc q 0.0
  870         c3     30    ccc     C1    870 -0.33178800  12.010000   ; qtot -0.331816
  871         c3     30    ccc     C2    871 0.30606500  12.010000   ; qtot -0.025751
  872         h1     30    ccc     H1    872 0.11662300   1.008000   ; qtot 0.090872
  873         h1     30    ccc     H2    873 0.11526800   1.008000   ; qtot 0.206140
  874         c3     30    ccc     C3    874 0.15592700  12.010000   ; qtot 0.362067
  875         c3     30    ccc     C4    875 0.28383300  12.010000   ; qtot 0.645900
  876         c3     30    ccc     C5    876 0.32403300  12.010000   ; qtot 0.969933
  877         h1     30    ccc     H3    877 0.13386900   1.008000   ; qtot 1.103802
  878         h1     30    ccc     H4    878 0.10146700   1.008000   ; qtot 1.205269
  879         h2     30    ccc     H5    879 0.10960400   1.008000   ; qtot 1.314873
  880         os     30    ccc     O1    880 -0.28650000  16.000000   ; qtot 1.028373
  881         oh     30    ccc     O2    881 -0.86012500  16.000000   ; qtot 0.168248
  882         oh     30    ccc     O3    882 -0.83772800  16.000000   ; qtot -0.669480
  883         oh     30    ccc     O4    883 -0.77449700  16.000000   ; qtot -1.443977
  884         c3     30    ccc     C6    884 0.37576500  12.010000   ; qtot -1.068212
  885         ho     30    ccc     H6    885 0.53656000   1.008000   ; qtot -0.531652
  886         ho     30    ccc     H7    886 0.49492100   1.008000   ; qtot -0.036731
  887         ho     30    ccc     H8    887 0.51297200   1.008000   ; qtot 0.476241
  888         h1     30    ccc     H9    888 0.05653400   1.008000   ; qtot 0.532775
  889         h1     30    ccc    H10    889 0.05653400   1.008000   ; qtot 0.589309
  890         oh     30    ccc     O5    890 -0.84113600  16.000000   ; qtot -0.251827
  891         ho     30    ccc    H11    891 0.51201600   1.008000   ; qtot 0.260189
  892         os     30    ccc     O6    892 -0.26013600  16.000000   ; qtot 0.000053
; residue   31 ccc rtp ccc q 0.0
  893         c3     31    ccc     C1    893 -0.33178800  12.010000   ; qtot -0.331735
  894         c3     31    ccc     C2    894 0.30606500  12.010000   ; qtot -0.025670
  895         h1     31    ccc     H1    895 0.11662300   1.008000   ; qtot 0.090953
  896         h1     31    ccc     H2    896 0.11526800   1.008000   ; qtot 0.206221
  897         c3     31    ccc     C3    897 0.15592700  12.010000   ; qtot 0.362148
  898         c3     31    ccc     C4    898 0.28383300  12.010000   ; qtot 0.645981
  899         c3     31    ccc     C5    899 0.32403300  12.010000   ; qtot 0.970014
  900         h1     31    ccc     H3    900 0.13386900   1.008000   ; qtot 1.103883
  901         h1     31    ccc     H4    901 0.10146700   1.008000   ; qtot 1.205350
  902         h2     31    ccc     H5    902 0.10960400   1.008000   ; qtot 1.314954
  903         os     31    ccc     O1    903 -0.28650000  16.000000   ; qtot 1.028454
  904         oh     31    ccc     O2    904 -0.86012500  16.000000   ; qtot 0.168329
  905         oh     31    ccc     O3    905 -0.83772800  16.000000   ; qtot -0.669399
  906         oh     31    ccc     O4    906 -0.77449700  16.000000   ; qtot -1.443896
  907         c3     31    ccc     C6    907 0.37576500  12.010000   ; qtot -1.068131
  908         ho     31    ccc     H6    908 0.53656000   1.008000   ; qtot -0.531571
  909         ho     31    ccc     H7    909 0.49492100   1.008000   ; qtot -0.036650
  910         ho     31    ccc     H8    910 0.51297200   1.008000   ; qtot 0.476322
  911         h1     31    ccc     H9    911 0.05653400   1.008000   ; qtot 0.532856
  912         h1     31    ccc    H10    912 0.05653400   1.008000   ; qtot 0.589390
  913         oh     31    ccc     O5    913 -0.84113600  16.000000   ; qtot -0.251746
  914         ho     31    ccc    H11    914 0.51201600   1.008000   ; qtot 0.260270
  915         os     31    ccc     O6    915 -0.26013600  16.000000   ; qtot 0.000134
; residue   32 ccc rtp ccc q 0.0
  916         c3     32    ccc     C1    916 -0.33178800  12.010000   ; qtot -0.331654
  917         c3     32    ccc     C2    917 0.30606500  12.010000   ; qtot -0.025589
  918         h1     32    ccc     H1    918 0.11662300   1.008000   ; qtot 0.091034
  919         h1     32    ccc     H2    919 0.11526800   1.008000   ; qtot 0.206302
  920         c3     32    ccc     C3    920 0.15592700  12.010000   ; qtot 0.362229
  921         c3     32    ccc     C4    921 0.28383300  12.010000   ; qtot 0.646062
  922         c3     32    ccc     C5    922 0.32403300  12.010000   ; qtot 0.970095
  923         h1     32    ccc     H3    923 0.13386900   1.008000   ; qtot 1.103964
  924         h1     32    ccc     H4    924 0.10146700   1.008000   ; qtot 1.205431
  925         h2     32    ccc     H5    925 0.10960400   1.008000   ; qtot 1.315035
  926         os     32    ccc     O1    926 -0.28650000  16.000000   ; qtot 1.028535
  927         oh     32    ccc     O2    927 -0.86012500  16.000000   ; qtot 0.168410
  928         oh     32    ccc     O3    928 -0.83772800  16.000000   ; qtot -0.669318
  929         oh     32    ccc     O4    929 -0.77449700  16.000000   ; qtot -1.443815
  930         c3     32    ccc     C6    930 0.37576500  12.010000   ; qtot -1.068050
  931         ho     32    ccc     H6    931 0.53656000   1.008000   ; qtot -0.531490
  932         ho     32    ccc     H7    932 0.49492100   1.008000   ; qtot -0.036569
  933         ho     32    ccc     H8    933 0.51297200   1.008000   ; qtot 0.476403
  934         h1     32    ccc     H9    934 0.05653400   1.008000   ; qtot 0.532937
  935         h1     32    ccc    H10    935 0.05653400   1.008000   ; qtot 0.589471
  936         oh     32    ccc     O5    936 -0.84113600  16.000000   ; qtot -0.251665
  937         ho     32    ccc    H11    937 0.51201600   1.008000   ; qtot 0.260351
  938         os     32    ccc     O6    938 -0.26013600  16.000000   ; qtot 0.000215
; residue   33 ccc rtp ccc q 0.0
  939         c3     33    ccc     C1    939 -0.33178800  12.010000   ; qtot -0.331573
  940         c3     33    ccc     C2    940 0.30606500  12.010000   ; qtot -0.025508
  941         h1     33    ccc     H1    941 0.11662300   1.008000   ; qtot 0.091115
  942         h1     33    ccc     H2    942 0.11526800   1.008000   ; qtot 0.206383
  943         c3     33    ccc     C3    943 0.15592700  12.010000   ; qtot 0.362310
  944         c3     33    ccc     C4    944 0.28383300  12.010000   ; qtot 0.646143
  945         c3     33    ccc     C5    945 0.32403300  12.010000   ; qtot 0.970176
  946         h1     33    ccc     H3    946 0.13386900   1.008000   ; qtot 1.104045
  947         h1     33    ccc     H4    947 0.10146700   1.008000   ; qtot 1.205512
  948         h2     33    ccc     H5    948 0.10960400   1.008000   ; qtot 1.315116
  949         os     33    ccc     O1    949 -0.28650000  16.000000   ; qtot 1.028616
  950         oh     33    ccc     O2    950 -0.86012500  16.000000   ; qtot 0.168491
  951         oh     33    ccc     O3    951 -0.83772800  16.000000   ; qtot -0.669237
  952         oh     33    ccc     O4    952 -0.77449700  16.000000   ; qtot -1.443734
  953         c3     33    ccc     C6    953 0.37576500  12.010000   ; qtot -1.067969
  954         ho     33    ccc     H6    954 0.53656000   1.008000   ; qtot -0.531409
  955         ho     33    ccc     H7    955 0.49492100   1.008000   ; qtot -0.036488
  956         ho     33    ccc     H8    956 0.51297200   1.008000   ; qtot 0.476484
  957         h1     33    ccc     H9    957 0.05653400   1.008000   ; qtot 0.533018
  958         h1     33    ccc    H10    958 0.05653400   1.008000   ; qtot 0.589552
  959         oh     33    ccc     O5    959 -0.84113600  16.000000   ; qtot -0.251584
  960         ho     33    ccc    H11    960 0.51201600   1.008000   ; qtot 0.260432
  961         os     33    ccc     O6    961 -0.26013600  16.000000   ; qtot 0.000296
; residue   34 ccc rtp ccc q 0.0
  962         c3     34    ccc     C1    962 -0.33178800  12.010000   ; qtot -0.331492
  963         c3     34    ccc     C2    963 0.30606500  12.010000   ; qtot -0.025427
  964         h1     34    ccc     H1    964 0.11662300   1.008000   ; qtot 0.091196
  965         h1     34    ccc     H2    965 0.11526800   1.008000   ; qtot 0.206464
  966         c3     34    ccc     C3    966 0.15592700  12.010000   ; qtot 0.362391
  967         c3     34    ccc     C4    967 0.28383300  12.010000   ; qtot 0.646224
  968         c3     34    ccc     C5    968 0.32403300  12.010000   ; qtot 0.970257
  969         h1     34    ccc     H3    969 0.13386900   1.008000   ; qtot 1.104126
  970         h1     34    ccc     H4    970 0.10146700   1.008000   ; qtot 1.205593
  971         h2     34    ccc     H5    971 0.10960400   1.008000   ; qtot 1.315197
  972         os     34    ccc     O1    972 -0.28650000  16.000000   ; qtot 1.028697
  973         oh     34    ccc     O2    973 -0.86012500  16.000000   ; qtot 0.168572
  974         oh     34    ccc     O3    974 -0.83772800  16.000000   ; qtot -0.669156
  975         oh     34    ccc     O4    975 -0.77449700  16.000000   ; qtot -1.443653
  976         c3     34    ccc     C6    976 0.37576500  12.010000   ; qtot -1.067888
  977         ho     34    ccc     H6    977 0.53656000   1.008000   ; qtot -0.531328
  978         ho     34    ccc     H7    978 0.49492100   1.008000   ; qtot -0.036407
  979         ho     34    ccc     H8    979 0.51297200   1.008000   ; qtot 0.476565
  980         h1     34    ccc     H9    980 0.05653400   1.008000   ; qtot 0.533099
  981         h1     34    ccc    H10    981 0.05653400   1.008000   ; qtot 0.589633
  982         oh     34    ccc     O5    982 -0.84113600  16.000000   ; qtot -0.251503
  983         ho     34    ccc    H11    983 0.51201600   1.008000   ; qtot 0.260513
  984         os     34    ccc     O6    984 -0.26013600  16.000000   ; qtot 0.000377
; residue   35 ccc rtp ccc q 0.0
  985         c3     35    ccc     C1    985 -0.33178800  12.010000   ; qtot -0.331411
  986         c3     35    ccc     C2    986 0.30606500  12.010000   ; qtot -0.025346
  987         h1     35    ccc     H1    987 0.11662300   1.008000   ; qtot 0.091277
  988         h1     35    ccc     H2    988 0.11526800   1.008000   ; qtot 0.206545
  989         c3     35    ccc     C3    989 0.15592700  12.010000   ; qtot 0.362472
  990         c3     35    ccc     C4    990 0.28383300  12.010000   ; qtot 0.646305
  991         c3     35    ccc     C5    991 0.32403300  12.010000   ; qtot 0.970338
  992         h1     35    ccc     H3    992 0.13386900   1.008000   ; qtot 1.104207
  993         h1     35    ccc     H4    993 0.10146700   1.008000   ; qtot 1.205674
  994         h2     35    ccc     H5    994 0.10960400   1.008000   ; qtot 1.315278
  995         os     35    ccc     O1    995 -0.28650000  16.000000   ; qtot 1.028778
  996         oh     35    ccc     O2    996 -0.86012500  16.000000   ; qtot 0.168653
  997         oh     35    ccc     O3    997 -0.83772800  16.000000   ; qtot -0.669075
  998         oh     35    ccc     O4    998 -0.77449700  16.000000   ; qtot -1.443572
  999         c3     35    ccc     C6    999 0.37576500  12.010000   ; qtot -1.067807
 1000         ho     35    ccc     H6   1000 0.53656000   1.008000   ; qtot -0.531247
 1001         ho     35    ccc     H7   1001 0.49492100   1.008000   ; qtot -0.036326
 1002         ho     35    ccc     H8   1002 0.51297200   1.008000   ; qtot 0.476646
 1003         h1     35    ccc     H9   1003 0.05653400   1.008000   ; qtot 0.533180
 1004         h1     35    ccc    H10   1004 0.05653400   1.008000   ; qtot 0.589714
 1005         oh     35    ccc     O5   1005 -0.84113600  16.000000   ; qtot -0.251422
 1006         ho     35    ccc    H11   1006 0.51201600   1.008000   ; qtot 0.260594
 1007         os     35    ccc     O6   1007 -0.26013600  16.000000   ; qtot 0.000458
; residue   36 ccc rtp ccc q 0.0
 1008         c3     36    ccc     C1   1008 -0.33178800  12.010000   ; qtot -0.331330
 1009         c3     36    ccc     C2   1009 0.30606500  12.010000   ; qtot -0.025265
 1010         h1     36    ccc     H1   1010 0.11662300   1.008000   ; qtot 0.091358
 1011         h1     36    ccc     H2   1011 0.11526800   1.008000   ; qtot 0.206626
 1012         c3     36    ccc     C3   1012 0.15592700  12.010000   ; qtot 0.362553
 1013         c3     36    ccc     C4   1013 0.28383300  12.010000   ; qtot 0.646386
 1014         c3     36    ccc     C5   1014 0.32403300  12.010000   ; qtot 0.970419
 1015         h1     36    ccc     H3   1015 0.13386900   1.008000   ; qtot 1.104288
 1016         h1     36    ccc     H4   1016 0.10146700   1.008000   ; qtot 1.205755
 1017         h2     36    ccc     H5   1017 0.10960400   1.008000   ; qtot 1.315359
 1018         os     36    ccc     O1   1018 -0.28650000  16.000000   ; qtot 1.028859
 1019         oh     36    ccc     O2   1019 -0.86012500  16.000000   ; qtot 0.168734
 1020         oh     36    ccc     O3   1020 -0.83772800  16.000000   ; qtot -0.668994
 1021         oh     36    ccc     O4   1021 -0.77449700  16.000000   ; qtot -1.443491
 1022         c3     36    ccc     C6   1022 0.37576500  12.010000   ; qtot -1.067726
 1023         ho     36    ccc     H6   1023 0.53656000   1.008000   ; qtot -0.531166
 1024         ho     36    ccc     H7   1024 0.49492100   1.008000   ; qtot -0.036245
 1025         ho     36    ccc     H8   1025 0.51297200   1.008000   ; qtot 0.476727
 1026         h1     36    ccc     H9   1026 0.05653400   1.008000   ; qtot 0.533261
 1027         h1     36    ccc    H10   1027 0.05653400   1.008000   ; qtot 0.589795
 1028         oh     36    ccc     O5   1028 -0.84113600  16.000000   ; qtot -0.251341
 1029         ho     36    ccc    H11   1029 0.51201600   1.008000   ; qtot 0.260675
 1030         os     36    ccc     O6   1030 -0.26013600  16.000000   ; qtot 0.000539
; residue   37 ccc rtp ccc q 0.0
 1031         c3     37    ccc     C1   1031 -0.33178800  12.010000   ; qtot -0.331249
 1032         c3     37    ccc     C2   1032 0.30606500  12.010000   ; qtot -0.025184
 1033         h1     37    ccc     H1   1033 0.11662300   1.008000   ; qtot 0.091439
 1034         h1     37    ccc     H2   1034 0.11526800   1.008000   ; qtot 0.206707
 1035         c3     37    ccc     C3   1035 0.15592700  12.010000   ; qtot 0.362634
 1036         c3     37    ccc     C4   1036 0.28383300  12.010000   ; qtot 0.646467
 1037         c3     37    ccc     C5   1037 0.32403300  12.010000   ; qtot 0.970500
 1038         h1     37    ccc     H3   1038 0.13386900   1.008000   ; qtot 1.104369
 1039         h1     37    ccc     H4   1039 0.10146700   1.008000   ; qtot 1.205836
 1040         h2     37    ccc     H5   1040 0.10960400   1.008000   ; qtot 1.315440
 1041         os     37    ccc     O1   1041 -0.28650000  16.000000   ; qtot 1.028940
 1042         oh     37    ccc     O2   1042 -0.86012500  16.000000   ; qtot 0.168815
 1043         oh     37    ccc     O3   1043 -0.83772800  16.000000   ; qtot -0.668913
 1044         oh     37    ccc     O4   1044 -0.77449700  16.000000   ; qtot -1.443410
 1045         c3     37    ccc     C6   1045 0.37576500  12.010000   ; qtot -1.067645
 1046         ho     37    ccc     H6   1046 0.53656000   1.008000   ; qtot -0.531085
 1047         ho     37    ccc     H7   1047 0.49492100   1.008000   ; qtot -0.036164
 1048         ho     37    ccc     H8   1048 0.51297200   1.008000   ; qtot 0.476808
 1049         h1     37    ccc     H9   1049 0.05653400   1.008000   ; qtot 0.533342
 1050         h1     37    ccc    H10   1050 0.05653400   1.008000   ; qtot 0.589876
 1051         oh     37    ccc     O5   1051 -0.84113600  16.000000   ; qtot -0.251260
 1052         ho     37    ccc    H11   1052 0.51201600   1.008000   ; qtot 0.260756
 1053         os     37    ccc     O6   1053 -0.26013600  16.000000   ; qtot 0.000620
; residue   38 ccc rtp ccc q 0.0
 1054         c3     38    ccc     C1   1054 -0.33178800  12.010000   ; qtot -0.331168
 1055         c3     38    ccc     C2   1055 0.30606500  12.010000   ; qtot -0.025103
 1056         h1     38    ccc     H1   1056 0.11662300   1.008000   ; qtot 0.091520
 1057         h1     38    ccc     H2   1057 0.11526800   1.008000   ; qtot 0.206788
 1058         c3     38    ccc     C3   1058 0.15592700  12.010000   ; qtot 0.362715
 1059         c3     38    ccc     C4   1059 0.28383300  12.010000   ; qtot 0.646548
 1060         c3     38    ccc     C5   1060 0.32403300  12.010000   ; qtot 0.970581
 1061         h1     38    ccc     H3   1061 0.13386900   1.008000   ; qtot 1.104450
 1062         h1     38    ccc     H4   1062 0.10146700   1.008000   ; qtot 1.205917
 1063         h2     38    ccc     H5   1063 0.10960400   1.008000   ; qtot 1.315521
 1064         os     38    ccc     O1   1064 -0.28650000  16.000000   ; qtot 1.029021
 1065         oh     38    ccc     O2   1065 -0.86012500  16.000000   ; qtot 0.168896
 1066         oh     38    ccc     O3   1066 -0.83772800  16.000000   ; qtot -0.668832
 1067         oh     38    ccc     O4   1067 -0.77449700  16.000000   ; qtot -1.443329
 1068         c3     38    ccc     C6   1068 0.37576500  12.010000   ; qtot -1.067564
 1069         ho     38    ccc     H6   1069 0.53656000   1.008000   ; qtot -0.531004
 1070         ho     38    ccc     H7   1070 0.49492100   1.008000   ; qtot -0.036083
 1071         ho     38    ccc     H8   1071 0.51297200   1.008000   ; qtot 0.476889
 1072         h1     38    ccc     H9   1072 0.05653400   1.008000   ; qtot 0.533423
 1073         h1     38    ccc    H10   1073 0.05653400   1.008000   ; qtot 0.589957
 1074         oh     38    ccc     O5   1074 -0.84113600  16.000000   ; qtot -0.251179
 1075         ho     38    ccc    H11   1075 0.51201600   1.008000   ; qtot 0.260837
 1076         os     38    ccc     O6   1076 -0.26013600  16.000000   ; qtot 0.000701
; residue   39 ccc rtp ccc q 0.0
 1077         c3     39    ccc     C1   1077 -0.33178800  12.010000   ; qtot -0.331087
 1078         c3     39    ccc     C2   1078 0.30606500  12.010000   ; qtot -0.025022
 1079         h1     39    ccc     H1   1079 0.11662300   1.008000   ; qtot 0.091601
 1080         h1     39    ccc     H2   1080 0.11526800   1.008000   ; qtot 0.206869
 1081         c3     39    ccc     C3   1081 0.15592700  12.010000   ; qtot 0.362796
 1082         c3     39    ccc     C4   1082 0.28383300  12.010000   ; qtot 0.646629
 1083         c3     39    ccc     C5   1083 0.32403300  12.010000   ; qtot 0.970662
 1084         h1     39    ccc     H3   1084 0.13386900   1.008000   ; qtot 1.104531
 1085         h1     39    ccc     H4   1085 0.10146700   1.008000   ; qtot 1.205998
 1086         h2     39    ccc     H5   1086 0.10960400   1.008000   ; qtot 1.315602
 1087         os     39    ccc     O1   1087 -0.28650000  16.000000   ; qtot 1.029102
 1088         oh     39    ccc     O2   1088 -0.86012500  16.000000   ; qtot 0.168977
 1089         oh     39    ccc     O3   1089 -0.83772800  16.000000   ; qtot -0.668751
 1090         oh     39    ccc     O4   1090 -0.77449700  16.000000   ; qtot -1.443248
 1091         c3     39    ccc     C6   1091 0.37576500  12.010000   ; qtot -1.067483
 1092         ho     39    ccc     H6   1092 0.53656000   1.008000   ; qtot -0.530923
 1093         ho     39    ccc     H7   1093 0.49492100   1.008000   ; qtot -0.036002
 1094         ho     39    ccc     H8   1094 0.51297200   1.008000   ; qtot 0.476970
 1095         h1     39    ccc     H9   1095 0.05653400   1.008000   ; qtot 0.533504
 1096         h1     39    ccc    H10   1096 0.05653400   1.008000   ; qtot 0.590038
 1097         oh     39    ccc     O5   1097 -0.84113600  16.000000   ; qtot -0.251098
 1098         ho     39    ccc    H11   1098 0.51201600   1.008000   ; qtot 0.260918
 1099         os     39    ccc     O6   1099 -0.26013600  16.000000   ; qtot 0.000782
; residue   40 ccc rtp ccc q 0.0
 1100         c3     40    ccc     C1   1100 -0.33178800  12.010000   ; qtot -0.331006
 1101         c3     40    ccc     C2   1101 0.30606500  12.010000   ; qtot -0.024941
 1102         h1     40    ccc     H1   1102 0.11662300   1.008000   ; qtot 0.091682
 1103         h1     40    ccc     H2   1103 0.11526800   1.008000   ; qtot 0.206950
 1104         c3     40    ccc     C3   1104 0.15592700  12.010000   ; qtot 0.362877
 1105         c3     40    ccc     C4   1105 0.28383300  12.010000   ; qtot 0.646710
 1106         c3     40    ccc     C5   1106 0.32403300  12.010000   ; qtot 0.970743
 1107         h1     40    ccc     H3   1107 0.13386900   1.008000   ; qtot 1.104612
 1108         h1     40    ccc     H4   1108 0.10146700   1.008000   ; qtot 1.206079
 1109         h2     40    ccc     H5   1109 0.10960400   1.008000   ; qtot 1.315683
 1110         os     40    ccc     O1   1110 -0.28650000  16.000000   ; qtot 1.029183
 1111         oh     40    ccc     O2   1111 -0.86012500  16.000000   ; qtot 0.169058
 1112         oh     40    ccc     O3   1112 -0.83772800  16.000000   ; qtot -0.668670
 1113         oh     40    ccc     O4   1113 -0.77449700  16.000000   ; qtot -1.443167
 1114         c3     40    ccc     C6   1114 0.37576500  12.010000   ; qtot -1.067402
 1115         ho     40    ccc     H6   1115 0.53656000   1.008000   ; qtot -0.530842
 1116         ho     40    ccc     H7   1116 0.49492100   1.008000   ; qtot -0.035921
 1117         ho     40    ccc     H8   1117 0.51297200   1.008000   ; qtot 0.477051
 1118         h1     40    ccc     H9   1118 0.05653400   1.008000   ; qtot 0.533585
 1119         h1     40    ccc    H10   1119 0.05653400   1.008000   ; qtot 0.590119
 1120         oh     40    ccc     O5   1120 -0.84113600  16.000000   ; qtot -0.251017
 1121         ho     40    ccc    H11   1121 0.51201600   1.008000   ; qtot 0.260999
 1122         os     40    ccc     O6   1122 -0.26013600  16.000000   ; qtot 0.000863
; residue   41 ccc rtp ccc q 0.0
 1123         c3     41    ccc     C1   1123 -0.33178800  12.010000   ; qtot -0.330925
 1124         c3     41    ccc     C2   1124 0.30606500  12.010000   ; qtot -0.024860
 1125         h1     41    ccc     H1   1125 0.11662300   1.008000   ; qtot 0.091763
 1126         h1     41    ccc     H2   1126 0.11526800   1.008000   ; qtot 0.207031
 1127         c3     41    ccc     C3   1127 0.15592700  12.010000   ; qtot 0.362958
 1128         c3     41    ccc     C4   1128 0.28383300  12.010000   ; qtot 0.646791
 1129         c3     41    ccc     C5   1129 0.32403300  12.010000   ; qtot 0.970824
 1130         h1     41    ccc     H3   1130 0.13386900   1.008000   ; qtot 1.104693
 1131         h1     41    ccc     H4   1131 0.10146700   1.008000   ; qtot 1.206160
 1132         h2     41    ccc     H5   1132 0.10960400   1.008000   ; qtot 1.315764
 1133         os     41    ccc     O1   1133 -0.28650000  16.000000   ; qtot 1.029264
 1134         oh     41    ccc     O2   1134 -0.86012500  16.000000   ; qtot 0.169139
 1135         oh     41    ccc     O3   1135 -0.83772800  16.000000   ; qtot -0.668589
 1136         oh     41    ccc     O4   1136 -0.77449700  16.000000   ; qtot -1.443086
 1137         c3     41    ccc     C6   1137 0.37576500  12.010000   ; qtot -1.067321
 1138         ho     41    ccc     H6   1138 0.53656000   1.008000   ; qtot -0.530761
 1139         ho     41    ccc     H7   1139 0.49492100   1.008000   ; qtot -0.035840
 1140         ho     41    ccc     H8   1140 0.51297200   1.008000   ; qtot 0.477132
 1141         h1     41    ccc     H9   1141 0.05653400   1.008000   ; qtot 0.533666
 1142         h1     41    ccc    H10   1142 0.05653400   1.008000   ; qtot 0.590200
 1143         oh     41    ccc     O5   1143 -0.84113600  16.000000   ; qtot -0.250936
 1144         ho     41    ccc    H11   1144 0.51201600   1.008000   ; qtot 0.261080
 1145         os     41    ccc     O6   1145 -0.26013600  16.000000   ; qtot 0.000944
; residue   42 ccc rtp ccc q 0.0
 1146         c3     42    ccc     C1   1146 -0.33178800  12.010000   ; qtot -0.330844
 1147         c3     42    ccc     C2   1147 0.30606500  12.010000   ; qtot -0.024779
 1148         h1     42    ccc     H1   1148 0.11662300   1.008000   ; qtot 0.091844
 1149         h1     42    ccc     H2   1149 0.11526800   1.008000   ; qtot 0.207112
 1150         c3     42    ccc     C3   1150 0.15592700  12.010000   ; qtot 0.363039
 1151         c3     42    ccc     C4   1151 0.28383300  12.010000   ; qtot 0.646872
 1152         c3     42    ccc     C5   1152 0.32403300  12.010000   ; qtot 0.970905
 1153         h1     42    ccc     H3   1153 0.13386900   1.008000   ; qtot 1.104774
 1154         h1     42    ccc     H4   1154 0.10146700   1.008000   ; qtot 1.206241
 1155         h2     42    ccc     H5   1155 0.10960400   1.008000   ; qtot 1.315845
 1156         os     42    ccc     O1   1156 -0.28650000  16.000000   ; qtot 1.029345
 1157         oh     42    ccc     O2   1157 -0.86012500  16.000000   ; qtot 0.169220
 1158         oh     42    ccc     O3   1158 -0.83772800  16.000000   ; qtot -0.668508
 1159         oh     42    ccc     O4   1159 -0.77449700  16.000000   ; qtot -1.443005
 1160         c3     42    ccc     C6   1160 0.37576500  12.010000   ; qtot -1.067240
 1161         ho     42    ccc     H6   1161 0.53656000   1.008000   ; qtot -0.530680
 1162         ho     42    ccc     H7   1162 0.49492100   1.008000   ; qtot -0.035759
 1163         ho     42    ccc     H8   1163 0.51297200   1.008000   ; qtot 0.477213
 1164         h1     42    ccc     H9   1164 0.05653400   1.008000   ; qtot 0.533747
 1165         h1     42    ccc    H10   1165 0.05653400   1.008000   ; qtot 0.590281
 1166         oh     42    ccc     O5   1166 -0.84113600  16.000000   ; qtot -0.250855
 1167         ho     42    ccc    H11   1167 0.51201600   1.008000   ; qtot 0.261161
 1168         os     42    ccc     O6   1168 -0.26013600  16.000000   ; qtot 0.001025
; residue   43 ccc rtp ccc q 0.0
 1169         c3     43    ccc     C1   1169 -0.33178800  12.010000   ; qtot -0.330763
 1170         c3     43    ccc     C2   1170 0.30606500  12.010000   ; qtot -0.024698
 1171         h1     43    ccc     H1   1171 0.11662300   1.008000   ; qtot 0.091925
 1172         h1     43    ccc     H2   1172 0.11526800   1.008000   ; qtot 0.207193
 1173         c3     43    ccc     C3   1173 0.15592700  12.010000   ; qtot 0.363120
 1174         c3     43    ccc     C4   1174 0.28383300  12.010000   ; qtot 0.646953
 1175         c3     43    ccc     C5   1175 0.32403300  12.010000   ; qtot 0.970986
 1176         h1     43    ccc     H3   1176 0.13386900   1.008000   ; qtot 1.104855
 1177         h1     43    ccc     H4   1177 0.10146700   1.008000   ; qtot 1.206322
 1178         h2     43    ccc     H5   1178 0.10960400   1.008000   ; qtot 1.315926
 1179         os     43    ccc     O1   1179 -0.28650000  16.000000   ; qtot 1.029426
 1180         oh     43    ccc     O2   1180 -0.86012500  16.000000   ; qtot 0.169301
 1181         oh     43    ccc     O3   1181 -0.83772800  16.000000   ; qtot -0.668427
 1182         oh     43    ccc     O4   1182 -0.77449700  16.000000   ; qtot -1.442924
 1183         c3     43    ccc     C6   1183 0.37576500  12.010000   ; qtot -1.067159
 1184         ho     43    ccc     H6   1184 0.53656000   1.008000   ; qtot -0.530599
 1185         ho     43    ccc     H7   1185 0.49492100   1.008000   ; qtot -0.035678
 1186         ho     43    ccc     H8   1186 0.51297200   1.008000   ; qtot 0.477294
 1187         h1     43    ccc     H9   1187 0.05653400   1.008000   ; qtot 0.533828
 1188         h1     43    ccc    H10   1188 0.05653400   1.008000   ; qtot 0.590362
 1189         oh     43    ccc     O5   1189 -0.84113600  16.000000   ; qtot -0.250774
 1190         ho     43    ccc    H11   1190 0.51201600   1.008000   ; qtot 0.261242
 1191         os     43    ccc     O6   1191 -0.26013600  16.000000   ; qtot 0.001106
; residue   44 ccc rtp ccc q 0.0
 1192         c3     44    ccc     C1   1192 -0.33178800  12.010000   ; qtot -0.330682
 1193         c3     44    ccc     C2   1193 0.30606500  12.010000   ; qtot -0.024617
 1194         h1     44    ccc     H1   1194 0.11662300   1.008000   ; qtot 0.092006
 1195         h1     44    ccc     H2   1195 0.11526800   1.008000   ; qtot 0.207274
 1196         c3     44    ccc     C3   1196 0.15592700  12.010000   ; qtot 0.363201
 1197         c3     44    ccc     C4   1197 0.28383300  12.010000   ; qtot 0.647034
 1198         c3     44    ccc     C5   1198 0.32403300  12.010000   ; qtot 0.971067
 1199         h1     44    ccc     H3   1199 0.13386900   1.008000   ; qtot 1.104936
 1200         h1     44    ccc     H4   1200 0.10146700   1.008000   ; qtot 1.206403
 1201         h2     44    ccc     H5   1201 0.10960400   1.008000   ; qtot 1.316007
 1202         os     44    ccc     O1   1202 -0.28650000  16.000000   ; qtot 1.029507
 1203         oh     44    ccc     O2   1203 -0.86012500  16.000000   ; qtot 0.169382
 1204         oh     44    ccc     O3   1204 -0.83772800  16.000000   ; qtot -0.668346
 1205         oh     44    ccc     O4   1205 -0.77449700  16.000000   ; qtot -1.442843
 1206         c3     44    ccc     C6   1206 0.37576500  12.010000   ; qtot -1.067078
 1207         ho     44    ccc     H6   1207 0.53656000   1.008000   ; qtot -0.530518
 1208         ho     44    ccc     H7   1208 0.49492100   1.008000   ; qtot -0.035597
 1209         ho     44    ccc     H8   1209 0.51297200   1.008000   ; qtot 0.477375
 1210         h1     44    ccc     H9   1210 0.05653400   1.008000   ; qtot 0.533909
 1211         h1     44    ccc    H10   1211 0.05653400   1.008000   ; qtot 0.590443
 1212         oh     44    ccc     O5   1212 -0.84113600  16.000000   ; qtot -0.250693
 1213         ho     44    ccc    H11   1213 0.51201600   1.008000   ; qtot 0.261323
 1214         os     44    ccc     O6   1214 -0.26013600  16.000000   ; qtot 0.001187
; residue   45 ccc rtp ccc q 0.0
 1215         c3     45    ccc     C1   1215 -0.33178800  12.010000   ; qtot -0.330601
 1216         c3     45    ccc     C2   1216 0.30606500  12.010000   ; qtot -0.024536
 1217         h1     45    ccc     H1   1217 0.11662300   1.008000   ; qtot 0.092087
 1218         h1     45    ccc     H2   1218 0.11526800   1.008000   ; qtot 0.207355
 1219         c3     45    ccc     C3   1219 0.15592700  12.010000   ; qtot 0.363282
 1220         c3     45    ccc     C4   1220 0.28383300  12.010000   ; qtot 0.647115
 1221         c3     45    ccc     C5   1221 0.32403300  12.010000   ; qtot 0.971148
 1222         h1     45    ccc     H3   1222 0.13386900   1.008000   ; qtot 1.105017
 1223         h1     45    ccc     H4   1223 0.10146700   1.008000   ; qtot 1.206484
 1224         h2     45    ccc     H5   1224 0.10960400   1.008000   ; qtot 1.316088
 1225         os     45    ccc     O1   1225 -0.28650000  16.000000   ; qtot 1.029588
 1226         oh     45    ccc     O2   1226 -0.86012500  16.000000   ; qtot 0.169463
 1227         oh     45    ccc     O3   1227 -0.83772800  16.000000   ; qtot -0.668265
 1228         oh     45    ccc     O4   1228 -0.77449700  16.000000   ; qtot -1.442762
 1229         c3     45    ccc     C6   1229 0.37576500  12.010000   ; qtot -1.066997
 1230         ho     45    ccc     H6   1230 0.53656000   1.008000   ; qtot -0.530437
 1231         ho     45    ccc     H7   1231 0.49492100   1.008000   ; qtot -0.035516
 1232         ho     45    ccc     H8   1232 0.51297200   1.008000   ; qtot 0.477456
 1233         h1     45    ccc     H9   1233 0.05653400   1.008000   ; qtot 0.533990
 1234         h1     45    ccc    H10   1234 0.05653400   1.008000   ; qtot 0.590524
 1235         oh     45    ccc     O5   1235 -0.84113600  16.000000   ; qtot -0.250612
 1236         ho     45    ccc    H11   1236 0.51201600   1.008000   ; qtot 0.261404
 1237         os     45    ccc     O6   1237 -0.26013600  16.000000   ; qtot 0.001268
; residue   46 ccc rtp ccc q 0.0
 1238         c3     46    ccc     C1   1238 -0.33178800  12.010000   ; qtot -0.330520
 1239         c3     46    ccc     C2   1239 0.30606500  12.010000   ; qtot -0.024455
 1240         h1     46    ccc     H1   1240 0.11662300   1.008000   ; qtot 0.092168
 1241         h1     46    ccc     H2   1241 0.11526800   1.008000   ; qtot 0.207436
 1242         c3     46    ccc     C3   1242 0.15592700  12.010000   ; qtot 0.363363
 1243         c3     46    ccc     C4   1243 0.28383300  12.010000   ; qtot 0.647196
 1244         c3     46    ccc     C5   1244 0.32403300  12.010000   ; qtot 0.971229
 1245         h1     46    ccc     H3   1245 0.13386900   1.008000   ; qtot 1.105098
 1246         h1     46    ccc     H4   1246 0.10146700   1.008000   ; qtot 1.206565
 1247         h2     46    ccc     H5   1247 0.10960400   1.008000   ; qtot 1.316169
 1248         os     46    ccc     O1   1248 -0.28650000  16.000000   ; qtot 1.029669
 1249         oh     46    ccc     O2   1249 -0.86012500  16.000000   ; qtot 0.169544
 1250         oh     46    ccc     O3   1250 -0.83772800  16.000000   ; qtot -0.668184
 1251         oh     46    ccc     O4   1251 -0.77449700  16.000000   ; qtot -1.442681
 1252         c3     46    ccc     C6   1252 0.37576500  12.010000   ; qtot -1.066916
 1253         ho     46    ccc     H6   1253 0.53656000   1.008000   ; qtot -0.530356
 1254         ho     46    ccc     H7   1254 0.49492100   1.008000   ; qtot -0.035435
 1255         ho     46    ccc     H8   1255 0.51297200   1.008000   ; qtot 0.477537
 1256         h1     46    ccc     H9   1256 0.05653400   1.008000   ; qtot 0.534071
 1257         h1     46    ccc    H10   1257 0.05653400   1.008000   ; qtot 0.590605
 1258         oh     46    ccc     O5   1258 -0.84113600  16.000000   ; qtot -0.250531
 1259         ho     46    ccc    H11   1259 0.51201600   1.008000   ; qtot 0.261485
 1260         os     46    ccc     O6   1260 -0.26013600  16.000000   ; qtot 0.001349
; residue   47 ccc rtp ccc q 0.0
 1261         c3     47    ccc     C1   1261 -0.33178800  12.010000   ; qtot -0.330439
 1262         c3     47    ccc     C2   1262 0.30606500  12.010000   ; qtot -0.024374
 1263         h1     47    ccc     H1   1263 0.11662300   1.008000   ; qtot 0.092249
 1264         h1     47    ccc     H2   1264 0.11526800   1.008000   ; qtot 0.207517
 1265         c3     47    ccc     C3   1265 0.15592700  12.010000   ; qtot 0.363444
 1266         c3     47    ccc     C4   1266 0.28383300  12.010000   ; qtot 0.647277
 1267         c3     47    ccc     C5   1267 0.32403300  12.010000   ; qtot 0.971310
 1268         h1     47    ccc     H3   1268 0.13386900   1.008000   ; qtot 1.105179
 1269         h1     47    ccc     H4   1269 0.10146700   1.008000   ; qtot 1.206646
 1270         h2     47    ccc     H5   1270 0.10960400   1.008000   ; qtot 1.316250
 1271         os     47    ccc     O1   1271 -0.28650000  16.000000   ; qtot 1.029750
 1272         oh     47    ccc     O2   1272 -0.86012500  16.000000   ; qtot 0.169625
 1273         oh     47    ccc     O3   1273 -0.83772800  16.000000   ; qtot -0.668103
 1274         oh     47    ccc     O4   1274 -0.77449700  16.000000   ; qtot -1.442600
 1275         c3     47    ccc     C6   1275 0.37576500  12.010000   ; qtot -1.066835
 1276         ho     47    ccc     H6   1276 0.53656000   1.008000   ; qtot -0.530275
 1277         ho     47    ccc     H7   1277 0.49492100   1.008000   ; qtot -0.035354
 1278         ho     47    ccc     H8   1278 0.51297200   1.008000   ; qtot 0.477618
 1279         h1     47    ccc     H9   1279 0.05653400   1.008000   ; qtot 0.534152
 1280         h1     47    ccc    H10   1280 0.05653400   1.008000   ; qtot 0.590686
 1281         oh     47    ccc     O5   1281 -0.84113600  16.000000   ; qtot -0.250450
 1282         ho     47    ccc    H11   1282 0.51201600   1.008000   ; qtot 0.261566
 1283         os     47    ccc     O6   1283 -0.26013600  16.000000   ; qtot 0.001430
; residue   48 ccc rtp ccc q 0.0
 1284         c3     48    ccc     C1   1284 -0.33178800  12.010000   ; qtot -0.330358
 1285         c3     48    ccc     C2   1285 0.30606500  12.010000   ; qtot -0.024293
 1286         h1     48    ccc     H1   1286 0.11662300   1.008000   ; qtot 0.092330
 1287         h1     48    ccc     H2   1287 0.11526800   1.008000   ; qtot 0.207598
 1288         c3     48    ccc     C3   1288 0.15592700  12.010000   ; qtot 0.363525
 1289         c3     48    ccc     C4   1289 0.28383300  12.010000   ; qtot 0.647358
 1290         c3     48    ccc     C5   1290 0.32403300  12.010000   ; qtot 0.971391
 1291         h1     48    ccc     H3   1291 0.13386900   1.008000   ; qtot 1.105260
 1292         h1     48    ccc     H4   1292 0.10146700   1.008000   ; qtot 1.206727
 1293         h2     48    ccc     H5   1293 0.10960400   1.008000   ; qtot 1.316331
 1294         os     48    ccc     O1   1294 -0.28650000  16.000000   ; qtot 1.029831
 1295         oh     48    ccc     O2   1295 -0.86012500  16.000000   ; qtot 0.169706
 1296         oh     48    ccc     O3   1296 -0.83772800  16.000000   ; qtot -0.668022
 1297         oh     48    ccc     O4   1297 -0.77449700  16.000000   ; qtot -1.442519
 1298         c3     48    ccc     C6   1298 0.37576500  12.010000   ; qtot -1.066754
 1299         ho     48    ccc     H6   1299 0.53656000   1.008000   ; qtot -0.530194
 1300         ho     48    ccc     H7   1300 0.49492100   1.008000   ; qtot -0.035273
 1301         ho     48    ccc     H8   1301 0.51297200   1.008000   ; qtot 0.477699
 1302         h1     48    ccc     H9   1302 0.05653400   1.008000   ; qtot 0.534233
 1303         h1     48    ccc    H10   1303 0.05653400   1.008000   ; qtot 0.590767
 1304         oh     48    ccc     O5   1304 -0.84113600  16.000000   ; qtot -0.250369
 1305         ho     48    ccc    H11   1305 0.51201600   1.008000   ; qtot 0.261647
 1306         os     48    ccc     O6   1306 -0.26013600  16.000000   ; qtot 0.001511
; residue   49 ccc rtp ccc q 0.0
 1307         c3     49    ccc     C1   1307 -0.33178800  12.010000   ; qtot -0.330277
 1308         c3     49    ccc     C2   1308 0.30606500  12.010000   ; qtot -0.024212
 1309         h1     49    ccc     H1   1309 0.11662300   1.008000   ; qtot 0.092411
 1310         h1     49    ccc     H2   1310 0.11526800   1.008000   ; qtot 0.207679
 1311         c3     49    ccc     C3   1311 0.15592700  12.010000   ; qtot 0.363606
 1312         c3     49    ccc     C4   1312 0.28383300  12.010000   ; qtot 0.647439
 1313         c3     49    ccc     C5   1313 0.32403300  12.010000   ; qtot 0.971472
 1314         h1     49    ccc     H3   1314 0.13386900   1.008000   ; qtot 1.105341
 1315         h1     49    ccc     H4   1315 0.10146700   1.008000   ; qtot 1.206808
 1316         h2     49    ccc     H5   1316 0.10960400   1.008000   ; qtot 1.316412
 1317         os     49    ccc     O1   1317 -0.28650000  16.000000   ; qtot 1.029912
 1318         oh     49    ccc     O2   1318 -0.86012500  16.000000   ; qtot 0.169787
 1319         oh     49    ccc     O3   1319 -0.83772800  16.000000   ; qtot -0.667941
 1320         oh     49    ccc     O4   1320 -0.77449700  16.000000   ; qtot -1.442438
 1321         c3     49    ccc     C6   1321 0.37576500  12.010000   ; qtot -1.066673
 1322         ho     49    ccc     H6   1322 0.53656000   1.008000   ; qtot -0.530113
 1323         ho     49    ccc     H7   1323 0.49492100   1.008000   ; qtot -0.035192
 1324         ho     49    ccc     H8   1324 0.51297200   1.008000   ; qtot 0.477780
 1325         h1     49    ccc     H9   1325 0.05653400   1.008000   ; qtot 0.534314
 1326         h1     49    ccc    H10   1326 0.05653400   1.008000   ; qtot 0.590848
 1327         oh     49    ccc     O5   1327 -0.84113600  16.000000   ; qtot -0.250288
 1328         ho     49    ccc    H11   1328 0.51201600   1.008000   ; qtot 0.261728
 1329         os     49    ccc     O6   1329 -0.26013600  16.000000   ; qtot 0.001592
; residue   50 ccc rtp ccc q 0.0
 1330         c3     50    ccc     C1   1330 -0.33178800  12.010000   ; qtot -0.330196
 1331         c3     50    ccc     C2   1331 0.30606500  12.010000   ; qtot -0.024131
 1332         h1     50    ccc     H1   1332 0.11662300   1.008000   ; qtot 0.092492
 1333         h1     50    ccc     H2   1333 0.11526800   1.008000   ; qtot 0.207760
 1334         c3     50    ccc     C3   1334 0.15592700  12.010000   ; qtot 0.363687
 1335         c3     50    ccc     C4   1335 0.28383300  12.010000   ; qtot 0.647520
 1336         c3     50    ccc     C5   1336 0.32403300  12.010000   ; qtot 0.971553
 1337         h1     50    ccc     H3   1337 0.13386900   1.008000   ; qtot 1.105422
 1338         h1     50    ccc     H4   1338 0.10146700   1.008000   ; qtot 1.206889
 1339         h2     50    ccc     H5   1339 0.10960400   1.008000   ; qtot 1.316493
 1340         os     50    ccc     O1   1340 -0.28650000  16.000000   ; qtot 1.029993
 1341         oh     50    ccc     O2   1341 -0.86012500  16.000000   ; qtot 0.169868
 1342         oh     50    ccc     O3   1342 -0.83772800  16.000000   ; qtot -0.667860
 1343         oh     50    ccc     O4   1343 -0.77449700  16.000000   ; qtot -1.442357
 1344         c3     50    ccc     C6   1344 0.37576500  12.010000   ; qtot -1.066592
 1345         ho     50    ccc     H6   1345 0.53656000   1.008000   ; qtot -0.530032
 1346         ho     50    ccc     H7   1346 0.49492100   1.008000   ; qtot -0.035111
 1347         ho     50    ccc     H8   1347 0.51297200   1.008000   ; qtot 0.477861
 1348         h1     50    ccc     H9   1348 0.05653400   1.008000   ; qtot 0.534395
 1349         h1     50    ccc    H10   1349 0.05653400   1.008000   ; qtot 0.590929
 1350         oh     50    ccc     O5   1350 -0.84113600  16.000000   ; qtot -0.250207
 1351         ho     50    ccc    H11   1351 0.51201600   1.008000   ; qtot 0.261809
 1352         os     50    ccc     O6   1352 -0.26013600  16.000000   ; qtot 0.001673
; residue   51 ccc rtp ccc q 0.0
 1353         c3     51    ccc     C1   1353 -0.33178800  12.010000   ; qtot -0.330115
 1354         c3     51    ccc     C2   1354 0.30606500  12.010000   ; qtot -0.024050
 1355         h1     51    ccc     H1   1355 0.11662300   1.008000   ; qtot 0.092573
 1356         h1     51    ccc     H2   1356 0.11526800   1.008000   ; qtot 0.207841
 1357         c3     51    ccc     C3   1357 0.15592700  12.010000   ; qtot 0.363768
 1358         c3     51    ccc     C4   1358 0.28383300  12.010000   ; qtot 0.647601
 1359         c3     51    ccc     C5   1359 0.32403300  12.010000   ; qtot 0.971634
 1360         h1     51    ccc     H3   1360 0.13386900   1.008000   ; qtot 1.105503
 1361         h1     51    ccc     H4   1361 0.10146700   1.008000   ; qtot 1.206970
 1362         h2     51    ccc     H5   1362 0.10960400   1.008000   ; qtot 1.316574
 1363         os     51    ccc     O1   1363 -0.28650000  16.000000   ; qtot 1.030074
 1364         oh     51    ccc     O2   1364 -0.86012500  16.000000   ; qtot 0.169949
 1365         oh     51    ccc     O3   1365 -0.83772800  16.000000   ; qtot -0.667779
 1366         oh     51    ccc     O4   1366 -0.77449700  16.000000   ; qtot -1.442276
 1367         c3     51    ccc     C6   1367 0.37576500  12.010000   ; qtot -1.066511
 1368         ho     51    ccc     H6   1368 0.53656000   1.008000   ; qtot -0.529951
 1369         ho     51    ccc     H7   1369 0.49492100   1.008000   ; qtot -0.035030
 1370         ho     51    ccc     H8   1370 0.51297200   1.008000   ; qtot 0.477942
 1371         h1     51    ccc     H9   1371 0.05653400   1.008000   ; qtot 0.534476
 1372         h1     51    ccc    H10   1372 0.05653400   1.008000   ; qtot 0.591010
 1373         oh     51    ccc     O5   1373 -0.84113600  16.000000   ; qtot -0.250126
 1374         ho     51    ccc    H11   1374 0.51201600   1.008000   ; qtot 0.261890
 1375         os     51    ccc     O6   1375 -0.26013600  16.000000   ; qtot 0.001754
; residue   52 ccc rtp ccc q 0.0
 1376         c3     52    ccc     C1   1376 -0.33178800  12.010000   ; qtot -0.330034
 1377         c3     52    ccc     C2   1377 0.30606500  12.010000   ; qtot -0.023969
 1378         h1     52    ccc     H1   1378 0.11662300   1.008000   ; qtot 0.092654
 1379         h1     52    ccc     H2   1379 0.11526800   1.008000   ; qtot 0.207922
 1380         c3     52    ccc     C3   1380 0.15592700  12.010000   ; qtot 0.363849
 1381         c3     52    ccc     C4   1381 0.28383300  12.010000   ; qtot 0.647682
 1382         c3     52    ccc     C5   1382 0.32403300  12.010000   ; qtot 0.971715
 1383         h1     52    ccc     H3   1383 0.13386900   1.008000   ; qtot 1.105584
 1384         h1     52    ccc     H4   1384 0.10146700   1.008000   ; qtot 1.207051
 1385         h2     52    ccc     H5   1385 0.10960400   1.008000   ; qtot 1.316655
 1386         os     52    ccc     O1   1386 -0.28650000  16.000000   ; qtot 1.030155
 1387         oh     52    ccc     O2   1387 -0.86012500  16.000000   ; qtot 0.170030
 1388         oh     52    ccc     O3   1388 -0.83772800  16.000000   ; qtot -0.667698
 1389         oh     52    ccc     O4   1389 -0.77449700  16.000000   ; qtot -1.442195
 1390         c3     52    ccc     C6   1390 0.37576500  12.010000   ; qtot -1.066430
 1391         ho     52    ccc     H6   1391 0.53656000   1.008000   ; qtot -0.529870
 1392         ho     52    ccc     H7   1392 0.49492100   1.008000   ; qtot -0.034949
 1393         ho     52    ccc     H8   1393 0.51297200   1.008000   ; qtot 0.478023
 1394         h1     52    ccc     H9   1394 0.05653400   1.008000   ; qtot 0.534557
 1395         h1     52    ccc    H10   1395 0.05653400   1.008000   ; qtot 0.591091
 1396         oh     52    ccc     O5   1396 -0.84113600  16.000000   ; qtot -0.250045
 1397         ho     52    ccc    H11   1397 0.51201600   1.008000   ; qtot 0.261971
 1398         os     52    ccc     O6   1398 -0.26013600  16.000000   ; qtot 0.001835
; residue   53 ccc rtp ccc q 0.0
 1399         c3     53    ccc     C1   1399 -0.33178800  12.010000   ; qtot -0.329953
 1400         c3     53    ccc     C2   1400 0.30606500  12.010000   ; qtot -0.023888
 1401         h1     53    ccc     H1   1401 0.11662300   1.008000   ; qtot 0.092735
 1402         h1     53    ccc     H2   1402 0.11526800   1.008000   ; qtot 0.208003
 1403         c3     53    ccc     C3   1403 0.15592700  12.010000   ; qtot 0.363930
 1404         c3     53    ccc     C4   1404 0.28383300  12.010000   ; qtot 0.647763
 1405         c3     53    ccc     C5   1405 0.32403300  12.010000   ; qtot 0.971796
 1406         h1     53    ccc     H3   1406 0.13386900   1.008000   ; qtot 1.105665
 1407         h1     53    ccc     H4   1407 0.10146700   1.008000   ; qtot 1.207132
 1408         h2     53    ccc     H5   1408 0.10960400   1.008000   ; qtot 1.316736
 1409         os     53    ccc     O1   1409 -0.28650000  16.000000   ; qtot 1.030236
 1410         oh     53    ccc     O2   1410 -0.86012500  16.000000   ; qtot 0.170111
 1411         oh     53    ccc     O3   1411 -0.83772800  16.000000   ; qtot -0.667617
 1412         oh     53    ccc     O4   1412 -0.77449700  16.000000   ; qtot -1.442114
 1413         c3     53    ccc     C6   1413 0.37576500  12.010000   ; qtot -1.066349
 1414         ho     53    ccc     H6   1414 0.53656000   1.008000   ; qtot -0.529789
 1415         ho     53    ccc     H7   1415 0.49492100   1.008000   ; qtot -0.034868
 1416         ho     53    ccc     H8   1416 0.51297200   1.008000   ; qtot 0.478104
 1417         h1     53    ccc     H9   1417 0.05653400   1.008000   ; qtot 0.534638
 1418         h1     53    ccc    H10   1418 0.05653400   1.008000   ; qtot 0.591172
 1419         oh     53    ccc     O5   1419 -0.84113600  16.000000   ; qtot -0.249964
 1420         ho     53    ccc    H11   1420 0.51201600   1.008000   ; qtot 0.262052
 1421         os     53    ccc     O6   1421 -0.26013600  16.000000   ; qtot 0.001916
; residue   54 ccc rtp ccc q 0.0
 1422         c3     54    ccc     C1   1422 -0.33178800  12.010000   ; qtot -0.329872
 1423         c3     54    ccc     C2   1423 0.30606500  12.010000   ; qtot -0.023807
 1424         h1     54    ccc     H1   1424 0.11662300   1.008000   ; qtot 0.092816
 1425         h1     54    ccc     H2   1425 0.11526800   1.008000   ; qtot 0.208084
 1426         c3     54    ccc     C3   1426 0.15592700  12.010000   ; qtot 0.364011
 1427         c3     54    ccc     C4   1427 0.28383300  12.010000   ; qtot 0.647844
 1428         c3     54    ccc     C5   1428 0.32403300  12.010000   ; qtot 0.971877
 1429         h1     54    ccc     H3   1429 0.13386900   1.008000   ; qtot 1.105746
 1430         h1     54    ccc     H4   1430 0.10146700   1.008000   ; qtot 1.207213
 1431         h2     54    ccc     H5   1431 0.10960400   1.008000   ; qtot 1.316817
 1432         os     54    ccc     O1   1432 -0.28650000  16.000000   ; qtot 1.030317
 1433         oh     54    ccc     O2   1433 -0.86012500  16.000000   ; qtot 0.170192
 1434         oh     54    ccc     O3   1434 -0.83772800  16.000000   ; qtot -0.667536
 1435         oh     54    ccc     O4   1435 -0.77449700  16.000000   ; qtot -1.442033
 1436         c3     54    ccc     C6   1436 0.37576500  12.010000   ; qtot -1.066268
 1437         ho     54    ccc     H6   1437 0.53656000   1.008000   ; qtot -0.529708
 1438         ho     54    ccc     H7   1438 0.49492100   1.008000   ; qtot -0.034787
 1439         ho     54    ccc     H8   1439 0.51297200   1.008000   ; qtot 0.478185
 1440         h1     54    ccc     H9   1440 0.05653400   1.008000   ; qtot 0.534719
 1441         h1     54    ccc    H10   1441 0.05653400   1.008000   ; qtot 0.591253
 1442         oh     54    ccc     O5   1442 -0.84113600  16.000000   ; qtot -0.249883
 1443         ho     54    ccc    H11   1443 0.51201600   1.008000   ; qtot 0.262133
 1444         os     54    ccc     O6   1444 -0.26013600  16.000000   ; qtot 0.001997
; residue   55 ccc rtp ccc q 0.0
 1445         c3     55    ccc     C1   1445 -0.33178800  12.010000   ; qtot -0.329791
 1446         c3     55    ccc     C2   1446 0.30606500  12.010000   ; qtot -0.023726
 1447         h1     55    ccc     H1   1447 0.11662300   1.008000   ; qtot 0.092897
 1448         h1     55    ccc     H2   1448 0.11526800   1.008000   ; qtot 0.208165
 1449         c3     55    ccc     C3   1449 0.15592700  12.010000   ; qtot 0.364092
 1450         c3     55    ccc     C4   1450 0.28383300  12.010000   ; qtot 0.647925
 1451         c3     55    ccc     C5   1451 0.32403300  12.010000   ; qtot 0.971958
 1452         h1     55    ccc     H3   1452 0.13386900   1.008000   ; qtot 1.105827
 1453         h1     55    ccc     H4   1453 0.10146700   1.008000   ; qtot 1.207294
 1454         h2     55    ccc     H5   1454 0.10960400   1.008000   ; qtot 1.316898
 1455         os     55    ccc     O1   1455 -0.28650000  16.000000   ; qtot 1.030398
 1456         oh     55    ccc     O2   1456 -0.86012500  16.000000   ; qtot 0.170273
 1457         oh     55    ccc     O3   1457 -0.83772800  16.000000   ; qtot -0.667455
 1458         oh     55    ccc     O4   1458 -0.77449700  16.000000   ; qtot -1.441952
 1459         c3     55    ccc     C6   1459 0.37576500  12.010000   ; qtot -1.066187
 1460         ho     55    ccc     H6   1460 0.53656000   1.008000   ; qtot -0.529627
 1461         ho     55    ccc     H7   1461 0.49492100   1.008000   ; qtot -0.034706
 1462         ho     55    ccc     H8   1462 0.51297200   1.008000   ; qtot 0.478266
 1463         h1     55    ccc     H9   1463 0.05653400   1.008000   ; qtot 0.534800
 1464         h1     55    ccc    H10   1464 0.05653400   1.008000   ; qtot 0.591334
 1465         oh     55    ccc     O5   1465 -0.84113600  16.000000   ; qtot -0.249802
 1466         ho     55    ccc    H11   1466 0.51201600   1.008000   ; qtot 0.262214
 1467         os     55    ccc     O6   1467 -0.26013600  16.000000   ; qtot 0.002078
; residue   56 ccc rtp ccc q 0.0
 1468         c3     56    ccc     C1   1468 -0.33178800  12.010000   ; qtot -0.329710
 1469         c3     56    ccc     C2   1469 0.30606500  12.010000   ; qtot -0.023645
 1470         h1     56    ccc     H1   1470 0.11662300   1.008000   ; qtot 0.092978
 1471         h1     56    ccc     H2   1471 0.11526800   1.008000   ; qtot 0.208246
 1472         c3     56    ccc     C3   1472 0.15592700  12.010000   ; qtot 0.364173
 1473         c3     56    ccc     C4   1473 0.28383300  12.010000   ; qtot 0.648006
 1474         c3     56    ccc     C5   1474 0.32403300  12.010000   ; qtot 0.972039
 1475         h1     56    ccc     H3   1475 0.13386900   1.008000   ; qtot 1.105908
 1476         h1     56    ccc     H4   1476 0.10146700   1.008000   ; qtot 1.207375
 1477         h2     56    ccc     H5   1477 0.10960400   1.008000   ; qtot 1.316979
 1478         os     56    ccc     O1   1478 -0.28650000  16.000000   ; qtot 1.030479
 1479         oh     56    ccc     O2   1479 -0.86012500  16.000000   ; qtot 0.170354
 1480         oh     56    ccc     O3   1480 -0.83772800  16.000000   ; qtot -0.667374
 1481         oh     56    ccc     O4   1481 -0.77449700  16.000000   ; qtot -1.441871
 1482         c3     56    ccc     C6   1482 0.37576500  12.010000   ; qtot -1.066106
 1483         ho     56    ccc     H6   1483 0.53656000   1.008000   ; qtot -0.529546
 1484         ho     56    ccc     H7   1484 0.49492100   1.008000   ; qtot -0.034625
 1485         ho     56    ccc     H8   1485 0.51297200   1.008000   ; qtot 0.478347
 1486         h1     56    ccc     H9   1486 0.05653400   1.008000   ; qtot 0.534881
 1487         h1     56    ccc    H10   1487 0.05653400   1.008000   ; qtot 0.591415
 1488         oh     56    ccc     O5   1488 -0.84113600  16.000000   ; qtot -0.249721
 1489         ho     56    ccc    H11   1489 0.51201600   1.008000   ; qtot 0.262295
 1490         os     56    ccc     O6   1490 -0.26013600  16.000000   ; qtot 0.002159
; residue   57 ccc rtp ccc q 0.0
 1491         c3     57    ccc     C1   1491 -0.33178800  12.010000   ; qtot -0.329629
 1492         c3     57    ccc     C2   1492 0.30606500  12.010000   ; qtot -0.023564
 1493         h1     57    ccc     H1   1493 0.11662300   1.008000   ; qtot 0.093059
 1494         h1     57    ccc     H2   1494 0.11526800   1.008000   ; qtot 0.208327
 1495         c3     57    ccc     C3   1495 0.15592700  12.010000   ; qtot 0.364254
 1496         c3     57    ccc     C4   1496 0.28383300  12.010000   ; qtot 0.648087
 1497         c3     57    ccc     C5   1497 0.32403300  12.010000   ; qtot 0.972120
 1498         h1     57    ccc     H3   1498 0.13386900   1.008000   ; qtot 1.105989
 1499         h1     57    ccc     H4   1499 0.10146700   1.008000   ; qtot 1.207456
 1500         h2     57    ccc     H5   1500 0.10960400   1.008000   ; qtot 1.317060
 1501         os     57    ccc     O1   1501 -0.28650000  16.000000   ; qtot 1.030560
 1502         oh     57    ccc     O2   1502 -0.86012500  16.000000   ; qtot 0.170435
 1503         oh     57    ccc     O3   1503 -0.83772800  16.000000   ; qtot -0.667293
 1504         oh     57    ccc     O4   1504 -0.77449700  16.000000   ; qtot -1.441790
 1505         c3     57    ccc     C6   1505 0.37576500  12.010000   ; qtot -1.066025
 1506         ho     57    ccc     H6   1506 0.53656000   1.008000   ; qtot -0.529465
 1507         ho     57    ccc     H7   1507 0.49492100   1.008000   ; qtot -0.034544
 1508         ho     57    ccc     H8   1508 0.51297200   1.008000   ; qtot 0.478428
 1509         h1     57    ccc     H9   1509 0.05653400   1.008000   ; qtot 0.534962
 1510         h1     57    ccc    H10   1510 0.05653400   1.008000   ; qtot 0.591496
 1511         oh     57    ccc     O5   1511 -0.84113600  16.000000   ; qtot -0.249640
 1512         ho     57    ccc    H11   1512 0.51201600   1.008000   ; qtot 0.262376
 1513         os     57    ccc     O6   1513 -0.26013600  16.000000   ; qtot 0.002240
; residue   58 ccc rtp ccc q 0.0
 1514         c3     58    ccc     C1   1514 -0.33178800  12.010000   ; qtot -0.329548
 1515         c3     58    ccc     C2   1515 0.30606500  12.010000   ; qtot -0.023483
 1516         h1     58    ccc     H1   1516 0.11662300   1.008000   ; qtot 0.093140
 1517         h1     58    ccc     H2   1517 0.11526800   1.008000   ; qtot 0.208408
 1518         c3     58    ccc     C3   1518 0.15592700  12.010000   ; qtot 0.364335
 1519         c3     58    ccc     C4   1519 0.28383300  12.010000   ; qtot 0.648168
 1520         c3     58    ccc     C5   1520 0.32403300  12.010000   ; qtot 0.972201
 1521         h1     58    ccc     H3   1521 0.13386900   1.008000   ; qtot 1.106070
 1522         h1     58    ccc     H4   1522 0.10146700   1.008000   ; qtot 1.207537
 1523         h2     58    ccc     H5   1523 0.10960400   1.008000   ; qtot 1.317141
 1524         os     58    ccc     O1   1524 -0.28650000  16.000000   ; qtot 1.030641
 1525         oh     58    ccc     O2   1525 -0.86012500  16.000000   ; qtot 0.170516
 1526         oh     58    ccc     O3   1526 -0.83772800  16.000000   ; qtot -0.667212
 1527         oh     58    ccc     O4   1527 -0.77449700  16.000000   ; qtot -1.441709
 1528         c3     58    ccc     C6   1528 0.37576500  12.010000   ; qtot -1.065944
 1529         ho     58    ccc     H6   1529 0.53656000   1.008000   ; qtot -0.529384
 1530         ho     58    ccc     H7   1530 0.49492100   1.008000   ; qtot -0.034463
 1531         ho     58    ccc     H8   1531 0.51297200   1.008000   ; qtot 0.478509
 1532         h1     58    ccc     H9   1532 0.05653400   1.008000   ; qtot 0.535043
 1533         h1     58    ccc    H10   1533 0.05653400   1.008000   ; qtot 0.591577
 1534         oh     58    ccc     O5   1534 -0.84113600  16.000000   ; qtot -0.249559
 1535         ho     58    ccc    H11   1535 0.51201600   1.008000   ; qtot 0.262457
 1536         os     58    ccc     O6   1536 -0.26013600  16.000000   ; qtot 0.002321
; residue   59 ccc rtp ccc q 0.0
 1537         c3     59    ccc     C1   1537 -0.33178800  12.010000   ; qtot -0.329467
 1538         c3     59    ccc     C2   1538 0.30606500  12.010000   ; qtot -0.023402
 1539         h1     59    ccc     H1   1539 0.11662300   1.008000   ; qtot 0.093221
 1540         h1     59    ccc     H2   1540 0.11526800   1.008000   ; qtot 0.208489
 1541         c3     59    ccc     C3   1541 0.15592700  12.010000   ; qtot 0.364416
 1542         c3     59    ccc     C4   1542 0.28383300  12.010000   ; qtot 0.648249
 1543         c3     59    ccc     C5   1543 0.32403300  12.010000   ; qtot 0.972282
 1544         h1     59    ccc     H3   1544 0.13386900   1.008000   ; qtot 1.106151
 1545         h1     59    ccc     H4   1545 0.10146700   1.008000   ; qtot 1.207618
 1546         h2     59    ccc     H5   1546 0.10960400   1.008000   ; qtot 1.317222
 1547         os     59    ccc     O1   1547 -0.28650000  16.000000   ; qtot 1.030722
 1548         oh     59    ccc     O2   1548 -0.86012500  16.000000   ; qtot 0.170597
 1549         oh     59    ccc     O3   1549 -0.83772800  16.000000   ; qtot -0.667131
 1550         oh     59    ccc     O4   1550 -0.77449700  16.000000   ; qtot -1.441628
 1551         c3     59    ccc     C6   1551 0.37576500  12.010000   ; qtot -1.065863
 1552         ho     59    ccc     H6   1552 0.53656000   1.008000   ; qtot -0.529303
 1553         ho     59    ccc     H7   1553 0.49492100   1.008000   ; qtot -0.034382
 1554         ho     59    ccc     H8   1554 0.51297200   1.008000   ; qtot 0.478590
 1555         h1     59    ccc     H9   1555 0.05653400   1.008000   ; qtot 0.535124
 1556         h1     59    ccc    H10   1556 0.05653400   1.008000   ; qtot 0.591658
 1557         oh     59    ccc     O5   1557 -0.84113600  16.000000   ; qtot -0.249478
 1558         ho     59    ccc    H11   1558 0.51201600   1.008000   ; qtot 0.262538
 1559         os     59    ccc     O6   1559 -0.26013600  16.000000   ; qtot 0.002402
; residue   60 ccc rtp ccc q 0.0
 1560         c3     60    ccc     C1   1560 -0.33178800  12.010000   ; qtot -0.329386
 1561         c3     60    ccc     C2   1561 0.30606500  12.010000   ; qtot -0.023321
 1562         h1     60    ccc     H1   1562 0.11662300   1.008000   ; qtot 0.093302
 1563         h1     60    ccc     H2   1563 0.11526800   1.008000   ; qtot 0.208570
 1564         c3     60    ccc     C3   1564 0.15592700  12.010000   ; qtot 0.364497
 1565         c3     60    ccc     C4   1565 0.28383300  12.010000   ; qtot 0.648330
 1566         c3     60    ccc     C5   1566 0.32403300  12.010000   ; qtot 0.972363
 1567         h1     60    ccc     H3   1567 0.13386900   1.008000   ; qtot 1.106232
 1568         h1     60    ccc     H4   1568 0.10146700   1.008000   ; qtot 1.207699
 1569         h2     60    ccc     H5   1569 0.10960400   1.008000   ; qtot 1.317303
 1570         os     60    ccc     O1   1570 -0.28650000  16.000000   ; qtot 1.030803
 1571         oh     60    ccc     O2   1571 -0.86012500  16.000000   ; qtot 0.170678
 1572         oh     60    ccc     O3   1572 -0.83772800  16.000000   ; qtot -0.667050
 1573         oh     60    ccc     O4   1573 -0.77449700  16.000000   ; qtot -1.441547
 1574         c3     60    ccc     C6   1574 0.37576500  12.010000   ; qtot -1.065782
 1575         ho     60    ccc     H6   1575 0.53656000   1.008000   ; qtot -0.529222
 1576         ho     60    ccc     H7   1576 0.49492100   1.008000   ; qtot -0.034301
 1577         ho     60    ccc     H8   1577 0.51297200   1.008000   ; qtot 0.478671
 1578         h1     60    ccc     H9   1578 0.05653400   1.008000   ; qtot 0.535205
 1579         h1     60    ccc    H10   1579 0.05653400   1.008000   ; qtot 0.591739
 1580         oh     60    ccc     O5   1580 -0.84113600  16.000000   ; qtot -0.249397
 1581         ho     60    ccc    H11   1581 0.51201600   1.008000   ; qtot 0.262619
 1582         os     60    ccc     O6   1582 -0.26013600  16.000000   ; qtot 0.002483
; residue   61 ccc rtp ccc q 0.0
 1583         c3     61    ccc     C1   1583 -0.33178800  12.010000   ; qtot -0.329305
 1584         c3     61    ccc     C2   1584 0.30606500  12.010000   ; qtot -0.023240
 1585         h1     61    ccc     H1   1585 0.11662300   1.008000   ; qtot 0.093383
 1586         h1     61    ccc     H2   1586 0.11526800   1.008000   ; qtot 0.208651
 1587         c3     61    ccc     C3   1587 0.15592700  12.010000   ; qtot 0.364578
 1588         c3     61    ccc     C4   1588 0.28383300  12.010000   ; qtot 0.648411
 1589         c3     61    ccc     C5   1589 0.32403300  12.010000   ; qtot 0.972444
 1590         h1     61    ccc     H3   1590 0.13386900   1.008000   ; qtot 1.106313
 1591         h1     61    ccc     H4   1591 0.10146700   1.008000   ; qtot 1.207780
 1592         h2     61    ccc     H5   1592 0.10960400   1.008000   ; qtot 1.317384
 1593         os     61    ccc     O1   1593 -0.28650000  16.000000   ; qtot 1.030884
 1594         oh     61    ccc     O2   1594 -0.86012500  16.000000   ; qtot 0.170759
 1595         oh     61    ccc     O3   1595 -0.83772800  16.000000   ; qtot -0.666969
 1596         oh     61    ccc     O4   1596 -0.77449700  16.000000   ; qtot -1.441466
 1597         c3     61    ccc     C6   1597 0.37576500  12.010000   ; qtot -1.065701
 1598         ho     61    ccc     H6   1598 0.53656000   1.008000   ; qtot -0.529141
 1599         ho     61    ccc     H7   1599 0.49492100   1.008000   ; qtot -0.034220
 1600         ho     61    ccc     H8   1600 0.51297200   1.008000   ; qtot 0.478752
 1601         h1     61    ccc     H9   1601 0.05653400   1.008000   ; qtot 0.535286
 1602         h1     61    ccc    H10   1602 0.05653400   1.008000   ; qtot 0.591820
 1603         oh     61    ccc     O5   1603 -0.84113600  16.000000   ; qtot -0.249316
 1604         ho     61    ccc    H11   1604 0.51201600   1.008000   ; qtot 0.262700
 1605         os     61    ccc     O6   1605 -0.26013600  16.000000   ; qtot 0.002564

[ bonds ]
;    ai     aj funct         c0         c1         c2         c3
      1      2     1   0.14316 258236.480000
      1      5     1   0.14316 258236.480000
      2      8     1   0.15375 251793.120000
      5     11     1   0.15375 251793.120000
      8     14     1   0.15375 251793.120000
     11     17     1   0.15375 251793.120000
     14     20     1   0.14647 272713.120000
     17     21     1   0.14647 272713.120000
     20     28     1   0.14647 272713.120000
     20     31     1   0.14647 272713.120000
     21     22     1   0.14647 272713.120000
     21     25     1   0.14647 272713.120000
     22     34     1   0.15375 251793.120000
     25     37     1   0.15375 251793.120000
     28     40     1   0.15375 251793.120000
     31     43     1   0.15375 251793.120000
     34     55     1   0.15375 251793.120000
     37     52     1   0.15375 251793.120000
     40     49     1   0.15375 251793.120000
     43     46     1   0.15375 251793.120000
     46     86     1   0.14316 258236.480000
     49    115     1   0.14316 258236.480000
     52    144     1   0.14316 258236.480000
     55    173     1   0.14316 258236.480000
     58     59     1   0.14647 272713.120000
     58     62     1   0.14647 272713.120000
     58     65     1   0.14647 272713.120000
     59     71     1   0.15375 251793.120000
     62     74     1   0.15375 251793.120000
     65     68     1   0.15375 251793.120000
     68     77     1   0.15375 251793.120000
     71     83     1   0.15375 251793.120000
     74     80     1   0.15375 251793.120000
     77     86     1   0.14316 258236.480000
     80    202     1   0.14316 258236.480000
     83    231     1   0.14316 258236.480000
     87     88     1   0.14647 272713.120000
     87     91     1   0.14647 272713.120000
     87     94     1   0.14647 272713.120000
     88    100     1   0.15375 251793.120000
     91    103     1   0.15375 251793.120000
     94     97     1   0.15375 251793.120000
     97    106     1   0.15375 251793.120000
    100    112     1   0.15375 251793.120000
    103    109     1   0.15375 251793.120000
    106    115     1   0.14316 258236.480000
    109    260     1   0.14316 258236.480000
    112    289     1   0.14316 258236.480000
    116    117     1   0.14647 272713.120000
    116    120     1   0.14647 272713.120000
    116    123     1   0.14647 272713.120000
    117    129     1   0.15375 251793.120000
    120    132     1   0.15375 251793.120000
    123    126     1   0.15375 251793.120000
    126    135     1   0.15375 251793.120000
    129    141     1   0.15375 251793.120000
    132    138     1   0.15375 251793.120000
    135    144     1   0.14316 258236.480000
    138    318     1   0.14316 258236.480000
    141    347     1   0.14316 258236.480000
    145    146     1   0.14647 272713.120000
    145    149     1   0.14647 272713.120000
    145    152     1   0.14647 272713.120000
    146    158     1   0.15375 251793.120000
    149    161     1   0.15375 251793.120000
    152    155     1   0.15375 251793.120000
    155    164     1   0.15375 251793.120000
    158    170     1   0.15375 251793.120000
    161    167     1   0.15375 251793.120000
    164    173     1   0.14316 258236.480000
    167    376     1   0.14316 258236.480000
    170    405     1   0.14316 258236.480000
    174    175     1   0.14647 272713.120000
    174    178     1   0.14647 272713.120000
    174    181     1   0.14647 272713.120000
    175    187     1   0.15375 251793.120000
    178    190     1   0.15375 251793.120000
    181    184     1   0.15375 251793.120000
    184    193     1   0.15375 251793.120000
    187    199     1   0.15375 251793.120000
    190    196     1   0.15375 251793.120000
    193    202     1   0.14316 258236.480000
    196    434     1   0.14316 258236.480000
    199    463     1   0.14316 258236.480000
    203    204     1   0.14647 272713.120000
    203    207     1   0.14647 272713.120000
    203    210     1   0.14647 272713.120000
    204    216     1   0.15375 251793.120000
    207    219     1   0.15375 251793.120000
    210    213     1   0.15375 251793.120000
    213    222     1   0.15375 251793.120000
    216    228     1   0.15375 251793.120000
    219    225     1   0.15375 251793.120000
    222    231     1   0.14316 258236.480000
    225    492     1   0.14316 258236.480000
    228    521     1   0.14316 258236.480000
    232    233     1   0.14647 272713.120000
    232    236     1   0.14647 272713.120000
    232    239     1   0.14647 272713.120000
    233    245     1   0.15375 251793.120000
    236    248     1   0.15375 251793.120000
    239    242     1   0.15375 251793.120000
    242    251     1   0.15375 251793.120000
    245    257     1   0.15375 251793.120000
    248    254     1   0.15375 251793.120000
    251    260     1   0.14316 258236.480000
    254    550     1   0.14316 258236.480000
    257    579     1   0.14316 258236.480000
    261    262     1   0.14647 272713.120000
    261    265     1   0.14647 272713.120000
    261    268     1   0.14647 272713.120000
    262    274     1   0.15375 251793.120000
    265    277     1   0.15375 251793.120000
    268    271     1   0.15375 251793.120000
    271    280     1   0.15375 251793.120000
    274    286     1   0.15375 251793.120000
    277    283     1   0.15375 251793.120000
    280    289     1   0.14316 258236.480000
    283    608     1   0.14316 258236.480000
    286    637     1   0.14316 258236.480000
    290    291     1   0.14647 272713.120000
    290    294     1   0.14647 272713.120000
    290    297     1   0.14647 272713.120000
    291    303     1   0.15375 251793.120000
    294    306     1   0.15375 251793.120000
    297    300     1   0.15375 251793.120000
    300    309     1   0.15375 251793.120000
    303    315     1   0.15375 251793.120000
    306    312     1   0.15375 251793.120000
    309    318     1   0.14316 258236.480000
    312    666     1   0.14316 258236.480000
    315    695     1   0.14316 258236.480000
    319    320     1   0.14647 272713.120000
    319    323     1   0.14647 272713.120000
    319    326     1   0.14647 272713.120000
    320    332     1   0.15375 251793.120000
    323    335     1   0.15375 251793.120000
    326    329     1   0.15375 251793.120000
    329    338     1   0.15375 251793.120000
    332    344     1   0.15375 251793.120000
    335    341     1   0.15375 251793.120000
    338    347     1   0.14316 258236.480000
    341    724     1   0.14316 258236.480000
    344    753     1   0.14316 258236.480000
    348    349     1   0.14647 272713.120000
    348    352     1   0.14647 272713.120000
    348    355     1   0.14647 272713.120000
    349    361     1   0.15375 251793.120000
    352    364     1   0.15375 251793.120000
    355    358     1   0.15375 251793.120000
    358    367     1   0.15375 251793.120000
    361    373     1   0.15375 251793.120000
    364    370     1   0.15375 251793.120000
    367    376     1   0.14316 258236.480000
    370    782     1   0.14316 258236.480000
    373    811     1   0.14316 258236.480000
    377    378     1   0.14647 272713.120000
    377    381     1   0.14647 272713.120000
    377    384     1   0.14647 272713.120000
    378    390     1   0.15375 251793.120000
    381    393     1   0.15375 251793.120000
    384    387     1   0.15375 251793.120000
    387    396     1   0.15375 251793.120000
    390    402     1   0.15375 251793.120000
    393    399     1   0.15375 251793.120000
    396    405     1   0.14316 258236.480000
    399    840     1   0.14316 258236.480000
    402    869     1   0.14316 258236.480000
    406    407     1   0.14647 272713.120000
    406    410     1   0.14647 272713.120000
    406    413     1   0.14647 272713.120000
    407    419     1   0.15375 251793.120000
    410    422     1   0.15375 251793.120000
    413    416     1   0.15375 251793.120000
    416    425     1   0.15375 251793.120000
    419    431     1   0.15375 251793.120000
    422    428     1   0.15375 251793.120000
    425    434     1   0.14316 258236.480000
    428    880     1   0.14316 258236.480000
    431    903     1   0.14316 258236.480000
    435    436     1   0.14647 272713.120000
    435    439     1   0.14647 272713.120000
    435    442     1   0.14647 272713.120000
    436    448     1   0.15375 251793.120000
    439    451     1   0.15375 251793.120000
    442    445     1   0.15375 251793.120000
    445    454     1   0.15375 251793.120000
    448    460     1   0.15375 251793.120000
    451    457     1   0.15375 251793.120000
    454    463     1   0.14316 258236.480000
    457    926     1   0.14316 258236.480000
    460    949     1   0.14316 258236.480000
    464    465     1   0.14647 272713.120000
    464    468     1   0.14647 272713.120000
    464    471     1   0.14647 272713.120000
    465    477     1   0.15375 251793.120000
    468    480     1   0.15375 251793.120000
    471    474     1   0.15375 251793.120000
    474    483     1   0.15375 251793.120000
    477    489     1   0.15375 251793.120000
    480    486     1   0.15375 251793.120000
    483    492     1   0.14316 258236.480000
    486    972     1   0.14316 258236.480000
    489    995     1   0.14316 258236.480000
    493    494     1   0.14647 272713.120000
    493    497     1   0.14647 272713.120000
    493    500     1   0.14647 272713.120000
    494    506     1   0.15375 251793.120000
    497    509     1   0.15375 251793.120000
    500    503     1   0.15375 251793.120000
    503    512     1   0.15375 251793.120000
    506    518     1   0.15375 251793.120000
    509    515     1   0.15375 251793.120000
    512    521     1   0.14316 258236.480000
    515   1018     1   0.14316 258236.480000
    518   1041     1   0.14316 258236.480000
    522    523     1   0.14647 272713.120000
    522    526     1   0.14647 272713.120000
    522    529     1   0.14647 272713.120000
    523    535     1   0.15375 251793.120000
    526    538     1   0.15375 251793.120000
    529    532     1   0.15375 251793.120000
    532    541     1   0.15375 251793.120000
    535    547     1   0.15375 251793.120000
    538    544     1   0.15375 251793.120000
    541    550     1   0.14316 258236.480000
    544   1064     1   0.14316 258236.480000
    547   1087     1   0.14316 258236.480000
    551    552     1   0.14647 272713.120000
    551    555     1   0.14647 272713.120000
    551    558     1   0.14647 272713.120000
    552    564     1   0.15375 251793.120000
    555    567     1   0.15375 251793.120000
    558    561     1   0.15375 251793.120000
    561    570     1   0.15375 251793.120000
    564    576     1   0.15375 251793.120000
    567    573     1   0.15375 251793.120000
    570    579     1   0.14316 258236.480000
    573   1110     1   0.14316 258236.480000
    576   1133     1   0.14316 258236.480000
    580    581     1   0.14647 272713.120000
    580    584     1   0.14647 272713.120000
    580    587     1   0.14647 272713.120000
    581    593     1   0.15375 251793.120000
    584    596     1   0.15375 251793.120000
    587    590     1   0.15375 251793.120000
    590    599     1   0.15375 251793.120000
    593    605     1   0.15375 251793.120000
    596    602     1   0.15375 251793.120000
    599    608     1   0.14316 258236.480000
    602   1156     1   0.14316 258236.480000
    605   1179     1   0.14316 258236.480000
    609    610     1   0.14647 272713.120000
    609    613     1   0.14647 272713.120000
    609    616     1   0.14647 272713.120000
    610    622     1   0.15375 251793.120000
    613    625     1   0.15375 251793.120000
    616    619     1   0.15375 251793.120000
    619    628     1   0.15375 251793.120000
    622    634     1   0.15375 251793.120000
    625    631     1   0.15375 251793.120000
    628    637     1   0.14316 258236.480000
    631   1202     1   0.14316 258236.480000
    634   1225     1   0.14316 258236.480000
    638    639     1   0.14647 272713.120000
    638    642     1   0.14647 272713.120000
    638    645     1   0.14647 272713.120000
    639    651     1   0.15375 251793.120000
    642    654     1   0.15375 251793.120000
    645    648     1   0.15375 251793.120000
    648    657     1   0.15375 251793.120000
    651    663     1   0.15375 251793.120000
    654    660     1   0.15375 251793.120000
    657    666     1   0.14316 258236.480000
    660   1248     1   0.14316 258236.480000
    663   1271     1   0.14316 258236.480000
    667    668     1   0.14647 272713.120000
    667    671     1   0.14647 272713.120000
    667    674     1   0.14647 272713.120000
    668    680     1   0.15375 251793.120000
    671    683     1   0.15375 251793.120000
    674    677     1   0.15375 251793.120000
    677    686     1   0.15375 251793.120000
    680    692     1   0.15375 251793.120000
    683    689     1   0.15375 251793.120000
    686    695     1   0.14316 258236.480000
    689   1294     1   0.14316 258236.480000
    692   1317     1   0.14316 258236.480000
    696    697     1   0.14647 272713.120000
    696    700     1   0.14647 272713.120000
    696    703     1   0.14647 272713.120000
    697    709     1   0.15375 251793.120000
    700    712     1   0.15375 251793.120000
    703    706     1   0.15375 251793.120000
    706    715     1   0.15375 251793.120000
    709    721     1   0.15375 251793.120000
    712    718     1   0.15375 251793.120000
    715    724     1   0.14316 258236.480000
    718   1340     1   0.14316 258236.480000
    721   1363     1   0.14316 258236.480000
    725    726     1   0.14647 272713.120000
    725    729     1   0.14647 272713.120000
    725    732     1   0.14647 272713.120000
    726    738     1   0.15375 251793.120000
    729    741     1   0.15375 251793.120000
    732    735     1   0.15375 251793.120000
    735    744     1   0.15375 251793.120000
    738    750     1   0.15375 251793.120000
    741    747     1   0.15375 251793.120000
    744    753     1   0.14316 258236.480000
    747   1386     1   0.14316 258236.480000
    750   1409     1   0.14316 258236.480000
    754    755     1   0.14647 272713.120000
    754    758     1   0.14647 272713.120000
    754    761     1   0.14647 272713.120000
    755    767     1   0.15375 251793.120000
    758    770     1   0.15375 251793.120000
    761    764     1   0.15375 251793.120000
    764    773     1   0.15375 251793.120000
    767    779     1   0.15375 251793.120000
    770    776     1   0.15375 251793.120000
    773    782     1   0.14316 258236.480000
    776   1432     1   0.14316 258236.480000
    779   1455     1   0.14316 258236.480000
    783    784     1   0.14647 272713.120000
    783    787     1   0.14647 272713.120000
    783    790     1   0.14647 272713.120000
    784    796     1   0.15375 251793.120000
    787    799     1   0.15375 251793.120000
    790    793     1   0.15375 251793.120000
    793    802     1   0.15375 251793.120000
    796    808     1   0.15375 251793.120000
    799    805     1   0.15375 251793.120000
    802    811     1   0.14316 258236.480000
    805   1478     1   0.14316 258236.480000
    808   1501     1   0.14316 258236.480000
    812    813     1   0.14647 272713.120000
    812    816     1   0.14647 272713.120000
    812    819     1   0.14647 272713.120000
    813    825     1   0.15375 251793.120000
    816    828     1   0.15375 251793.120000
    819    822     1   0.15375 251793.120000
    822    831     1   0.15375 251793.120000
    825    837     1   0.15375 251793.120000
    828    834     1   0.15375 251793.120000
    831    840     1   0.14316 258236.480000
    834   1524     1   0.14316 258236.480000
    837   1547     1   0.14316 258236.480000
    841    842     1   0.14647 272713.120000
    841    845     1   0.14647 272713.120000
    841    848     1   0.14647 272713.120000
    842    854     1   0.15375 251793.120000
    845    857     1   0.15375 251793.120000
    848    851     1   0.15375 251793.120000
    851    860     1   0.15375 251793.120000
    854    866     1   0.15375 251793.120000
    857    863     1   0.15375 251793.120000
    860    869     1   0.14316 258236.480000
    863   1570     1   0.14316 258236.480000
    866   1593     1   0.14316 258236.480000
    870    871     1   0.15375 251793.120000
    870    884     1   0.15375 251793.120000
    870    892     1   0.14316 258236.480000
    871    874     1   0.15375 251793.120000
    871    883     1   0.14233 265014.560000
    874    875     1   0.15375 251793.120000
    874    882     1   0.14233 265014.560000
    875    876     1   0.15375 251793.120000
    875    881     1   0.14233 265014.560000
    876    880     1   0.14316 258236.480000
    876    892     1   0.14316 258236.480000
    884    890     1   0.14233 265014.560000
    893    894     1   0.15375 251793.120000
    893    907     1   0.15375 251793.120000
    893    915     1   0.14316 258236.480000
    894    897     1   0.15375 251793.120000
    894    906     1   0.14233 265014.560000
    897    898     1   0.15375 251793.120000
    897    905     1   0.14233 265014.560000
    898    899     1   0.15375 251793.120000
    898    904     1   0.14233 265014.560000
    899    903     1   0.14316 258236.480000
    899    915     1   0.14316 258236.480000
    907    913     1   0.14233 265014.560000
    916    917     1   0.15375 251793.120000
    916    930     1   0.15375 251793.120000
    916    938     1   0.14316 258236.480000
    917    920     1   0.15375 251793.120000
    917    929     1   0.14233 265014.560000
    920    921     1   0.15375 251793.120000
    920    928     1   0.14233 265014.560000
    921    922     1   0.15375 251793.120000
    921    927     1   0.14233 265014.560000
    922    926     1   0.14316 258236.480000
    922    938     1   0.14316 258236.480000
    930    936     1   0.14233 265014.560000
    939    940     1   0.15375 251793.120000
    939    953     1   0.15375 251793.120000
    939    961     1   0.14316 258236.480000
    940    943     1   0.15375 251793.120000
    940    952     1   0.14233 265014.560000
    943    944     1   0.15375 251793.120000
    943    951     1   0.14233 265014.560000
    944    945     1   0.15375 251793.120000
    944    950     1   0.14233 265014.560000
    945    949     1   0.14316 258236.480000
    945    961     1   0.14316 258236.480000
    953    959     1   0.14233 265014.560000
    962    963     1   0.15375 251793.120000
    962    976     1   0.15375 251793.120000
    962    984     1   0.14316 258236.480000
    963    966     1   0.15375 251793.120000
    963    975     1   0.14233 265014.560000
    966    967     1   0.15375 251793.120000
    966    974     1   0.14233 265014.560000
    967    968     1   0.15375 251793.120000
    967    973     1   0.14233 265014.560000
    968    972     1   0.14316 258236.480000
    968    984     1   0.14316 258236.480000
    976    982     1   0.14233 265014.560000
    985    986     1   0.15375 251793.120000
    985    999     1   0.15375 251793.120000
    985   1007     1   0.14316 258236.480000
    986    989     1   0.15375 251793.120000
    986    998     1   0.14233 265014.560000
    989    990     1   0.15375 251793.120000
    989    997     1   0.14233 265014.560000
    990    991     1   0.15375 251793.120000
    990    996     1   0.14233 265014.560000
    991    995     1   0.14316 258236.480000
    991   1007     1   0.14316 258236.480000
    999   1005     1   0.14233 265014.560000
   1008   1009     1   0.15375 251793.120000
   1008   1022     1   0.15375 251793.120000
   1008   1030     1   0.14316 258236.480000
   1009   1012     1   0.15375 251793.120000
   1009   1021     1   0.14233 265014.560000
   1012   1013     1   0.15375 251793.120000
   1012   1020     1   0.14233 265014.560000
   1013   1014     1   0.15375 251793.120000
   1013   1019     1   0.14233 265014.560000
   1014   1018     1   0.14316 258236.480000
   1014   1030     1   0.14316 258236.480000
   1022   1028     1   0.14233 265014.560000
   1031   1032     1   0.15375 251793.120000
   1031   1045     1   0.15375 251793.120000
   1031   1053     1   0.14316 258236.480000
   1032   1035     1   0.15375 251793.120000
   1032   1044     1   0.14233 265014.560000
   1035   1036     1   0.15375 251793.120000
   1035   1043     1   0.14233 265014.560000
   1036   1037     1   0.15375 251793.120000
   1036   1042     1   0.14233 265014.560000
   1037   1041     1   0.14316 258236.480000
   1037   1053     1   0.14316 258236.480000
   1045   1051     1   0.14233 265014.560000
   1054   1055     1   0.15375 251793.120000
   1054   1068     1   0.15375 251793.120000
   1054   1076     1   0.14316 258236.480000
   1055   1058     1   0.15375 251793.120000
   1055   1067     1   0.14233 265014.560000
   1058   1059     1   0.15375 251793.120000
   1058   1066     1   0.14233 265014.560000
   1059   1060     1   0.15375 251793.120000
   1059   1065     1   0.14233 265014.560000
   1060   1064     1   0.14316 258236.480000
   1060   1076     1   0.14316 258236.480000
   1068   1074     1   0.14233 265014.560000
   1077   1078     1   0.15375 251793.120000
   1077   1091     1   0.15375 251793.120000
   1077   1099     1   0.14316 258236.480000
   1078   1081     1   0.15375 251793.120000
   1078   1090     1   0.14233 265014.560000
   1081   1082     1   0.15375 251793.120000
   1081   1089     1   0.14233 265014.560000
   1082   1083     1   0.15375 251793.120000
   1082   1088     1   0.14233 265014.560000
   1083   1087     1   0.14316 258236.480000
   1083   1099     1   0.14316 258236.480000
   1091   1097     1   0.14233 265014.560000
   1100   1101     1   0.15375 251793.120000
   1100   1114     1   0.15375 251793.120000
   1100   1122     1   0.14316 258236.480000
   1101   1104     1   0.15375 251793.120000
   1101   1113     1   0.14233 265014.560000
   1104   1105     1   0.15375 251793.120000
   1104   1112     1   0.14233 265014.560000
   1105   1106     1   0.15375 251793.120000
   1105   1111     1   0.14233 265014.560000
   1106   1110     1   0.14316 258236.480000
   1106   1122     1   0.14316 258236.480000
   1114   1120     1   0.14233 265014.560000
   1123   1124     1   0.15375 251793.120000
   1123   1137     1   0.15375 251793.120000
   1123   1145     1   0.14316 258236.480000
   1124   1127     1   0.15375 251793.120000
   1124   1136     1   0.14233 265014.560000
   1127   1128     1   0.15375 251793.120000
   1127   1135     1   0.14233 265014.560000
   1128   1129     1   0.15375 251793.120000
   1128   1134     1   0.14233 265014.560000
   1129   1133     1   0.14316 258236.480000
   1129   1145     1   0.14316 258236.480000
   1137   1143     1   0.14233 265014.560000
   1146   1147     1   0.15375 251793.120000
   1146   1160     1   0.15375 251793.120000
   1146   1168     1   0.14316 258236.480000
   1147   1150     1   0.15375 251793.120000
   1147   1159     1   0.14233 265014.560000
   1150   1151     1   0.15375 251793.120000
   1150   1158     1   0.14233 265014.560000
   1151   1152     1   0.15375 251793.120000
   1151   1157     1   0.14233 265014.560000
   1152   1156     1   0.14316 258236.480000
   1152   1168     1   0.14316 258236.480000
   1160   1166     1   0.14233 265014.560000
   1169   1170     1   0.15375 251793.120000
   1169   1183     1   0.15375 251793.120000
   1169   1191     1   0.14316 258236.480000
   1170   1173     1   0.15375 251793.120000
   1170   1182     1   0.14233 265014.560000
   1173   1174     1   0.15375 251793.120000
   1173   1181     1   0.14233 265014.560000
   1174   1175     1   0.15375 251793.120000
   1174   1180     1   0.14233 265014.560000
   1175   1179     1   0.14316 258236.480000
   1175   1191     1   0.14316 258236.480000
   1183   1189     1   0.14233 265014.560000
   1192   1193     1   0.15375 251793.120000
   1192   1206     1   0.15375 251793.120000
   1192   1214     1   0.14316 258236.480000
   1193   1196     1   0.15375 251793.120000
   1193   1205     1   0.14233 265014.560000
   1196   1197     1   0.15375 251793.120000
   1196   1204     1   0.14233 265014.560000
   1197   1198     1   0.15375 251793.120000
   1197   1203     1   0.14233 265014.560000
   1198   1202     1   0.14316 258236.480000
   1198   1214     1   0.14316 258236.480000
   1206   1212     1   0.14233 265014.560000
   1215   1216     1   0.15375 251793.120000
   1215   1229     1   0.15375 251793.120000
   1215   1237     1   0.14316 258236.480000
   1216   1219     1   0.15375 251793.120000
   1216   1228     1   0.14233 265014.560000
   1219   1220     1   0.15375 251793.120000
   1219   1227     1   0.14233 265014.560000
   1220   1221     1   0.15375 251793.120000
   1220   1226     1   0.14233 265014.560000
   1221   1225     1   0.14316 258236.480000
   1221   1237     1   0.14316 258236.480000
   1229   1235     1   0.14233 265014.560000
   1238   1239     1   0.15375 251793.120000
   1238   1252     1   0.15375 251793.120000
   1238   1260     1   0.14316 258236.480000
   1239   1242     1   0.15375 251793.120000
   1239   1251     1   0.14233 265014.560000
   1242   1243     1   0.15375 251793.120000
   1242   1250     1   0.14233 265014.560000
   1243   1244     1   0.15375 251793.120000
   1243   1249     1   0.14233 265014.560000
   1244   1248     1   0.14316 258236.480000
   1244   1260     1   0.14316 258236.480000
   1252   1258     1   0.14233 265014.560000
   1261   1262     1   0.15375 251793.120000
   1261   1275     1   0.15375 251793.120000
   1261   1283     1   0.14316 258236.480000
   1262   1265     1   0.15375 251793.120000
   1262   1274     1   0.14233 265014.560000
   1265   1266     1   0.15375 251793.120000
   1265   1273     1   0.14233 265014.560000
   1266   1267     1   0.15375 251793.120000
   1266   1272     1   0.14233 265014.560000
   1267   1271     1   0.14316 258236.480000
   1267   1283     1   0.14316 258236.480000
   1275   1281     1   0.14233 265014.560000
   1284   1285     1   0.15375 251793.120000
   1284   1298     1   0.15375 251793.120000
   1284   1306     1   0.14316 258236.480000
   1285   1288     1   0.15375 251793.120000
   1285   1297     1   0.14233 265014.560000
   1288   1289     1   0.15375 251793.120000
   1288   1296     1   0.14233 265014.560000
   1289   1290     1   0.15375 251793.120000
   1289   1295     1   0.14233 265014.560000
   1290   1294     1   0.14316 258236.480000
   1290   1306     1   0.14316 258236.480000
   1298   1304     1   0.14233 265014.560000
   1307   1308     1   0.15375 251793.120000
   1307   1321     1   0.15375 251793.120000
   1307   1329     1   0.14316 258236.480000
   1308   1311     1   0.15375 251793.120000
   1308   1320     1   0.14233 265014.560000
   1311   1312     1   0.15375 251793.120000
   1311   1319     1   0.14233 265014.560000
   1312   1313     1   0.15375 251793.120000
   1312   1318     1   0.14233 265014.560000
   1313   1317     1   0.14316 258236.480000
   1313   1329     1   0.14316 258236.480000
   1321   1327     1   0.14233 265014.560000
   1330   1331     1   0.15375 251793.120000
   1330   1344     1   0.15375 251793.120000
   1330   1352     1   0.14316 258236.480000
   1331   1334     1   0.15375 251793.120000
   1331   1343     1   0.14233 265014.560000
   1334   1335     1   0.15375 251793.120000
   1334   1342     1   0.14233 265014.560000
   1335   1336     1   0.15375 251793.120000
   1335   1341     1   0.14233 265014.560000
   1336   1340     1   0.14316 258236.480000
   1336   1352     1   0.14316 258236.480000
   1344   1350     1   0.14233 265014.560000
   1353   1354     1   0.15375 251793.120000
   1353   1367     1   0.15375 251793.120000
   1353   1375     1   0.14316 258236.480000
   1354   1357     1   0.15375 251793.120000
   1354   1366     1   0.14233 265014.560000
   1357   1358     1   0.15375 251793.120000
   1357   1365     1   0.14233 265014.560000
   1358   1359     1   0.15375 251793.120000
   1358   1364     1   0.14233 265014.560000
   1359   1363     1   0.14316 258236.480000
   1359   1375     1   0.14316 258236.480000
   1367   1373     1   0.14233 265014.560000
   1376   1377     1   0.15375 251793.120000
   1376   1390     1   0.15375 251793.120000
   1376   1398     1   0.14316 258236.480000
   1377   1380     1   0.15375 251793.120000
   1377   1389     1   0.14233 265014.560000
   1380   1381     1   0.15375 251793.120000
   1380   1388     1   0.14233 265014.560000
   1381   1382     1   0.15375 251793.120000
   1381   1387     1   0.14233 265014.560000
   1382   1386     1   0.14316 258236.480000
   1382   1398     1   0.14316 258236.480000
   1390   1396     1   0.14233 265014.560000
   1399   1400     1   0.15375 251793.120000
   1399   1413     1   0.15375 251793.120000
   1399   1421     1   0.14316 258236.480000
   1400   1403     1   0.15375 251793.120000
   1400   1412     1   0.14233 265014.560000
   1403   1404     1   0.15375 251793.120000
   1403   1411     1   0.14233 265014.560000
   1404   1405     1   0.15375 251793.120000
   1404   1410     1   0.14233 265014.560000
   1405   1409     1   0.14316 258236.480000
   1405   1421     1   0.14316 258236.480000
   1413   1419     1   0.14233 265014.560000
   1422   1423     1   0.15375 251793.120000
   1422   1436     1   0.15375 251793.120000
   1422   1444     1   0.14316 258236.480000
   1423   1426     1   0.15375 251793.120000
   1423   1435     1   0.14233 265014.560000
   1426   1427     1   0.15375 251793.120000
   1426   1434     1   0.14233 265014.560000
   1427   1428     1   0.15375 251793.120000
   1427   1433     1   0.14233 265014.560000
   1428   1432     1   0.14316 258236.480000
   1428   1444     1   0.14316 258236.480000
   1436   1442     1   0.14233 265014.560000
   1445   1446     1   0.15375 251793.120000
   1445   1459     1   0.15375 251793.120000
   1445   1467     1   0.14316 258236.480000
   1446   1449     1   0.15375 251793.120000
   1446   1458     1   0.14233 265014.560000
   1449   1450     1   0.15375 251793.120000
   1449   1457     1   0.14233 265014.560000
   1450   1451     1   0.15375 251793.120000
   1450   1456     1   0.14233 265014.560000
   1451   1455     1   0.14316 258236.480000
   1451   1467     1   0.14316 258236.480000
   1459   1465     1   0.14233 265014.560000
   1468   1469     1   0.15375 251793.120000
   1468   1482     1   0.15375 251793.120000
   1468   1490     1   0.14316 258236.480000
   1469   1472     1   0.15375 251793.120000
   1469   1481     1   0.14233 265014.560000
   1472   1473     1   0.15375 251793.120000
   1472   1480     1   0.14233 265014.560000
   1473   1474     1   0.15375 251793.120000
   1473   1479     1   0.14233 265014.560000
   1474   1478     1   0.14316 258236.480000
   1474   1490     1   0.14316 258236.480000
   1482   1488     1   0.14233 265014.560000
   1491   1492     1   0.15375 251793.120000
   1491   1505     1   0.15375 251793.120000
   1491   1513     1   0.14316 258236.480000
   1492   1495     1   0.15375 251793.120000
   1492   1504     1   0.14233 265014.560000
   1495   1496     1   0.15375 251793.120000
   1495   1503     1   0.14233 265014.560000
   1496   1497     1   0.15375 251793.120000
   1496   1502     1   0.14233 265014.560000
   1497   1501     1   0.14316 258236.480000
   1497   1513     1   0.14316 258236.480000
   1505   1511     1   0.14233 265014.560000
   1514   1515     1   0.15375 251793.120000
   1514   1528     1   0.15375 251793.120000
   1514   1536     1   0.14316 258236.480000
   1515   1518     1   0.15375 251793.120000
   1515   1527     1   0.14233 265014.560000
   1518   1519     1   0.15375 251793.120000
   1518   1526     1   0.14233 265014.560000
   1519   1520     1   0.15375 251793.120000
   1519   1525     1   0.14233 265014.560000
   1520   1524     1   0.14316 258236.480000
   1520   1536     1   0.14316 258236.480000
   1528   1534     1   0.14233 265014.560000
   1537   1538     1   0.15375 251793.120000
   1537   1551     1   0.15375 251793.120000
   1537   1559     1   0.14316 258236.480000
   1538   1541     1   0.15375 251793.120000
   1538   1550     1   0.14233 265014.560000
   1541   1542     1   0.15375 251793.120000
   1541   1549     1   0.14233 265014.560000
   1542   1543     1   0.15375 251793.120000
   1542   1548     1   0.14233 265014.560000
   1543   1547     1   0.14316 258236.480000
   1543   1559     1   0.14316 258236.480000
   1551   1557     1   0.14233 265014.560000
   1560   1561     1   0.15375 251793.120000
   1560   1574     1   0.15375 251793.120000
   1560   1582     1   0.14316 258236.480000
   1561   1564     1   0.15375 251793.120000
   1561   1573     1   0.14233 265014.560000
   1564   1565     1   0.15375 251793.120000
   1564   1572     1   0.14233 265014.560000
   1565   1566     1   0.15375 251793.120000
   1565   1571     1   0.14233 265014.560000
   1566   1570     1   0.14316 258236.480000
   1566   1582     1   0.14316 258236.480000
   1574   1580     1   0.14233 265014.560000
   1583   1584     1   0.15375 251793.120000
   1583   1597     1   0.15375 251793.120000
   1583   1605     1   0.14316 258236.480000
   1584   1587     1   0.15375 251793.120000
   1584   1596     1   0.14233 265014.560000
   1587   1588     1   0.15375 251793.120000
   1587   1595     1   0.14233 265014.560000
   1588   1589     1   0.15375 251793.120000
   1588   1594     1   0.14233 265014.560000
   1589   1593     1   0.14316 258236.480000
   1589   1605     1   0.14316 258236.480000
   1597   1603     1   0.14233 265014.560000
      2      3     1   0.10969 276646.080000
      2      4     1   0.10969 276646.080000
      5      6     1   0.10969 276646.080000
      5      7     1   0.10969 276646.080000
      8      9     1   0.10969 276646.080000
      8     10     1   0.10969 276646.080000
     11     12     1   0.10969 276646.080000
     11     13     1   0.10969 276646.080000
     14     15     1   0.10969 276646.080000
     14     16     1   0.10969 276646.080000
     17     18     1   0.10969 276646.080000
     17     19     1   0.10969 276646.080000
     22     23     1   0.10969 276646.080000
     22     24     1   0.10969 276646.080000
     25     26     1   0.10969 276646.080000
     25     27     1   0.10969 276646.080000
     28     29     1   0.10969 276646.080000
     28     30     1   0.10969 276646.080000
     31     32     1   0.10969 276646.080000
     31     33     1   0.10969 276646.080000
     34     35     1   0.10969 276646.080000
     34     36     1   0.10969 276646.080000
     37     38     1   0.10969 276646.080000
     37     39     1   0.10969 276646.080000
     40     41     1   0.10969 276646.080000
     40     42     1   0.10969 276646.080000
     43     44     1   0.10969 276646.080000
     43     45     1   0.10969 276646.080000
     46     47     1   0.10969 276646.080000
     46     48     1   0.10969 276646.080000
     49     50     1   0.10969 276646.080000
     49     51     1   0.10969 276646.080000
     52     53     1   0.10969 276646.080000
     52     54     1   0.10969 276646.080000
     55     56     1   0.10969 276646.080000
     55     57     1   0.10969 276646.080000
     59     60     1   0.10969 276646.080000
     59     61     1   0.10969 276646.080000
     62     63     1   0.10969 276646.080000
     62     64     1   0.10969 276646.080000
     65     66     1   0.10969 276646.080000
     65     67     1   0.10969 276646.080000
     68     69     1   0.10969 276646.080000
     68     70     1   0.10969 276646.080000
     71     72     1   0.10969 276646.080000
     71     73     1   0.10969 276646.080000
     74     75     1   0.10969 276646.080000
     74     76     1   0.10969 276646.080000
     77     78     1   0.10969 276646.080000
     77     79     1   0.10969 276646.080000
     80     81     1   0.10969 276646.080000
     80     82     1   0.10969 276646.080000
     83     84     1   0.10969 276646.080000
     83     85     1   0.10969 276646.080000
     88     89     1   0.10969 276646.080000
     88     90     1   0.10969 276646.080000
     91     92     1   0.10969 276646.080000
     91     93     1   0.10969 276646.080000
     94     95     1   0.10969 276646.080000
     94     96     1   0.10969 276646.080000
     97     98     1   0.10969 276646.080000
     97     99     1   0.10969 276646.080000
    100    101     1   0.10969 276646.080000
    100    102     1   0.10969 276646.080000
    103    104     1   0.10969 276646.080000
    103    105     1   0.10969 276646.080000
    106    107     1   0.10969 276646.080000
    106    108     1   0.10969 276646.080000
    109    110     1   0.10969 276646.080000
    109    111     1   0.10969 276646.080000
    112    113     1   0.10969 276646.080000
    112    114     1   0.10969 276646.080000
    117    118     1   0.10969 276646.080000
    117    119     1   0.10969 276646.080000
    120    121     1   0.10969 276646.080000
    120    122     1   0.10969 276646.080000
    123    124     1   0.10969 276646.080000
    123    125     1   0.10969 276646.080000
    126    127     1   0.10969 276646.080000
    126    128     1   0.10969 276646.080000
    129    130     1   0.10969 276646.080000
    129    131     1   0.10969 276646.080000
    132    133     1   0.10969 276646.080000
    132    134     1   0.10969 276646.080000
    135    136     1   0.10969 276646.080000
    135    137     1   0.10969 276646.080000
    138    139     1   0.10969 276646.080000
    138    140     1   0.10969 276646.080000
    141    142     1   0.10969 276646.080000
    141    143     1   0.10969 276646.080000
    146    147     1   0.10969 276646.080000
    146    148     1   0.10969 276646.080000
    149    150     1   0.10969 276646.080000
    149    151     1   0.10969 276646.080000
    152    153     1   0.10969 276646.080000
    152    154     1   0.10969 276646.080000
    155    156     1   0.10969 276646.080000
    155    157     1   0.10969 276646.080000
    158    159     1   0.10969 276646.080000
    158    160     1   0.10969 276646.080000
    161    162     1   0.10969 276646.080000
    161    163     1   0.10969 276646.080000
    164    165     1   0.10969 276646.080000
    164    166     1   0.10969 276646.080000
    167    168     1   0.10969 276646.080000
    167    169     1   0.10969 276646.080000
    170    171     1   0.10969 276646.080000
    170    172     1   0.10969 276646.080000
    175    176     1   0.10969 276646.080000
    175    177     1   0.10969 276646.080000
    178    179     1   0.10969 276646.080000
    178    180     1   0.10969 276646.080000
    181    182     1   0.10969 276646.080000
    181    183     1   0.10969 276646.080000
    184    185     1   0.10969 276646.080000
    184    186     1   0.10969 276646.080000
    187    188     1   0.10969 276646.080000
    187    189     1   0.10969 276646.080000
    190    191     1   0.10969 276646.080000
    190    192     1   0.10969 276646.080000
    193    194     1   0.10969 276646.080000
    193    195     1   0.10969 276646.080000
    196    197     1   0.10969 276646.080000
    196    198     1   0.10969 276646.080000
    199    200     1   0.10969 276646.080000
    199    201     1   0.10969 276646.080000
    204    205     1   0.10969 276646.080000
    204    206     1   0.10969 276646.080000
    207    208     1   0.10969 276646.080000
    207    209     1   0.10969 276646.080000
    210    211     1   0.10969 276646.080000
    210    212     1   0.10969 276646.080000
    213    214     1   0.10969 276646.080000
    213    215     1   0.10969 276646.080000
    216    217     1   0.10969 276646.080000
    216    218     1   0.10969 276646.080000
    219    220     1   0.10969 276646.080000
    219    221     1   0.10969 276646.080000
    222    223     1   0.10969 276646.080000
    222    224     1   0.10969 276646.080000
    225    226     1   0.10969 276646.080000
    225    227     1   0.10969 276646.080000
    228    229     1   0.10969 276646.080000
    228    230     1   0.10969 276646.080000
    233    234     1   0.10969 276646.080000
    233    235     1   0.10969 276646.080000
    236    237     1   0.10969 276646.080000
    236    238     1   0.10969 276646.080000
    239    240     1   0.10969 276646.080000
    239    241     1   0.10969 276646.080000
    242    243     1   0.10969 276646.080000
    242    244     1   0.10969 276646.080000
    245    246     1   0.10969 276646.080000
    245    247     1   0.10969 276646.080000
    248    249     1   0.10969 276646.080000
    248    250     1   0.10969 276646.080000
    251    252     1   0.10969 276646.080000
    251    253     1   0.10969 276646.080000
    254    255     1   0.10969 276646.080000
    254    256     1   0.10969 276646.080000
    257    258     1   0.10969 276646.080000
    257    259     1   0.10969 276646.080000
    262    263     1   0.10969 276646.080000
    262    264     1   0.10969 276646.080000
    265    266     1   0.10969 276646.080000
    265    267     1   0.10969 276646.080000
    268    269     1   0.10969 276646.080000
    268    270     1   0.10969 276646.080000
    271    272     1   0.10969 276646.080000
    271    273     1   0.10969 276646.080000
    274    275     1   0.10969 276646.080000
    274    276     1   0.10969 276646.080000
    277    278     1   0.10969 276646.080000
    277    279     1   0.10969 276646.080000
    280    281     1   0.10969 276646.080000
    280    282     1   0.10969 276646.080000
    283    284     1   0.10969 276646.080000
    283    285     1   0.10969 276646.080000
    286    287     1   0.10969 276646.080000
    286    288     1   0.10969 276646.080000
    291    292     1   0.10969 276646.080000
    291    293     1   0.10969 276646.080000
    294    295     1   0.10969 276646.080000
    294    296     1   0.10969 276646.080000
    297    298     1   0.10969 276646.080000
    297    299     1   0.10969 276646.080000
    300    301     1   0.10969 276646.080000
    300    302     1   0.10969 276646.080000
    303    304     1   0.10969 276646.080000
    303    305     1   0.10969 276646.080000
    306    307     1   0.10969 276646.080000
    306    308     1   0.10969 276646.080000
    309    310     1   0.10969 276646.080000
    309    311     1   0.10969 276646.080000
    312    313     1   0.10969 276646.080000
    312    314     1   0.10969 276646.080000
    315    316     1   0.10969 276646.080000
    315    317     1   0.10969 276646.080000
    320    321     1   0.10969 276646.080000
    320    322     1   0.10969 276646.080000
    323    324     1   0.10969 276646.080000
    323    325     1   0.10969 276646.080000
    326    327     1   0.10969 276646.080000
    326    328     1   0.10969 276646.080000
    329    330     1   0.10969 276646.080000
    329    331     1   0.10969 276646.080000
    332    333     1   0.10969 276646.080000
    332    334     1   0.10969 276646.080000
    335    336     1   0.10969 276646.080000
    335    337     1   0.10969 276646.080000
    338    339     1   0.10969 276646.080000
    338    340     1   0.10969 276646.080000
    341    342     1   0.10969 276646.080000
    341    343     1   0.10969 276646.080000
    344    345     1   0.10969 276646.080000
    344    346     1   0.10969 276646.080000
    349    350     1   0.10969 276646.080000
    349    351     1   0.10969 276646.080000
    352    353     1   0.10969 276646.080000
    352    354     1   0.10969 276646.080000
    355    356     1   0.10969 276646.080000
    355    357     1   0.10969 276646.080000
    358    359     1   0.10969 276646.080000
    358    360     1   0.10969 276646.080000
    361    362     1   0.10969 276646.080000
    361    363     1   0.10969 276646.080000
    364    365     1   0.10969 276646.080000
    364    366     1   0.10969 276646.080000
    367    368     1   0.10969 276646.080000
    367    369     1   0.10969 276646.080000
    370    371     1   0.10969 276646.080000
    370    372     1   0.10969 276646.080000
    373    374     1   0.10969 276646.080000
    373    375     1   0.10969 276646.080000
    378    379     1   0.10969 276646.080000
    378    380     1   0.10969 276646.080000
    381    382     1   0.10969 276646.080000
    381    383     1   0.10969 276646.080000
    384    385     1   0.10969 276646.080000
    384    386     1   0.10969 276646.080000
    387    388     1   0.10969 276646.080000
    387    389     1   0.10969 276646.080000
    390    391     1   0.10969 276646.080000
    390    392     1   0.10969 276646.080000
    393    394     1   0.10969 276646.080000
    393    395     1   0.10969 276646.080000
    396    397     1   0.10969 276646.080000
    396    398     1   0.10969 276646.080000
    399    400     1   0.10969 276646.080000
    399    401     1   0.10969 276646.080000
    402    403     1   0.10969 276646.080000
    402    404     1   0.10969 276646.080000
    407    408     1   0.10969 276646.080000
    407    409     1   0.10969 276646.080000
    410    411     1   0.10969 276646.080000
    410    412     1   0.10969 276646.080000
    413    414     1   0.10969 276646.080000
    413    415     1   0.10969 276646.080000
    416    417     1   0.10969 276646.080000
    416    418     1   0.10969 276646.080000
    419    420     1   0.10969 276646.080000
    419    421     1   0.10969 276646.080000
    422    423     1   0.10969 276646.080000
    422    424     1   0.10969 276646.080000
    425    426     1   0.10969 276646.080000
    425    427     1   0.10969 276646.080000
    428    429     1   0.10969 276646.080000
    428    430     1   0.10969 276646.080000
    431    432     1   0.10969 276646.080000
    431    433     1   0.10969 276646.080000
    436    437     1   0.10969 276646.080000
    436    438     1   0.10969 276646.080000
    439    440     1   0.10969 276646.080000
    439    441     1   0.10969 276646.080000
    442    443     1   0.10969 276646.080000
    442    444     1   0.10969 276646.080000
    445    446     1   0.10969 276646.080000
    445    447     1   0.10969 276646.080000
    448    449     1   0.10969 276646.080000
    448    450     1   0.10969 276646.080000
    451    452     1   0.10969 276646.080000
    451    453     1   0.10969 276646.080000
    454    455     1   0.10969 276646.080000
    454    456     1   0.10969 276646.080000
    457    458     1   0.10969 276646.080000
    457    459     1   0.10969 276646.080000
    460    461     1   0.10969 276646.080000
    460    462     1   0.10969 276646.080000
    465    466     1   0.10969 276646.080000
    465    467     1   0.10969 276646.080000
    468    469     1   0.10969 276646.080000
    468    470     1   0.10969 276646.080000
    471    472     1   0.10969 276646.080000
    471    473     1   0.10969 276646.080000
    474    475     1   0.10969 276646.080000
    474    476     1   0.10969 276646.080000
    477    478     1   0.10969 276646.080000
    477    479     1   0.10969 276646.080000
    480    481     1   0.10969 276646.080000
    480    482     1   0.10969 276646.080000
    483    484     1   0.10969 276646.080000
    483    485     1   0.10969 276646.080000
    486    487     1   0.10969 276646.080000
    486    488     1   0.10969 276646.080000
    489    490     1   0.10969 276646.080000
    489    491     1   0.10969 276646.080000
    494    495     1   0.10969 276646.080000
    494    496     1   0.10969 276646.080000
    497    498     1   0.10969 276646.080000
    497    499     1   0.10969 276646.080000
    500    501     1   0.10969 276646.080000
    500    502     1   0.10969 276646.080000
    503    504     1   0.10969 276646.080000
    503    505     1   0.10969 276646.080000
    506    507     1   0.10969 276646.080000
    506    508     1   0.10969 276646.080000
    509    510     1   0.10969 276646.080000
    509    511     1   0.10969 276646.080000
    512    513     1   0.10969 276646.080000
    512    514     1   0.10969 276646.080000
    515    516     1   0.10969 276646.080000
    515    517     1   0.10969 276646.080000
    518    519     1   0.10969 276646.080000
    518    520     1   0.10969 276646.080000
    523    524     1   0.10969 276646.080000
    523    525     1   0.10969 276646.080000
    526    527     1   0.10969 276646.080000
    526    528     1   0.10969 276646.080000
    529    530     1   0.10969 276646.080000
    529    531     1   0.10969 276646.080000
    532    533     1   0.10969 276646.080000
    532    534     1   0.10969 276646.080000
    535    536     1   0.10969 276646.080000
    535    537     1   0.10969 276646.080000
    538    539     1   0.10969 276646.080000
    538    540     1   0.10969 276646.080000
    541    542     1   0.10969 276646.080000
    541    543     1   0.10969 276646.080000
    544    545     1   0.10969 276646.080000
    544    546     1   0.10969 276646.080000
    547    548     1   0.10969 276646.080000
    547    549     1   0.10969 276646.080000
    552    553     1   0.10969 276646.080000
    552    554     1   0.10969 276646.080000
    555    556     1   0.10969 276646.080000
    555    557     1   0.10969 276646.080000
    558    559     1   0.10969 276646.080000
    558    560     1   0.10969 276646.080000
    561    562     1   0.10969 276646.080000
    561    563     1   0.10969 276646.080000
    564    565     1   0.10969 276646.080000
    564    566     1   0.10969 276646.080000
    567    568     1   0.10969 276646.080000
    567    569     1   0.10969 276646.080000
    570    571     1   0.10969 276646.080000
    570    572     1   0.10969 276646.080000
    573    574     1   0.10969 276646.080000
    573    575     1   0.10969 276646.080000
    576    577     1   0.10969 276646.080000
    576    578     1   0.10969 276646.080000
    581    582     1   0.10969 276646.080000
    581    583     1   0.10969 276646.080000
    584    585     1   0.10969 276646.080000
    584    586     1   0.10969 276646.080000
    587    588     1   0.10969 276646.080000
    587    589     1   0.10969 276646.080000
    590    591     1   0.10969 276646.080000
    590    592     1   0.10969 276646.080000
    593    594     1   0.10969 276646.080000
    593    595     1   0.10969 276646.080000
    596    597     1   0.10969 276646.080000
    596    598     1   0.10969 276646.080000
    599    600     1   0.10969 276646.080000
    599    601     1   0.10969 276646.080000
    602    603     1   0.10969 276646.080000
    602    604     1   0.10969 276646.080000
    605    606     1   0.10969 276646.080000
    605    607     1   0.10969 276646.080000
    610    611     1   0.10969 276646.080000
    610    612     1   0.10969 276646.080000
    613    614     1   0.10969 276646.080000
    613    615     1   0.10969 276646.080000
    616    617     1   0.10969 276646.080000
    616    618     1   0.10969 276646.080000
    619    620     1   0.10969 276646.080000
    619    621     1   0.10969 276646.080000
    622    623     1   0.10969 276646.080000
    622    624     1   0.10969 276646.080000
    625    626     1   0.10969 276646.080000
    625    627     1   0.10969 276646.080000
    628    629     1   0.10969 276646.080000
    628    630     1   0.10969 276646.080000
    631    632     1   0.10969 276646.080000
    631    633     1   0.10969 276646.080000
    634    635     1   0.10969 276646.080000
    634    636     1   0.10969 276646.080000
    639    640     1   0.10969 276646.080000
    639    641     1   0.10969 276646.080000
    642    643     1   0.10969 276646.080000
    642    644     1   0.10969 276646.080000
    645    646     1   0.10969 276646.080000
    645    647     1   0.10969 276646.080000
    648    649     1   0.10969 276646.080000
    648    650     1   0.10969 276646.080000
    651    652     1   0.10969 276646.080000
    651    653     1   0.10969 276646.080000
    654    655     1   0.10969 276646.080000
    654    656     1   0.10969 276646.080000
    657    658     1   0.10969 276646.080000
    657    659     1   0.10969 276646.080000
    660    661     1   0.10969 276646.080000
    660    662     1   0.10969 276646.080000
    663    664     1   0.10969 276646.080000
    663    665     1   0.10969 276646.080000
    668    669     1   0.10969 276646.080000
    668    670     1   0.10969 276646.080000
    671    672     1   0.10969 276646.080000
    671    673     1   0.10969 276646.080000
    674    675     1   0.10969 276646.080000
    674    676     1   0.10969 276646.080000
    677    678     1   0.10969 276646.080000
    677    679     1   0.10969 276646.080000
    680    681     1   0.10969 276646.080000
    680    682     1   0.10969 276646.080000
    683    684     1   0.10969 276646.080000
    683    685     1   0.10969 276646.080000
    686    687     1   0.10969 276646.080000
    686    688     1   0.10969 276646.080000
    689    690     1   0.10969 276646.080000
    689    691     1   0.10969 276646.080000
    692    693     1   0.10969 276646.080000
    692    694     1   0.10969 276646.080000
    697    698     1   0.10969 276646.080000
    697    699     1   0.10969 276646.080000
    700    701     1   0.10969 276646.080000
    700    702     1   0.10969 276646.080000
    703    704     1   0.10969 276646.080000
    703    705     1   0.10969 276646.080000
    706    707     1   0.10969 276646.080000
    706    708     1   0.10969 276646.080000
    709    710     1   0.10969 276646.080000
    709    711     1   0.10969 276646.080000
    712    713     1   0.10969 276646.080000
    712    714     1   0.10969 276646.080000
    715    716     1   0.10969 276646.080000
    715    717     1   0.10969 276646.080000
    718    719     1   0.10969 276646.080000
    718    720     1   0.10969 276646.080000
    721    722     1   0.10969 276646.080000
    721    723     1   0.10969 276646.080000
    726    727     1   0.10969 276646.080000
    726    728     1   0.10969 276646.080000
    729    730     1   0.10969 276646.080000
    729    731     1   0.10969 276646.080000
    732    733     1   0.10969 276646.080000
    732    734     1   0.10969 276646.080000
    735    736     1   0.10969 276646.080000
    735    737     1   0.10969 276646.080000
    738    739     1   0.10969 276646.080000
    738    740     1   0.10969 276646.080000
    741    742     1   0.10969 276646.080000
    741    743     1   0.10969 276646.080000
    744    745     1   0.10969 276646.080000
    744    746     1   0.10969 276646.080000
    747    748     1   0.10969 276646.080000
    747    749     1   0.10969 276646.080000
    750    751     1   0.10969 276646.080000
    750    752     1   0.10969 276646.080000
    755    756     1   0.10969 276646.080000
    755    757     1   0.10969 276646.080000
    758    759     1   0.10969 276646.080000
    758    760     1   0.10969 276646.080000
    761    762     1   0.10969 276646.080000
    761    763     1   0.10969 276646.080000
    764    765     1   0.10969 276646.080000
    764    766     1   0.10969 276646.080000
    767    768     1   0.10969 276646.080000
    767    769     1   0.10969 276646.080000
    770    771     1   0.10969 276646.080000
    770    772     1   0.10969 276646.080000
    773    774     1   0.10969 276646.080000
    773    775     1   0.10969 276646.080000
    776    777     1   0.10969 276646.080000
    776    778     1   0.10969 276646.080000
    779    780     1   0.10969 276646.080000
    779    781     1   0.10969 276646.080000
    784    785     1   0.10969 276646.080000
    784    786     1   0.10969 276646.080000
    787    788     1   0.10969 276646.080000
    787    789     1   0.10969 276646.080000
    790    791     1   0.10969 276646.080000
    790    792     1   0.10969 276646.080000
    793    794     1   0.10969 276646.080000
    793    795     1   0.10969 276646.080000
    796    797     1   0.10969 276646.080000
    796    798     1   0.10969 276646.080000
    799    800     1   0.10969 276646.080000
    799    801     1   0.10969 276646.080000
    802    803     1   0.10969 276646.080000
    802    804     1   0.10969 276646.080000
    805    806     1   0.10969 276646.080000
    805    807     1   0.10969 276646.080000
    808    809     1   0.10969 276646.080000
    808    810     1   0.10969 276646.080000
    813    814     1   0.10969 276646.080000
    813    815     1   0.10969 276646.080000
    816    817     1   0.10969 276646.080000
    816    818     1   0.10969 276646.080000
    819    820     1   0.10969 276646.080000
    819    821     1   0.10969 276646.080000
    822    823     1   0.10969 276646.080000
    822    824     1   0.10969 276646.080000
    825    826     1   0.10969 276646.080000
    825    827     1   0.10969 276646.080000
    828    829     1   0.10969 276646.080000
    828    830     1   0.10969 276646.080000
    831    832     1   0.10969 276646.080000
    831    833     1   0.10969 276646.080000
    834    835     1   0.10969 276646.080000
    834    836     1   0.10969 276646.080000
    837    838     1   0.10969 276646.080000
    837    839     1   0.10969 276646.080000
    842    843     1   0.10969 276646.080000
    842    844     1   0.10969 276646.080000
    845    846     1   0.10969 276646.080000
    845    847     1   0.10969 276646.080000
    848    849     1   0.10969 276646.080000
    848    850     1   0.10969 276646.080000
    851    852     1   0.10969 276646.080000
    851    853     1   0.10969 276646.080000
    854    855     1   0.10969 276646.080000
    854    856     1   0.10969 276646.080000
    857    858     1   0.10969 276646.080000
    857    859     1   0.10969 276646.080000
    860    861     1   0.10969 276646.080000
    860    862     1   0.10969 276646.080000
    863    864     1   0.10969 276646.080000
    863    865     1   0.10969 276646.080000
    866    867     1   0.10969 276646.080000
    866    868     1   0.10969 276646.080000
    870    872     1   0.10969 276646.080000
    871    873     1   0.10969 276646.080000
    874    878     1   0.10969 276646.080000
    875    877     1   0.10969 276646.080000
    876    879     1   0.10961 277566.560000
    881    887     1   0.09730 310787.520000
    882    885     1   0.09730 310787.520000
    883    886     1   0.09730 310787.520000
    884    888     1   0.10969 276646.080000
    884    889     1   0.10969 276646.080000
    890    891     1   0.09730 310787.520000
    893    895     1   0.10969 276646.080000
    894    896     1   0.10969 276646.080000
    897    901     1   0.10969 276646.080000
    898    900     1   0.10969 276646.080000
    899    902     1   0.10961 277566.560000
    904    910     1   0.09730 310787.520000
    905    908     1   0.09730 310787.520000
    906    909     1   0.09730 310787.520000
    907    911     1   0.10969 276646.080000
    907    912     1   0.10969 276646.080000
    913    914     1   0.09730 310787.520000
    916    918     1   0.10969 276646.080000
    917    919     1   0.10969 276646.080000
    920    924     1   0.10969 276646.080000
    921    923     1   0.10969 276646.080000
    922    925     1   0.10961 277566.560000
    927    933     1   0.09730 310787.520000
    928    931     1   0.09730 310787.520000
    929    932     1   0.09730 310787.520000
    930    934     1   0.10969 276646.080000
    930    935     1   0.10969 276646.080000
    936    937     1   0.09730 310787.520000
    939    941     1   0.10969 276646.080000
    940    942     1   0.10969 276646.080000
    943    947     1   0.10969 276646.080000
    944    946     1   0.10969 276646.080000
    945    948     1   0.10961 277566.560000
    950    956     1   0.09730 310787.520000
    951    954     1   0.09730 310787.520000
    952    955     1   0.09730 310787.520000
    953    957     1   0.10969 276646.080000
    953    958     1   0.10969 276646.080000
    959    960     1   0.09730 310787.520000
    962    964     1   0.10969 276646.080000
    963    965     1   0.10969 276646.080000
    966    970     1   0.10969 276646.080000
    967    969     1   0.10969 276646.080000
    968    971     1   0.10961 277566.560000
    973    979     1   0.09730 310787.520000
    974    977     1   0.09730 310787.520000
    975    978     1   0.09730 310787.520000
    976    980     1   0.10969 276646.080000
    976    981     1   0.10969 276646.080000
    982    983     1   0.09730 310787.520000
    985    987     1   0.10969 276646.080000
    986    988     1   0.10969 276646.080000
    989    993     1   0.10969 276646.080000
    990    992     1   0.10969 276646.080000
    991    994     1   0.10961 277566.560000
    996   1002     1   0.09730 310787.520000
    997   1000     1   0.09730 310787.520000
    998   1001     1   0.09730 310787.520000
    999   1003     1   0.10969 276646.080000
    999   1004     1   0.10969 276646.080000
   1005   1006     1   0.09730 310787.520000
   1008   1010     1   0.10969 276646.080000
   1009   1011     1   0.10969 276646.080000
   1012   1016     1   0.10969 276646.080000
   1013   1015     1   0.10969 276646.080000
   1014   1017     1   0.10961 277566.560000
   1019   1025     1   0.09730 310787.520000
   1020   1023     1   0.09730 310787.520000
   1021   1024     1   0.09730 310787.520000
   1022   1026     1   0.10969 276646.080000
   1022   1027     1   0.10969 276646.080000
   1028   1029     1   0.09730 310787.520000
   1031   1033     1   0.10969 276646.080000
   1032   1034     1   0.10969 276646.080000
   1035   1039     1   0.10969 276646.080000
   1036   1038     1   0.10969 276646.080000
   1037   1040     1   0.10961 277566.560000
   1042   1048     1   0.09730 310787.520000
   1043   1046     1   0.09730 310787.520000
   1044   1047     1   0.09730 310787.520000
   1045   1049     1   0.10969 276646.080000
   1045   1050     1   0.10969 276646.080000
   1051   1052     1   0.09730 310787.520000
   1054   1056     1   0.10969 276646.080000
   1055   1057     1   0.10969 276646.080000
   1058   1062     1   0.10969 276646.080000
   1059   1061     1   0.10969 276646.080000
   1060   1063     1   0.10961 277566.560000
   1065   1071     1   0.09730 310787.520000
   1066   1069     1   0.09730 310787.520000
   1067   1070     1   0.09730 310787.520000
   1068   1072     1   0.10969 276646.080000
   1068   1073     1   0.10969 276646.080000
   1074   1075     1   0.09730 310787.520000
   1077   1079     1   0.10969 276646.080000
   1078   1080     1   0.10969 276646.080000
   1081   1085     1   0.10969 276646.080000
   1082   1084     1   0.10969 276646.080000
   1083   1086     1   0.10961 277566.560000
   1088   1094     1   0.09730 310787.520000
   1089   1092     1   0.09730 310787.520000
   1090   1093     1   0.09730 310787.520000
   1091   1095     1   0.10969 276646.080000
   1091   1096     1   0.10969 276646.080000
   1097   1098     1   0.09730 310787.520000
   1100   1102     1   0.10969 276646.080000
   1101   1103     1   0.10969 276646.080000
   1104   1108     1   0.10969 276646.080000
   1105   1107     1   0.10969 276646.080000
   1106   1109     1   0.10961 277566.560000
   1111   1117     1   0.09730 310787.520000
   1112   1115     1   0.09730 310787.520000
   1113   1116     1   0.09730 310787.520000
   1114   1118     1   0.10969 276646.080000
   1114   1119     1   0.10969 276646.080000
   1120   1121     1   0.09730 310787.520000
   1123   1125     1   0.10969 276646.080000
   1124   1126     1   0.10969 276646.080000
   1127   1131     1   0.10969 276646.080000
   1128   1130     1   0.10969 276646.080000
   1129   1132     1   0.10961 277566.560000
   1134   1140     1   0.09730 310787.520000
   1135   1138     1   0.09730 310787.520000
   1136   1139     1   0.09730 310787.520000
   1137   1141     1   0.10969 276646.080000
   1137   1142     1   0.10969 276646.080000
   1143   1144     1   0.09730 310787.520000
   1146   1148     1   0.10969 276646.080000
   1147   1149     1   0.10969 276646.080000
   1150   1154     1   0.10969 276646.080000
   1151   1153     1   0.10969 276646.080000
   1152   1155     1   0.10961 277566.560000
   1157   1163     1   0.09730 310787.520000
   1158   1161     1   0.09730 310787.520000
   1159   1162     1   0.09730 310787.520000
   1160   1164     1   0.10969 276646.080000
   1160   1165     1   0.10969 276646.080000
   1166   1167     1   0.09730 310787.520000
   1169   1171     1   0.10969 276646.080000
   1170   1172     1   0.10969 276646.080000
   1173   1177     1   0.10969 276646.080000
   1174   1176     1   0.10969 276646.080000
   1175   1178     1   0.10961 277566.560000
   1180   1186     1   0.09730 310787.520000
   1181   1184     1   0.09730 310787.520000
   1182   1185     1   0.09730 310787.520000
   1183   1187     1   0.10969 276646.080000
   1183   1188     1   0.10969 276646.080000
   1189   1190     1   0.09730 310787.520000
   1192   1194     1   0.10969 276646.080000
   1193   1195     1   0.10969 276646.080000
   1196   1200     1   0.10969 276646.080000
   1197   1199     1   0.10969 276646.080000
   1198   1201     1   0.10961 277566.560000
   1203   1209     1   0.09730 310787.520000
   1204   1207     1   0.09730 310787.520000
   1205   1208     1   0.09730 310787.520000
   1206   1210     1   0.10969 276646.080000
   1206   1211     1   0.10969 276646.080000
   1212   1213     1   0.09730 310787.520000
   1215   1217     1   0.10969 276646.080000
   1216   1218     1   0.10969 276646.080000
   1219   1223     1   0.10969 276646.080000
   1220   1222     1   0.10969 276646.080000
   1221   1224     1   0.10961 277566.560000
   1226   1232     1   0.09730 310787.520000
   1227   1230     1   0.09730 310787.520000
   1228   1231     1   0.09730 310787.520000
   1229   1233     1   0.10969 276646.080000
   1229   1234     1   0.10969 276646.080000
   1235   1236     1   0.09730 310787.520000
   1238   1240     1   0.10969 276646.080000
   1239   1241     1   0.10969 276646.080000
   1242   1246     1   0.10969 276646.080000
   1243   1245     1   0.10969 276646.080000
   1244   1247     1   0.10961 277566.560000
   1249   1255     1   0.09730 310787.520000
   1250   1253     1   0.09730 310787.520000
   1251   1254     1   0.09730 310787.520000
   1252   1256     1   0.10969 276646.080000
   1252   1257     1   0.10969 276646.080000
   1258   1259     1   0.09730 310787.520000
   1261   1263     1   0.10969 276646.080000
   1262   1264     1   0.10969 276646.080000
   1265   1269     1   0.10969 276646.080000
   1266   1268     1   0.10969 276646.080000
   1267   1270     1   0.10961 277566.560000
   1272   1278     1   0.09730 310787.520000
   1273   1276     1   0.09730 310787.520000
   1274   1277     1   0.09730 310787.520000
   1275   1279     1   0.10969 276646.080000
   1275   1280     1   0.10969 276646.080000
   1281   1282     1   0.09730 310787.520000
   1284   1286     1   0.10969 276646.080000
   1285   1287     1   0.10969 276646.080000
   1288   1292     1   0.10969 276646.080000
   1289   1291     1   0.10969 276646.080000
   1290   1293     1   0.10961 277566.560000
   1295   1301     1   0.09730 310787.520000
   1296   1299     1   0.09730 310787.520000
   1297   1300     1   0.09730 310787.520000
   1298   1302     1   0.10969 276646.080000
   1298   1303     1   0.10969 276646.080000
   1304   1305     1   0.09730 310787.520000
   1307   1309     1   0.10969 276646.080000
   1308   1310     1   0.10969 276646.080000
   1311   1315     1   0.10969 276646.080000
   1312   1314     1   0.10969 276646.080000
   1313   1316     1   0.10961 277566.560000
   1318   1324     1   0.09730 310787.520000
   1319   1322     1   0.09730 310787.520000
   1320   1323     1   0.09730 310787.520000
   1321   1325     1   0.10969 276646.080000
   1321   1326     1   0.10969 276646.080000
   1327   1328     1   0.09730 310787.520000
   1330   1332     1   0.10969 276646.080000
   1331   1333     1   0.10969 276646.080000
   1334   1338     1   0.10969 276646.080000
   1335   1337     1   0.10969 276646.080000
   1336   1339     1   0.10961 277566.560000
   1341   1347     1   0.09730 310787.520000
   1342   1345     1   0.09730 310787.520000
   1343   1346     1   0.09730 310787.520000
   1344   1348     1   0.10969 276646.080000
   1344   1349     1   0.10969 276646.080000
   1350   1351     1   0.09730 310787.520000
   1353   1355     1   0.10969 276646.080000
   1354   1356     1   0.10969 276646.080000
   1357   1361     1   0.10969 276646.080000
   1358   1360     1   0.10969 276646.080000
   1359   1362     1   0.10961 277566.560000
   1364   1370     1   0.09730 310787.520000
   1365   1368     1   0.09730 310787.520000
   1366   1369     1   0.09730 310787.520000
   1367   1371     1   0.10969 276646.080000
   1367   1372     1   0.10969 276646.080000
   1373   1374     1   0.09730 310787.520000
   1376   1378     1   0.10969 276646.080000
   1377   1379     1   0.10969 276646.080000
   1380   1384     1   0.10969 276646.080000
   1381   1383     1   0.10969 276646.080000
   1382   1385     1   0.10961 277566.560000
   1387   1393     1   0.09730 310787.520000
   1388   1391     1   0.09730 310787.520000
   1389   1392     1   0.09730 310787.520000
   1390   1394     1   0.10969 276646.080000
   1390   1395     1   0.10969 276646.080000
   1396   1397     1   0.09730 310787.520000
   1399   1401     1   0.10969 276646.080000
   1400   1402     1   0.10969 276646.080000
   1403   1407     1   0.10969 276646.080000
   1404   1406     1   0.10969 276646.080000
   1405   1408     1   0.10961 277566.560000
   1410   1416     1   0.09730 310787.520000
   1411   1414     1   0.09730 310787.520000
   1412   1415     1   0.09730 310787.520000
   1413   1417     1   0.10969 276646.080000
   1413   1418     1   0.10969 276646.080000
   1419   1420     1   0.09730 310787.520000
   1422   1424     1   0.10969 276646.080000
   1423   1425     1   0.10969 276646.080000
   1426   1430     1   0.10969 276646.080000
   1427   1429     1   0.10969 276646.080000
   1428   1431     1   0.10961 277566.560000
   1433   1439     1   0.09730 310787.520000
   1434   1437     1   0.09730 310787.520000
   1435   1438     1   0.09730 310787.520000
   1436   1440     1   0.10969 276646.080000
   1436   1441     1   0.10969 276646.080000
   1442   1443     1   0.09730 310787.520000
   1445   1447     1   0.10969 276646.080000
   1446   1448     1   0.10969 276646.080000
   1449   1453     1   0.10969 276646.080000
   1450   1452     1   0.10969 276646.080000
   1451   1454     1   0.10961 277566.560000
   1456   1462     1   0.09730 310787.520000
   1457   1460     1   0.09730 310787.520000
   1458   1461     1   0.09730 310787.520000
   1459   1463     1   0.10969 276646.080000
   1459   1464     1   0.10969 276646.080000
   1465   1466     1   0.09730 310787.520000
   1468   1470     1   0.10969 276646.080000
   1469   1471     1   0.10969 276646.080000
   1472   1476     1   0.10969 276646.080000
   1473   1475     1   0.10969 276646.080000
   1474   1477     1   0.10961 277566.560000
   1479   1485     1   0.09730 310787.520000
   1480   1483     1   0.09730 310787.520000
   1481   1484     1   0.09730 310787.520000
   1482   1486     1   0.10969 276646.080000
   1482   1487     1   0.10969 276646.080000
   1488   1489     1   0.09730 310787.520000
   1491   1493     1   0.10969 276646.080000
   1492   1494     1   0.10969 276646.080000
   1495   1499     1   0.10969 276646.080000
   1496   1498     1   0.10969 276646.080000
   1497   1500     1   0.10961 277566.560000
   1502   1508     1   0.09730 310787.520000
   1503   1506     1   0.09730 310787.520000
   1504   1507     1   0.09730 310787.520000
   1505   1509     1   0.10969 276646.080000
   1505   1510     1   0.10969 276646.080000
   1511   1512     1   0.09730 310787.520000
   1514   1516     1   0.10969 276646.080000
   1515   1517     1   0.10969 276646.080000
   1518   1522     1   0.10969 276646.080000
   1519   1521     1   0.10969 276646.080000
   1520   1523     1   0.10961 277566.560000
   1525   1531     1   0.09730 310787.520000
   1526   1529     1   0.09730 310787.520000
   1527   1530     1   0.09730 310787.520000
   1528   1532     1   0.10969 276646.080000
   1528   1533     1   0.10969 276646.080000
   1534   1535     1   0.09730 310787.520000
   1537   1539     1   0.10969 276646.080000
   1538   1540     1   0.10969 276646.080000
   1541   1545     1   0.10969 276646.080000
   1542   1544     1   0.10969 276646.080000
   1543   1546     1   0.10961 277566.560000
   1548   1554     1   0.09730 310787.520000
   1549   1552     1   0.09730 310787.520000
   1550   1553     1   0.09730 310787.520000
   1551   1555     1   0.10969 276646.080000
   1551   1556     1   0.10969 276646.080000
   1557   1558     1   0.09730 310787.520000
   1560   1562     1   0.10969 276646.080000
   1561   1563     1   0.10969 276646.080000
   1564   1568     1   0.10969 276646.080000
   1565   1567     1   0.10969 276646.080000
   1566   1569     1   0.10961 277566.560000
   1571   1577     1   0.09730 310787.520000
   1572   1575     1   0.09730 310787.520000
   1573   1576     1   0.09730 310787.520000
   1574   1578     1   0.10969 276646.080000
   1574   1579     1   0.10969 276646.080000
   1580   1581     1   0.09730 310787.520000
   1583   1585     1   0.10969 276646.080000
   1584   1586     1   0.10969 276646.080000
   1587   1591     1   0.10969 276646.080000
   1588   1590     1   0.10969 276646.080000
   1589   1592     1   0.10961 277566.560000
   1594   1600     1   0.09730 310787.520000
   1595   1598     1   0.09730 310787.520000
   1596   1599     1   0.09730 310787.520000
   1597   1601     1   0.10969 276646.080000
   1597   1602     1   0.10969 276646.080000
   1603   1604     1   0.09730 310787.520000

[ pairs ]
;    ai     aj funct         c0         c1         c2         c3
      1     14     1
      1     17     1
      2     11     1
      2     20     1
      5      8     1
      5     21     1
      8     28     1
      8     31     1
     11     22     1
     11     25     1
     14     40     1
     14     43     1
     17     34     1
     17     37     1
     20     49     1
     20     46     1
     21     55     1
     21     52     1
     22     37     1
     22    173     1
     25     34     1
     25    144     1
     28     43     1
     28    115     1
     31     40     1
     31     86     1
     34    164     1
     37    135     1
     40    106     1
     43     77     1
     46     68     1
     49     97     1
     52    126     1
     55    155     1
     58     83     1
     58     80     1
     58     77     1
     59     74     1
     59     68     1
     59    231     1
     62     71     1
     62     68     1
     62    202     1
     65     71     1
     65     74     1
     65     86     1
     71    222     1
     74    193     1
     80    184     1
     83    213     1
     87    112     1
     87    109     1
     87    106     1
     88    103     1
     88     97     1
     88    289     1
     91    100     1
     91     97     1
     91    260     1
     94    100     1
     94    103     1
     94    115     1
    100    280     1
    103    251     1
    109    242     1
    112    271     1
    116    141     1
    116    138     1
    116    135     1
    117    132     1
    117    126     1
    117    347     1
    120    129     1
    120    126     1
    120    318     1
    123    129     1
    123    132     1
    123    144     1
    129    338     1
    132    309     1
    138    300     1
    141    329     1
    145    170     1
    145    167     1
    145    164     1
    146    161     1
    146    155     1
    146    405     1
    149    158     1
    149    155     1
    149    376     1
    152    158     1
    152    161     1
    152    173     1
    158    396     1
    161    367     1
    167    358     1
    170    387     1
    174    199     1
    174    196     1
    174    193     1
    175    190     1
    175    184     1
    175    463     1
    178    187     1
    178    184     1
    178    434     1
    181    187     1
    181    190     1
    181    202     1
    187    454     1
    190    425     1
    196    416     1
    199    445     1
    203    228     1
    203    225     1
    203    222     1
    204    219     1
    204    213     1
    204    521     1
    207    216     1
    207    213     1
    207    492     1
    210    216     1
    210    219     1
    210    231     1
    216    512     1
    219    483     1
    225    474     1
    228    503     1
    232    257     1
    232    254     1
    232    251     1
    233    248     1
    233    242     1
    233    579     1
    236    245     1
    236    242     1
    236    550     1
    239    245     1
    239    248     1
    239    260     1
    245    570     1
    248    541     1
    254    532     1
    257    561     1
    261    286     1
    261    283     1
    261    280     1
    262    277     1
    262    271     1
    262    637     1
    265    274     1
    265    271     1
    265    608     1
    268    274     1
    268    277     1
    268    289     1
    274    628     1
    277    599     1
    283    590     1
    286    619     1
    290    315     1
    290    312     1
    290    309     1
    291    306     1
    291    300     1
    291    695     1
    294    303     1
    294    300     1
    294    666     1
    297    303     1
    297    306     1
    297    318     1
    303    686     1
    306    657     1
    312    648     1
    315    677     1
    319    344     1
    319    341     1
    319    338     1
    320    335     1
    320    329     1
    320    753     1
    323    332     1
    323    329     1
    323    724     1
    326    332     1
    326    335     1
    326    347     1
    332    744     1
    335    715     1
    341    706     1
    344    735     1
    348    373     1
    348    370     1
    348    367     1
    349    364     1
    349    358     1
    349    811     1
    352    361     1
    352    358     1
    352    782     1
    355    361     1
    355    364     1
    355    376     1
    361    802     1
    364    773     1
    370    764     1
    373    793     1
    377    402     1
    377    399     1
    377    396     1
    378    393     1
    378    387     1
    378    869     1
    381    390     1
    381    387     1
    381    840     1
    384    390     1
    384    393     1
    384    405     1
    390    860     1
    393    831     1
    399    822     1
    402    851     1
    406    431     1
    406    428     1
    406    425     1
    407    422     1
    407    416     1
    407    903     1
    410    419     1
    410    416     1
    410    880     1
    413    419     1
    413    422     1
    413    434     1
    419    899     1
    422    876     1
    428    875     1
    428    892     1
    431    898     1
    431    915     1
    435    460     1
    435    457     1
    435    454     1
    436    451     1
    436    445     1
    436    949     1
    439    448     1
    439    445     1
    439    926     1
    442    448     1
    442    451     1
    442    463     1
    448    945     1
    451    922     1
    457    921     1
    457    938     1
    460    944     1
    460    961     1
    464    489     1
    464    486     1
    464    483     1
    465    480     1
    465    474     1
    465    995     1
    468    477     1
    468    474     1
    468    972     1
    471    477     1
    471    480     1
    471    492     1
    477    991     1
    480    968     1
    486    967     1
    486    984     1
    489    990     1
    489   1007     1
    493    518     1
    493    515     1
    493    512     1
    494    509     1
    494    503     1
    494   1041     1
    497    506     1
    497    503     1
    497   1018     1
    500    506     1
    500    509     1
    500    521     1
    506   1037     1
    509   1014     1
    515   1013     1
    515   1030     1
    518   1036     1
    518   1053     1
    522    547     1
    522    544     1
    522    541     1
    523    538     1
    523    532     1
    523   1087     1
    526    535     1
    526    532     1
    526   1064     1
    529    535     1
    529    538     1
    529    550     1
    535   1083     1
    538   1060     1
    544   1059     1
    544   1076     1
    547   1082     1
    547   1099     1
    551    576     1
    551    573     1
    551    570     1
    552    567     1
    552    561     1
    552   1133     1
    555    564     1
    555    561     1
    555   1110     1
    558    564     1
    558    567     1
    558    579     1
    564   1129     1
    567   1106     1
    573   1105     1
    573   1122     1
    576   1128     1
    576   1145     1
    580    605     1
    580    602     1
    580    599     1
    581    596     1
    581    590     1
    581   1179     1
    584    593     1
    584    590     1
    584   1156     1
    587    593     1
    587    596     1
    587    608     1
    593   1175     1
    596   1152     1
    602   1151     1
    602   1168     1
    605   1174     1
    605   1191     1
    609    634     1
    609    631     1
    609    628     1
    610    625     1
    610    619     1
    610   1225     1
    613    622     1
    613    619     1
    613   1202     1
    616    622     1
    616    625     1
    616    637     1
    622   1221     1
    625   1198     1
    631   1197     1
    631   1214     1
    634   1220     1
    634   1237     1
    638    663     1
    638    660     1
    638    657     1
    639    654     1
    639    648     1
    639   1271     1
    642    651     1
    642    648     1
    642   1248     1
    645    651     1
    645    654     1
    645    666     1
    651   1267     1
    654   1244     1
    660   1243     1
    660   1260     1
    663   1266     1
    663   1283     1
    667    692     1
    667    689     1
    667    686     1
    668    683     1
    668    677     1
    668   1317     1
    671    680     1
    671    677     1
    671   1294     1
    674    680     1
    674    683     1
    674    695     1
    680   1313     1
    683   1290     1
    689   1289     1
    689   1306     1
    692   1312     1
    692   1329     1
    696    721     1
    696    718     1
    696    715     1
    697    712     1
    697    706     1
    697   1363     1
    700    709     1
    700    706     1
    700   1340     1
    703    709     1
    703    712     1
    703    724     1
    709   1359     1
    712   1336     1
    718   1335     1
    718   1352     1
    721   1358     1
    721   1375     1
    725    750     1
    725    747     1
    725    744     1
    726    741     1
    726    735     1
    726   1409     1
    729    738     1
    729    735     1
    729   1386     1
    732    738     1
    732    741     1
    732    753     1
    738   1405     1
    741   1382     1
    747   1381     1
    747   1398     1
    750   1404     1
    750   1421     1
    754    779     1
    754    776     1
    754    773     1
    755    770     1
    755    764     1
    755   1455     1
    758    767     1
    758    764     1
    758   1432     1
    761    767     1
    761    770     1
    761    782     1
    767   1451     1
    770   1428     1
    776   1427     1
    776   1444     1
    779   1450     1
    779   1467     1
    783    808     1
    783    805     1
    783    802     1
    784    799     1
    784    793     1
    784   1501     1
    787    796     1
    787    793     1
    787   1478     1
    790    796     1
    790    799     1
    790    811     1
    796   1497     1
    799   1474     1
    805   1473     1
    805   1490     1
    808   1496     1
    808   1513     1
    812    837     1
    812    834     1
    812    831     1
    813    828     1
    813    822     1
    813   1547     1
    816    825     1
    816    822     1
    816   1524     1
    819    825     1
    819    828     1
    819    840     1
    825   1543     1
    828   1520     1
    834   1519     1
    834   1536     1
    837   1542     1
    837   1559     1
    841    866     1
    841    863     1
    841    860     1
    842    857     1
    842    851     1
    842   1593     1
    845    854     1
    845    851     1
    845   1570     1
    848    854     1
    848    857     1
    848    869     1
    854   1589     1
    857   1566     1
    863   1565     1
    863   1582     1
    866   1588     1
    866   1605     1
    870    875     1
    870    882     1
    870    880     1
    871    890     1
    871    876     1
    871    881     1
    874    884     1
    874    892     1
    874    880     1
    875    883     1
    876    882     1
    876    884     1
    880    881     1
    881    882     1
    881    892     1
    882    883     1
    883    884     1
    883    892     1
    890    892     1
    893    898     1
    893    905     1
    893    903     1
    894    913     1
    894    899     1
    894    904     1
    897    907     1
    897    915     1
    897    903     1
    898    906     1
    899    905     1
    899    907     1
    903    904     1
    904    905     1
    904    915     1
    905    906     1
    906    907     1
    906    915     1
    913    915     1
    916    921     1
    916    928     1
    916    926     1
    917    936     1
    917    922     1
    917    927     1
    920    930     1
    920    938     1
    920    926     1
    921    929     1
    922    928     1
    922    930     1
    926    927     1
    927    928     1
    927    938     1
    928    929     1
    929    930     1
    929    938     1
    936    938     1
    939    944     1
    939    951     1
    939    949     1
    940    959     1
    940    945     1
    940    950     1
    943    953     1
    943    961     1
    943    949     1
    944    952     1
    945    951     1
    945    953     1
    949    950     1
    950    951     1
    950    961     1
    951    952     1
    952    953     1
    952    961     1
    959    961     1
    962    967     1
    962    974     1
    962    972     1
    963    982     1
    963    968     1
    963    973     1
    966    976     1
    966    984     1
    966    972     1
    967    975     1
    968    974     1
    968    976     1
    972    973     1
    973    974     1
    973    984     1
    974    975     1
    975    976     1
    975    984     1
    982    984     1
    985    990     1
    985    997     1
    985    995     1
    986   1005     1
    986    991     1
    986    996     1
    989    999     1
    989   1007     1
    989    995     1
    990    998     1
    991    997     1
    991    999     1
    995    996     1
    996    997     1
    996   1007     1
    997    998     1
    998    999     1
    998   1007     1
   1005   1007     1
   1008   1013     1
   1008   1020     1
   1008   1018     1
   1009   1028     1
   1009   1014     1
   1009   1019     1
   1012   1022     1
   1012   1030     1
   1012   1018     1
   1013   1021     1
   1014   1020     1
   1014   1022     1
   1018   1019     1
   1019   1020     1
   1019   1030     1
   1020   1021     1
   1021   1022     1
   1021   1030     1
   1028   1030     1
   1031   1036     1
   1031   1043     1
   1031   1041     1
   1032   1051     1
   1032   1037     1
   1032   1042     1
   1035   1045     1
   1035   1053     1
   1035   1041     1
   1036   1044     1
   1037   1043     1
   1037   1045     1
   1041   1042     1
   1042   1043     1
   1042   1053     1
   1043   1044     1
   1044   1045     1
   1044   1053     1
   1051   1053     1
   1054   1059     1
   1054   1066     1
   1054   1064     1
   1055   1074     1
   1055   1060     1
   1055   1065     1
   1058   1068     1
   1058   1076     1
   1058   1064     1
   1059   1067     1
   1060   1066     1
   1060   1068     1
   1064   1065     1
   1065   1066     1
   1065   1076     1
   1066   1067     1
   1067   1068     1
   1067   1076     1
   1074   1076     1
   1077   1082     1
   1077   1089     1
   1077   1087     1
   1078   1097     1
   1078   1083     1
   1078   1088     1
   1081   1091     1
   1081   1099     1
   1081   1087     1
   1082   1090     1
   1083   1089     1
   1083   1091     1
   1087   1088     1
   1088   1089     1
   1088   1099     1
   1089   1090     1
   1090   1091     1
   1090   1099     1
   1097   1099     1
   1100   1105     1
   1100   1112     1
   1100   1110     1
   1101   1120     1
   1101   1106     1
   1101   1111     1
   1104   1114     1
   1104   1122     1
   1104   1110     1
   1105   1113     1
   1106   1112     1
   1106   1114     1
   1110   1111     1
   1111   1112     1
   1111   1122     1
   1112   1113     1
   1113   1114     1
   1113   1122     1
   1120   1122     1
   1123   1128     1
   1123   1135     1
   1123   1133     1
   1124   1143     1
   1124   1129     1
   1124   1134     1
   1127   1137     1
   1127   1145     1
   1127   1133     1
   1128   1136     1
   1129   1135     1
   1129   1137     1
   1133   1134     1
   1134   1135     1
   1134   1145     1
   1135   1136     1
   1136   1137     1
   1136   1145     1
   1143   1145     1
   1146   1151     1
   1146   1158     1
   1146   1156     1
   1147   1166     1
   1147   1152     1
   1147   1157     1
   1150   1160     1
   1150   1168     1
   1150   1156     1
   1151   1159     1
   1152   1158     1
   1152   1160     1
   1156   1157     1
   1157   1158     1
   1157   1168     1
   1158   1159     1
   1159   1160     1
   1159   1168     1
   1166   1168     1
   1169   1174     1
   1169   1181     1
   1169   1179     1
   1170   1189     1
   1170   1175     1
   1170   1180     1
   1173   1183     1
   1173   1191     1
   1173   1179     1
   1174   1182     1
   1175   1181     1
   1175   1183     1
   1179   1180     1
   1180   1181     1
   1180   1191     1
   1181   1182     1
   1182   1183     1
   1182   1191     1
   1189   1191     1
   1192   1197     1
   1192   1204     1
   1192   1202     1
   1193   1212     1
   1193   1198     1
   1193   1203     1
   1196   1206     1
   1196   1214     1
   1196   1202     1
   1197   1205     1
   1198   1204     1
   1198   1206     1
   1202   1203     1
   1203   1204     1
   1203   1214     1
   1204   1205     1
   1205   1206     1
   1205   1214     1
   1212   1214     1
   1215   1220     1
   1215   1227     1
   1215   1225     1
   1216   1235     1
   1216   1221     1
   1216   1226     1
   1219   1229     1
   1219   1237     1
   1219   1225     1
   1220   1228     1
   1221   1227     1
   1221   1229     1
   1225   1226     1
   1226   1227     1
   1226   1237     1
   1227   1228     1
   1228   1229     1
   1228   1237     1
   1235   1237     1
   1238   1243     1
   1238   1250     1
   1238   1248     1
   1239   1258     1
   1239   1244     1
   1239   1249     1
   1242   1252     1
   1242   1260     1
   1242   1248     1
   1243   1251     1
   1244   1250     1
   1244   1252     1
   1248   1249     1
   1249   1250     1
   1249   1260     1
   1250   1251     1
   1251   1252     1
   1251   1260     1
   1258   1260     1
   1261   1266     1
   1261   1273     1
   1261   1271     1
   1262   1281     1
   1262   1267     1
   1262   1272     1
   1265   1275     1
   1265   1283     1
   1265   1271     1
   1266   1274     1
   1267   1273     1
   1267   1275     1
   1271   1272     1
   1272   1273     1
   1272   1283     1
   1273   1274     1
   1274   1275     1
   1274   1283     1
   1281   1283     1
   1284   1289     1
   1284   1296     1
   1284   1294     1
   1285   1304     1
   1285   1290     1
   1285   1295     1
   1288   1298     1
   1288   1306     1
   1288   1294     1
   1289   1297     1
   1290   1296     1
   1290   1298     1
   1294   1295     1
   1295   1296     1
   1295   1306     1
   1296   1297     1
   1297   1298     1
   1297   1306     1
   1304   1306     1
   1307   1312     1
   1307   1319     1
   1307   1317     1
   1308   1327     1
   1308   1313     1
   1308   1318     1
   1311   1321     1
   1311   1329     1
   1311   1317     1
   1312   1320     1
   1313   1319     1
   1313   1321     1
   1317   1318     1
   1318   1319     1
   1318   1329     1
   1319   1320     1
   1320   1321     1
   1320   1329     1
   1327   1329     1
   1330   1335     1
   1330   1342     1
   1330   1340     1
   1331   1350     1
   1331   1336     1
   1331   1341     1
   1334   1344     1
   1334   1352     1
   1334   1340     1
   1335   1343     1
   1336   1342     1
   1336   1344     1
   1340   1341     1
   1341   1342     1
   1341   1352     1
   1342   1343     1
   1343   1344     1
   1343   1352     1
   1350   1352     1
   1353   1358     1
   1353   1365     1
   1353   1363     1
   1354   1373     1
   1354   1359     1
   1354   1364     1
   1357   1367     1
   1357   1375     1
   1357   1363     1
   1358   1366     1
   1359   1365     1
   1359   1367     1
   1363   1364     1
   1364   1365     1
   1364   1375     1
   1365   1366     1
   1366   1367     1
   1366   1375     1
   1373   1375     1
   1376   1381     1
   1376   1388     1
   1376   1386     1
   1377   1396     1
   1377   1382     1
   1377   1387     1
   1380   1390     1
   1380   1398     1
   1380   1386     1
   1381   1389     1
   1382   1388     1
   1382   1390     1
   1386   1387     1
   1387   1388     1
   1387   1398     1
   1388   1389     1
   1389   1390     1
   1389   1398     1
   1396   1398     1
   1399   1404     1
   1399   1411     1
   1399   1409     1
   1400   1419     1
   1400   1405     1
   1400   1410     1
   1403   1413     1
   1403   1421     1
   1403   1409     1
   1404   1412     1
   1405   1411     1
   1405   1413     1
   1409   1410     1
   1410   1411     1
   1410   1421     1
   1411   1412     1
   1412   1413     1
   1412   1421     1
   1419   1421     1
   1422   1427     1
   1422   1434     1
   1422   1432     1
   1423   1442     1
   1423   1428     1
   1423   1433     1
   1426   1436     1
   1426   1444     1
   1426   1432     1
   1427   1435     1
   1428   1434     1
   1428   1436     1
   1432   1433     1
   1433   1434     1
   1433   1444     1
   1434   1435     1
   1435   1436     1
   1435   1444     1
   1442   1444     1
   1445   1450     1
   1445   1457     1
   1445   1455     1
   1446   1465     1
   1446   1451     1
   1446   1456     1
   1449   1459     1
   1449   1467     1
   1449   1455     1
   1450   1458     1
   1451   1457     1
   1451   1459     1
   1455   1456     1
   1456   1457     1
   1456   1467     1
   1457   1458     1
   1458   1459     1
   1458   1467     1
   1465   1467     1
   1468   1473     1
   1468   1480     1
   1468   1478     1
   1469   1488     1
   1469   1474     1
   1469   1479     1
   1472   1482     1
   1472   1490     1
   1472   1478     1
   1473   1481     1
   1474   1480     1
   1474   1482     1
   1478   1479     1
   1479   1480     1
   1479   1490     1
   1480   1481     1
   1481   1482     1
   1481   1490     1
   1488   1490     1
   1491   1496     1
   1491   1503     1
   1491   1501     1
   1492   1511     1
   1492   1497     1
   1492   1502     1
   1495   1505     1
   1495   1513     1
   1495   1501     1
   1496   1504     1
   1497   1503     1
   1497   1505     1
   1501   1502     1
   1502   1503     1
   1502   1513     1
   1503   1504     1
   1504   1505     1
   1504   1513     1
   1511   1513     1
   1514   1519     1
   1514   1526     1
   1514   1524     1
   1515   1534     1
   1515   1520     1
   1515   1525     1
   1518   1528     1
   1518   1536     1
   1518   1524     1
   1519   1527     1
   1520   1526     1
   1520   1528     1
   1524   1525     1
   1525   1526     1
   1525   1536     1
   1526   1527     1
   1527   1528     1
   1527   1536     1
   1534   1536     1
   1537   1542     1
   1537   1549     1
   1537   1547     1
   1538   1557     1
   1538   1543     1
   1538   1548     1
   1541   1551     1
   1541   1559     1
   1541   1547     1
   1542   1550     1
   1543   1549     1
   1543   1551     1
   1547   1548     1
   1548   1549     1
   1548   1559     1
   1549   1550     1
   1550   1551     1
   1550   1559     1
   1557   1559     1
   1560   1565     1
   1560   1572     1
   1560   1570     1
   1561   1580     1
   1561   1566     1
   1561   1571     1
   1564   1574     1
   1564   1582     1
   1564   1570     1
   1565   1573     1
   1566   1572     1
   1566   1574     1
   1570   1571     1
   1571   1572     1
   1571   1582     1
   1572   1573     1
   1573   1574     1
   1573   1582     1
   1580   1582     1
   1583   1588     1
   1583   1595     1
   1583   1593     1
   1584   1603     1
   1584   1589     1
   1584   1594     1
   1587   1597     1
   1587   1605     1
   1587   1593     1
   1588   1596     1
   1589   1595     1
   1589   1597     1
   1593   1594     1
   1594   1595     1
   1594   1605     1
   1595   1596     1
   1596   1597     1
   1596   1605     1
   1603   1605     1
      1      9     1
      1     10     1
      1     12     1
      1     13     1
      2      6     1
      2      7     1
      2     15     1
      2     16     1
      5      3     1
      3     14     1
      3      9     1
      3     10     1
      5      4     1
      4     14     1
      4      9     1
      4     10     1
      5     18     1
      5     19     1
      6     17     1
      6     12     1
      6     13     1
      7     17     1
      7     12     1
      7     13     1
      9     20     1
      9     15     1
      9     16     1
     10     20     1
     10     15     1
     10     16     1
     12     21     1
     12     18     1
     12     19     1
     13     21     1
     13     18     1
     13     19     1
     14     29     1
     14     30     1
     14     32     1
     14     33     1
     15     28     1
     15     31     1
     16     28     1
     16     31     1
     17     23     1
     17     24     1
     17     26     1
     17     27     1
     18     22     1
     18     25     1
     19     22     1
     19     25     1
     20     41     1
     20     42     1
     20     44     1
     20     45     1
     21     35     1
     21     36     1
     21     38     1
     21     39     1
     22     26     1
     22     27     1
     22     56     1
     22     57     1
     23     25     1
     23     55     1
     23     35     1
     23     36     1
     24     25     1
     24     55     1
     24     35     1
     24     36     1
     25     53     1
     25     54     1
     26     52     1
     26     38     1
     26     39     1
     27     52     1
     27     38     1
     27     39     1
     28     32     1
     28     33     1
     28     50     1
     28     51     1
     29     31     1
     29     49     1
     29     41     1
     29     42     1
     30     31     1
     30     49     1
     30     41     1
     30     42     1
     31     47     1
     31     48     1
     32     46     1
     32     44     1
     32     45     1
     33     46     1
     33     44     1
     33     45     1
     35    173     1
     35     56     1
     35     57     1
     36    173     1
     36     56     1
     36     57     1
     38    144     1
     38     53     1
     38     54     1
     39    144     1
     39     53     1
     39     54     1
     41    115     1
     41     50     1
     41     51     1
     42    115     1
     42     50     1
     42     51     1
     44     86     1
     44     47     1
     44     48     1
     45     86     1
     45     47     1
     45     48     1
     46     78     1
     46     79     1
     47     77     1
     48     77     1
     49    107     1
     49    108     1
     50    106     1
     51    106     1
     52    136     1
     52    137     1
     53    135     1
     54    135     1
     55    165     1
     55    166     1
     56    164     1
     57    164     1
     58     72     1
     58     73     1
     58     75     1
     58     76     1
     58     69     1
     58     70     1
     59     63     1
     59     64     1
     59     66     1
     59     67     1
     59     84     1
     59     85     1
     60     62     1
     60     65     1
     60     83     1
     60     72     1
     60     73     1
     61     62     1
     61     65     1
     61     83     1
     61     72     1
     61     73     1
     62     66     1
     62     67     1
     62     81     1
     62     82     1
     63     65     1
     63     80     1
     63     75     1
     63     76     1
     64     65     1
     64     80     1
     64     75     1
     64     76     1
     65     78     1
     65     79     1
     66     77     1
     66     69     1
     66     70     1
     67     77     1
     67     69     1
     67     70     1
     69     86     1
     69     78     1
     69     79     1
     70     86     1
     70     78     1
     70     79     1
     72    231     1
     72     84     1
     72     85     1
     73    231     1
     73     84     1
     73     85     1
     75    202     1
     75     81     1
     75     82     1
     76    202     1
     76     81     1
     76     82     1
     80    194     1
     80    195     1
     81    193     1
     82    193     1
     83    223     1
     83    224     1
     84    222     1
     85    222     1
     87    101     1
     87    102     1
     87    104     1
     87    105     1
     87     98     1
     87     99     1
     88     92     1
     88     93     1
     88     95     1
     88     96     1
     88    113     1
     88    114     1
     89     91     1
     89     94     1
     89    112     1
     89    101     1
     89    102     1
     90     91     1
     90     94     1
     90    112     1
     90    101     1
     90    102     1
     91     95     1
     91     96     1
     91    110     1
     91    111     1
     92     94     1
     92    109     1
     92    104     1
     92    105     1
     93     94     1
     93    109     1
     93    104     1
     93    105     1
     94    107     1
     94    108     1
     95    106     1
     95     98     1
     95     99     1
     96    106     1
     96     98     1
     96     99     1
     98    115     1
     98    107     1
     98    108     1
     99    115     1
     99    107     1
     99    108     1
    101    289     1
    101    113     1
    101    114     1
    102    289     1
    102    113     1
    102    114     1
    104    260     1
    104    110     1
    104    111     1
    105    260     1
    105    110     1
    105    111     1
    109    252     1
    109    253     1
    110    251     1
    111    251     1
    112    281     1
    112    282     1
    113    280     1
    114    280     1
    116    130     1
    116    131     1
    116    133     1
    116    134     1
    116    127     1
    116    128     1
    117    121     1
    117    122     1
    117    124     1
    117    125     1
    117    142     1
    117    143     1
    118    120     1
    118    123     1
    118    141     1
    118    130     1
    118    131     1
    119    120     1
    119    123     1
    119    141     1
    119    130     1
    119    131     1
    120    124     1
    120    125     1
    120    139     1
    120    140     1
    121    123     1
    121    138     1
    121    133     1
    121    134     1
    122    123     1
    122    138     1
    122    133     1
    122    134     1
    123    136     1
    123    137     1
    124    135     1
    124    127     1
    124    128     1
    125    135     1
    125    127     1
    125    128     1
    127    144     1
    127    136     1
    127    137     1
    128    144     1
    128    136     1
    128    137     1
    130    347     1
    130    142     1
    130    143     1
    131    347     1
    131    142     1
    131    143     1
    133    318     1
    133    139     1
    133    140     1
    134    318     1
    134    139     1
    134    140     1
    138    310     1
    138    311     1
    139    309     1
    140    309     1
    141    339     1
    141    340     1
    142    338     1
    143    338     1
    145    159     1
    145    160     1
    145    162     1
    145    163     1
    145    156     1
    145    157     1
    146    150     1
    146    151     1
    146    153     1
    146    154     1
    146    171     1
    146    172     1
    147    149     1
    147    152     1
    147    170     1
    147    159     1
    147    160     1
    148    149     1
    148    152     1
    148    170     1
    148    159     1
    148    160     1
    149    153     1
    149    154     1
    149    168     1
    149    169     1
    150    152     1
    150    167     1
    150    162     1
    150    163     1
    151    152     1
    151    167     1
    151    162     1
    151    163     1
    152    165     1
    152    166     1
    153    164     1
    153    156     1
    153    157     1
    154    164     1
    154    156     1
    154    157     1
    156    173     1
    156    165     1
    156    166     1
    157    173     1
    157    165     1
    157    166     1
    159    405     1
    159    171     1
    159    172     1
    160    405     1
    160    171     1
    160    172     1
    162    376     1
    162    168     1
    162    169     1
    163    376     1
    163    168     1
    163    169     1
    167    368     1
    167    369     1
    168    367     1
    169    367     1
    170    397     1
    170    398     1
    171    396     1
    172    396     1
    174    188     1
    174    189     1
    174    191     1
    174    192     1
    174    185     1
    174    186     1
    175    179     1
    175    180     1
    175    182     1
    175    183     1
    175    200     1
    175    201     1
    176    178     1
    176    181     1
    176    199     1
    176    188     1
    176    189     1
    177    178     1
    177    181     1
    177    199     1
    177    188     1
    177    189     1
    178    182     1
    178    183     1
    178    197     1
    178    198     1
    179    181     1
    179    196     1
    179    191     1
    179    192     1
    180    181     1
    180    196     1
    180    191     1
    180    192     1
    181    194     1
    181    195     1
    182    193     1
    182    185     1
    182    186     1
    183    193     1
    183    185     1
    183    186     1
    185    202     1
    185    194     1
    185    195     1
    186    202     1
    186    194     1
    186    195     1
    188    463     1
    188    200     1
    188    201     1
    189    463     1
    189    200     1
    189    201     1
    191    434     1
    191    197     1
    191    198     1
    192    434     1
    192    197     1
    192    198     1
    196    426     1
    196    427     1
    197    425     1
    198    425     1
    199    455     1
    199    456     1
    200    454     1
    201    454     1
    203    217     1
    203    218     1
    203    220     1
    203    221     1
    203    214     1
    203    215     1
    204    208     1
    204    209     1
    204    211     1
    204    212     1
    204    229     1
    204    230     1
    205    207     1
    205    210     1
    205    228     1
    205    217     1
    205    218     1
    206    207     1
    206    210     1
    206    228     1
    206    217     1
    206    218     1
    207    211     1
    207    212     1
    207    226     1
    207    227     1
    208    210     1
    208    225     1
    208    220     1
    208    221     1
    209    210     1
    209    225     1
    209    220     1
    209    221     1
    210    223     1
    210    224     1
    211    222     1
    211    214     1
    211    215     1
    212    222     1
    212    214     1
    212    215     1
    214    231     1
    214    223     1
    214    224     1
    215    231     1
    215    223     1
    215    224     1
    217    521     1
    217    229     1
    217    230     1
    218    521     1
    218    229     1
    218    230     1
    220    492     1
    220    226     1
    220    227     1
    221    492     1
    221    226     1
    221    227     1
    225    484     1
    225    485     1
    226    483     1
    227    483     1
    228    513     1
    228    514     1
    229    512     1
    230    512     1
    232    246     1
    232    247     1
    232    249     1
    232    250     1
    232    243     1
    232    244     1
    233    237     1
    233    238     1
    233    240     1
    233    241     1
    233    258     1
    233    259     1
    234    236     1
    234    239     1
    234    257     1
    234    246     1
    234    247     1
    235    236     1
    235    239     1
    235    257     1
    235    246     1
    235    247     1
    236    240     1
    236    241     1
    236    255     1
    236    256     1
    237    239     1
    237    254     1
    237    249     1
    237    250     1
    238    239     1
    238    254     1
    238    249     1
    238    250     1
    239    252     1
    239    253     1
    240    251     1
    240    243     1
    240    244     1
    241    251     1
    241    243     1
    241    244     1
    243    260     1
    243    252     1
    243    253     1
    244    260     1
    244    252     1
    244    253     1
    246    579     1
    246    258     1
    246    259     1
    247    579     1
    247    258     1
    247    259     1
    249    550     1
    249    255     1
    249    256     1
    250    550     1
    250    255     1
    250    256     1
    254    542     1
    254    543     1
    255    541     1
    256    541     1
    257    571     1
    257    572     1
    258    570     1
    259    570     1
    261    275     1
    261    276     1
    261    278     1
    261    279     1
    261    272     1
    261    273     1
    262    266     1
    262    267     1
    262    269     1
    262    270     1
    262    287     1
    262    288     1
    263    265     1
    263    268     1
    263    286     1
    263    275     1
    263    276     1
    264    265     1
    264    268     1
    264    286     1
    264    275     1
    264    276     1
    265    269     1
    265    270     1
    265    284     1
    265    285     1
    266    268     1
    266    283     1
    266    278     1
    266    279     1
    267    268     1
    267    283     1
    267    278     1
    267    279     1
    268    281     1
    268    282     1
    269    280     1
    269    272     1
    269    273     1
    270    280     1
    270    272     1
    270    273     1
    272    289     1
    272    281     1
    272    282     1
    273    289     1
    273    281     1
    273    282     1
    275    637     1
    275    287     1
    275    288     1
    276    637     1
    276    287     1
    276    288     1
    278    608     1
    278    284     1
    278    285     1
    279    608     1
    279    284     1
    279    285     1
    283    600     1
    283    601     1
    284    599     1
    285    599     1
    286    629     1
    286    630     1
    287    628     1
    288    628     1
    290    304     1
    290    305     1
    290    307     1
    290    308     1
    290    301     1
    290    302     1
    291    295     1
    291    296     1
    291    298     1
    291    299     1
    291    316     1
    291    317     1
    292    294     1
    292    297     1
    292    315     1
    292    304     1
    292    305     1
    293    294     1
    293    297     1
    293    315     1
    293    304     1
    293    305     1
    294    298     1
    294    299     1
    294    313     1
    294    314     1
    295    297     1
    295    312     1
    295    307     1
    295    308     1
    296    297     1
    296    312     1
    296    307     1
    296    308     1
    297    310     1
    297    311     1
    298    309     1
    298    301     1
    298    302     1
    299    309     1
    299    301     1
    299    302     1
    301    318     1
    301    310     1
    301    311     1
    302    318     1
    302    310     1
    302    311     1
    304    695     1
    304    316     1
    304    317     1
    305    695     1
    305    316     1
    305    317     1
    307    666     1
    307    313     1
    307    314     1
    308    666     1
    308    313     1
    308    314     1
    312    658     1
    312    659     1
    313    657     1
    314    657     1
    315    687     1
    315    688     1
    316    686     1
    317    686     1
    319    333     1
    319    334     1
    319    336     1
    319    337     1
    319    330     1
    319    331     1
    320    324     1
    320    325     1
    320    327     1
    320    328     1
    320    345     1
    320    346     1
    321    323     1
    321    326     1
    321    344     1
    321    333     1
    321    334     1
    322    323     1
    322    326     1
    322    344     1
    322    333     1
    322    334     1
    323    327     1
    323    328     1
    323    342     1
    323    343     1
    324    326     1
    324    341     1
    324    336     1
    324    337     1
    325    326     1
    325    341     1
    325    336     1
    325    337     1
    326    339     1
    326    340     1
    327    338     1
    327    330     1
    327    331     1
    328    338     1
    328    330     1
    328    331     1
    330    347     1
    330    339     1
    330    340     1
    331    347     1
    331    339     1
    331    340     1
    333    753     1
    333    345     1
    333    346     1
    334    753     1
    334    345     1
    334    346     1
    336    724     1
    336    342     1
    336    343     1
    337    724     1
    337    342     1
    337    343     1
    341    716     1
    341    717     1
    342    715     1
    343    715     1
    344    745     1
    344    746     1
    345    744     1
    346    744     1
    348    362     1
    348    363     1
    348    365     1
    348    366     1
    348    359     1
    348    360     1
    349    353     1
    349    354     1
    349    356     1
    349    357     1
    349    374     1
    349    375     1
    350    352     1
    350    355     1
    350    373     1
    350    362     1
    350    363     1
    351    352     1
    351    355     1
    351    373     1
    351    362     1
    351    363     1
    352    356     1
    352    357     1
    352    371     1
    352    372     1
    353    355     1
    353    370     1
    353    365     1
    353    366     1
    354    355     1
    354    370     1
    354    365     1
    354    366     1
    355    368     1
    355    369     1
    356    367     1
    356    359     1
    356    360     1
    357    367     1
    357    359     1
    357    360     1
    359    376     1
    359    368     1
    359    369     1
    360    376     1
    360    368     1
    360    369     1
    362    811     1
    362    374     1
    362    375     1
    363    811     1
    363    374     1
    363    375     1
    365    782     1
    365    371     1
    365    372     1
    366    782     1
    366    371     1
    366    372     1
    370    774     1
    370    775     1
    371    773     1
    372    773     1
    373    803     1
    373    804     1
    374    802     1
    375    802     1
    377    391     1
    377    392     1
    377    394     1
    377    395     1
    377    388     1
    377    389     1
    378    382     1
    378    383     1
    378    385     1
    378    386     1
    378    403     1
    378    404     1
    379    381     1
    379    384     1
    379    402     1
    379    391     1
    379    392     1
    380    381     1
    380    384     1
    380    402     1
    380    391     1
    380    392     1
    381    385     1
    381    386     1
    381    400     1
    381    401     1
    382    384     1
    382    399     1
    382    394     1
    382    395     1
    383    384     1
    383    399     1
    383    394     1
    383    395     1
    384    397     1
    384    398     1
    385    396     1
    385    388     1
    385    389     1
    386    396     1
    386    388     1
    386    389     1
    388    405     1
    388    397     1
    388    398     1
    389    405     1
    389    397     1
    389    398     1
    391    869     1
    391    403     1
    391    404     1
    392    869     1
    392    403     1
    392    404     1
    394    840     1
    394    400     1
    394    401     1
    395    840     1
    395    400     1
    395    401     1
    399    832     1
    399    833     1
    400    831     1
    401    831     1
    402    861     1
    402    862     1
    403    860     1
    404    860     1
    406    420     1
    406    421     1
    406    423     1
    406    424     1
    406    417     1
    406    418     1
    407    411     1
    407    412     1
    407    414     1
    407    415     1
    407    432     1
    407    433     1
    408    410     1
    408    413     1
    408    431     1
    408    420     1
    408    421     1
    409    410     1
    409    413     1
    409    431     1
    409    420     1
    409    421     1
    410    414     1
    410    415     1
    410    429     1
    410    430     1
    411    413     1
    411    428     1
    411    423     1
    411    424     1
    412    413     1
    412    428     1
    412    423     1
    412    424     1
    413    426     1
    413    427     1
    414    425     1
    414    417     1
    414    418     1
    415    425     1
    415    417     1
    415    418     1
    417    434     1
    417    426     1
    417    427     1
    418    434     1
    418    426     1
    418    427     1
    420    903     1
    420    432     1
    420    433     1
    421    903     1
    421    432     1
    421    433     1
    423    880     1
    423    429     1
    423    430     1
    424    880     1
    424    429     1
    424    430     1
    428    879     1
    429    876     1
    430    876     1
    431    902     1
    432    899     1
    433    899     1
    435    449     1
    435    450     1
    435    452     1
    435    453     1
    435    446     1
    435    447     1
    436    440     1
    436    441     1
    436    443     1
    436    444     1
    436    461     1
    436    462     1
    437    439     1
    437    442     1
    437    460     1
    437    449     1
    437    450     1
    438    439     1
    438    442     1
    438    460     1
    438    449     1
    438    450     1
    439    443     1
    439    444     1
    439    458     1
    439    459     1
    440    442     1
    440    457     1
    440    452     1
    440    453     1
    441    442     1
    441    457     1
    441    452     1
    441    453     1
    442    455     1
    442    456     1
    443    454     1
    443    446     1
    443    447     1
    444    454     1
    444    446     1
    444    447     1
    446    463     1
    446    455     1
    446    456     1
    447    463     1
    447    455     1
    447    456     1
    449    949     1
    449    461     1
    449    462     1
    450    949     1
    450    461     1
    450    462     1
    452    926     1
    452    458     1
    452    459     1
    453    926     1
    453    458     1
    453    459     1
    457    925     1
    458    922     1
    459    922     1
    460    948     1
    461    945     1
    462    945     1
    464    478     1
    464    479     1
    464    481     1
    464    482     1
    464    475     1
    464    476     1
    465    469     1
    465    470     1
    465    472     1
    465    473     1
    465    490     1
    465    491     1
    466    468     1
    466    471     1
    466    489     1
    466    478     1
    466    479     1
    467    468     1
    467    471     1
    467    489     1
    467    478     1
    467    479     1
    468    472     1
    468    473     1
    468    487     1
    468    488     1
    469    471     1
    469    486     1
    469    481     1
    469    482     1
    470    471     1
    470    486     1
    470    481     1
    470    482     1
    471    484     1
    471    485     1
    472    483     1
    472    475     1
    472    476     1
    473    483     1
    473    475     1
    473    476     1
    475    492     1
    475    484     1
    475    485     1
    476    492     1
    476    484     1
    476    485     1
    478    995     1
    478    490     1
    478    491     1
    479    995     1
    479    490     1
    479    491     1
    481    972     1
    481    487     1
    481    488     1
    482    972     1
    482    487     1
    482    488     1
    486    971     1
    487    968     1
    488    968     1
    489    994     1
    490    991     1
    491    991     1
    493    507     1
    493    508     1
    493    510     1
    493    511     1
    493    504     1
    493    505     1
    494    498     1
    494    499     1
    494    501     1
    494    502     1
    494    519     1
    494    520     1
    495    497     1
    495    500     1
    495    518     1
    495    507     1
    495    508     1
    496    497     1
    496    500     1
    496    518     1
    496    507     1
    496    508     1
    497    501     1
    497    502     1
    497    516     1
    497    517     1
    498    500     1
    498    515     1
    498    510     1
    498    511     1
    499    500     1
    499    515     1
    499    510     1
    499    511     1
    500    513     1
    500    514     1
    501    512     1
    501    504     1
    501    505     1
    502    512     1
    502    504     1
    502    505     1
    504    521     1
    504    513     1
    504    514     1
    505    521     1
    505    513     1
    505    514     1
    507   1041     1
    507    519     1
    507    520     1
    508   1041     1
    508    519     1
    508    520     1
    510   1018     1
    510    516     1
    510    517     1
    511   1018     1
    511    516     1
    511    517     1
    515   1017     1
    516   1014     1
    517   1014     1
    518   1040     1
    519   1037     1
    520   1037     1
    522    536     1
    522    537     1
    522    539     1
    522    540     1
    522    533     1
    522    534     1
    523    527     1
    523    528     1
    523    530     1
    523    531     1
    523    548     1
    523    549     1
    524    526     1
    524    529     1
    524    547     1
    524    536     1
    524    537     1
    525    526     1
    525    529     1
    525    547     1
    525    536     1
    525    537     1
    526    530     1
    526    531     1
    526    545     1
    526    546     1
    527    529     1
    527    544     1
    527    539     1
    527    540     1
    528    529     1
    528    544     1
    528    539     1
    528    540     1
    529    542     1
    529    543     1
    530    541     1
    530    533     1
    530    534     1
    531    541     1
    531    533     1
    531    534     1
    533    550     1
    533    542     1
    533    543     1
    534    550     1
    534    542     1
    534    543     1
    536   1087     1
    536    548     1
    536    549     1
    537   1087     1
    537    548     1
    537    549     1
    539   1064     1
    539    545     1
    539    546     1
    540   1064     1
    540    545     1
    540    546     1
    544   1063     1
    545   1060     1
    546   1060     1
    547   1086     1
    548   1083     1
    549   1083     1
    551    565     1
    551    566     1
    551    568     1
    551    569     1
    551    562     1
    551    563     1
    552    556     1
    552    557     1
    552    559     1
    552    560     1
    552    577     1
    552    578     1
    553    555     1
    553    558     1
    553    576     1
    553    565     1
    553    566     1
    554    555     1
    554    558     1
    554    576     1
    554    565     1
    554    566     1
    555    559     1
    555    560     1
    555    574     1
    555    575     1
    556    558     1
    556    573     1
    556    568     1
    556    569     1
    557    558     1
    557    573     1
    557    568     1
    557    569     1
    558    571     1
    558    572     1
    559    570     1
    559    562     1
    559    563     1
    560    570     1
    560    562     1
    560    563     1
    562    579     1
    562    571     1
    562    572     1
    563    579     1
    563    571     1
    563    572     1
    565   1133     1
    565    577     1
    565    578     1
    566   1133     1
    566    577     1
    566    578     1
    568   1110     1
    568    574     1
    568    575     1
    569   1110     1
    569    574     1
    569    575     1
    573   1109     1
    574   1106     1
    575   1106     1
    576   1132     1
    577   1129     1
    578   1129     1
    580    594     1
    580    595     1
    580    597     1
    580    598     1
    580    591     1
    580    592     1
    581    585     1
    581    586     1
    581    588     1
    581    589     1
    581    606     1
    581    607     1
    582    584     1
    582    587     1
    582    605     1
    582    594     1
    582    595     1
    583    584     1
    583    587     1
    583    605     1
    583    594     1
    583    595     1
    584    588     1
    584    589     1
    584    603     1
    584    604     1
    585    587     1
    585    602     1
    585    597     1
    585    598     1
    586    587     1
    586    602     1
    586    597     1
    586    598     1
    587    600     1
    587    601     1
    588    599     1
    588    591     1
    588    592     1
    589    599     1
    589    591     1
    589    592     1
    591    608     1
    591    600     1
    591    601     1
    592    608     1
    592    600     1
    592    601     1
    594   1179     1
    594    606     1
    594    607     1
    595   1179     1
    595    606     1
    595    607     1
    597   1156     1
    597    603     1
    597    604     1
    598   1156     1
    598    603     1
    598    604     1
    602   1155     1
    603   1152     1
    604   1152     1
    605   1178     1
    606   1175     1
    607   1175     1
    609    623     1
    609    624     1
    609    626     1
    609    627     1
    609    620     1
    609    621     1
    610    614     1
    610    615     1
    610    617     1
    610    618     1
    610    635     1
    610    636     1
    611    613     1
    611    616     1
    611    634     1
    611    623     1
    611    624     1
    612    613     1
    612    616     1
    612    634     1
    612    623     1
    612    624     1
    613    617     1
    613    618     1
    613    632     1
    613    633     1
    614    616     1
    614    631     1
    614    626     1
    614    627     1
    615    616     1
    615    631     1
    615    626     1
    615    627     1
    616    629     1
    616    630     1
    617    628     1
    617    620     1
    617    621     1
    618    628     1
    618    620     1
    618    621     1
    620    637     1
    620    629     1
    620    630     1
    621    637     1
    621    629     1
    621    630     1
    623   1225     1
    623    635     1
    623    636     1
    624   1225     1
    624    635     1
    624    636     1
    626   1202     1
    626    632     1
    626    633     1
    627   1202     1
    627    632     1
    627    633     1
    631   1201     1
    632   1198     1
    633   1198     1
    634   1224     1
    635   1221     1
    636   1221     1
    638    652     1
    638    653     1
    638    655     1
    638    656     1
    638    649     1
    638    650     1
    639    643     1
    639    644     1
    639    646     1
    639    647     1
    639    664     1
    639    665     1
    640    642     1
    640    645     1
    640    663     1
    640    652     1
    640    653     1
    641    642     1
    641    645     1
    641    663     1
    641    652     1
    641    653     1
    642    646     1
    642    647     1
    642    661     1
    642    662     1
    643    645     1
    643    660     1
    643    655     1
    643    656     1
    644    645     1
    644    660     1
    644    655     1
    644    656     1
    645    658     1
    645    659     1
    646    657     1
    646    649     1
    646    650     1
    647    657     1
    647    649     1
    647    650     1
    649    666     1
    649    658     1
    649    659     1
    650    666     1
    650    658     1
    650    659     1
    652   1271     1
    652    664     1
    652    665     1
    653   1271     1
    653    664     1
    653    665     1
    655   1248     1
    655    661     1
    655    662     1
    656   1248     1
    656    661     1
    656    662     1
    660   1247     1
    661   1244     1
    662   1244     1
    663   1270     1
    664   1267     1
    665   1267     1
    667    681     1
    667    682     1
    667    684     1
    667    685     1
    667    678     1
    667    679     1
    668    672     1
    668    673     1
    668    675     1
    668    676     1
    668    693     1
    668    694     1
    669    671     1
    669    674     1
    669    692     1
    669    681     1
    669    682     1
    670    671     1
    670    674     1
    670    692     1
    670    681     1
    670    682     1
    671    675     1
    671    676     1
    671    690     1
    671    691     1
    672    674     1
    672    689     1
    672    684     1
    672    685     1
    673    674     1
    673    689     1
    673    684     1
    673    685     1
    674    687     1
    674    688     1
    675    686     1
    675    678     1
    675    679     1
    676    686     1
    676    678     1
    676    679     1
    678    695     1
    678    687     1
    678    688     1
    679    695     1
    679    687     1
    679    688     1
    681   1317     1
    681    693     1
    681    694     1
    682   1317     1
    682    693     1
    682    694     1
    684   1294     1
    684    690     1
    684    691     1
    685   1294     1
    685    690     1
    685    691     1
    689   1293     1
    690   1290     1
    691   1290     1
    692   1316     1
    693   1313     1
    694   1313     1
    696    710     1
    696    711     1
    696    713     1
    696    714     1
    696    707     1
    696    708     1
    697    701     1
    697    702     1
    697    704     1
    697    705     1
    697    722     1
    697    723     1
    698    700     1
    698    703     1
    698    721     1
    698    710     1
    698    711     1
    699    700     1
    699    703     1
    699    721     1
    699    710     1
    699    711     1
    700    704     1
    700    705     1
    700    719     1
    700    720     1
    701    703     1
    701    718     1
    701    713     1
    701    714     1
    702    703     1
    702    718     1
    702    713     1
    702    714     1
    703    716     1
    703    717     1
    704    715     1
    704    707     1
    704    708     1
    705    715     1
    705    707     1
    705    708     1
    707    724     1
    707    716     1
    707    717     1
    708    724     1
    708    716     1
    708    717     1
    710   1363     1
    710    722     1
    710    723     1
    711   1363     1
    711    722     1
    711    723     1
    713   1340     1
    713    719     1
    713    720     1
    714   1340     1
    714    719     1
    714    720     1
    718   1339     1
    719   1336     1
    720   1336     1
    721   1362     1
    722   1359     1
    723   1359     1
    725    739     1
    725    740     1
    725    742     1
    725    743     1
    725    736     1
    725    737     1
    726    730     1
    726    731     1
    726    733     1
    726    734     1
    726    751     1
    726    752     1
    727    729     1
    727    732     1
    727    750     1
    727    739     1
    727    740     1
    728    729     1
    728    732     1
    728    750     1
    728    739     1
    728    740     1
    729    733     1
    729    734     1
    729    748     1
    729    749     1
    730    732     1
    730    747     1
    730    742     1
    730    743     1
    731    732     1
    731    747     1
    731    742     1
    731    743     1
    732    745     1
    732    746     1
    733    744     1
    733    736     1
    733    737     1
    734    744     1
    734    736     1
    734    737     1
    736    753     1
    736    745     1
    736    746     1
    737    753     1
    737    745     1
    737    746     1
    739   1409     1
    739    751     1
    739    752     1
    740   1409     1
    740    751     1
    740    752     1
    742   1386     1
    742    748     1
    742    749     1
    743   1386     1
    743    748     1
    743    749     1
    747   1385     1
    748   1382     1
    749   1382     1
    750   1408     1
    751   1405     1
    752   1405     1
    754    768     1
    754    769     1
    754    771     1
    754    772     1
    754    765     1
    754    766     1
    755    759     1
    755    760     1
    755    762     1
    755    763     1
    755    780     1
    755    781     1
    756    758     1
    756    761     1
    756    779     1
    756    768     1
    756    769     1
    757    758     1
    757    761     1
    757    779     1
    757    768     1
    757    769     1
    758    762     1
    758    763     1
    758    777     1
    758    778     1
    759    761     1
    759    776     1
    759    771     1
    759    772     1
    760    761     1
    760    776     1
    760    771     1
    760    772     1
    761    774     1
    761    775     1
    762    773     1
    762    765     1
    762    766     1
    763    773     1
    763    765     1
    763    766     1
    765    782     1
    765    774     1
    765    775     1
    766    782     1
    766    774     1
    766    775     1
    768   1455     1
    768    780     1
    768    781     1
    769   1455     1
    769    780     1
    769    781     1
    771   1432     1
    771    777     1
    771    778     1
    772   1432     1
    772    777     1
    772    778     1
    776   1431     1
    777   1428     1
    778   1428     1
    779   1454     1
    780   1451     1
    781   1451     1
    783    797     1
    783    798     1
    783    800     1
    783    801     1
    783    794     1
    783    795     1
    784    788     1
    784    789     1
    784    791     1
    784    792     1
    784    809     1
    784    810     1
    785    787     1
    785    790     1
    785    808     1
    785    797     1
    785    798     1
    786    787     1
    786    790     1
    786    808     1
    786    797     1
    786    798     1
    787    791     1
    787    792     1
    787    806     1
    787    807     1
    788    790     1
    788    805     1
    788    800     1
    788    801     1
    789    790     1
    789    805     1
    789    800     1
    789    801     1
    790    803     1
    790    804     1
    791    802     1
    791    794     1
    791    795     1
    792    802     1
    792    794     1
    792    795     1
    794    811     1
    794    803     1
    794    804     1
    795    811     1
    795    803     1
    795    804     1
    797   1501     1
    797    809     1
    797    810     1
    798   1501     1
    798    809     1
    798    810     1
    800   1478     1
    800    806     1
    800    807     1
    801   1478     1
    801    806     1
    801    807     1
    805   1477     1
    806   1474     1
    807   1474     1
    808   1500     1
    809   1497     1
    810   1497     1
    812    826     1
    812    827     1
    812    829     1
    812    830     1
    812    823     1
    812    824     1
    813    817     1
    813    818     1
    813    820     1
    813    821     1
    813    838     1
    813    839     1
    814    816     1
    814    819     1
    814    837     1
    814    826     1
    814    827     1
    815    816     1
    815    819     1
    815    837     1
    815    826     1
    815    827     1
    816    820     1
    816    821     1
    816    835     1
    816    836     1
    817    819     1
    817    834     1
    817    829     1
    817    830     1
    818    819     1
    818    834     1
    818    829     1
    818    830     1
    819    832     1
    819    833     1
    820    831     1
    820    823     1
    820    824     1
    821    831     1
    821    823     1
    821    824     1
    823    840     1
    823    832     1
    823    833     1
    824    840     1
    824    832     1
    824    833     1
    826   1547     1
    826    838     1
    826    839     1
    827   1547     1
    827    838     1
    827    839     1
    829   1524     1
    829    835     1
    829    836     1
    830   1524     1
    830    835     1
    830    836     1
    834   1523     1
    835   1520     1
    836   1520     1
    837   1546     1
    838   1543     1
    839   1543     1
    841    855     1
    841    856     1
    841    858     1
    841    859     1
    841    852     1
    841    853     1
    842    846     1
    842    847     1
    842    849     1
    842    850     1
    842    867     1
    842    868     1
    843    845     1
    843    848     1
    843    866     1
    843    855     1
    843    856     1
    844    845     1
    844    848     1
    844    866     1
    844    855     1
    844    856     1
    845    849     1
    845    850     1
    845    864     1
    845    865     1
    846    848     1
    846    863     1
    846    858     1
    846    859     1
    847    848     1
    847    863     1
    847    858     1
    847    859     1
    848    861     1
    848    862     1
    849    860     1
    849    852     1
    849    853     1
    850    860     1
    850    852     1
    850    853     1
    852    869     1
    852    861     1
    852    862     1
    853    869     1
    853    861     1
    853    862     1
    855   1593     1
    855    867     1
    855    868     1
    856   1593     1
    856    867     1
    856    868     1
    858   1570     1
    858    864     1
    858    865     1
    859   1570     1
    859    864     1
    859    865     1
    863   1569     1
    864   1566     1
    865   1566     1
    866   1592     1
    867   1589     1
    868   1589     1
    870    878     1
    870    886     1
    870    891     1
    870    879     1
    871    888     1
    871    889     1
    871    877     1
    871    885     1
    872    874     1
    872    883     1
    872    873     1
    872    890     1
    872    888     1
    872    889     1
    872    876     1
    873    884     1
    873    892     1
    873    875     1
    873    882     1
    873    878     1
    873    886     1
    874    886     1
    874    879     1
    874    887     1
    875    885     1
    876    878     1
    876    887     1
    877    882     1
    877    878     1
    877    880     1
    877    892     1
    877    879     1
    877    887     1
    878    883     1
    878    881     1
    878    885     1
    879    881     1
    888    892     1
    888    891     1
    889    892     1
    889    891     1
    893    901     1
    893    909     1
    893    914     1
    893    902     1
    894    911     1
    894    912     1
    894    900     1
    894    908     1
    895    897     1
    895    906     1
    895    896     1
    895    913     1
    895    911     1
    895    912     1
    895    899     1
    896    907     1
    896    915     1
    896    898     1
    896    905     1
    896    901     1
    896    909     1
    897    909     1
    897    902     1
    897    910     1
    898    908     1
    899    901     1
    899    910     1
    900    905     1
    900    901     1
    900    903     1
    900    915     1
    900    902     1
    900    910     1
    901    906     1
    901    904     1
    901    908     1
    902    904     1
    911    915     1
    911    914     1
    912    915     1
    912    914     1
    916    924     1
    916    932     1
    916    937     1
    916    925     1
    917    934     1
    917    935     1
    917    923     1
    917    931     1
    918    920     1
    918    929     1
    918    919     1
    918    936     1
    918    934     1
    918    935     1
    918    922     1
    919    930     1
    919    938     1
    919    921     1
    919    928     1
    919    924     1
    919    932     1
    920    932     1
    920    925     1
    920    933     1
    921    931     1
    922    924     1
    922    933     1
    923    928     1
    923    924     1
    923    926     1
    923    938     1
    923    925     1
    923    933     1
    924    929     1
    924    927     1
    924    931     1
    925    927     1
    934    938     1
    934    937     1
    935    938     1
    935    937     1
    939    947     1
    939    955     1
    939    960     1
    939    948     1
    940    957     1
    940    958     1
    940    946     1
    940    954     1
    941    943     1
    941    952     1
    941    942     1
    941    959     1
    941    957     1
    941    958     1
    941    945     1
    942    953     1
    942    961     1
    942    944     1
    942    951     1
    942    947     1
    942    955     1
    943    955     1
    943    948     1
    943    956     1
    944    954     1
    945    947     1
    945    956     1
    946    951     1
    946    947     1
    946    949     1
    946    961     1
    946    948     1
    946    956     1
    947    952     1
    947    950     1
    947    954     1
    948    950     1
    957    961     1
    957    960     1
    958    961     1
    958    960     1
    962    970     1
    962    978     1
    962    983     1
    962    971     1
    963    980     1
    963    981     1
    963    969     1
    963    977     1
    964    966     1
    964    975     1
    964    965     1
    964    982     1
    964    980     1
    964    981     1
    964    968     1
    965    976     1
    965    984     1
    965    967     1
    965    974     1
    965    970     1
    965    978     1
    966    978     1
    966    971     1
    966    979     1
    967    977     1
    968    970     1
    968    979     1
    969    974     1
    969    970     1
    969    972     1
    969    984     1
    969    971     1
    969    979     1
    970    975     1
    970    973     1
    970    977     1
    971    973     1
    980    984     1
    980    983     1
    981    984     1
    981    983     1
    985    993     1
    985   1001     1
    985   1006     1
    985    994     1
    986   1003     1
    986   1004     1
    986    992     1
    986   1000     1
    987    989     1
    987    998     1
    987    988     1
    987   1005     1
    987   1003     1
    987   1004     1
    987    991     1
    988    999     1
    988   1007     1
    988    990     1
    988    997     1
    988    993     1
    988   1001     1
    989   1001     1
    989    994     1
    989   1002     1
    990   1000     1
    991    993     1
    991   1002     1
    992    997     1
    992    993     1
    992    995     1
    992   1007     1
    992    994     1
    992   1002     1
    993    998     1
    993    996     1
    993   1000     1
    994    996     1
   1003   1007     1
   1003   1006     1
   1004   1007     1
   1004   1006     1
   1008   1016     1
   1008   1024     1
   1008   1029     1
   1008   1017     1
   1009   1026     1
   1009   1027     1
   1009   1015     1
   1009   1023     1
   1010   1012     1
   1010   1021     1
   1010   1011     1
   1010   1028     1
   1010   1026     1
   1010   1027     1
   1010   1014     1
   1011   1022     1
   1011   1030     1
   1011   1013     1
   1011   1020     1
   1011   1016     1
   1011   1024     1
   1012   1024     1
   1012   1017     1
   1012   1025     1
   1013   1023     1
   1014   1016     1
   1014   1025     1
   1015   1020     1
   1015   1016     1
   1015   1018     1
   1015   1030     1
   1015   1017     1
   1015   1025     1
   1016   1021     1
   1016   1019     1
   1016   1023     1
   1017   1019     1
   1026   1030     1
   1026   1029     1
   1027   1030     1
   1027   1029     1
   1031   1039     1
   1031   1047     1
   1031   1052     1
   1031   1040     1
   1032   1049     1
   1032   1050     1
   1032   1038     1
   1032   1046     1
   1033   1035     1
   1033   1044     1
   1033   1034     1
   1033   1051     1
   1033   1049     1
   1033   1050     1
   1033   1037     1
   1034   1045     1
   1034   1053     1
   1034   1036     1
   1034   1043     1
   1034   1039     1
   1034   1047     1
   1035   1047     1
   1035   1040     1
   1035   1048     1
   1036   1046     1
   1037   1039     1
   1037   1048     1
   1038   1043     1
   1038   1039     1
   1038   1041     1
   1038   1053     1
   1038   1040     1
   1038   1048     1
   1039   1044     1
   1039   1042     1
   1039   1046     1
   1040   1042     1
   1049   1053     1
   1049   1052     1
   1050   1053     1
   1050   1052     1
   1054   1062     1
   1054   1070     1
   1054   1075     1
   1054   1063     1
   1055   1072     1
   1055   1073     1
   1055   1061     1
   1055   1069     1
   1056   1058     1
   1056   1067     1
   1056   1057     1
   1056   1074     1
   1056   1072     1
   1056   1073     1
   1056   1060     1
   1057   1068     1
   1057   1076     1
   1057   1059     1
   1057   1066     1
   1057   1062     1
   1057   1070     1
   1058   1070     1
   1058   1063     1
   1058   1071     1
   1059   1069     1
   1060   1062     1
   1060   1071     1
   1061   1066     1
   1061   1062     1
   1061   1064     1
   1061   1076     1
   1061   1063     1
   1061   1071     1
   1062   1067     1
   1062   1065     1
   1062   1069     1
   1063   1065     1
   1072   1076     1
   1072   1075     1
   1073   1076     1
   1073   1075     1
   1077   1085     1
   1077   1093     1
   1077   1098     1
   1077   1086     1
   1078   1095     1
   1078   1096     1
   1078   1084     1
   1078   1092     1
   1079   1081     1
   1079   1090     1
   1079   1080     1
   1079   1097     1
   1079   1095     1
   1079   1096     1
   1079   1083     1
   1080   1091     1
   1080   1099     1
   1080   1082     1
   1080   1089     1
   1080   1085     1
   1080   1093     1
   1081   1093     1
   1081   1086     1
   1081   1094     1
   1082   1092     1
   1083   1085     1
   1083   1094     1
   1084   1089     1
   1084   1085     1
   1084   1087     1
   1084   1099     1
   1084   1086     1
   1084   1094     1
   1085   1090     1
   1085   1088     1
   1085   1092     1
   1086   1088     1
   1095   1099     1
   1095   1098     1
   1096   1099     1
   1096   1098     1
   1100   1108     1
   1100   1116     1
   1100   1121     1
   1100   1109     1
   1101   1118     1
   1101   1119     1
   1101   1107     1
   1101   1115     1
   1102   1104     1
   1102   1113     1
   1102   1103     1
   1102   1120     1
   1102   1118     1
   1102   1119     1
   1102   1106     1
   1103   1114     1
   1103   1122     1
   1103   1105     1
   1103   1112     1
   1103   1108     1
   1103   1116     1
   1104   1116     1
   1104   1109     1
   1104   1117     1
   1105   1115     1
   1106   1108     1
   1106   1117     1
   1107   1112     1
   1107   1108     1
   1107   1110     1
   1107   1122     1
   1107   1109     1
   1107   1117     1
   1108   1113     1
   1108   1111     1
   1108   1115     1
   1109   1111     1
   1118   1122     1
   1118   1121     1
   1119   1122     1
   1119   1121     1
   1123   1131     1
   1123   1139     1
   1123   1144     1
   1123   1132     1
   1124   1141     1
   1124   1142     1
   1124   1130     1
   1124   1138     1
   1125   1127     1
   1125   1136     1
   1125   1126     1
   1125   1143     1
   1125   1141     1
   1125   1142     1
   1125   1129     1
   1126   1137     1
   1126   1145     1
   1126   1128     1
   1126   1135     1
   1126   1131     1
   1126   1139     1
   1127   1139     1
   1127   1132     1
   1127   1140     1
   1128   1138     1
   1129   1131     1
   1129   1140     1
   1130   1135     1
   1130   1131     1
   1130   1133     1
   1130   1145     1
   1130   1132     1
   1130   1140     1
   1131   1136     1
   1131   1134     1
   1131   1138     1
   1132   1134     1
   1141   1145     1
   1141   1144     1
   1142   1145     1
   1142   1144     1
   1146   1154     1
   1146   1162     1
   1146   1167     1
   1146   1155     1
   1147   1164     1
   1147   1165     1
   1147   1153     1
   1147   1161     1
   1148   1150     1
   1148   1159     1
   1148   1149     1
   1148   1166     1
   1148   1164     1
   1148   1165     1
   1148   1152     1
   1149   1160     1
   1149   1168     1
   1149   1151     1
   1149   1158     1
   1149   1154     1
   1149   1162     1
   1150   1162     1
   1150   1155     1
   1150   1163     1
   1151   1161     1
   1152   1154     1
   1152   1163     1
   1153   1158     1
   1153   1154     1
   1153   1156     1
   1153   1168     1
   1153   1155     1
   1153   1163     1
   1154   1159     1
   1154   1157     1
   1154   1161     1
   1155   1157     1
   1164   1168     1
   1164   1167     1
   1165   1168     1
   1165   1167     1
   1169   1177     1
   1169   1185     1
   1169   1190     1
   1169   1178     1
   1170   1187     1
   1170   1188     1
   1170   1176     1
   1170   1184     1
   1171   1173     1
   1171   1182     1
   1171   1172     1
   1171   1189     1
   1171   1187     1
   1171   1188     1
   1171   1175     1
   1172   1183     1
   1172   1191     1
   1172   1174     1
   1172   1181     1
   1172   1177     1
   1172   1185     1
   1173   1185     1
   1173   1178     1
   1173   1186     1
   1174   1184     1
   1175   1177     1
   1175   1186     1
   1176   1181     1
   1176   1177     1
   1176   1179     1
   1176   1191     1
   1176   1178     1
   1176   1186     1
   1177   1182     1
   1177   1180     1
   1177   1184     1
   1178   1180     1
   1187   1191     1
   1187   1190     1
   1188   1191     1
   1188   1190     1
   1192   1200     1
   1192   1208     1
   1192   1213     1
   1192   1201     1
   1193   1210     1
   1193   1211     1
   1193   1199     1
   1193   1207     1
   1194   1196     1
   1194   1205     1
   1194   1195     1
   1194   1212     1
   1194   1210     1
   1194   1211     1
   1194   1198     1
   1195   1206     1
   1195   1214     1
   1195   1197     1
   1195   1204     1
   1195   1200     1
   1195   1208     1
   1196   1208     1
   1196   1201     1
   1196   1209     1
   1197   1207     1
   1198   1200     1
   1198   1209     1
   1199   1204     1
   1199   1200     1
   1199   1202     1
   1199   1214     1
   1199   1201     1
   1199   1209     1
   1200   1205     1
   1200   1203     1
   1200   1207     1
   1201   1203     1
   1210   1214     1
   1210   1213     1
   1211   1214     1
   1211   1213     1
   1215   1223     1
   1215   1231     1
   1215   1236     1
   1215   1224     1
   1216   1233     1
   1216   1234     1
   1216   1222     1
   1216   1230     1
   1217   1219     1
   1217   1228     1
   1217   1218     1
   1217   1235     1
   1217   1233     1
   1217   1234     1
   1217   1221     1
   1218   1229     1
   1218   1237     1
   1218   1220     1
   1218   1227     1
   1218   1223     1
   1218   1231     1
   1219   1231     1
   1219   1224     1
   1219   1232     1
   1220   1230     1
   1221   1223     1
   1221   1232     1
   1222   1227     1
   1222   1223     1
   1222   1225     1
   1222   1237     1
   1222   1224     1
   1222   1232     1
   1223   1228     1
   1223   1226     1
   1223   1230     1
   1224   1226     1
   1233   1237     1
   1233   1236     1
   1234   1237     1
   1234   1236     1
   1238   1246     1
   1238   1254     1
   1238   1259     1
   1238   1247     1
   1239   1256     1
   1239   1257     1
   1239   1245     1
   1239   1253     1
   1240   1242     1
   1240   1251     1
   1240   1241     1
   1240   1258     1
   1240   1256     1
   1240   1257     1
   1240   1244     1
   1241   1252     1
   1241   1260     1
   1241   1243     1
   1241   1250     1
   1241   1246     1
   1241   1254     1
   1242   1254     1
   1242   1247     1
   1242   1255     1
   1243   1253     1
   1244   1246     1
   1244   1255     1
   1245   1250     1
   1245   1246     1
   1245   1248     1
   1245   1260     1
   1245   1247     1
   1245   1255     1
   1246   1251     1
   1246   1249     1
   1246   1253     1
   1247   1249     1
   1256   1260     1
   1256   1259     1
   1257   1260     1
   1257   1259     1
   1261   1269     1
   1261   1277     1
   1261   1282     1
   1261   1270     1
   1262   1279     1
   1262   1280     1
   1262   1268     1
   1262   1276     1
   1263   1265     1
   1263   1274     1
   1263   1264     1
   1263   1281     1
   1263   1279     1
   1263   1280     1
   1263   1267     1
   1264   1275     1
   1264   1283     1
   1264   1266     1
   1264   1273     1
   1264   1269     1
   1264   1277     1
   1265   1277     1
   1265   1270     1
   1265   1278     1
   1266   1276     1
   1267   1269     1
   1267   1278     1
   1268   1273     1
   1268   1269     1
   1268   1271     1
   1268   1283     1
   1268   1270     1
   1268   1278     1
   1269   1274     1
   1269   1272     1
   1269   1276     1
   1270   1272     1
   1279   1283     1
   1279   1282     1
   1280   1283     1
   1280   1282     1
   1284   1292     1
   1284   1300     1
   1284   1305     1
   1284   1293     1
   1285   1302     1
   1285   1303     1
   1285   1291     1
   1285   1299     1
   1286   1288     1
   1286   1297     1
   1286   1287     1
   1286   1304     1
   1286   1302     1
   1286   1303     1
   1286   1290     1
   1287   1298     1
   1287   1306     1
   1287   1289     1
   1287   1296     1
   1287   1292     1
   1287   1300     1
   1288   1300     1
   1288   1293     1
   1288   1301     1
   1289   1299     1
   1290   1292     1
   1290   1301     1
   1291   1296     1
   1291   1292     1
   1291   1294     1
   1291   1306     1
   1291   1293     1
   1291   1301     1
   1292   1297     1
   1292   1295     1
   1292   1299     1
   1293   1295     1
   1302   1306     1
   1302   1305     1
   1303   1306     1
   1303   1305     1
   1307   1315     1
   1307   1323     1
   1307   1328     1
   1307   1316     1
   1308   1325     1
   1308   1326     1
   1308   1314     1
   1308   1322     1
   1309   1311     1
   1309   1320     1
   1309   1310     1
   1309   1327     1
   1309   1325     1
   1309   1326     1
   1309   1313     1
   1310   1321     1
   1310   1329     1
   1310   1312     1
   1310   1319     1
   1310   1315     1
   1310   1323     1
   1311   1323     1
   1311   1316     1
   1311   1324     1
   1312   1322     1
   1313   1315     1
   1313   1324     1
   1314   1319     1
   1314   1315     1
   1314   1317     1
   1314   1329     1
   1314   1316     1
   1314   1324     1
   1315   1320     1
   1315   1318     1
   1315   1322     1
   1316   1318     1
   1325   1329     1
   1325   1328     1
   1326   1329     1
   1326   1328     1
   1330   1338     1
   1330   1346     1
   1330   1351     1
   1330   1339     1
   1331   1348     1
   1331   1349     1
   1331   1337     1
   1331   1345     1
   1332   1334     1
   1332   1343     1
   1332   1333     1
   1332   1350     1
   1332   1348     1
   1332   1349     1
   1332   1336     1
   1333   1344     1
   1333   1352     1
   1333   1335     1
   1333   1342     1
   1333   1338     1
   1333   1346     1
   1334   1346     1
   1334   1339     1
   1334   1347     1
   1335   1345     1
   1336   1338     1
   1336   1347     1
   1337   1342     1
   1337   1338     1
   1337   1340     1
   1337   1352     1
   1337   1339     1
   1337   1347     1
   1338   1343     1
   1338   1341     1
   1338   1345     1
   1339   1341     1
   1348   1352     1
   1348   1351     1
   1349   1352     1
   1349   1351     1
   1353   1361     1
   1353   1369     1
   1353   1374     1
   1353   1362     1
   1354   1371     1
   1354   1372     1
   1354   1360     1
   1354   1368     1
   1355   1357     1
   1355   1366     1
   1355   1356     1
   1355   1373     1
   1355   1371     1
   1355   1372     1
   1355   1359     1
   1356   1367     1
   1356   1375     1
   1356   1358     1
   1356   1365     1
   1356   1361     1
   1356   1369     1
   1357   1369     1
   1357   1362     1
   1357   1370     1
   1358   1368     1
   1359   1361     1
   1359   1370     1
   1360   1365     1
   1360   1361     1
   1360   1363     1
   1360   1375     1
   1360   1362     1
   1360   1370     1
   1361   1366     1
   1361   1364     1
   1361   1368     1
   1362   1364     1
   1371   1375     1
   1371   1374     1
   1372   1375     1
   1372   1374     1
   1376   1384     1
   1376   1392     1
   1376   1397     1
   1376   1385     1
   1377   1394     1
   1377   1395     1
   1377   1383     1
   1377   1391     1
   1378   1380     1
   1378   1389     1
   1378   1379     1
   1378   1396     1
   1378   1394     1
   1378   1395     1
   1378   1382     1
   1379   1390     1
   1379   1398     1
   1379   1381     1
   1379   1388     1
   1379   1384     1
   1379   1392     1
   1380   1392     1
   1380   1385     1
   1380   1393     1
   1381   1391     1
   1382   1384     1
   1382   1393     1
   1383   1388     1
   1383   1384     1
   1383   1386     1
   1383   1398     1
   1383   1385     1
   1383   1393     1
   1384   1389     1
   1384   1387     1
   1384   1391     1
   1385   1387     1
   1394   1398     1
   1394   1397     1
   1395   1398     1
   1395   1397     1
   1399   1407     1
   1399   1415     1
   1399   1420     1
   1399   1408     1
   1400   1417     1
   1400   1418     1
   1400   1406     1
   1400   1414     1
   1401   1403     1
   1401   1412     1
   1401   1402     1
   1401   1419     1
   1401   1417     1
   1401   1418     1
   1401   1405     1
   1402   1413     1
   1402   1421     1
   1402   1404     1
   1402   1411     1
   1402   1407     1
   1402   1415     1
   1403   1415     1
   1403   1408     1
   1403   1416     1
   1404   1414     1
   1405   1407     1
   1405   1416     1
   1406   1411     1
   1406   1407     1
   1406   1409     1
   1406   1421     1
   1406   1408     1
   1406   1416     1
   1407   1412     1
   1407   1410     1
   1407   1414     1
   1408   1410     1
   1417   1421     1
   1417   1420     1
   1418   1421     1
   1418   1420     1
   1422   1430     1
   1422   1438     1
   1422   1443     1
   1422   1431     1
   1423   1440     1
   1423   1441     1
   1423   1429     1
   1423   1437     1
   1424   1426     1
   1424   1435     1
   1424   1425     1
   1424   1442     1
   1424   1440     1
   1424   1441     1
   1424   1428     1
   1425   1436     1
   1425   1444     1
   1425   1427     1
   1425   1434     1
   1425   1430     1
   1425   1438     1
   1426   1438     1
   1426   1431     1
   1426   1439     1
   1427   1437     1
   1428   1430     1
   1428   1439     1
   1429   1434     1
   1429   1430     1
   1429   1432     1
   1429   1444     1
   1429   1431     1
   1429   1439     1
   1430   1435     1
   1430   1433     1
   1430   1437     1
   1431   1433     1
   1440   1444     1
   1440   1443     1
   1441   1444     1
   1441   1443     1
   1445   1453     1
   1445   1461     1
   1445   1466     1
   1445   1454     1
   1446   1463     1
   1446   1464     1
   1446   1452     1
   1446   1460     1
   1447   1449     1
   1447   1458     1
   1447   1448     1
   1447   1465     1
   1447   1463     1
   1447   1464     1
   1447   1451     1
   1448   1459     1
   1448   1467     1
   1448   1450     1
   1448   1457     1
   1448   1453     1
   1448   1461     1
   1449   1461     1
   1449   1454     1
   1449   1462     1
   1450   1460     1
   1451   1453     1
   1451   1462     1
   1452   1457     1
   1452   1453     1
   1452   1455     1
   1452   1467     1
   1452   1454     1
   1452   1462     1
   1453   1458     1
   1453   1456     1
   1453   1460     1
   1454   1456     1
   1463   1467     1
   1463   1466     1
   1464   1467     1
   1464   1466     1
   1468   1476     1
   1468   1484     1
   1468   1489     1
   1468   1477     1
   1469   1486     1
   1469   1487     1
   1469   1475     1
   1469   1483     1
   1470   1472     1
   1470   1481     1
   1470   1471     1
   1470   1488     1
   1470   1486     1
   1470   1487     1
   1470   1474     1
   1471   1482     1
   1471   1490     1
   1471   1473     1
   1471   1480     1
   1471   1476     1
   1471   1484     1
   1472   1484     1
   1472   1477     1
   1472   1485     1
   1473   1483     1
   1474   1476     1
   1474   1485     1
   1475   1480     1
   1475   1476     1
   1475   1478     1
   1475   1490     1
   1475   1477     1
   1475   1485     1
   1476   1481     1
   1476   1479     1
   1476   1483     1
   1477   1479     1
   1486   1490     1
   1486   1489     1
   1487   1490     1
   1487   1489     1
   1491   1499     1
   1491   1507     1
   1491   1512     1
   1491   1500     1
   1492   1509     1
   1492   1510     1
   1492   1498     1
   1492   1506     1
   1493   1495     1
   1493   1504     1
   1493   1494     1
   1493   1511     1
   1493   1509     1
   1493   1510     1
   1493   1497     1
   1494   1505     1
   1494   1513     1
   1494   1496     1
   1494   1503     1
   1494   1499     1
   1494   1507     1
   1495   1507     1
   1495   1500     1
   1495   1508     1
   1496   1506     1
   1497   1499     1
   1497   1508     1
   1498   1503     1
   1498   1499     1
   1498   1501     1
   1498   1513     1
   1498   1500     1
   1498   1508     1
   1499   1504     1
   1499   1502     1
   1499   1506     1
   1500   1502     1
   1509   1513     1
   1509   1512     1
   1510   1513     1
   1510   1512     1
   1514   1522     1
   1514   1530     1
   1514   1535     1
   1514   1523     1
   1515   1532     1
   1515   1533     1
   1515   1521     1
   1515   1529     1
   1516   1518     1
   1516   1527     1
   1516   1517     1
   1516   1534     1
   1516   1532     1
   1516   1533     1
   1516   1520     1
   1517   1528     1
   1517   1536     1
   1517   1519     1
   1517   1526     1
   1517   1522     1
   1517   1530     1
   1518   1530     1
   1518   1523     1
   1518   1531     1
   1519   1529     1
   1520   1522     1
   1520   1531     1
   1521   1526     1
   1521   1522     1
   1521   1524     1
   1521   1536     1
   1521   1523     1
   1521   1531     1
   1522   1527     1
   1522   1525     1
   1522   1529     1
   1523   1525     1
   1532   1536     1
   1532   1535     1
   1533   1536     1
   1533   1535     1
   1537   1545     1
   1537   1553     1
   1537   1558     1
   1537   1546     1
   1538   1555     1
   1538   1556     1
   1538   1544     1
   1538   1552     1
   1539   1541     1
   1539   1550     1
   1539   1540     1
   1539   1557     1
   1539   1555     1
   1539   1556     1
   1539   1543     1
   1540   1551     1
   1540   1559     1
   1540   1542     1
   1540   1549     1
   1540   1545     1
   1540   1553     1
   1541   1553     1
   1541   1546     1
   1541   1554     1
   1542   1552     1
   1543   1545     1
   1543   1554     1
   1544   1549     1
   1544   1545     1
   1544   1547     1
   1544   1559     1
   1544   1546     1
   1544   1554     1
   1545   1550     1
   1545   1548     1
   1545   1552     1
   1546   1548     1
   1555   1559     1
   1555   1558     1
   1556   1559     1
   1556   1558     1
   1560   1568     1
   1560   1576     1
   1560   1581     1
   1560   1569     1
   1561   1578     1
   1561   1579     1
   1561   1567     1
   1561   1575     1
   1562   1564     1
   1562   1573     1
   1562   1563     1
   1562   1580     1
   1562   1578     1
   1562   1579     1
   1562   1566     1
   1563   1574     1
   1563   1582     1
   1563   1565     1
   1563   1572     1
   1563   1568     1
   1563   1576     1
   1564   1576     1
   1564   1569     1
   1564   1577     1
   1565   1575     1
   1566   1568     1
   1566   1577     1
   1567   1572     1
   1567   1568     1
   1567   1570     1
   1567   1582     1
   1567   1569     1
   1567   1577     1
   1568   1573     1
   1568   1571     1
   1568   1575     1
   1569   1571     1
   1578   1582     1
   1578   1581     1
   1579   1582     1
   1579   1581     1
   1583   1591     1
   1583   1599     1
   1583   1604     1
   1583   1592     1
   1584   1601     1
   1584   1602     1
   1584   1590     1
   1584   1598     1
   1585   1587     1
   1585   1596     1
   1585   1586     1
   1585   1603     1
   1585   1601     1
   1585   1602     1
   1585   1589     1
   1586   1597     1
   1586   1605     1
   1586   1588     1
   1586   1595     1
   1586   1591     1
   1586   1599     1
   1587   1599     1
   1587   1592     1
   1587   1600     1
   1588   1598     1
   1589   1591     1
   1589   1600     1
   1590   1595     1
   1590   1591     1
   1590   1593     1
   1590   1605     1
   1590   1592     1
   1590   1600     1
   1591   1596     1
   1591   1594     1
   1591   1598     1
   1592   1594     1
   1601   1605     1
   1601   1604     1
   1602   1605     1
   1602   1604     1

[ angles ]
;    ai     aj     ak funct         c0         c1         c2         c3
      1      2      8     1   107.9700462 569.024000
      1      5     11     1   107.9700462 569.024000
      2      1      5     1   112.4800480 524.673600
      2      8     14     1   111.5100476 526.347200
      5     11     17     1   111.5100476 526.347200
      8     14     20     1   111.0400475 552.288000
     11     17     21     1   111.0400475 552.288000
     14     20     28     1   112.3500484 533.878400
     14     20     31     1   112.3500484 533.878400
     17     21     22     1   112.3500484 533.878400
     17     21     25     1   112.3500484 533.878400
     20     28     40     1   111.0400475 552.288000
     20     31     43     1   111.0400475 552.288000
     21     22     34     1   111.0400475 552.288000
     21     25     37     1   111.0400475 552.288000
     22     21     25     1   112.3500484 533.878400
     22     34     55     1   111.5100476 526.347200
     25     37     52     1   111.5100476 526.347200
     28     20     31     1   112.3500484 533.878400
     28     40     49     1   111.5100476 526.347200
     31     43     46     1   111.5100476 526.347200
     34     55    173     1   107.9700462 569.024000
     37     52    144     1   107.9700462 569.024000
     40     49    115     1   107.9700462 569.024000
     43     46     86     1   107.9700462 569.024000
     46     86     77     1   112.4800480 524.673600
     49    115    106     1   112.4800480 524.673600
     52    144    135     1   112.4800480 524.673600
     55    173    164     1   112.4800480 524.673600
     58     59     71     1   111.0400475 552.288000
     58     62     74     1   111.0400475 552.288000
     58     65     68     1   111.0400475 552.288000
     59     58     62     1   112.3500484 533.878400
     59     58     65     1   112.3500484 533.878400
     59     71     83     1   111.5100476 526.347200
     62     58     65     1   112.3500484 533.878400
     62     74     80     1   111.5100476 526.347200
     65     68     77     1   111.5100476 526.347200
     68     77     86     1   107.9700462 569.024000
     71     83    231     1   107.9700462 569.024000
     74     80    202     1   107.9700462 569.024000
     80    202    193     1   112.4800480 524.673600
     83    231    222     1   112.4800480 524.673600
     87     88    100     1   111.0400475 552.288000
     87     91    103     1   111.0400475 552.288000
     87     94     97     1   111.0400475 552.288000
     88     87     91     1   112.3500484 533.878400
     88     87     94     1   112.3500484 533.878400
     88    100    112     1   111.5100476 526.347200
     91     87     94     1   112.3500484 533.878400
     91    103    109     1   111.5100476 526.347200
     94     97    106     1   111.5100476 526.347200
     97    106    115     1   107.9700462 569.024000
    100    112    289     1   107.9700462 569.024000
    103    109    260     1   107.9700462 569.024000
    109    260    251     1   112.4800480 524.673600
    112    289    280     1   112.4800480 524.673600
    116    117    129     1   111.0400475 552.288000
    116    120    132     1   111.0400475 552.288000
    116    123    126     1   111.0400475 552.288000
    117    116    120     1   112.3500484 533.878400
    117    116    123     1   112.3500484 533.878400
    117    129    141     1   111.5100476 526.347200
    120    116    123     1   112.3500484 533.878400
    120    132    138     1   111.5100476 526.347200
    123    126    135     1   111.5100476 526.347200
    126    135    144     1   107.9700462 569.024000
    129    141    347     1   107.9700462 569.024000
    132    138    318     1   107.9700462 569.024000
    138    318    309     1   112.4800480 524.673600
    141    347    338     1   112.4800480 524.673600
    145    146    158     1   111.0400475 552.288000
    145    149    161     1   111.0400475 552.288000
    145    152    155     1   111.0400475 552.288000
    146    145    149     1   112.3500484 533.878400
    146    145    152     1   112.3500484 533.878400
    146    158    170     1   111.5100476 526.347200
    149    145    152     1   112.3500484 533.878400
    149    161    167     1   111.5100476 526.347200
    152    155    164     1   111.5100476 526.347200
    155    164    173     1   107.9700462 569.024000
    158    170    405     1   107.9700462 569.024000
    161    167    376     1   107.9700462 569.024000
    167    376    367     1   112.4800480 524.673600
    170    405    396     1   112.4800480 524.673600
    174    175    187     1   111.0400475 552.288000
    174    178    190     1   111.0400475 552.288000
    174    181    184     1   111.0400475 552.288000
    175    174    178     1   112.3500484 533.878400
    175    174    181     1   112.3500484 533.878400
    175    187    199     1   111.5100476 526.347200
    178    174    181     1   112.3500484 533.878400
    178    190    196     1   111.5100476 526.347200
    181    184    193     1   111.5100476 526.347200
    184    193    202     1   107.9700462 569.024000
    187    199    463     1   107.9700462 569.024000
    190    196    434     1   107.9700462 569.024000
    196    434    425     1   112.4800480 524.673600
    199    463    454     1   112.4800480 524.673600
    203    204    216     1   111.0400475 552.288000
    203    207    219     1   111.0400475 552.288000
    203    210    213     1   111.0400475 552.288000
    204    203    207     1   112.3500484 533.878400
    204    203    210     1   112.3500484 533.878400
    204    216    228     1   111.5100476 526.347200
    207    203    210     1   112.3500484 533.878400
    207    219    225     1   111.5100476 526.347200
    210    213    222     1   111.5100476 526.347200
    213    222    231     1   107.9700462 569.024000
    216    228    521     1   107.9700462 569.024000
    219    225    492     1   107.9700462 569.024000
    225    492    483     1   112.4800480 524.673600
    228    521    512     1   112.4800480 524.673600
    232    233    245     1   111.0400475 552.288000
    232    236    248     1   111.0400475 552.288000
    232    239    242     1   111.0400475 552.288000
    233    232    236     1   112.3500484 533.878400
    233    232    239     1   112.3500484 533.878400
    233    245    257     1   111.5100476 526.347200
    236    232    239     1   112.3500484 533.878400
    236    248    254     1   111.5100476 526.347200
    239    242    251     1   111.5100476 526.347200
    242    251    260     1   107.9700462 569.024000
    245    257    579     1   107.9700462 569.024000
    248    254    550     1   107.9700462 569.024000
    254    550    541     1   112.4800480 524.673600
    257    579    570     1   112.4800480 524.673600
    261    262    274     1   111.0400475 552.288000
    261    265    277     1   111.0400475 552.288000
    261    268    271     1   111.0400475 552.288000
    262    261    265     1   112.3500484 533.878400
    262    261    268     1   112.3500484 533.878400
    262    274    286     1   111.5100476 526.347200
    265    261    268     1   112.3500484 533.878400
    265    277    283     1   111.5100476 526.347200
    268    271    280     1   111.5100476 526.347200
    271    280    289     1   107.9700462 569.024000
    274    286    637     1   107.9700462 569.024000
    277    283    608     1   107.9700462 569.024000
    283    608    599     1   112.4800480 524.673600
    286    637    628     1   112.4800480 524.673600
    290    291    303     1   111.0400475 552.288000
    290    294    306     1   111.0400475 552.288000
    290    297    300     1   111.0400475 552.288000
    291    290    294     1   112.3500484 533.878400
    291    290    297     1   112.3500484 533.878400
    291    303    315     1   111.5100476 526.347200
    294    290    297     1   112.3500484 533.878400
    294    306    312     1   111.5100476 526.347200
    297    300    309     1   111.5100476 526.347200
    300    309    318     1   107.9700462 569.024000
    303    315    695     1   107.9700462 569.024000
    306    312    666     1   107.9700462 569.024000
    312    666    657     1   112.4800480 524.673600
    315    695    686     1   112.4800480 524.673600
    319    320    332     1   111.0400475 552.288000
    319    323    335     1   111.0400475 552.288000
    319    326    329     1   111.0400475 552.288000
    320    319    323     1   112.3500484 533.878400
    320    319    326     1   112.3500484 533.878400
    320    332    344     1   111.5100476 526.347200
    323    319    326     1   112.3500484 533.878400
    323    335    341     1   111.5100476 526.347200
    326    329    338     1   111.5100476 526.347200
    329    338    347     1   107.9700462 569.024000
    332    344    753     1   107.9700462 569.024000
    335    341    724     1   107.9700462 569.024000
    341    724    715     1   112.4800480 524.673600
    344    753    744     1   112.4800480 524.673600
    348    349    361     1   111.0400475 552.288000
    348    352    364     1   111.0400475 552.288000
    348    355    358     1   111.0400475 552.288000
    349    348    352     1   112.3500484 533.878400
    349    348    355     1   112.3500484 533.878400
    349    361    373     1   111.5100476 526.347200
    352    348    355     1   112.3500484 533.878400
    352    364    370     1   111.5100476 526.347200
    355    358    367     1   111.5100476 526.347200
    358    367    376     1   107.9700462 569.024000
    361    373    811     1   107.9700462 569.024000
    364    370    782     1   107.9700462 569.024000
    370    782    773     1   112.4800480 524.673600
    373    811    802     1   112.4800480 524.673600
    377    378    390     1   111.0400475 552.288000
    377    381    393     1   111.0400475 552.288000
    377    384    387     1   111.0400475 552.288000
    378    377    381     1   112.3500484 533.878400
    378    377    384     1   112.3500484 533.878400
    378    390    402     1   111.5100476 526.347200
    381    377    384     1   112.3500484 533.878400
    381    393    399     1   111.5100476 526.347200
    384    387    396     1   111.5100476 526.347200
    387    396    405     1   107.9700462 569.024000
    390    402    869     1   107.9700462 569.024000
    393    399    840     1   107.9700462 569.024000
    399    840    831     1   112.4800480 524.673600
    402    869    860     1   112.4800480 524.673600
    406    407    419     1   111.0400475 552.288000
    406    410    422     1   111.0400475 552.288000
    406    413    416     1   111.0400475 552.288000
    407    406    410     1   112.3500484 533.878400
    407    406    413     1   112.3500484 533.878400
    407    419    431     1   111.5100476 526.347200
    410    406    413     1   112.3500484 533.878400
    410    422    428     1   111.5100476 526.347200
    413    416    425     1   111.5100476 526.347200
    416    425    434     1   107.9700462 569.024000
    419    431    903     1   107.9700462 569.024000
    422    428    880     1   107.9700462 569.024000
    428    880    876     1   112.4800480 524.673600
    431    903    899     1   112.4800480 524.673600
    435    436    448     1   111.0400475 552.288000
    435    439    451     1   111.0400475 552.288000
    435    442    445     1   111.0400475 552.288000
    436    435    439     1   112.3500484 533.878400
    436    435    442     1   112.3500484 533.878400
    436    448    460     1   111.5100476 526.347200
    439    435    442     1   112.3500484 533.878400
    439    451    457     1   111.5100476 526.347200
    442    445    454     1   111.5100476 526.347200
    445    454    463     1   107.9700462 569.024000
    448    460    949     1   107.9700462 569.024000
    451    457    926     1   107.9700462 569.024000
    457    926    922     1   112.4800480 524.673600
    460    949    945     1   112.4800480 524.673600
    464    465    477     1   111.0400475 552.288000
    464    468    480     1   111.0400475 552.288000
    464    471    474     1   111.0400475 552.288000
    465    464    468     1   112.3500484 533.878400
    465    464    471     1   112.3500484 533.878400
    465    477    489     1   111.5100476 526.347200
    468    464    471     1   112.3500484 533.878400
    468    480    486     1   111.5100476 526.347200
    471    474    483     1   111.5100476 526.347200
    474    483    492     1   107.9700462 569.024000
    477    489    995     1   107.9700462 569.024000
    480    486    972     1   107.9700462 569.024000
    486    972    968     1   112.4800480 524.673600
    489    995    991     1   112.4800480 524.673600
    493    494    506     1   111.0400475 552.288000
    493    497    509     1   111.0400475 552.288000
    493    500    503     1   111.0400475 552.288000
    494    493    497     1   112.3500484 533.878400
    494    493    500     1   112.3500484 533.878400
    494    506    518     1   111.5100476 526.347200
    497    493    500     1   112.3500484 533.878400
    497    509    515     1   111.5100476 526.347200
    500    503    512     1   111.5100476 526.347200
    503    512    521     1   107.9700462 569.024000
    506    518   1041     1   107.9700462 569.024000
    509    515   1018     1   107.9700462 569.024000
    515   1018   1014     1   112.4800480 524.673600
    518   1041   1037     1   112.4800480 524.673600
    522    523    535     1   111.0400475 552.288000
    522    526    538     1   111.0400475 552.288000
    522    529    532     1   111.0400475 552.288000
    523    522    526     1   112.3500484 533.878400
    523    522    529     1   112.3500484 533.878400
    523    535    547     1   111.5100476 526.347200
    526    522    529     1   112.3500484 533.878400
    526    538    544     1   111.5100476 526.347200
    529    532    541     1   111.5100476 526.347200
    532    541    550     1   107.9700462 569.024000
    535    547   1087     1   107.9700462 569.024000
    538    544   1064     1   107.9700462 569.024000
    544   1064   1060     1   112.4800480 524.673600
    547   1087   1083     1   112.4800480 524.673600
    551    552    564     1   111.0400475 552.288000
    551    555    567     1   111.0400475 552.288000
    551    558    561     1   111.0400475 552.288000
    552    551    555     1   112.3500484 533.878400
    552    551    558     1   112.3500484 533.878400
    552    564    576     1   111.5100476 526.347200
    555    551    558     1   112.3500484 533.878400
    555    567    573     1   111.5100476 526.347200
    558    561    570     1   111.5100476 526.347200
    561    570    579     1   107.9700462 569.024000
    564    576   1133     1   107.9700462 569.024000
    567    573   1110     1   107.9700462 569.024000
    573   1110   1106     1   112.4800480 524.673600
    576   1133   1129     1   112.4800480 524.673600
    580    581    593     1   111.0400475 552.288000
    580    584    596     1   111.0400475 552.288000
    580    587    590     1   111.0400475 552.288000
    581    580    584     1   112.3500484 533.878400
    581    580    587     1   112.3500484 533.878400
    581    593    605     1   111.5100476 526.347200
    584    580    587     1   112.3500484 533.878400
    584    596    602     1   111.5100476 526.347200
    587    590    599     1   111.5100476 526.347200
    590    599    608     1   107.9700462 569.024000
    593    605   1179     1   107.9700462 569.024000
    596    602   1156     1   107.9700462 569.024000
    602   1156   1152     1   112.4800480 524.673600
    605   1179   1175     1   112.4800480 524.673600
    609    610    622     1   111.0400475 552.288000
    609    613    625     1   111.0400475 552.288000
    609    616    619     1   111.0400475 552.288000
    610    609    613     1   112.3500484 533.878400
    610    609    616     1   112.3500484 533.878400
    610    622    634     1   111.5100476 526.347200
    613    609    616     1   112.3500484 533.878400
    613    625    631     1   111.5100476 526.347200
    616    619    628     1   111.5100476 526.347200
    619    628    637     1   107.9700462 569.024000
    622    634   1225     1   107.9700462 569.024000
    625    631   1202     1   107.9700462 569.024000
    631   1202   1198     1   112.4800480 524.673600
    634   1225   1221     1   112.4800480 524.673600
    638    639    651     1   111.0400475 552.288000
    638    642    654     1   111.0400475 552.288000
    638    645    648     1   111.0400475 552.288000
    639    638    642     1   112.3500484 533.878400
    639    638    645     1   112.3500484 533.878400
    639    651    663     1   111.5100476 526.347200
    642    638    645     1   112.3500484 533.878400
    642    654    660     1   111.5100476 526.347200
    645    648    657     1   111.5100476 526.347200
    648    657    666     1   107.9700462 569.024000
    651    663   1271     1   107.9700462 569.024000
    654    660   1248     1   107.9700462 569.024000
    660   1248   1244     1   112.4800480 524.673600
    663   1271   1267     1   112.4800480 524.673600
    667    668    680     1   111.0400475 552.288000
    667    671    683     1   111.0400475 552.288000
    667    674    677     1   111.0400475 552.288000
    668    667    671     1   112.3500484 533.878400
    668    667    674     1   112.3500484 533.878400
    668    680    692     1   111.5100476 526.347200
    671    667    674     1   112.3500484 533.878400
    671    683    689     1   111.5100476 526.347200
    674    677    686     1   111.5100476 526.347200
    677    686    695     1   107.9700462 569.024000
    680    692   1317     1   107.9700462 569.024000
    683    689   1294     1   107.9700462 569.024000
    689   1294   1290     1   112.4800480 524.673600
    692   1317   1313     1   112.4800480 524.673600
    696    697    709     1   111.0400475 552.288000
    696    700    712     1   111.0400475 552.288000
    696    703    706     1   111.0400475 552.288000
    697    696    700     1   112.3500484 533.878400
    697    696    703     1   112.3500484 533.878400
    697    709    721     1   111.5100476 526.347200
    700    696    703     1   112.3500484 533.878400
    700    712    718     1   111.5100476 526.347200
    703    706    715     1   111.5100476 526.347200
    706    715    724     1   107.9700462 569.024000
    709    721   1363     1   107.9700462 569.024000
    712    718   1340     1   107.9700462 569.024000
    718   1340   1336     1   112.4800480 524.673600
    721   1363   1359     1   112.4800480 524.673600
    725    726    738     1   111.0400475 552.288000
    725    729    741     1   111.0400475 552.288000
    725    732    735     1   111.0400475 552.288000
    726    725    729     1   112.3500484 533.878400
    726    725    732     1   112.3500484 533.878400
    726    738    750     1   111.5100476 526.347200
    729    725    732     1   112.3500484 533.878400
    729    741    747     1   111.5100476 526.347200
    732    735    744     1   111.5100476 526.347200
    735    744    753     1   107.9700462 569.024000
    738    750   1409     1   107.9700462 569.024000
    741    747   1386     1   107.9700462 569.024000
    747   1386   1382     1   112.4800480 524.673600
    750   1409   1405     1   112.4800480 524.673600
    754    755    767     1   111.0400475 552.288000
    754    758    770     1   111.0400475 552.288000
    754    761    764     1   111.0400475 552.288000
    755    754    758     1   112.3500484 533.878400
    755    754    761     1   112.3500484 533.878400
    755    767    779     1   111.5100476 526.347200
    758    754    761     1   112.3500484 533.878400
    758    770    776     1   111.5100476 526.347200
    761    764    773     1   111.5100476 526.347200
    764    773    782     1   107.9700462 569.024000
    767    779   1455     1   107.9700462 569.024000
    770    776   1432     1   107.9700462 569.024000
    776   1432   1428     1   112.4800480 524.673600
    779   1455   1451     1   112.4800480 524.673600
    783    784    796     1   111.0400475 552.288000
    783    787    799     1   111.0400475 552.288000
    783    790    793     1   111.0400475 552.288000
    784    783    787     1   112.3500484 533.878400
    784    783    790     1   112.3500484 533.878400
    784    796    808     1   111.5100476 526.347200
    787    783    790     1   112.3500484 533.878400
    787    799    805     1   111.5100476 526.347200
    790    793    802     1   111.5100476 526.347200
    793    802    811     1   107.9700462 569.024000
    796    808   1501     1   107.9700462 569.024000
    799    805   1478     1   107.9700462 569.024000
    805   1478   1474     1   112.4800480 524.673600
    808   1501   1497     1   112.4800480 524.673600
    812    813    825     1   111.0400475 552.288000
    812    816    828     1   111.0400475 552.288000
    812    819    822     1   111.0400475 552.288000
    813    812    816     1   112.3500484 533.878400
    813    812    819     1   112.3500484 533.878400
    813    825    837     1   111.5100476 526.347200
    816    812    819     1   112.3500484 533.878400
    816    828    834     1   111.5100476 526.347200
    819    822    831     1   111.5100476 526.347200
    822    831    840     1   107.9700462 569.024000
    825    837   1547     1   107.9700462 569.024000
    828    834   1524     1   107.9700462 569.024000
    834   1524   1520     1   112.4800480 524.673600
    837   1547   1543     1   112.4800480 524.673600
    841    842    854     1   111.0400475 552.288000
    841    845    857     1   111.0400475 552.288000
    841    848    851     1   111.0400475 552.288000
    842    841    845     1   112.3500484 533.878400
    842    841    848     1   112.3500484 533.878400
    842    854    866     1   111.5100476 526.347200
    845    841    848     1   112.3500484 533.878400
    845    857    863     1   111.5100476 526.347200
    848    851    860     1   111.5100476 526.347200
    851    860    869     1   107.9700462 569.024000
    854    866   1593     1   107.9700462 569.024000
    857    863   1570     1   107.9700462 569.024000
    863   1570   1566     1   112.4800480 524.673600
    866   1593   1589     1   112.4800480 524.673600
    870    871    874     1   111.5100476 526.347200
    870    871    883     1   110.1900474 564.840000
    870    884    890     1   110.1900474 564.840000
    870    892    876     1   112.4800480 524.673600
    871    870    884     1   111.5100476 526.347200
    871    870    892     1   107.9700462 569.024000
    871    874    875     1   111.5100476 526.347200
    871    874    882     1   110.1900474 564.840000
    874    871    883     1   110.1900474 564.840000
    874    875    876     1   111.5100476 526.347200
    874    875    881     1   110.1900474 564.840000
    875    874    882     1   110.1900474 564.840000
    875    876    880     1   107.9700462 569.024000
    875    876    892     1   107.9700462 569.024000
    876    875    881     1   110.1900474 564.840000
    880    876    892     1   108.2900466 608.353600
    884    870    892     1   107.9700462 569.024000
    893    894    897     1   111.5100476 526.347200
    893    894    906     1   110.1900474 564.840000
    893    907    913     1   110.1900474 564.840000
    893    915    899     1   112.4800480 524.673600
    894    893    907     1   111.5100476 526.347200
    894    893    915     1   107.9700462 569.024000
    894    897    898     1   111.5100476 526.347200
    894    897    905     1   110.1900474 564.840000
    897    894    906     1   110.1900474 564.840000
    897    898    899     1   111.5100476 526.347200
    897    898    904     1   110.1900474 564.840000
    898    897    905     1   110.1900474 564.840000
    898    899    903     1   107.9700462 569.024000
    898    899    915     1   107.9700462 569.024000
    899    898    904     1   110.1900474 564.840000
    903    899    915     1   108.2900466 608.353600
    907    893    915     1   107.9700462 569.024000
    916    917    920     1   111.5100476 526.347200
    916    917    929     1   110.1900474 564.840000
    916    930    936     1   110.1900474 564.840000
    916    938    922     1   112.4800480 524.673600
    917    916    930     1   111.5100476 526.347200
    917    916    938     1   107.9700462 569.024000
    917    920    921     1   111.5100476 526.347200
    917    920    928     1   110.1900474 564.840000
    920    917    929     1   110.1900474 564.840000
    920    921    922     1   111.5100476 526.347200
    920    921    927     1   110.1900474 564.840000
    921    920    928     1   110.1900474 564.840000
    921    922    926     1   107.9700462 569.024000
    921    922    938     1   107.9700462 569.024000
    922    921    927     1   110.1900474 564.840000
    926    922    938     1   108.2900466 608.353600
    930    916    938     1   107.9700462 569.024000
    939    940    943     1   111.5100476 526.347200
    939    940    952     1   110.1900474 564.840000
    939    953    959     1   110.1900474 564.840000
    939    961    945     1   112.4800480 524.673600
    940    939    953     1   111.5100476 526.347200
    940    939    961     1   107.9700462 569.024000
    940    943    944     1   111.5100476 526.347200
    940    943    951     1   110.1900474 564.840000
    943    940    952     1   110.1900474 564.840000
    943    944    945     1   111.5100476 526.347200
    943    944    950     1   110.1900474 564.840000
    944    943    951     1   110.1900474 564.840000
    944    945    949     1   107.9700462 569.024000
    944    945    961     1   107.9700462 569.024000
    945    944    950     1   110.1900474 564.840000
    949    945    961     1   108.2900466 608.353600
    953    939    961     1   107.9700462 569.024000
    962    963    966     1   111.5100476 526.347200
    962    963    975     1   110.1900474 564.840000
    962    976    982     1   110.1900474 564.840000
    962    984    968     1   112.4800480 524.673600
    963    962    976     1   111.5100476 526.347200
    963    962    984     1   107.9700462 569.024000
    963    966    967     1   111.5100476 526.347200
    963    966    974     1   110.1900474 564.840000
    966    963    975     1   110.1900474 564.840000
    966    967    968     1   111.5100476 526.347200
    966    967    973     1   110.1900474 564.840000
    967    966    974     1   110.1900474 564.840000
    967    968    972     1   107.9700462 569.024000
    967    968    984     1   107.9700462 569.024000
    968    967    973     1   110.1900474 564.840000
    972    968    984     1   108.2900466 608.353600
    976    962    984     1   107.9700462 569.024000
    985    986    989     1   111.5100476 526.347200
    985    986    998     1   110.1900474 564.840000
    985    999   1005     1   110.1900474 564.840000
    985   1007    991     1   112.4800480 524.673600
    986    985    999     1   111.5100476 526.347200
    986    985   1007     1   107.9700462 569.024000
    986    989    990     1   111.5100476 526.347200
    986    989    997     1   110.1900474 564.840000
    989    986    998     1   110.1900474 564.840000
    989    990    991     1   111.5100476 526.347200
    989    990    996     1   110.1900474 564.840000
    990    989    997     1   110.1900474 564.840000
    990    991    995     1   107.9700462 569.024000
    990    991   1007     1   107.9700462 569.024000
    991    990    996     1   110.1900474 564.840000
    995    991   1007     1   108.2900466 608.353600
    999    985   1007     1   107.9700462 569.024000
   1008   1009   1012     1   111.5100476 526.347200
   1008   1009   1021     1   110.1900474 564.840000
   1008   1022   1028     1   110.1900474 564.840000
   1008   1030   1014     1   112.4800480 524.673600
   1009   1008   1022     1   111.5100476 526.347200
   1009   1008   1030     1   107.9700462 569.024000
   1009   1012   1013     1   111.5100476 526.347200
   1009   1012   1020     1   110.1900474 564.840000
   1012   1009   1021     1   110.1900474 564.840000
   1012   1013   1014     1   111.5100476 526.347200
   1012   1013   1019     1   110.1900474 564.840000
   1013   1012   1020     1   110.1900474 564.840000
   1013   1014   1018     1   107.9700462 569.024000
   1013   1014   1030     1   107.9700462 569.024000
   1014   1013   1019     1   110.1900474 564.840000
   1018   1014   1030     1   108.2900466 608.353600
   1022   1008   1030     1   107.9700462 569.024000
   1031   1032   1035     1   111.5100476 526.347200
   1031   1032   1044     1   110.1900474 564.840000
   1031   1045   1051     1   110.1900474 564.840000
   1031   1053   1037     1   112.4800480 524.673600
   1032   1031   1045     1   111.5100476 526.347200
   1032   1031   1053     1   107.9700462 569.024000
   1032   1035   1036     1   111.5100476 526.347200
   1032   1035   1043     1   110.1900474 564.840000
   1035   1032   1044     1   110.1900474 564.840000
   1035   1036   1037     1   111.5100476 526.347200
   1035   1036   1042     1   110.1900474 564.840000
   1036   1035   1043     1   110.1900474 564.840000
   1036   1037   1041     1   107.9700462 569.024000
   1036   1037   1053     1   107.9700462 569.024000
   1037   1036   1042     1   110.1900474 564.840000
   1041   1037   1053     1   108.2900466 608.353600
   1045   1031   1053     1   107.9700462 569.024000
   1054   1055   1058     1   111.5100476 526.347200
   1054   1055   1067     1   110.1900474 564.840000
   1054   1068   1074     1   110.1900474 564.840000
   1054   1076   1060     1   112.4800480 524.673600
   1055   1054   1068     1   111.5100476 526.347200
   1055   1054   1076     1   107.9700462 569.024000
   1055   1058   1059     1   111.5100476 526.347200
   1055   1058   1066     1   110.1900474 564.840000
   1058   1055   1067     1   110.1900474 564.840000
   1058   1059   1060     1   111.5100476 526.347200
   1058   1059   1065     1   110.1900474 564.840000
   1059   1058   1066     1   110.1900474 564.840000
   1059   1060   1064     1   107.9700462 569.024000
   1059   1060   1076     1   107.9700462 569.024000
   1060   1059   1065     1   110.1900474 564.840000
   1064   1060   1076     1   108.2900466 608.353600
   1068   1054   1076     1   107.9700462 569.024000
   1077   1078   1081     1   111.5100476 526.347200
   1077   1078   1090     1   110.1900474 564.840000
   1077   1091   1097     1   110.1900474 564.840000
   1077   1099   1083     1   112.4800480 524.673600
   1078   1077   1091     1   111.5100476 526.347200
   1078   1077   1099     1   107.9700462 569.024000
   1078   1081   1082     1   111.5100476 526.347200
   1078   1081   1089     1   110.1900474 564.840000
   1081   1078   1090     1   110.1900474 564.840000
   1081   1082   1083     1   111.5100476 526.347200
   1081   1082   1088     1   110.1900474 564.840000
   1082   1081   1089     1   110.1900474 564.840000
   1082   1083   1087     1   107.9700462 569.024000
   1082   1083   1099     1   107.9700462 569.024000
   1083   1082   1088     1   110.1900474 564.840000
   1087   1083   1099     1   108.2900466 608.353600
   1091   1077   1099     1   107.9700462 569.024000
   1100   1101   1104     1   111.5100476 526.347200
   1100   1101   1113     1   110.1900474 564.840000
   1100   1114   1120     1   110.1900474 564.840000
   1100   1122   1106     1   112.4800480 524.673600
   1101   1100   1114     1   111.5100476 526.347200
   1101   1100   1122     1   107.9700462 569.024000
   1101   1104   1105     1   111.5100476 526.347200
   1101   1104   1112     1   110.1900474 564.840000
   1104   1101   1113     1   110.1900474 564.840000
   1104   1105   1106     1   111.5100476 526.347200
   1104   1105   1111     1   110.1900474 564.840000
   1105   1104   1112     1   110.1900474 564.840000
   1105   1106   1110     1   107.9700462 569.024000
   1105   1106   1122     1   107.9700462 569.024000
   1106   1105   1111     1   110.1900474 564.840000
   1110   1106   1122     1   108.2900466 608.353600
   1114   1100   1122     1   107.9700462 569.024000
   1123   1124   1127     1   111.5100476 526.347200
   1123   1124   1136     1   110.1900474 564.840000
   1123   1137   1143     1   110.1900474 564.840000
   1123   1145   1129     1   112.4800480 524.673600
   1124   1123   1137     1   111.5100476 526.347200
   1124   1123   1145     1   107.9700462 569.024000
   1124   1127   1128     1   111.5100476 526.347200
   1124   1127   1135     1   110.1900474 564.840000
   1127   1124   1136     1   110.1900474 564.840000
   1127   1128   1129     1   111.5100476 526.347200
   1127   1128   1134     1   110.1900474 564.840000
   1128   1127   1135     1   110.1900474 564.840000
   1128   1129   1133     1   107.9700462 569.024000
   1128   1129   1145     1   107.9700462 569.024000
   1129   1128   1134     1   110.1900474 564.840000
   1133   1129   1145     1   108.2900466 608.353600
   1137   1123   1145     1   107.9700462 569.024000
   1146   1147   1150     1   111.5100476 526.347200
   1146   1147   1159     1   110.1900474 564.840000
   1146   1160   1166     1   110.1900474 564.840000
   1146   1168   1152     1   112.4800480 524.673600
   1147   1146   1160     1   111.5100476 526.347200
   1147   1146   1168     1   107.9700462 569.024000
   1147   1150   1151     1   111.5100476 526.347200
   1147   1150   1158     1   110.1900474 564.840000
   1150   1147   1159     1   110.1900474 564.840000
   1150   1151   1152     1   111.5100476 526.347200
   1150   1151   1157     1   110.1900474 564.840000
   1151   1150   1158     1   110.1900474 564.840000
   1151   1152   1156     1   107.9700462 569.024000
   1151   1152   1168     1   107.9700462 569.024000
   1152   1151   1157     1   110.1900474 564.840000
   1156   1152   1168     1   108.2900466 608.353600
   1160   1146   1168     1   107.9700462 569.024000
   1169   1170   1173     1   111.5100476 526.347200
   1169   1170   1182     1   110.1900474 564.840000
   1169   1183   1189     1   110.1900474 564.840000
   1169   1191   1175     1   112.4800480 524.673600
   1170   1169   1183     1   111.5100476 526.347200
   1170   1169   1191     1   107.9700462 569.024000
   1170   1173   1174     1   111.5100476 526.347200
   1170   1173   1181     1   110.1900474 564.840000
   1173   1170   1182     1   110.1900474 564.840000
   1173   1174   1175     1   111.5100476 526.347200
   1173   1174   1180     1   110.1900474 564.840000
   1174   1173   1181     1   110.1900474 564.840000
   1174   1175   1179     1   107.9700462 569.024000
   1174   1175   1191     1   107.9700462 569.024000
   1175   1174   1180     1   110.1900474 564.840000
   1179   1175   1191     1   108.2900466 608.353600
   1183   1169   1191     1   107.9700462 569.024000
   1192   1193   1196     1   111.5100476 526.347200
   1192   1193   1205     1   110.1900474 564.840000
   1192   1206   1212     1   110.1900474 564.840000
   1192   1214   1198     1   112.4800480 524.673600
   1193   1192   1206     1   111.5100476 526.347200
   1193   1192   1214     1   107.9700462 569.024000
   1193   1196   1197     1   111.5100476 526.347200
   1193   1196   1204     1   110.1900474 564.840000
   1196   1193   1205     1   110.1900474 564.840000
   1196   1197   1198     1   111.5100476 526.347200
   1196   1197   1203     1   110.1900474 564.840000
   1197   1196   1204     1   110.1900474 564.840000
   1197   1198   1202     1   107.9700462 569.024000
   1197   1198   1214     1   107.9700462 569.024000
   1198   1197   1203     1   110.1900474 564.840000
   1202   1198   1214     1   108.2900466 608.353600
   1206   1192   1214     1   107.9700462 569.024000
   1215   1216   1219     1   111.5100476 526.347200
   1215   1216   1228     1   110.1900474 564.840000
   1215   1229   1235     1   110.1900474 564.840000
   1215   1237   1221     1   112.4800480 524.673600
   1216   1215   1229     1   111.5100476 526.347200
   1216   1215   1237     1   107.9700462 569.024000
   1216   1219   1220     1   111.5100476 526.347200
   1216   1219   1227     1   110.1900474 564.840000
   1219   1216   1228     1   110.1900474 564.840000
   1219   1220   1221     1   111.5100476 526.347200
   1219   1220   1226     1   110.1900474 564.840000
   1220   1219   1227     1   110.1900474 564.840000
   1220   1221   1225     1   107.9700462 569.024000
   1220   1221   1237     1   107.9700462 569.024000
   1221   1220   1226     1   110.1900474 564.840000
   1225   1221   1237     1   108.2900466 608.353600
   1229   1215   1237     1   107.9700462 569.024000
   1238   1239   1242     1   111.5100476 526.347200
   1238   1239   1251     1   110.1900474 564.840000
   1238   1252   1258     1   110.1900474 564.840000
   1238   1260   1244     1   112.4800480 524.673600
   1239   1238   1252     1   111.5100476 526.347200
   1239   1238   1260     1   107.9700462 569.024000
   1239   1242   1243     1   111.5100476 526.347200
   1239   1242   1250     1   110.1900474 564.840000
   1242   1239   1251     1   110.1900474 564.840000
   1242   1243   1244     1   111.5100476 526.347200
   1242   1243   1249     1   110.1900474 564.840000
   1243   1242   1250     1   110.1900474 564.840000
   1243   1244   1248     1   107.9700462 569.024000
   1243   1244   1260     1   107.9700462 569.024000
   1244   1243   1249     1   110.1900474 564.840000
   1248   1244   1260     1   108.2900466 608.353600
   1252   1238   1260     1   107.9700462 569.024000
   1261   1262   1265     1   111.5100476 526.347200
   1261   1262   1274     1   110.1900474 564.840000
   1261   1275   1281     1   110.1900474 564.840000
   1261   1283   1267     1   112.4800480 524.673600
   1262   1261   1275     1   111.5100476 526.347200
   1262   1261   1283     1   107.9700462 569.024000
   1262   1265   1266     1   111.5100476 526.347200
   1262   1265   1273     1   110.1900474 564.840000
   1265   1262   1274     1   110.1900474 564.840000
   1265   1266   1267     1   111.5100476 526.347200
   1265   1266   1272     1   110.1900474 564.840000
   1266   1265   1273     1   110.1900474 564.840000
   1266   1267   1271     1   107.9700462 569.024000
   1266   1267   1283     1   107.9700462 569.024000
   1267   1266   1272     1   110.1900474 564.840000
   1271   1267   1283     1   108.2900466 608.353600
   1275   1261   1283     1   107.9700462 569.024000
   1284   1285   1288     1   111.5100476 526.347200
   1284   1285   1297     1   110.1900474 564.840000
   1284   1298   1304     1   110.1900474 564.840000
   1284   1306   1290     1   112.4800480 524.673600
   1285   1284   1298     1   111.5100476 526.347200
   1285   1284   1306     1   107.9700462 569.024000
   1285   1288   1289     1   111.5100476 526.347200
   1285   1288   1296     1   110.1900474 564.840000
   1288   1285   1297     1   110.1900474 564.840000
   1288   1289   1290     1   111.5100476 526.347200
   1288   1289   1295     1   110.1900474 564.840000
   1289   1288   1296     1   110.1900474 564.840000
   1289   1290   1294     1   107.9700462 569.024000
   1289   1290   1306     1   107.9700462 569.024000
   1290   1289   1295     1   110.1900474 564.840000
   1294   1290   1306     1   108.2900466 608.353600
   1298   1284   1306     1   107.9700462 569.024000
   1307   1308   1311     1   111.5100476 526.347200
   1307   1308   1320     1   110.1900474 564.840000
   1307   1321   1327     1   110.1900474 564.840000
   1307   1329   1313     1   112.4800480 524.673600
   1308   1307   1321     1   111.5100476 526.347200
   1308   1307   1329     1   107.9700462 569.024000
   1308   1311   1312     1   111.5100476 526.347200
   1308   1311   1319     1   110.1900474 564.840000
   1311   1308   1320     1   110.1900474 564.840000
   1311   1312   1313     1   111.5100476 526.347200
   1311   1312   1318     1   110.1900474 564.840000
   1312   1311   1319     1   110.1900474 564.840000
   1312   1313   1317     1   107.9700462 569.024000
   1312   1313   1329     1   107.9700462 569.024000
   1313   1312   1318     1   110.1900474 564.840000
   1317   1313   1329     1   108.2900466 608.353600
   1321   1307   1329     1   107.9700462 569.024000
   1330   1331   1334     1   111.5100476 526.347200
   1330   1331   1343     1   110.1900474 564.840000
   1330   1344   1350     1   110.1900474 564.840000
   1330   1352   1336     1   112.4800480 524.673600
   1331   1330   1344     1   111.5100476 526.347200
   1331   1330   1352     1   107.9700462 569.024000
   1331   1334   1335     1   111.5100476 526.347200
   1331   1334   1342     1   110.1900474 564.840000
   1334   1331   1343     1   110.1900474 564.840000
   1334   1335   1336     1   111.5100476 526.347200
   1334   1335   1341     1   110.1900474 564.840000
   1335   1334   1342     1   110.1900474 564.840000
   1335   1336   1340     1   107.9700462 569.024000
   1335   1336   1352     1   107.9700462 569.024000
   1336   1335   1341     1   110.1900474 564.840000
   1340   1336   1352     1   108.2900466 608.353600
   1344   1330   1352     1   107.9700462 569.024000
   1353   1354   1357     1   111.5100476 526.347200
   1353   1354   1366     1   110.1900474 564.840000
   1353   1367   1373     1   110.1900474 564.840000
   1353   1375   1359     1   112.4800480 524.673600
   1354   1353   1367     1   111.5100476 526.347200
   1354   1353   1375     1   107.9700462 569.024000
   1354   1357   1358     1   111.5100476 526.347200
   1354   1357   1365     1   110.1900474 564.840000
   1357   1354   1366     1   110.1900474 564.840000
   1357   1358   1359     1   111.5100476 526.347200
   1357   1358   1364     1   110.1900474 564.840000
   1358   1357   1365     1   110.1900474 564.840000
   1358   1359   1363     1   107.9700462 569.024000
   1358   1359   1375     1   107.9700462 569.024000
   1359   1358   1364     1   110.1900474 564.840000
   1363   1359   1375     1   108.2900466 608.353600
   1367   1353   1375     1   107.9700462 569.024000
   1376   1377   1380     1   111.5100476 526.347200
   1376   1377   1389     1   110.1900474 564.840000
   1376   1390   1396     1   110.1900474 564.840000
   1376   1398   1382     1   112.4800480 524.673600
   1377   1376   1390     1   111.5100476 526.347200
   1377   1376   1398     1   107.9700462 569.024000
   1377   1380   1381     1   111.5100476 526.347200
   1377   1380   1388     1   110.1900474 564.840000
   1380   1377   1389     1   110.1900474 564.840000
   1380   1381   1382     1   111.5100476 526.347200
   1380   1381   1387     1   110.1900474 564.840000
   1381   1380   1388     1   110.1900474 564.840000
   1381   1382   1386     1   107.9700462 569.024000
   1381   1382   1398     1   107.9700462 569.024000
   1382   1381   1387     1   110.1900474 564.840000
   1386   1382   1398     1   108.2900466 608.353600
   1390   1376   1398     1   107.9700462 569.024000
   1399   1400   1403     1   111.5100476 526.347200
   1399   1400   1412     1   110.1900474 564.840000
   1399   1413   1419     1   110.1900474 564.840000
   1399   1421   1405     1   112.4800480 524.673600
   1400   1399   1413     1   111.5100476 526.347200
   1400   1399   1421     1   107.9700462 569.024000
   1400   1403   1404     1   111.5100476 526.347200
   1400   1403   1411     1   110.1900474 564.840000
   1403   1400   1412     1   110.1900474 564.840000
   1403   1404   1405     1   111.5100476 526.347200
   1403   1404   1410     1   110.1900474 564.840000
   1404   1403   1411     1   110.1900474 564.840000
   1404   1405   1409     1   107.9700462 569.024000
   1404   1405   1421     1   107.9700462 569.024000
   1405   1404   1410     1   110.1900474 564.840000
   1409   1405   1421     1   108.2900466 608.353600
   1413   1399   1421     1   107.9700462 569.024000
   1422   1423   1426     1   111.5100476 526.347200
   1422   1423   1435     1   110.1900474 564.840000
   1422   1436   1442     1   110.1900474 564.840000
   1422   1444   1428     1   112.4800480 524.673600
   1423   1422   1436     1   111.5100476 526.347200
   1423   1422   1444     1   107.9700462 569.024000
   1423   1426   1427     1   111.5100476 526.347200
   1423   1426   1434     1   110.1900474 564.840000
   1426   1423   1435     1   110.1900474 564.840000
   1426   1427   1428     1   111.5100476 526.347200
   1426   1427   1433     1   110.1900474 564.840000
   1427   1426   1434     1   110.1900474 564.840000
   1427   1428   1432     1   107.9700462 569.024000
   1427   1428   1444     1   107.9700462 569.024000
   1428   1427   1433     1   110.1900474 564.840000
   1432   1428   1444     1   108.2900466 608.353600
   1436   1422   1444     1   107.9700462 569.024000
   1445   1446   1449     1   111.5100476 526.347200
   1445   1446   1458     1   110.1900474 564.840000
   1445   1459   1465     1   110.1900474 564.840000
   1445   1467   1451     1   112.4800480 524.673600
   1446   1445   1459     1   111.5100476 526.347200
   1446   1445   1467     1   107.9700462 569.024000
   1446   1449   1450     1   111.5100476 526.347200
   1446   1449   1457     1   110.1900474 564.840000
   1449   1446   1458     1   110.1900474 564.840000
   1449   1450   1451     1   111.5100476 526.347200
   1449   1450   1456     1   110.1900474 564.840000
   1450   1449   1457     1   110.1900474 564.840000
   1450   1451   1455     1   107.9700462 569.024000
   1450   1451   1467     1   107.9700462 569.024000
   1451   1450   1456     1   110.1900474 564.840000
   1455   1451   1467     1   108.2900466 608.353600
   1459   1445   1467     1   107.9700462 569.024000
   1468   1469   1472     1   111.5100476 526.347200
   1468   1469   1481     1   110.1900474 564.840000
   1468   1482   1488     1   110.1900474 564.840000
   1468   1490   1474     1   112.4800480 524.673600
   1469   1468   1482     1   111.5100476 526.347200
   1469   1468   1490     1   107.9700462 569.024000
   1469   1472   1473     1   111.5100476 526.347200
   1469   1472   1480     1   110.1900474 564.840000
   1472   1469   1481     1   110.1900474 564.840000
   1472   1473   1474     1   111.5100476 526.347200
   1472   1473   1479     1   110.1900474 564.840000
   1473   1472   1480     1   110.1900474 564.840000
   1473   1474   1478     1   107.9700462 569.024000
   1473   1474   1490     1   107.9700462 569.024000
   1474   1473   1479     1   110.1900474 564.840000
   1478   1474   1490     1   108.2900466 608.353600
   1482   1468   1490     1   107.9700462 569.024000
   1491   1492   1495     1   111.5100476 526.347200
   1491   1492   1504     1   110.1900474 564.840000
   1491   1505   1511     1   110.1900474 564.840000
   1491   1513   1497     1   112.4800480 524.673600
   1492   1491   1505     1   111.5100476 526.347200
   1492   1491   1513     1   107.9700462 569.024000
   1492   1495   1496     1   111.5100476 526.347200
   1492   1495   1503     1   110.1900474 564.840000
   1495   1492   1504     1   110.1900474 564.840000
   1495   1496   1497     1   111.5100476 526.347200
   1495   1496   1502     1   110.1900474 564.840000
   1496   1495   1503     1   110.1900474 564.840000
   1496   1497   1501     1   107.9700462 569.024000
   1496   1497   1513     1   107.9700462 569.024000
   1497   1496   1502     1   110.1900474 564.840000
   1501   1497   1513     1   108.2900466 608.353600
   1505   1491   1513     1   107.9700462 569.024000
   1514   1515   1518     1   111.5100476 526.347200
   1514   1515   1527     1   110.1900474 564.840000
   1514   1528   1534     1   110.1900474 564.840000
   1514   1536   1520     1   112.4800480 524.673600
   1515   1514   1528     1   111.5100476 526.347200
   1515   1514   1536     1   107.9700462 569.024000
   1515   1518   1519     1   111.5100476 526.347200
   1515   1518   1526     1   110.1900474 564.840000
   1518   1515   1527     1   110.1900474 564.840000
   1518   1519   1520     1   111.5100476 526.347200
   1518   1519   1525     1   110.1900474 564.840000
   1519   1518   1526     1   110.1900474 564.840000
   1519   1520   1524     1   107.9700462 569.024000
   1519   1520   1536     1   107.9700462 569.024000
   1520   1519   1525     1   110.1900474 564.840000
   1524   1520   1536     1   108.2900466 608.353600
   1528   1514   1536     1   107.9700462 569.024000
   1537   1538   1541     1   111.5100476 526.347200
   1537   1538   1550     1   110.1900474 564.840000
   1537   1551   1557     1   110.1900474 564.840000
   1537   1559   1543     1   112.4800480 524.673600
   1538   1537   1551     1   111.5100476 526.347200
   1538   1537   1559     1   107.9700462 569.024000
   1538   1541   1542     1   111.5100476 526.347200
   1538   1541   1549     1   110.1900474 564.840000
   1541   1538   1550     1   110.1900474 564.840000
   1541   1542   1543     1   111.5100476 526.347200
   1541   1542   1548     1   110.1900474 564.840000
   1542   1541   1549     1   110.1900474 564.840000
   1542   1543   1547     1   107.9700462 569.024000
   1542   1543   1559     1   107.9700462 569.024000
   1543   1542   1548     1   110.1900474 564.840000
   1547   1543   1559     1   108.2900466 608.353600
   1551   1537   1559     1   107.9700462 569.024000
   1560   1561   1564     1   111.5100476 526.347200
   1560   1561   1573     1   110.1900474 564.840000
   1560   1574   1580     1   110.1900474 564.840000
   1560   1582   1566     1   112.4800480 524.673600
   1561   1560   1574     1   111.5100476 526.347200
   1561   1560   1582     1   107.9700462 569.024000
   1561   1564   1565     1   111.5100476 526.347200
   1561   1564   1572     1   110.1900474 564.840000
   1564   1561   1573     1   110.1900474 564.840000
   1564   1565   1566     1   111.5100476 526.347200
   1564   1565   1571     1   110.1900474 564.840000
   1565   1564   1572     1   110.1900474 564.840000
   1565   1566   1570     1   107.9700462 569.024000
   1565   1566   1582     1   107.9700462 569.024000
   1566   1565   1571     1   110.1900474 564.840000
   1570   1566   1582     1   108.2900466 608.353600
   1574   1560   1582     1   107.9700462 569.024000
   1583   1584   1587     1   111.5100476 526.347200
   1583   1584   1596     1   110.1900474 564.840000
   1583   1597   1603     1   110.1900474 564.840000
   1583   1605   1589     1   112.4800480 524.673600
   1584   1583   1597     1   111.5100476 526.347200
   1584   1583   1605     1   107.9700462 569.024000
   1584   1587   1588     1   111.5100476 526.347200
   1584   1587   1595     1   110.1900474 564.840000
   1587   1584   1596     1   110.1900474 564.840000
   1587   1588   1589     1   111.5100476 526.347200
   1587   1588   1594     1   110.1900474 564.840000
   1588   1587   1595     1   110.1900474 564.840000
   1588   1589   1593     1   107.9700462 569.024000
   1588   1589   1605     1   107.9700462 569.024000
   1589   1588   1594     1   110.1900474 564.840000
   1593   1589   1605     1   108.2900466 608.353600
   1597   1583   1605     1   107.9700462 569.024000
      1      2      3     1   109.7800468 425.094400
      1      2      4     1   109.7800468 425.094400
      1      5      6     1   109.7800468 425.094400
      1      5      7     1   109.7800468 425.094400
      2      8      9     1   109.8000471 387.438400
      2      8     10     1   109.8000471 387.438400
      3      2      8     1   109.5600471 388.275200
      3      2      4     1   108.4600466 328.025600
      4      2      8     1   109.5600471 388.275200
      5     11     12     1   109.8000471 387.438400
      5     11     13     1   109.8000471 387.438400
      6      5     11     1   109.5600471 388.275200
      6      5      7     1   108.4600466 328.025600
      7      5     11     1   109.5600471 388.275200
      8     14     15     1   109.5600471 388.275200
      8     14     16     1   109.5600471 388.275200
      9      8     14     1   109.8000471 387.438400
      9      8     10     1   107.5800459 329.699200
     10      8     14     1   109.8000471 387.438400
     11     17     18     1   109.5600471 388.275200
     11     17     19     1   109.5600471 388.275200
     12     11     17     1   109.8000471 387.438400
     12     11     13     1   107.5800459 329.699200
     13     11     17     1   109.8000471 387.438400
     15     14     20     1   109.8800469 414.216000
     15     14     16     1   108.4600466 328.025600
     16     14     20     1   109.8800469 414.216000
     18     17     21     1   109.8800469 414.216000
     18     17     19     1   108.4600466 328.025600
     19     17     21     1   109.8800469 414.216000
     20     28     29     1   109.8800469 414.216000
     20     28     30     1   109.8800469 414.216000
     20     31     32     1   109.8800469 414.216000
     20     31     33     1   109.8800469 414.216000
     21     22     23     1   109.8800469 414.216000
     21     22     24     1   109.8800469 414.216000
     21     25     26     1   109.8800469 414.216000
     21     25     27     1   109.8800469 414.216000
     22     34     35     1   109.8000471 387.438400
     22     34     36     1   109.8000471 387.438400
     23     22     34     1   109.5600471 388.275200
     23     22     24     1   108.4600466 328.025600
     24     22     34     1   109.5600471 388.275200
     25     37     38     1   109.8000471 387.438400
     25     37     39     1   109.8000471 387.438400
     26     25     37     1   109.5600471 388.275200
     26     25     27     1   108.4600466 328.025600
     27     25     37     1   109.5600471 388.275200
     28     40     41     1   109.8000471 387.438400
     28     40     42     1   109.8000471 387.438400
     29     28     40     1   109.5600471 388.275200
     29     28     30     1   108.4600466 328.025600
     30     28     40     1   109.5600471 388.275200
     31     43     44     1   109.8000471 387.438400
     31     43     45     1   109.8000471 387.438400
     32     31     43     1   109.5600471 388.275200
     32     31     33     1   108.4600466 328.025600
     33     31     43     1   109.5600471 388.275200
     34     55     56     1   109.5600471 388.275200
     34     55     57     1   109.5600471 388.275200
     35     34     55     1   109.8000471 387.438400
     35     34     36     1   107.5800459 329.699200
     36     34     55     1   109.8000471 387.438400
     37     52     53     1   109.5600471 388.275200
     37     52     54     1   109.5600471 388.275200
     38     37     52     1   109.8000471 387.438400
     38     37     39     1   107.5800459 329.699200
     39     37     52     1   109.8000471 387.438400
     40     49     50     1   109.5600471 388.275200
     40     49     51     1   109.5600471 388.275200
     41     40     49     1   109.8000471 387.438400
     41     40     42     1   107.5800459 329.699200
     42     40     49     1   109.8000471 387.438400
     43     46     47     1   109.5600471 388.275200
     43     46     48     1   109.5600471 388.275200
     44     43     46     1   109.8000471 387.438400
     44     43     45     1   107.5800459 329.699200
     45     43     46     1   109.8000471 387.438400
     47     46     86     1   109.7800468 425.094400
     47     46     48     1   108.4600466 328.025600
     48     46     86     1   109.7800468 425.094400
     50     49    115     1   109.7800468 425.094400
     50     49     51     1   108.4600466 328.025600
     51     49    115     1   109.7800468 425.094400
     53     52    144     1   109.7800468 425.094400
     53     52     54     1   108.4600466 328.025600
     54     52    144     1   109.7800468 425.094400
     56     55    173     1   109.7800468 425.094400
     56     55     57     1   108.4600466 328.025600
     57     55    173     1   109.7800468 425.094400
     58     59     60     1   109.8800469 414.216000
     58     59     61     1   109.8800469 414.216000
     58     62     63     1   109.8800469 414.216000
     58     62     64     1   109.8800469 414.216000
     58     65     66     1   109.8800469 414.216000
     58     65     67     1   109.8800469 414.216000
     59     71     72     1   109.8000471 387.438400
     59     71     73     1   109.8000471 387.438400
     60     59     71     1   109.5600471 388.275200
     60     59     61     1   108.4600466 328.025600
     61     59     71     1   109.5600471 388.275200
     62     74     75     1   109.8000471 387.438400
     62     74     76     1   109.8000471 387.438400
     63     62     74     1   109.5600471 388.275200
     63     62     64     1   108.4600466 328.025600
     64     62     74     1   109.5600471 388.275200
     65     68     69     1   109.8000471 387.438400
     65     68     70     1   109.8000471 387.438400
     66     65     68     1   109.5600471 388.275200
     66     65     67     1   108.4600466 328.025600
     67     65     68     1   109.5600471 388.275200
     68     77     78     1   109.5600471 388.275200
     68     77     79     1   109.5600471 388.275200
     69     68     77     1   109.8000471 387.438400
     69     68     70     1   107.5800459 329.699200
     70     68     77     1   109.8000471 387.438400
     71     83     84     1   109.5600471 388.275200
     71     83     85     1   109.5600471 388.275200
     72     71     83     1   109.8000471 387.438400
     72     71     73     1   107.5800459 329.699200
     73     71     83     1   109.8000471 387.438400
     74     80     81     1   109.5600471 388.275200
     74     80     82     1   109.5600471 388.275200
     75     74     80     1   109.8000471 387.438400
     75     74     76     1   107.5800459 329.699200
     76     74     80     1   109.8000471 387.438400
     78     77     86     1   109.7800468 425.094400
     78     77     79     1   108.4600466 328.025600
     79     77     86     1   109.7800468 425.094400
     81     80    202     1   109.7800468 425.094400
     81     80     82     1   108.4600466 328.025600
     82     80    202     1   109.7800468 425.094400
     84     83    231     1   109.7800468 425.094400
     84     83     85     1   108.4600466 328.025600
     85     83    231     1   109.7800468 425.094400
     87     88     89     1   109.8800469 414.216000
     87     88     90     1   109.8800469 414.216000
     87     91     92     1   109.8800469 414.216000
     87     91     93     1   109.8800469 414.216000
     87     94     95     1   109.8800469 414.216000
     87     94     96     1   109.8800469 414.216000
     88    100    101     1   109.8000471 387.438400
     88    100    102     1   109.8000471 387.438400
     89     88    100     1   109.5600471 388.275200
     89     88     90     1   108.4600466 328.025600
     90     88    100     1   109.5600471 388.275200
     91    103    104     1   109.8000471 387.438400
     91    103    105     1   109.8000471 387.438400
     92     91    103     1   109.5600471 388.275200
     92     91     93     1   108.4600466 328.025600
     93     91    103     1   109.5600471 388.275200
     94     97     98     1   109.8000471 387.438400
     94     97     99     1   109.8000471 387.438400
     95     94     97     1   109.5600471 388.275200
     95     94     96     1   108.4600466 328.025600
     96     94     97     1   109.5600471 388.275200
     97    106    107     1   109.5600471 388.275200
     97    106    108     1   109.5600471 388.275200
     98     97    106     1   109.8000471 387.438400
     98     97     99     1   107.5800459 329.699200
     99     97    106     1   109.8000471 387.438400
    100    112    113     1   109.5600471 388.275200
    100    112    114     1   109.5600471 388.275200
    101    100    112     1   109.8000471 387.438400
    101    100    102     1   107.5800459 329.699200
    102    100    112     1   109.8000471 387.438400
    103    109    110     1   109.5600471 388.275200
    103    109    111     1   109.5600471 388.275200
    104    103    109     1   109.8000471 387.438400
    104    103    105     1   107.5800459 329.699200
    105    103    109     1   109.8000471 387.438400
    107    106    115     1   109.7800468 425.094400
    107    106    108     1   108.4600466 328.025600
    108    106    115     1   109.7800468 425.094400
    110    109    260     1   109.7800468 425.094400
    110    109    111     1   108.4600466 328.025600
    111    109    260     1   109.7800468 425.094400
    113    112    289     1   109.7800468 425.094400
    113    112    114     1   108.4600466 328.025600
    114    112    289     1   109.7800468 425.094400
    116    117    118     1   109.8800469 414.216000
    116    117    119     1   109.8800469 414.216000
    116    120    121     1   109.8800469 414.216000
    116    120    122     1   109.8800469 414.216000
    116    123    124     1   109.8800469 414.216000
    116    123    125     1   109.8800469 414.216000
    117    129    130     1   109.8000471 387.438400
    117    129    131     1   109.8000471 387.438400
    118    117    129     1   109.5600471 388.275200
    118    117    119     1   108.4600466 328.025600
    119    117    129     1   109.5600471 388.275200
    120    132    133     1   109.8000471 387.438400
    120    132    134     1   109.8000471 387.438400
    121    120    132     1   109.5600471 388.275200
    121    120    122     1   108.4600466 328.025600
    122    120    132     1   109.5600471 388.275200
    123    126    127     1   109.8000471 387.438400
    123    126    128     1   109.8000471 387.438400
    124    123    126     1   109.5600471 388.275200
    124    123    125     1   108.4600466 328.025600
    125    123    126     1   109.5600471 388.275200
    126    135    136     1   109.5600471 388.275200
    126    135    137     1   109.5600471 388.275200
    127    126    135     1   109.8000471 387.438400
    127    126    128     1   107.5800459 329.699200
    128    126    135     1   109.8000471 387.438400
    129    141    142     1   109.5600471 388.275200
    129    141    143     1   109.5600471 388.275200
    130    129    141     1   109.8000471 387.438400
    130    129    131     1   107.5800459 329.699200
    131    129    141     1   109.8000471 387.438400
    132    138    139     1   109.5600471 388.275200
    132    138    140     1   109.5600471 388.275200
    133    132    138     1   109.8000471 387.438400
    133    132    134     1   107.5800459 329.699200
    134    132    138     1   109.8000471 387.438400
    136    135    144     1   109.7800468 425.094400
    136    135    137     1   108.4600466 328.025600
    137    135    144     1   109.7800468 425.094400
    139    138    318     1   109.7800468 425.094400
    139    138    140     1   108.4600466 328.025600
    140    138    318     1   109.7800468 425.094400
    142    141    347     1   109.7800468 425.094400
    142    141    143     1   108.4600466 328.025600
    143    141    347     1   109.7800468 425.094400
    145    146    147     1   109.8800469 414.216000
    145    146    148     1   109.8800469 414.216000
    145    149    150     1   109.8800469 414.216000
    145    149    151     1   109.8800469 414.216000
    145    152    153     1   109.8800469 414.216000
    145    152    154     1   109.8800469 414.216000
    146    158    159     1   109.8000471 387.438400
    146    158    160     1   109.8000471 387.438400
    147    146    158     1   109.5600471 388.275200
    147    146    148     1   108.4600466 328.025600
    148    146    158     1   109.5600471 388.275200
    149    161    162     1   109.8000471 387.438400
    149    161    163     1   109.8000471 387.438400
    150    149    161     1   109.5600471 388.275200
    150    149    151     1   108.4600466 328.025600
    151    149    161     1   109.5600471 388.275200
    152    155    156     1   109.8000471 387.438400
    152    155    157     1   109.8000471 387.438400
    153    152    155     1   109.5600471 388.275200
    153    152    154     1   108.4600466 328.025600
    154    152    155     1   109.5600471 388.275200
    155    164    165     1   109.5600471 388.275200
    155    164    166     1   109.5600471 388.275200
    156    155    164     1   109.8000471 387.438400
    156    155    157     1   107.5800459 329.699200
    157    155    164     1   109.8000471 387.438400
    158    170    171     1   109.5600471 388.275200
    158    170    172     1   109.5600471 388.275200
    159    158    170     1   109.8000471 387.438400
    159    158    160     1   107.5800459 329.699200
    160    158    170     1   109.8000471 387.438400
    161    167    168     1   109.5600471 388.275200
    161    167    169     1   109.5600471 388.275200
    162    161    167     1   109.8000471 387.438400
    162    161    163     1   107.5800459 329.699200
    163    161    167     1   109.8000471 387.438400
    165    164    173     1   109.7800468 425.094400
    165    164    166     1   108.4600466 328.025600
    166    164    173     1   109.7800468 425.094400
    168    167    376     1   109.7800468 425.094400
    168    167    169     1   108.4600466 328.025600
    169    167    376     1   109.7800468 425.094400
    171    170    405     1   109.7800468 425.094400
    171    170    172     1   108.4600466 328.025600
    172    170    405     1   109.7800468 425.094400
    174    175    176     1   109.8800469 414.216000
    174    175    177     1   109.8800469 414.216000
    174    178    179     1   109.8800469 414.216000
    174    178    180     1   109.8800469 414.216000
    174    181    182     1   109.8800469 414.216000
    174    181    183     1   109.8800469 414.216000
    175    187    188     1   109.8000471 387.438400
    175    187    189     1   109.8000471 387.438400
    176    175    187     1   109.5600471 388.275200
    176    175    177     1   108.4600466 328.025600
    177    175    187     1   109.5600471 388.275200
    178    190    191     1   109.8000471 387.438400
    178    190    192     1   109.8000471 387.438400
    179    178    190     1   109.5600471 388.275200
    179    178    180     1   108.4600466 328.025600
    180    178    190     1   109.5600471 388.275200
    181    184    185     1   109.8000471 387.438400
    181    184    186     1   109.8000471 387.438400
    182    181    184     1   109.5600471 388.275200
    182    181    183     1   108.4600466 328.025600
    183    181    184     1   109.5600471 388.275200
    184    193    194     1   109.5600471 388.275200
    184    193    195     1   109.5600471 388.275200
    185    184    193     1   109.8000471 387.438400
    185    184    186     1   107.5800459 329.699200
    186    184    193     1   109.8000471 387.438400
    187    199    200     1   109.5600471 388.275200
    187    199    201     1   109.5600471 388.275200
    188    187    199     1   109.8000471 387.438400
    188    187    189     1   107.5800459 329.699200
    189    187    199     1   109.8000471 387.438400
    190    196    197     1   109.5600471 388.275200
    190    196    198     1   109.5600471 388.275200
    191    190    196     1   109.8000471 387.438400
    191    190    192     1   107.5800459 329.699200
    192    190    196     1   109.8000471 387.438400
    194    193    202     1   109.7800468 425.094400
    194    193    195     1   108.4600466 328.025600
    195    193    202     1   109.7800468 425.094400
    197    196    434     1   109.7800468 425.094400
    197    196    198     1   108.4600466 328.025600
    198    196    434     1   109.7800468 425.094400
    200    199    463     1   109.7800468 425.094400
    200    199    201     1   108.4600466 328.025600
    201    199    463     1   109.7800468 425.094400
    203    204    205     1   109.8800469 414.216000
    203    204    206     1   109.8800469 414.216000
    203    207    208     1   109.8800469 414.216000
    203    207    209     1   109.8800469 414.216000
    203    210    211     1   109.8800469 414.216000
    203    210    212     1   109.8800469 414.216000
    204    216    217     1   109.8000471 387.438400
    204    216    218     1   109.8000471 387.438400
    205    204    216     1   109.5600471 388.275200
    205    204    206     1   108.4600466 328.025600
    206    204    216     1   109.5600471 388.275200
    207    219    220     1   109.8000471 387.438400
    207    219    221     1   109.8000471 387.438400
    208    207    219     1   109.5600471 388.275200
    208    207    209     1   108.4600466 328.025600
    209    207    219     1   109.5600471 388.275200
    210    213    214     1   109.8000471 387.438400
    210    213    215     1   109.8000471 387.438400
    211    210    213     1   109.5600471 388.275200
    211    210    212     1   108.4600466 328.025600
    212    210    213     1   109.5600471 388.275200
    213    222    223     1   109.5600471 388.275200
    213    222    224     1   109.5600471 388.275200
    214    213    222     1   109.8000471 387.438400
    214    213    215     1   107.5800459 329.699200
    215    213    222     1   109.8000471 387.438400
    216    228    229     1   109.5600471 388.275200
    216    228    230     1   109.5600471 388.275200
    217    216    228     1   109.8000471 387.438400
    217    216    218     1   107.5800459 329.699200
    218    216    228     1   109.8000471 387.438400
    219    225    226     1   109.5600471 388.275200
    219    225    227     1   109.5600471 388.275200
    220    219    225     1   109.8000471 387.438400
    220    219    221     1   107.5800459 329.699200
    221    219    225     1   109.8000471 387.438400
    223    222    231     1   109.7800468 425.094400
    223    222    224     1   108.4600466 328.025600
    224    222    231     1   109.7800468 425.094400
    226    225    492     1   109.7800468 425.094400
    226    225    227     1   108.4600466 328.025600
    227    225    492     1   109.7800468 425.094400
    229    228    521     1   109.7800468 425.094400
    229    228    230     1   108.4600466 328.025600
    230    228    521     1   109.7800468 425.094400
    232    233    234     1   109.8800469 414.216000
    232    233    235     1   109.8800469 414.216000
    232    236    237     1   109.8800469 414.216000
    232    236    238     1   109.8800469 414.216000
    232    239    240     1   109.8800469 414.216000
    232    239    241     1   109.8800469 414.216000
    233    245    246     1   109.8000471 387.438400
    233    245    247     1   109.8000471 387.438400
    234    233    245     1   109.5600471 388.275200
    234    233    235     1   108.4600466 328.025600
    235    233    245     1   109.5600471 388.275200
    236    248    249     1   109.8000471 387.438400
    236    248    250     1   109.8000471 387.438400
    237    236    248     1   109.5600471 388.275200
    237    236    238     1   108.4600466 328.025600
    238    236    248     1   109.5600471 388.275200
    239    242    243     1   109.8000471 387.438400
    239    242    244     1   109.8000471 387.438400
    240    239    242     1   109.5600471 388.275200
    240    239    241     1   108.4600466 328.025600
    241    239    242     1   109.5600471 388.275200
    242    251    252     1   109.5600471 388.275200
    242    251    253     1   109.5600471 388.275200
    243    242    251     1   109.8000471 387.438400
    243    242    244     1   107.5800459 329.699200
    244    242    251     1   109.8000471 387.438400
    245    257    258     1   109.5600471 388.275200
    245    257    259     1   109.5600471 388.275200
    246    245    257     1   109.8000471 387.438400
    246    245    247     1   107.5800459 329.699200
    247    245    257     1   109.8000471 387.438400
    248    254    255     1   109.5600471 388.275200
    248    254    256     1   109.5600471 388.275200
    249    248    254     1   109.8000471 387.438400
    249    248    250     1   107.5800459 329.699200
    250    248    254     1   109.8000471 387.438400
    252    251    260     1   109.7800468 425.094400
    252    251    253     1   108.4600466 328.025600
    253    251    260     1   109.7800468 425.094400
    255    254    550     1   109.7800468 425.094400
    255    254    256     1   108.4600466 328.025600
    256    254    550     1   109.7800468 425.094400
    258    257    579     1   109.7800468 425.094400
    258    257    259     1   108.4600466 328.025600
    259    257    579     1   109.7800468 425.094400
    261    262    263     1   109.8800469 414.216000
    261    262    264     1   109.8800469 414.216000
    261    265    266     1   109.8800469 414.216000
    261    265    267     1   109.8800469 414.216000
    261    268    269     1   109.8800469 414.216000
    261    268    270     1   109.8800469 414.216000
    262    274    275     1   109.8000471 387.438400
    262    274    276     1   109.8000471 387.438400
    263    262    274     1   109.5600471 388.275200
    263    262    264     1   108.4600466 328.025600
    264    262    274     1   109.5600471 388.275200
    265    277    278     1   109.8000471 387.438400
    265    277    279     1   109.8000471 387.438400
    266    265    277     1   109.5600471 388.275200
    266    265    267     1   108.4600466 328.025600
    267    265    277     1   109.5600471 388.275200
    268    271    272     1   109.8000471 387.438400
    268    271    273     1   109.8000471 387.438400
    269    268    271     1   109.5600471 388.275200
    269    268    270     1   108.4600466 328.025600
    270    268    271     1   109.5600471 388.275200
    271    280    281     1   109.5600471 388.275200
    271    280    282     1   109.5600471 388.275200
    272    271    280     1   109.8000471 387.438400
    272    271    273     1   107.5800459 329.699200
    273    271    280     1   109.8000471 387.438400
    274    286    287     1   109.5600471 388.275200
    274    286    288     1   109.5600471 388.275200
    275    274    286     1   109.8000471 387.438400
    275    274    276     1   107.5800459 329.699200
    276    274    286     1   109.8000471 387.438400
    277    283    284     1   109.5600471 388.275200
    277    283    285     1   109.5600471 388.275200
    278    277    283     1   109.8000471 387.438400
    278    277    279     1   107.5800459 329.699200
    279    277    283     1   109.8000471 387.438400
    281    280    289     1   109.7800468 425.094400
    281    280    282     1   108.4600466 328.025600
    282    280    289     1   109.7800468 425.094400
    284    283    608     1   109.7800468 425.094400
    284    283    285     1   108.4600466 328.025600
    285    283    608     1   109.7800468 425.094400
    287    286    637     1   109.7800468 425.094400
    287    286    288     1   108.4600466 328.025600
    288    286    637     1   109.7800468 425.094400
    290    291    292     1   109.8800469 414.216000
    290    291    293     1   109.8800469 414.216000
    290    294    295     1   109.8800469 414.216000
    290    294    296     1   109.8800469 414.216000
    290    297    298     1   109.8800469 414.216000
    290    297    299     1   109.8800469 414.216000
    291    303    304     1   109.8000471 387.438400
    291    303    305     1   109.8000471 387.438400
    292    291    303     1   109.5600471 388.275200
    292    291    293     1   108.4600466 328.025600
    293    291    303     1   109.5600471 388.275200
    294    306    307     1   109.8000471 387.438400
    294    306    308     1   109.8000471 387.438400
    295    294    306     1   109.5600471 388.275200
    295    294    296     1   108.4600466 328.025600
    296    294    306     1   109.5600471 388.275200
    297    300    301     1   109.8000471 387.438400
    297    300    302     1   109.8000471 387.438400
    298    297    300     1   109.5600471 388.275200
    298    297    299     1   108.4600466 328.025600
    299    297    300     1   109.5600471 388.275200
    300    309    310     1   109.5600471 388.275200
    300    309    311     1   109.5600471 388.275200
    301    300    309     1   109.8000471 387.438400
    301    300    302     1   107.5800459 329.699200
    302    300    309     1   109.8000471 387.438400
    303    315    316     1   109.5600471 388.275200
    303    315    317     1   109.5600471 388.275200
    304    303    315     1   109.8000471 387.438400
    304    303    305     1   107.5800459 329.699200
    305    303    315     1   109.8000471 387.438400
    306    312    313     1   109.5600471 388.275200
    306    312    314     1   109.5600471 388.275200
    307    306    312     1   109.8000471 387.438400
    307    306    308     1   107.5800459 329.699200
    308    306    312     1   109.8000471 387.438400
    310    309    318     1   109.7800468 425.094400
    310    309    311     1   108.4600466 328.025600
    311    309    318     1   109.7800468 425.094400
    313    312    666     1   109.7800468 425.094400
    313    312    314     1   108.4600466 328.025600
    314    312    666     1   109.7800468 425.094400
    316    315    695     1   109.7800468 425.094400
    316    315    317     1   108.4600466 328.025600
    317    315    695     1   109.7800468 425.094400
    319    320    321     1   109.8800469 414.216000
    319    320    322     1   109.8800469 414.216000
    319    323    324     1   109.8800469 414.216000
    319    323    325     1   109.8800469 414.216000
    319    326    327     1   109.8800469 414.216000
    319    326    328     1   109.8800469 414.216000
    320    332    333     1   109.8000471 387.438400
    320    332    334     1   109.8000471 387.438400
    321    320    332     1   109.5600471 388.275200
    321    320    322     1   108.4600466 328.025600
    322    320    332     1   109.5600471 388.275200
    323    335    336     1   109.8000471 387.438400
    323    335    337     1   109.8000471 387.438400
    324    323    335     1   109.5600471 388.275200
    324    323    325     1   108.4600466 328.025600
    325    323    335     1   109.5600471 388.275200
    326    329    330     1   109.8000471 387.438400
    326    329    331     1   109.8000471 387.438400
    327    326    329     1   109.5600471 388.275200
    327    326    328     1   108.4600466 328.025600
    328    326    329     1   109.5600471 388.275200
    329    338    339     1   109.5600471 388.275200
    329    338    340     1   109.5600471 388.275200
    330    329    338     1   109.8000471 387.438400
    330    329    331     1   107.5800459 329.699200
    331    329    338     1   109.8000471 387.438400
    332    344    345     1   109.5600471 388.275200
    332    344    346     1   109.5600471 388.275200
    333    332    344     1   109.8000471 387.438400
    333    332    334     1   107.5800459 329.699200
    334    332    344     1   109.8000471 387.438400
    335    341    342     1   109.5600471 388.275200
    335    341    343     1   109.5600471 388.275200
    336    335    341     1   109.8000471 387.438400
    336    335    337     1   107.5800459 329.699200
    337    335    341     1   109.8000471 387.438400
    339    338    347     1   109.7800468 425.094400
    339    338    340     1   108.4600466 328.025600
    340    338    347     1   109.7800468 425.094400
    342    341    724     1   109.7800468 425.094400
    342    341    343     1   108.4600466 328.025600
    343    341    724     1   109.7800468 425.094400
    345    344    753     1   109.7800468 425.094400
    345    344    346     1   108.4600466 328.025600
    346    344    753     1   109.7800468 425.094400
    348    349    350     1   109.8800469 414.216000
    348    349    351     1   109.8800469 414.216000
    348    352    353     1   109.8800469 414.216000
    348    352    354     1   109.8800469 414.216000
    348    355    356     1   109.8800469 414.216000
    348    355    357     1   109.8800469 414.216000
    349    361    362     1   109.8000471 387.438400
    349    361    363     1   109.8000471 387.438400
    350    349    361     1   109.5600471 388.275200
    350    349    351     1   108.4600466 328.025600
    351    349    361     1   109.5600471 388.275200
    352    364    365     1   109.8000471 387.438400
    352    364    366     1   109.8000471 387.438400
    353    352    364     1   109.5600471 388.275200
    353    352    354     1   108.4600466 328.025600
    354    352    364     1   109.5600471 388.275200
    355    358    359     1   109.8000471 387.438400
    355    358    360     1   109.8000471 387.438400
    356    355    358     1   109.5600471 388.275200
    356    355    357     1   108.4600466 328.025600
    357    355    358     1   109.5600471 388.275200
    358    367    368     1   109.5600471 388.275200
    358    367    369     1   109.5600471 388.275200
    359    358    367     1   109.8000471 387.438400
    359    358    360     1   107.5800459 329.699200
    360    358    367     1   109.8000471 387.438400
    361    373    374     1   109.5600471 388.275200
    361    373    375     1   109.5600471 388.275200
    362    361    373     1   109.8000471 387.438400
    362    361    363     1   107.5800459 329.699200
    363    361    373     1   109.8000471 387.438400
    364    370    371     1   109.5600471 388.275200
    364    370    372     1   109.5600471 388.275200
    365    364    370     1   109.8000471 387.438400
    365    364    366     1   107.5800459 329.699200
    366    364    370     1   109.8000471 387.438400
    368    367    376     1   109.7800468 425.094400
    368    367    369     1   108.4600466 328.025600
    369    367    376     1   109.7800468 425.094400
    371    370    782     1   109.7800468 425.094400
    371    370    372     1   108.4600466 328.025600
    372    370    782     1   109.7800468 425.094400
    374    373    811     1   109.7800468 425.094400
    374    373    375     1   108.4600466 328.025600
    375    373    811     1   109.7800468 425.094400
    377    378    379     1   109.8800469 414.216000
    377    378    380     1   109.8800469 414.216000
    377    381    382     1   109.8800469 414.216000
    377    381    383     1   109.8800469 414.216000
    377    384    385     1   109.8800469 414.216000
    377    384    386     1   109.8800469 414.216000
    378    390    391     1   109.8000471 387.438400
    378    390    392     1   109.8000471 387.438400
    379    378    390     1   109.5600471 388.275200
    379    378    380     1   108.4600466 328.025600
    380    378    390     1   109.5600471 388.275200
    381    393    394     1   109.8000471 387.438400
    381    393    395     1   109.8000471 387.438400
    382    381    393     1   109.5600471 388.275200
    382    381    383     1   108.4600466 328.025600
    383    381    393     1   109.5600471 388.275200
    384    387    388     1   109.8000471 387.438400
    384    387    389     1   109.8000471 387.438400
    385    384    387     1   109.5600471 388.275200
    385    384    386     1   108.4600466 328.025600
    386    384    387     1   109.5600471 388.275200
    387    396    397     1   109.5600471 388.275200
    387    396    398     1   109.5600471 388.275200
    388    387    396     1   109.8000471 387.438400
    388    387    389     1   107.5800459 329.699200
    389    387    396     1   109.8000471 387.438400
    390    402    403     1   109.5600471 388.275200
    390    402    404     1   109.5600471 388.275200
    391    390    402     1   109.8000471 387.438400
    391    390    392     1   107.5800459 329.699200
    392    390    402     1   109.8000471 387.438400
    393    399    400     1   109.5600471 388.275200
    393    399    401     1   109.5600471 388.275200
    394    393    399     1   109.8000471 387.438400
    394    393    395     1   107.5800459 329.699200
    395    393    399     1   109.8000471 387.438400
    397    396    405     1   109.7800468 425.094400
    397    396    398     1   108.4600466 328.025600
    398    396    405     1   109.7800468 425.094400
    400    399    840     1   109.7800468 425.094400
    400    399    401     1   108.4600466 328.025600
    401    399    840     1   109.7800468 425.094400
    403    402    869     1   109.7800468 425.094400
    403    402    404     1   108.4600466 328.025600
    404    402    869     1   109.7800468 425.094400
    406    407    408     1   109.8800469 414.216000
    406    407    409     1   109.8800469 414.216000
    406    410    411     1   109.8800469 414.216000
    406    410    412     1   109.8800469 414.216000
    406    413    414     1   109.8800469 414.216000
    406    413    415     1   109.8800469 414.216000
    407    419    420     1   109.8000471 387.438400
    407    419    421     1   109.8000471 387.438400
    408    407    419     1   109.5600471 388.275200
    408    407    409     1   108.4600466 328.025600
    409    407    419     1   109.5600471 388.275200
    410    422    423     1   109.8000471 387.438400
    410    422    424     1   109.8000471 387.438400
    411    410    422     1   109.5600471 388.275200
    411    410    412     1   108.4600466 328.025600
    412    410    422     1   109.5600471 388.275200
    413    416    417     1   109.8000471 387.438400
    413    416    418     1   109.8000471 387.438400
    414    413    416     1   109.5600471 388.275200
    414    413    415     1   108.4600466 328.025600
    415    413    416     1   109.5600471 388.275200
    416    425    426     1   109.5600471 388.275200
    416    425    427     1   109.5600471 388.275200
    417    416    425     1   109.8000471 387.438400
    417    416    418     1   107.5800459 329.699200
    418    416    425     1   109.8000471 387.438400
    419    431    432     1   109.5600471 388.275200
    419    431    433     1   109.5600471 388.275200
    420    419    431     1   109.8000471 387.438400
    420    419    421     1   107.5800459 329.699200
    421    419    431     1   109.8000471 387.438400
    422    428    429     1   109.5600471 388.275200
    422    428    430     1   109.5600471 388.275200
    423    422    428     1   109.8000471 387.438400
    423    422    424     1   107.5800459 329.699200
    424    422    428     1   109.8000471 387.438400
    426    425    434     1   109.7800468 425.094400
    426    425    427     1   108.4600466 328.025600
    427    425    434     1   109.7800468 425.094400
    429    428    880     1   109.7800468 425.094400
    429    428    430     1   108.4600466 328.025600
    430    428    880     1   109.7800468 425.094400
    432    431    903     1   109.7800468 425.094400
    432    431    433     1   108.4600466 328.025600
    433    431    903     1   109.7800468 425.094400
    435    436    437     1   109.8800469 414.216000
    435    436    438     1   109.8800469 414.216000
    435    439    440     1   109.8800469 414.216000
    435    439    441     1   109.8800469 414.216000
    435    442    443     1   109.8800469 414.216000
    435    442    444     1   109.8800469 414.216000
    436    448    449     1   109.8000471 387.438400
    436    448    450     1   109.8000471 387.438400
    437    436    448     1   109.5600471 388.275200
    437    436    438     1   108.4600466 328.025600
    438    436    448     1   109.5600471 388.275200
    439    451    452     1   109.8000471 387.438400
    439    451    453     1   109.8000471 387.438400
    440    439    451     1   109.5600471 388.275200
    440    439    441     1   108.4600466 328.025600
    441    439    451     1   109.5600471 388.275200
    442    445    446     1   109.8000471 387.438400
    442    445    447     1   109.8000471 387.438400
    443    442    445     1   109.5600471 388.275200
    443    442    444     1   108.4600466 328.025600
    444    442    445     1   109.5600471 388.275200
    445    454    455     1   109.5600471 388.275200
    445    454    456     1   109.5600471 388.275200
    446    445    454     1   109.8000471 387.438400
    446    445    447     1   107.5800459 329.699200
    447    445    454     1   109.8000471 387.438400
    448    460    461     1   109.5600471 388.275200
    448    460    462     1   109.5600471 388.275200
    449    448    460     1   109.8000471 387.438400
    449    448    450     1   107.5800459 329.699200
    450    448    460     1   109.8000471 387.438400
    451    457    458     1   109.5600471 388.275200
    451    457    459     1   109.5600471 388.275200
    452    451    457     1   109.8000471 387.438400
    452    451    453     1   107.5800459 329.699200
    453    451    457     1   109.8000471 387.438400
    455    454    463     1   109.7800468 425.094400
    455    454    456     1   108.4600466 328.025600
    456    454    463     1   109.7800468 425.094400
    458    457    926     1   109.7800468 425.094400
    458    457    459     1   108.4600466 328.025600
    459    457    926     1   109.7800468 425.094400
    461    460    949     1   109.7800468 425.094400
    461    460    462     1   108.4600466 328.025600
    462    460    949     1   109.7800468 425.094400
    464    465    466     1   109.8800469 414.216000
    464    465    467     1   109.8800469 414.216000
    464    468    469     1   109.8800469 414.216000
    464    468    470     1   109.8800469 414.216000
    464    471    472     1   109.8800469 414.216000
    464    471    473     1   109.8800469 414.216000
    465    477    478     1   109.8000471 387.438400
    465    477    479     1   109.8000471 387.438400
    466    465    477     1   109.5600471 388.275200
    466    465    467     1   108.4600466 328.025600
    467    465    477     1   109.5600471 388.275200
    468    480    481     1   109.8000471 387.438400
    468    480    482     1   109.8000471 387.438400
    469    468    480     1   109.5600471 388.275200
    469    468    470     1   108.4600466 328.025600
    470    468    480     1   109.5600471 388.275200
    471    474    475     1   109.8000471 387.438400
    471    474    476     1   109.8000471 387.438400
    472    471    474     1   109.5600471 388.275200
    472    471    473     1   108.4600466 328.025600
    473    471    474     1   109.5600471 388.275200
    474    483    484     1   109.5600471 388.275200
    474    483    485     1   109.5600471 388.275200
    475    474    483     1   109.8000471 387.438400
    475    474    476     1   107.5800459 329.699200
    476    474    483     1   109.8000471 387.438400
    477    489    490     1   109.5600471 388.275200
    477    489    491     1   109.5600471 388.275200
    478    477    489     1   109.8000471 387.438400
    478    477    479     1   107.5800459 329.699200
    479    477    489     1   109.8000471 387.438400
    480    486    487     1   109.5600471 388.275200
    480    486    488     1   109.5600471 388.275200
    481    480    486     1   109.8000471 387.438400
    481    480    482     1   107.5800459 329.699200
    482    480    486     1   109.8000471 387.438400
    484    483    492     1   109.7800468 425.094400
    484    483    485     1   108.4600466 328.025600
    485    483    492     1   109.7800468 425.094400
    487    486    972     1   109.7800468 425.094400
    487    486    488     1   108.4600466 328.025600
    488    486    972     1   109.7800468 425.094400
    490    489    995     1   109.7800468 425.094400
    490    489    491     1   108.4600466 328.025600
    491    489    995     1   109.7800468 425.094400
    493    494    495     1   109.8800469 414.216000
    493    494    496     1   109.8800469 414.216000
    493    497    498     1   109.8800469 414.216000
    493    497    499     1   109.8800469 414.216000
    493    500    501     1   109.8800469 414.216000
    493    500    502     1   109.8800469 414.216000
    494    506    507     1   109.8000471 387.438400
    494    506    508     1   109.8000471 387.438400
    495    494    506     1   109.5600471 388.275200
    495    494    496     1   108.4600466 328.025600
    496    494    506     1   109.5600471 388.275200
    497    509    510     1   109.8000471 387.438400
    497    509    511     1   109.8000471 387.438400
    498    497    509     1   109.5600471 388.275200
    498    497    499     1   108.4600466 328.025600
    499    497    509     1   109.5600471 388.275200
    500    503    504     1   109.8000471 387.438400
    500    503    505     1   109.8000471 387.438400
    501    500    503     1   109.5600471 388.275200
    501    500    502     1   108.4600466 328.025600
    502    500    503     1   109.5600471 388.275200
    503    512    513     1   109.5600471 388.275200
    503    512    514     1   109.5600471 388.275200
    504    503    512     1   109.8000471 387.438400
    504    503    505     1   107.5800459 329.699200
    505    503    512     1   109.8000471 387.438400
    506    518    519     1   109.5600471 388.275200
    506    518    520     1   109.5600471 388.275200
    507    506    518     1   109.8000471 387.438400
    507    506    508     1   107.5800459 329.699200
    508    506    518     1   109.8000471 387.438400
    509    515    516     1   109.5600471 388.275200
    509    515    517     1   109.5600471 388.275200
    510    509    515     1   109.8000471 387.438400
    510    509    511     1   107.5800459 329.699200
    511    509    515     1   109.8000471 387.438400
    513    512    521     1   109.7800468 425.094400
    513    512    514     1   108.4600466 328.025600
    514    512    521     1   109.7800468 425.094400
    516    515   1018     1   109.7800468 425.094400
    516    515    517     1   108.4600466 328.025600
    517    515   1018     1   109.7800468 425.094400
    519    518   1041     1   109.7800468 425.094400
    519    518    520     1   108.4600466 328.025600
    520    518   1041     1   109.7800468 425.094400
    522    523    524     1   109.8800469 414.216000
    522    523    525     1   109.8800469 414.216000
    522    526    527     1   109.8800469 414.216000
    522    526    528     1   109.8800469 414.216000
    522    529    530     1   109.8800469 414.216000
    522    529    531     1   109.8800469 414.216000
    523    535    536     1   109.8000471 387.438400
    523    535    537     1   109.8000471 387.438400
    524    523    535     1   109.5600471 388.275200
    524    523    525     1   108.4600466 328.025600
    525    523    535     1   109.5600471 388.275200
    526    538    539     1   109.8000471 387.438400
    526    538    540     1   109.8000471 387.438400
    527    526    538     1   109.5600471 388.275200
    527    526    528     1   108.4600466 328.025600
    528    526    538     1   109.5600471 388.275200
    529    532    533     1   109.8000471 387.438400
    529    532    534     1   109.8000471 387.438400
    530    529    532     1   109.5600471 388.275200
    530    529    531     1   108.4600466 328.025600
    531    529    532     1   109.5600471 388.275200
    532    541    542     1   109.5600471 388.275200
    532    541    543     1   109.5600471 388.275200
    533    532    541     1   109.8000471 387.438400
    533    532    534     1   107.5800459 329.699200
    534    532    541     1   109.8000471 387.438400
    535    547    548     1   109.5600471 388.275200
    535    547    549     1   109.5600471 388.275200
    536    535    547     1   109.8000471 387.438400
    536    535    537     1   107.5800459 329.699200
    537    535    547     1   109.8000471 387.438400
    538    544    545     1   109.5600471 388.275200
    538    544    546     1   109.5600471 388.275200
    539    538    544     1   109.8000471 387.438400
    539    538    540     1   107.5800459 329.699200
    540    538    544     1   109.8000471 387.438400
    542    541    550     1   109.7800468 425.094400
    542    541    543     1   108.4600466 328.025600
    543    541    550     1   109.7800468 425.094400
    545    544   1064     1   109.7800468 425.094400
    545    544    546     1   108.4600466 328.025600
    546    544   1064     1   109.7800468 425.094400
    548    547   1087     1   109.7800468 425.094400
    548    547    549     1   108.4600466 328.025600
    549    547   1087     1   109.7800468 425.094400
    551    552    553     1   109.8800469 414.216000
    551    552    554     1   109.8800469 414.216000
    551    555    556     1   109.8800469 414.216000
    551    555    557     1   109.8800469 414.216000
    551    558    559     1   109.8800469 414.216000
    551    558    560     1   109.8800469 414.216000
    552    564    565     1   109.8000471 387.438400
    552    564    566     1   109.8000471 387.438400
    553    552    564     1   109.5600471 388.275200
    553    552    554     1   108.4600466 328.025600
    554    552    564     1   109.5600471 388.275200
    555    567    568     1   109.8000471 387.438400
    555    567    569     1   109.8000471 387.438400
    556    555    567     1   109.5600471 388.275200
    556    555    557     1   108.4600466 328.025600
    557    555    567     1   109.5600471 388.275200
    558    561    562     1   109.8000471 387.438400
    558    561    563     1   109.8000471 387.438400
    559    558    561     1   109.5600471 388.275200
    559    558    560     1   108.4600466 328.025600
    560    558    561     1   109.5600471 388.275200
    561    570    571     1   109.5600471 388.275200
    561    570    572     1   109.5600471 388.275200
    562    561    570     1   109.8000471 387.438400
    562    561    563     1   107.5800459 329.699200
    563    561    570     1   109.8000471 387.438400
    564    576    577     1   109.5600471 388.275200
    564    576    578     1   109.5600471 388.275200
    565    564    576     1   109.8000471 387.438400
    565    564    566     1   107.5800459 329.699200
    566    564    576     1   109.8000471 387.438400
    567    573    574     1   109.5600471 388.275200
    567    573    575     1   109.5600471 388.275200
    568    567    573     1   109.8000471 387.438400
    568    567    569     1   107.5800459 329.699200
    569    567    573     1   109.8000471 387.438400
    571    570    579     1   109.7800468 425.094400
    571    570    572     1   108.4600466 328.025600
    572    570    579     1   109.7800468 425.094400
    574    573   1110     1   109.7800468 425.094400
    574    573    575     1   108.4600466 328.025600
    575    573   1110     1   109.7800468 425.094400
    577    576   1133     1   109.7800468 425.094400
    577    576    578     1   108.4600466 328.025600
    578    576   1133     1   109.7800468 425.094400
    580    581    582     1   109.8800469 414.216000
    580    581    583     1   109.8800469 414.216000
    580    584    585     1   109.8800469 414.216000
    580    584    586     1   109.8800469 414.216000
    580    587    588     1   109.8800469 414.216000
    580    587    589     1   109.8800469 414.216000
    581    593    594     1   109.8000471 387.438400
    581    593    595     1   109.8000471 387.438400
    582    581    593     1   109.5600471 388.275200
    582    581    583     1   108.4600466 328.025600
    583    581    593     1   109.5600471 388.275200
    584    596    597     1   109.8000471 387.438400
    584    596    598     1   109.8000471 387.438400
    585    584    596     1   109.5600471 388.275200
    585    584    586     1   108.4600466 328.025600
    586    584    596     1   109.5600471 388.275200
    587    590    591     1   109.8000471 387.438400
    587    590    592     1   109.8000471 387.438400
    588    587    590     1   109.5600471 388.275200
    588    587    589     1   108.4600466 328.025600
    589    587    590     1   109.5600471 388.275200
    590    599    600     1   109.5600471 388.275200
    590    599    601     1   109.5600471 388.275200
    591    590    599     1   109.8000471 387.438400
    591    590    592     1   107.5800459 329.699200
    592    590    599     1   109.8000471 387.438400
    593    605    606     1   109.5600471 388.275200
    593    605    607     1   109.5600471 388.275200
    594    593    605     1   109.8000471 387.438400
    594    593    595     1   107.5800459 329.699200
    595    593    605     1   109.8000471 387.438400
    596    602    603     1   109.5600471 388.275200
    596    602    604     1   109.5600471 388.275200
    597    596    602     1   109.8000471 387.438400
    597    596    598     1   107.5800459 329.699200
    598    596    602     1   109.8000471 387.438400
    600    599    608     1   109.7800468 425.094400
    600    599    601     1   108.4600466 328.025600
    601    599    608     1   109.7800468 425.094400
    603    602   1156     1   109.7800468 425.094400
    603    602    604     1   108.4600466 328.025600
    604    602   1156     1   109.7800468 425.094400
    606    605   1179     1   109.7800468 425.094400
    606    605    607     1   108.4600466 328.025600
    607    605   1179     1   109.7800468 425.094400
    609    610    611     1   109.8800469 414.216000
    609    610    612     1   109.8800469 414.216000
    609    613    614     1   109.8800469 414.216000
    609    613    615     1   109.8800469 414.216000
    609    616    617     1   109.8800469 414.216000
    609    616    618     1   109.8800469 414.216000
    610    622    623     1   109.8000471 387.438400
    610    622    624     1   109.8000471 387.438400
    611    610    622     1   109.5600471 388.275200
    611    610    612     1   108.4600466 328.025600
    612    610    622     1   109.5600471 388.275200
    613    625    626     1   109.8000471 387.438400
    613    625    627     1   109.8000471 387.438400
    614    613    625     1   109.5600471 388.275200
    614    613    615     1   108.4600466 328.025600
    615    613    625     1   109.5600471 388.275200
    616    619    620     1   109.8000471 387.438400
    616    619    621     1   109.8000471 387.438400
    617    616    619     1   109.5600471 388.275200
    617    616    618     1   108.4600466 328.025600
    618    616    619     1   109.5600471 388.275200
    619    628    629     1   109.5600471 388.275200
    619    628    630     1   109.5600471 388.275200
    620    619    628     1   109.8000471 387.438400
    620    619    621     1   107.5800459 329.699200
    621    619    628     1   109.8000471 387.438400
    622    634    635     1   109.5600471 388.275200
    622    634    636     1   109.5600471 388.275200
    623    622    634     1   109.8000471 387.438400
    623    622    624     1   107.5800459 329.699200
    624    622    634     1   109.8000471 387.438400
    625    631    632     1   109.5600471 388.275200
    625    631    633     1   109.5600471 388.275200
    626    625    631     1   109.8000471 387.438400
    626    625    627     1   107.5800459 329.699200
    627    625    631     1   109.8000471 387.438400
    629    628    637     1   109.7800468 425.094400
    629    628    630     1   108.4600466 328.025600
    630    628    637     1   109.7800468 425.094400
    632    631   1202     1   109.7800468 425.094400
    632    631    633     1   108.4600466 328.025600
    633    631   1202     1   109.7800468 425.094400
    635    634   1225     1   109.7800468 425.094400
    635    634    636     1   108.4600466 328.025600
    636    634   1225     1   109.7800468 425.094400
    638    639    640     1   109.8800469 414.216000
    638    639    641     1   109.8800469 414.216000
    638    642    643     1   109.8800469 414.216000
    638    642    644     1   109.8800469 414.216000
    638    645    646     1   109.8800469 414.216000
    638    645    647     1   109.8800469 414.216000
    639    651    652     1   109.8000471 387.438400
    639    651    653     1   109.8000471 387.438400
    640    639    651     1   109.5600471 388.275200
    640    639    641     1   108.4600466 328.025600
    641    639    651     1   109.5600471 388.275200
    642    654    655     1   109.8000471 387.438400
    642    654    656     1   109.8000471 387.438400
    643    642    654     1   109.5600471 388.275200
    643    642    644     1   108.4600466 328.025600
    644    642    654     1   109.5600471 388.275200
    645    648    649     1   109.8000471 387.438400
    645    648    650     1   109.8000471 387.438400
    646    645    648     1   109.5600471 388.275200
    646    645    647     1   108.4600466 328.025600
    647    645    648     1   109.5600471 388.275200
    648    657    658     1   109.5600471 388.275200
    648    657    659     1   109.5600471 388.275200
    649    648    657     1   109.8000471 387.438400
    649    648    650     1   107.5800459 329.699200
    650    648    657     1   109.8000471 387.438400
    651    663    664     1   109.5600471 388.275200
    651    663    665     1   109.5600471 388.275200
    652    651    663     1   109.8000471 387.438400
    652    651    653     1   107.5800459 329.699200
    653    651    663     1   109.8000471 387.438400
    654    660    661     1   109.5600471 388.275200
    654    660    662     1   109.5600471 388.275200
    655    654    660     1   109.8000471 387.438400
    655    654    656     1   107.5800459 329.699200
    656    654    660     1   109.8000471 387.438400
    658    657    666     1   109.7800468 425.094400
    658    657    659     1   108.4600466 328.025600
    659    657    666     1   109.7800468 425.094400
    661    660   1248     1   109.7800468 425.094400
    661    660    662     1   108.4600466 328.025600
    662    660   1248     1   109.7800468 425.094400
    664    663   1271     1   109.7800468 425.094400
    664    663    665     1   108.4600466 328.025600
    665    663   1271     1   109.7800468 425.094400
    667    668    669     1   109.8800469 414.216000
    667    668    670     1   109.8800469 414.216000
    667    671    672     1   109.8800469 414.216000
    667    671    673     1   109.8800469 414.216000
    667    674    675     1   109.8800469 414.216000
    667    674    676     1   109.8800469 414.216000
    668    680    681     1   109.8000471 387.438400
    668    680    682     1   109.8000471 387.438400
    669    668    680     1   109.5600471 388.275200
    669    668    670     1   108.4600466 328.025600
    670    668    680     1   109.5600471 388.275200
    671    683    684     1   109.8000471 387.438400
    671    683    685     1   109.8000471 387.438400
    672    671    683     1   109.5600471 388.275200
    672    671    673     1   108.4600466 328.025600
    673    671    683     1   109.5600471 388.275200
    674    677    678     1   109.8000471 387.438400
    674    677    679     1   109.8000471 387.438400
    675    674    677     1   109.5600471 388.275200
    675    674    676     1   108.4600466 328.025600
    676    674    677     1   109.5600471 388.275200
    677    686    687     1   109.5600471 388.275200
    677    686    688     1   109.5600471 388.275200
    678    677    686     1   109.8000471 387.438400
    678    677    679     1   107.5800459 329.699200
    679    677    686     1   109.8000471 387.438400
    680    692    693     1   109.5600471 388.275200
    680    692    694     1   109.5600471 388.275200
    681    680    692     1   109.8000471 387.438400
    681    680    682     1   107.5800459 329.699200
    682    680    692     1   109.8000471 387.438400
    683    689    690     1   109.5600471 388.275200
    683    689    691     1   109.5600471 388.275200
    684    683    689     1   109.8000471 387.438400
    684    683    685     1   107.5800459 329.699200
    685    683    689     1   109.8000471 387.438400
    687    686    695     1   109.7800468 425.094400
    687    686    688     1   108.4600466 328.025600
    688    686    695     1   109.7800468 425.094400
    690    689   1294     1   109.7800468 425.094400
    690    689    691     1   108.4600466 328.025600
    691    689   1294     1   109.7800468 425.094400
    693    692   1317     1   109.7800468 425.094400
    693    692    694     1   108.4600466 328.025600
    694    692   1317     1   109.7800468 425.094400
    696    697    698     1   109.8800469 414.216000
    696    697    699     1   109.8800469 414.216000
    696    700    701     1   109.8800469 414.216000
    696    700    702     1   109.8800469 414.216000
    696    703    704     1   109.8800469 414.216000
    696    703    705     1   109.8800469 414.216000
    697    709    710     1   109.8000471 387.438400
    697    709    711     1   109.8000471 387.438400
    698    697    709     1   109.5600471 388.275200
    698    697    699     1   108.4600466 328.025600
    699    697    709     1   109.5600471 388.275200
    700    712    713     1   109.8000471 387.438400
    700    712    714     1   109.8000471 387.438400
    701    700    712     1   109.5600471 388.275200
    701    700    702     1   108.4600466 328.025600
    702    700    712     1   109.5600471 388.275200
    703    706    707     1   109.8000471 387.438400
    703    706    708     1   109.8000471 387.438400
    704    703    706     1   109.5600471 388.275200
    704    703    705     1   108.4600466 328.025600
    705    703    706     1   109.5600471 388.275200
    706    715    716     1   109.5600471 388.275200
    706    715    717     1   109.5600471 388.275200
    707    706    715     1   109.8000471 387.438400
    707    706    708     1   107.5800459 329.699200
    708    706    715     1   109.8000471 387.438400
    709    721    722     1   109.5600471 388.275200
    709    721    723     1   109.5600471 388.275200
    710    709    721     1   109.8000471 387.438400
    710    709    711     1   107.5800459 329.699200
    711    709    721     1   109.8000471 387.438400
    712    718    719     1   109.5600471 388.275200
    712    718    720     1   109.5600471 388.275200
    713    712    718     1   109.8000471 387.438400
    713    712    714     1   107.5800459 329.699200
    714    712    718     1   109.8000471 387.438400
    716    715    724     1   109.7800468 425.094400
    716    715    717     1   108.4600466 328.025600
    717    715    724     1   109.7800468 425.094400
    719    718   1340     1   109.7800468 425.094400
    719    718    720     1   108.4600466 328.025600
    720    718   1340     1   109.7800468 425.094400
    722    721   1363     1   109.7800468 425.094400
    722    721    723     1   108.4600466 328.025600
    723    721   1363     1   109.7800468 425.094400
    725    726    727     1   109.8800469 414.216000
    725    726    728     1   109.8800469 414.216000
    725    729    730     1   109.8800469 414.216000
    725    729    731     1   109.8800469 414.216000
    725    732    733     1   109.8800469 414.216000
    725    732    734     1   109.8800469 414.216000
    726    738    739     1   109.8000471 387.438400
    726    738    740     1   109.8000471 387.438400
    727    726    738     1   109.5600471 388.275200
    727    726    728     1   108.4600466 328.025600
    728    726    738     1   109.5600471 388.275200
    729    741    742     1   109.8000471 387.438400
    729    741    743     1   109.8000471 387.438400
    730    729    741     1   109.5600471 388.275200
    730    729    731     1   108.4600466 328.025600
    731    729    741     1   109.5600471 388.275200
    732    735    736     1   109.8000471 387.438400
    732    735    737     1   109.8000471 387.438400
    733    732    735     1   109.5600471 388.275200
    733    732    734     1   108.4600466 328.025600
    734    732    735     1   109.5600471 388.275200
    735    744    745     1   109.5600471 388.275200
    735    744    746     1   109.5600471 388.275200
    736    735    744     1   109.8000471 387.438400
    736    735    737     1   107.5800459 329.699200
    737    735    744     1   109.8000471 387.438400
    738    750    751     1   109.5600471 388.275200
    738    750    752     1   109.5600471 388.275200
    739    738    750     1   109.8000471 387.438400
    739    738    740     1   107.5800459 329.699200
    740    738    750     1   109.8000471 387.438400
    741    747    748     1   109.5600471 388.275200
    741    747    749     1   109.5600471 388.275200
    742    741    747     1   109.8000471 387.438400
    742    741    743     1   107.5800459 329.699200
    743    741    747     1   109.8000471 387.438400
    745    744    753     1   109.7800468 425.094400
    745    744    746     1   108.4600466 328.025600
    746    744    753     1   109.7800468 425.094400
    748    747   1386     1   109.7800468 425.094400
    748    747    749     1   108.4600466 328.025600
    749    747   1386     1   109.7800468 425.094400
    751    750   1409     1   109.7800468 425.094400
    751    750    752     1   108.4600466 328.025600
    752    750   1409     1   109.7800468 425.094400
    754    755    756     1   109.8800469 414.216000
    754    755    757     1   109.8800469 414.216000
    754    758    759     1   109.8800469 414.216000
    754    758    760     1   109.8800469 414.216000
    754    761    762     1   109.8800469 414.216000
    754    761    763     1   109.8800469 414.216000
    755    767    768     1   109.8000471 387.438400
    755    767    769     1   109.8000471 387.438400
    756    755    767     1   109.5600471 388.275200
    756    755    757     1   108.4600466 328.025600
    757    755    767     1   109.5600471 388.275200
    758    770    771     1   109.8000471 387.438400
    758    770    772     1   109.8000471 387.438400
    759    758    770     1   109.5600471 388.275200
    759    758    760     1   108.4600466 328.025600
    760    758    770     1   109.5600471 388.275200
    761    764    765     1   109.8000471 387.438400
    761    764    766     1   109.8000471 387.438400
    762    761    764     1   109.5600471 388.275200
    762    761    763     1   108.4600466 328.025600
    763    761    764     1   109.5600471 388.275200
    764    773    774     1   109.5600471 388.275200
    764    773    775     1   109.5600471 388.275200
    765    764    773     1   109.8000471 387.438400
    765    764    766     1   107.5800459 329.699200
    766    764    773     1   109.8000471 387.438400
    767    779    780     1   109.5600471 388.275200
    767    779    781     1   109.5600471 388.275200
    768    767    779     1   109.8000471 387.438400
    768    767    769     1   107.5800459 329.699200
    769    767    779     1   109.8000471 387.438400
    770    776    777     1   109.5600471 388.275200
    770    776    778     1   109.5600471 388.275200
    771    770    776     1   109.8000471 387.438400
    771    770    772     1   107.5800459 329.699200
    772    770    776     1   109.8000471 387.438400
    774    773    782     1   109.7800468 425.094400
    774    773    775     1   108.4600466 328.025600
    775    773    782     1   109.7800468 425.094400
    777    776   1432     1   109.7800468 425.094400
    777    776    778     1   108.4600466 328.025600
    778    776   1432     1   109.7800468 425.094400
    780    779   1455     1   109.7800468 425.094400
    780    779    781     1   108.4600466 328.025600
    781    779   1455     1   109.7800468 425.094400
    783    784    785     1   109.8800469 414.216000
    783    784    786     1   109.8800469 414.216000
    783    787    788     1   109.8800469 414.216000
    783    787    789     1   109.8800469 414.216000
    783    790    791     1   109.8800469 414.216000
    783    790    792     1   109.8800469 414.216000
    784    796    797     1   109.8000471 387.438400
    784    796    798     1   109.8000471 387.438400
    785    784    796     1   109.5600471 388.275200
    785    784    786     1   108.4600466 328.025600
    786    784    796     1   109.5600471 388.275200
    787    799    800     1   109.8000471 387.438400
    787    799    801     1   109.8000471 387.438400
    788    787    799     1   109.5600471 388.275200
    788    787    789     1   108.4600466 328.025600
    789    787    799     1   109.5600471 388.275200
    790    793    794     1   109.8000471 387.438400
    790    793    795     1   109.8000471 387.438400
    791    790    793     1   109.5600471 388.275200
    791    790    792     1   108.4600466 328.025600
    792    790    793     1   109.5600471 388.275200
    793    802    803     1   109.5600471 388.275200
    793    802    804     1   109.5600471 388.275200
    794    793    802     1   109.8000471 387.438400
    794    793    795     1   107.5800459 329.699200
    795    793    802     1   109.8000471 387.438400
    796    808    809     1   109.5600471 388.275200
    796    808    810     1   109.5600471 388.275200
    797    796    808     1   109.8000471 387.438400
    797    796    798     1   107.5800459 329.699200
    798    796    808     1   109.8000471 387.438400
    799    805    806     1   109.5600471 388.275200
    799    805    807     1   109.5600471 388.275200
    800    799    805     1   109.8000471 387.438400
    800    799    801     1   107.5800459 329.699200
    801    799    805     1   109.8000471 387.438400
    803    802    811     1   109.7800468 425.094400
    803    802    804     1   108.4600466 328.025600
    804    802    811     1   109.7800468 425.094400
    806    805   1478     1   109.7800468 425.094400
    806    805    807     1   108.4600466 328.025600
    807    805   1478     1   109.7800468 425.094400
    809    808   1501     1   109.7800468 425.094400
    809    808    810     1   108.4600466 328.025600
    810    808   1501     1   109.7800468 425.094400
    812    813    814     1   109.8800469 414.216000
    812    813    815     1   109.8800469 414.216000
    812    816    817     1   109.8800469 414.216000
    812    816    818     1   109.8800469 414.216000
    812    819    820     1   109.8800469 414.216000
    812    819    821     1   109.8800469 414.216000
    813    825    826     1   109.8000471 387.438400
    813    825    827     1   109.8000471 387.438400
    814    813    825     1   109.5600471 388.275200
    814    813    815     1   108.4600466 328.025600
    815    813    825     1   109.5600471 388.275200
    816    828    829     1   109.8000471 387.438400
    816    828    830     1   109.8000471 387.438400
    817    816    828     1   109.5600471 388.275200
    817    816    818     1   108.4600466 328.025600
    818    816    828     1   109.5600471 388.275200
    819    822    823     1   109.8000471 387.438400
    819    822    824     1   109.8000471 387.438400
    820    819    822     1   109.5600471 388.275200
    820    819    821     1   108.4600466 328.025600
    821    819    822     1   109.5600471 388.275200
    822    831    832     1   109.5600471 388.275200
    822    831    833     1   109.5600471 388.275200
    823    822    831     1   109.8000471 387.438400
    823    822    824     1   107.5800459 329.699200
    824    822    831     1   109.8000471 387.438400
    825    837    838     1   109.5600471 388.275200
    825    837    839     1   109.5600471 388.275200
    826    825    837     1   109.8000471 387.438400
    826    825    827     1   107.5800459 329.699200
    827    825    837     1   109.8000471 387.438400
    828    834    835     1   109.5600471 388.275200
    828    834    836     1   109.5600471 388.275200
    829    828    834     1   109.8000471 387.438400
    829    828    830     1   107.5800459 329.699200
    830    828    834     1   109.8000471 387.438400
    832    831    840     1   109.7800468 425.094400
    832    831    833     1   108.4600466 328.025600
    833    831    840     1   109.7800468 425.094400
    835    834   1524     1   109.7800468 425.094400
    835    834    836     1   108.4600466 328.025600
    836    834   1524     1   109.7800468 425.094400
    838    837   1547     1   109.7800468 425.094400
    838    837    839     1   108.4600466 328.025600
    839    837   1547     1   109.7800468 425.094400
    841    842    843     1   109.8800469 414.216000
    841    842    844     1   109.8800469 414.216000
    841    845    846     1   109.8800469 414.216000
    841    845    847     1   109.8800469 414.216000
    841    848    849     1   109.8800469 414.216000
    841    848    850     1   109.8800469 414.216000
    842    854    855     1   109.8000471 387.438400
    842    854    856     1   109.8000471 387.438400
    843    842    854     1   109.5600471 388.275200
    843    842    844     1   108.4600466 328.025600
    844    842    854     1   109.5600471 388.275200
    845    857    858     1   109.8000471 387.438400
    845    857    859     1   109.8000471 387.438400
    846    845    857     1   109.5600471 388.275200
    846    845    847     1   108.4600466 328.025600
    847    845    857     1   109.5600471 388.275200
    848    851    852     1   109.8000471 387.438400
    848    851    853     1   109.8000471 387.438400
    849    848    851     1   109.5600471 388.275200
    849    848    850     1   108.4600466 328.025600
    850    848    851     1   109.5600471 388.275200
    851    860    861     1   109.5600471 388.275200
    851    860    862     1   109.5600471 388.275200
    852    851    860     1   109.8000471 387.438400
    852    851    853     1   107.5800459 329.699200
    853    851    860     1   109.8000471 387.438400
    854    866    867     1   109.5600471 388.275200
    854    866    868     1   109.5600471 388.275200
    855    854    866     1   109.8000471 387.438400
    855    854    856     1   107.5800459 329.699200
    856    854    866     1   109.8000471 387.438400
    857    863    864     1   109.5600471 388.275200
    857    863    865     1   109.5600471 388.275200
    858    857    863     1   109.8000471 387.438400
    858    857    859     1   107.5800459 329.699200
    859    857    863     1   109.8000471 387.438400
    861    860    869     1   109.7800468 425.094400
    861    860    862     1   108.4600466 328.025600
    862    860    869     1   109.7800468 425.094400
    864    863   1570     1   109.7800468 425.094400
    864    863    865     1   108.4600466 328.025600
    865    863   1570     1   109.7800468 425.094400
    867    866   1593     1   109.7800468 425.094400
    867    866    868     1   108.4600466 328.025600
    868    866   1593     1   109.7800468 425.094400
    870    871    873     1   109.5600471 388.275200
    870    884    888     1   109.5600471 388.275200
    870    884    889     1   109.5600471 388.275200
    871    870    872     1   109.5600471 388.275200
    871    874    878     1   109.5600471 388.275200
    871    883    886     1   107.2600461 396.643200
    872    870    884     1   109.5600471 388.275200
    872    870    892     1   109.7800468 425.094400
    873    871    874     1   109.5600471 388.275200
    873    871    883     1   110.2600474 425.931200
    874    875    877     1   109.5600471 388.275200
    874    882    885     1   107.2600461 396.643200
    875    874    878     1   109.5600471 388.275200
    875    876    879     1   110.2200475 386.601600
    875    881    887     1   107.2600461 396.643200
    876    875    877     1   109.5600471 388.275200
    877    875    881     1   110.2600474 425.931200
    878    874    882     1   110.2600474 425.931200
    879    876    880     1   109.5800467 425.931200
    879    876    892     1   109.5800467 425.931200
    884    890    891     1   107.2600461 396.643200
    888    884    890     1   110.2600474 425.931200
    888    884    889     1   108.4600466 328.025600
    889    884    890     1   110.2600474 425.931200
    893    894    896     1   109.5600471 388.275200
    893    907    911     1   109.5600471 388.275200
    893    907    912     1   109.5600471 388.275200
    894    893    895     1   109.5600471 388.275200
    894    897    901     1   109.5600471 388.275200
    894    906    909     1   107.2600461 396.643200
    895    893    907     1   109.5600471 388.275200
    895    893    915     1   109.7800468 425.094400
    896    894    897     1   109.5600471 388.275200
    896    894    906     1   110.2600474 425.931200
    897    898    900     1   109.5600471 388.275200
    897    905    908     1   107.2600461 396.643200
    898    897    901     1   109.5600471 388.275200
    898    899    902     1   110.2200475 386.601600
    898    904    910     1   107.2600461 396.643200
    899    898    900     1   109.5600471 388.275200
    900    898    904     1   110.2600474 425.931200
    901    897    905     1   110.2600474 425.931200
    902    899    903     1   109.5800467 425.931200
    902    899    915     1   109.5800467 425.931200
    907    913    914     1   107.2600461 396.643200
    911    907    913     1   110.2600474 425.931200
    911    907    912     1   108.4600466 328.025600
    912    907    913     1   110.2600474 425.931200
    916    917    919     1   109.5600471 388.275200
    916    930    934     1   109.5600471 388.275200
    916    930    935     1   109.5600471 388.275200
    917    916    918     1   109.5600471 388.275200
    917    920    924     1   109.5600471 388.275200
    917    929    932     1   107.2600461 396.643200
    918    916    930     1   109.5600471 388.275200
    918    916    938     1   109.7800468 425.094400
    919    917    920     1   109.5600471 388.275200
    919    917    929     1   110.2600474 425.931200
    920    921    923     1   109.5600471 388.275200
    920    928    931     1   107.2600461 396.643200
    921    920    924     1   109.5600471 388.275200
    921    922    925     1   110.2200475 386.601600
    921    927    933     1   107.2600461 396.643200
    922    921    923     1   109.5600471 388.275200
    923    921    927     1   110.2600474 425.931200
    924    920    928     1   110.2600474 425.931200
    925    922    926     1   109.5800467 425.931200
    925    922    938     1   109.5800467 425.931200
    930    936    937     1   107.2600461 396.643200
    934    930    936     1   110.2600474 425.931200
    934    930    935     1   108.4600466 328.025600
    935    930    936     1   110.2600474 425.931200
    939    940    942     1   109.5600471 388.275200
    939    953    957     1   109.5600471 388.275200
    939    953    958     1   109.5600471 388.275200
    940    939    941     1   109.5600471 388.275200
    940    943    947     1   109.5600471 388.275200
    940    952    955     1   107.2600461 396.643200
    941    939    953     1   109.5600471 388.275200
    941    939    961     1   109.7800468 425.094400
    942    940    943     1   109.5600471 388.275200
    942    940    952     1   110.2600474 425.931200
    943    944    946     1   109.5600471 388.275200
    943    951    954     1   107.2600461 396.643200
    944    943    947     1   109.5600471 388.275200
    944    945    948     1   110.2200475 386.601600
    944    950    956     1   107.2600461 396.643200
    945    944    946     1   109.5600471 388.275200
    946    944    950     1   110.2600474 425.931200
    947    943    951     1   110.2600474 425.931200
    948    945    949     1   109.5800467 425.931200
    948    945    961     1   109.5800467 425.931200
    953    959    960     1   107.2600461 396.643200
    957    953    959     1   110.2600474 425.931200
    957    953    958     1   108.4600466 328.025600
    958    953    959     1   110.2600474 425.931200
    962    963    965     1   109.5600471 388.275200
    962    976    980     1   109.5600471 388.275200
    962    976    981     1   109.5600471 388.275200
    963    962    964     1   109.5600471 388.275200
    963    966    970     1   109.5600471 388.275200
    963    975    978     1   107.2600461 396.643200
    964    962    976     1   109.5600471 388.275200
    964    962    984     1   109.7800468 425.094400
    965    963    966     1   109.5600471 388.275200
    965    963    975     1   110.2600474 425.931200
    966    967    969     1   109.5600471 388.275200
    966    974    977     1   107.2600461 396.643200
    967    966    970     1   109.5600471 388.275200
    967    968    971     1   110.2200475 386.601600
    967    973    979     1   107.2600461 396.643200
    968    967    969     1   109.5600471 388.275200
    969    967    973     1   110.2600474 425.931200
    970    966    974     1   110.2600474 425.931200
    971    968    972     1   109.5800467 425.931200
    971    968    984     1   109.5800467 425.931200
    976    982    983     1   107.2600461 396.643200
    980    976    982     1   110.2600474 425.931200
    980    976    981     1   108.4600466 328.025600
    981    976    982     1   110.2600474 425.931200
    985    986    988     1   109.5600471 388.275200
    985    999   1003     1   109.5600471 388.275200
    985    999   1004     1   109.5600471 388.275200
    986    985    987     1   109.5600471 388.275200
    986    989    993     1   109.5600471 388.275200
    986    998   1001     1   107.2600461 396.643200
    987    985    999     1   109.5600471 388.275200
    987    985   1007     1   109.7800468 425.094400
    988    986    989     1   109.5600471 388.275200
    988    986    998     1   110.2600474 425.931200
    989    990    992     1   109.5600471 388.275200
    989    997   1000     1   107.2600461 396.643200
    990    989    993     1   109.5600471 388.275200
    990    991    994     1   110.2200475 386.601600
    990    996   1002     1   107.2600461 396.643200
    991    990    992     1   109.5600471 388.275200
    992    990    996     1   110.2600474 425.931200
    993    989    997     1   110.2600474 425.931200
    994    991    995     1   109.5800467 425.931200
    994    991   1007     1   109.5800467 425.931200
    999   1005   1006     1   107.2600461 396.643200
   1003    999   1005     1   110.2600474 425.931200
   1003    999   1004     1   108.4600466 328.025600
   1004    999   1005     1   110.2600474 425.931200
   1008   1009   1011     1   109.5600471 388.275200
   1008   1022   1026     1   109.5600471 388.275200
   1008   1022   1027     1   109.5600471 388.275200
   1009   1008   1010     1   109.5600471 388.275200
   1009   1012   1016     1   109.5600471 388.275200
   1009   1021   1024     1   107.2600461 396.643200
   1010   1008   1022     1   109.5600471 388.275200
   1010   1008   1030     1   109.7800468 425.094400
   1011   1009   1012     1   109.5600471 388.275200
   1011   1009   1021     1   110.2600474 425.931200
   1012   1013   1015     1   109.5600471 388.275200
   1012   1020   1023     1   107.2600461 396.643200
   1013   1012   1016     1   109.5600471 388.275200
   1013   1014   1017     1   110.2200475 386.601600
   1013   1019   1025     1   107.2600461 396.643200
   1014   1013   1015     1   109.5600471 388.275200
   1015   1013   1019     1   110.2600474 425.931200
   1016   1012   1020     1   110.2600474 425.931200
   1017   1014   1018     1   109.5800467 425.931200
   1017   1014   1030     1   109.5800467 425.931200
   1022   1028   1029     1   107.2600461 396.643200
   1026   1022   1028     1   110.2600474 425.931200
   1026   1022   1027     1   108.4600466 328.025600
   1027   1022   1028     1   110.2600474 425.931200
   1031   1032   1034     1   109.5600471 388.275200
   1031   1045   1049     1   109.5600471 388.275200
   1031   1045   1050     1   109.5600471 388.275200
   1032   1031   1033     1   109.5600471 388.275200
   1032   1035   1039     1   109.5600471 388.275200
   1032   1044   1047     1   107.2600461 396.643200
   1033   1031   1045     1   109.5600471 388.275200
   1033   1031   1053     1   109.7800468 425.094400
   1034   1032   1035     1   109.5600471 388.275200
   1034   1032   1044     1   110.2600474 425.931200
   1035   1036   1038     1   109.5600471 388.275200
   1035   1043   1046     1   107.2600461 396.643200
   1036   1035   1039     1   109.5600471 388.275200
   1036   1037   1040     1   110.2200475 386.601600
   1036   1042   1048     1   107.2600461 396.643200
   1037   1036   1038     1   109.5600471 388.275200
   1038   1036   1042     1   110.2600474 425.931200
   1039   1035   1043     1   110.2600474 425.931200
   1040   1037   1041     1   109.5800467 425.931200
   1040   1037   1053     1   109.5800467 425.931200
   1045   1051   1052     1   107.2600461 396.643200
   1049   1045   1051     1   110.2600474 425.931200
   1049   1045   1050     1   108.4600466 328.025600
   1050   1045   1051     1   110.2600474 425.931200
   1054   1055   1057     1   109.5600471 388.275200
   1054   1068   1072     1   109.5600471 388.275200
   1054   1068   1073     1   109.5600471 388.275200
   1055   1054   1056     1   109.5600471 388.275200
   1055   1058   1062     1   109.5600471 388.275200
   1055   1067   1070     1   107.2600461 396.643200
   1056   1054   1068     1   109.5600471 388.275200
   1056   1054   1076     1   109.7800468 425.094400
   1057   1055   1058     1   109.5600471 388.275200
   1057   1055   1067     1   110.2600474 425.931200
   1058   1059   1061     1   109.5600471 388.275200
   1058   1066   1069     1   107.2600461 396.643200
   1059   1058   1062     1   109.5600471 388.275200
   1059   1060   1063     1   110.2200475 386.601600
   1059   1065   1071     1   107.2600461 396.643200
   1060   1059   1061     1   109.5600471 388.275200
   1061   1059   1065     1   110.2600474 425.931200
   1062   1058   1066     1   110.2600474 425.931200
   1063   1060   1064     1   109.5800467 425.931200
   1063   1060   1076     1   109.5800467 425.931200
   1068   1074   1075     1   107.2600461 396.643200
   1072   1068   1074     1   110.2600474 425.931200
   1072   1068   1073     1   108.4600466 328.025600
   1073   1068   1074     1   110.2600474 425.931200
   1077   1078   1080     1   109.5600471 388.275200
   1077   1091   1095     1   109.5600471 388.275200
   1077   1091   1096     1   109.5600471 388.275200
   1078   1077   1079     1   109.5600471 388.275200
   1078   1081   1085     1   109.5600471 388.275200
   1078   1090   1093     1   107.2600461 396.643200
   1079   1077   1091     1   109.5600471 388.275200
   1079   1077   1099     1   109.7800468 425.094400
   1080   1078   1081     1   109.5600471 388.275200
   1080   1078   1090     1   110.2600474 425.931200
   1081   1082   1084     1   109.5600471 388.275200
   1081   1089   1092     1   107.2600461 396.643200
   1082   1081   1085     1   109.5600471 388.275200
   1082   1083   1086     1   110.2200475 386.601600
   1082   1088   1094     1   107.2600461 396.643200
   1083   1082   1084     1   109.5600471 388.275200
   1084   1082   1088     1   110.2600474 425.931200
   1085   1081   1089     1   110.2600474 425.931200
   1086   1083   1087     1   109.5800467 425.931200
   1086   1083   1099     1   109.5800467 425.931200
   1091   1097   1098     1   107.2600461 396.643200
   1095   1091   1097     1   110.2600474 425.931200
   1095   1091   1096     1   108.4600466 328.025600
   1096   1091   1097     1   110.2600474 425.931200
   1100   1101   1103     1   109.5600471 388.275200
   1100   1114   1118     1   109.5600471 388.275200
   1100   1114   1119     1   109.5600471 388.275200
   1101   1100   1102     1   109.5600471 388.275200
   1101   1104   1108     1   109.5600471 388.275200
   1101   1113   1116     1   107.2600461 396.643200
   1102   1100   1114     1   109.5600471 388.275200
   1102   1100   1122     1   109.7800468 425.094400
   1103   1101   1104     1   109.5600471 388.275200
   1103   1101   1113     1   110.2600474 425.931200
   1104   1105   1107     1   109.5600471 388.275200
   1104   1112   1115     1   107.2600461 396.643200
   1105   1104   1108     1   109.5600471 388.275200
   1105   1106   1109     1   110.2200475 386.601600
   1105   1111   1117     1   107.2600461 396.643200
   1106   1105   1107     1   109.5600471 388.275200
   1107   1105   1111     1   110.2600474 425.931200
   1108   1104   1112     1   110.2600474 425.931200
   1109   1106   1110     1   109.5800467 425.931200
   1109   1106   1122     1   109.5800467 425.931200
   1114   1120   1121     1   107.2600461 396.643200
   1118   1114   1120     1   110.2600474 425.931200
   1118   1114   1119     1   108.4600466 328.025600
   1119   1114   1120     1   110.2600474 425.931200
   1123   1124   1126     1   109.5600471 388.275200
   1123   1137   1141     1   109.5600471 388.275200
   1123   1137   1142     1   109.5600471 388.275200
   1124   1123   1125     1   109.5600471 388.275200
   1124   1127   1131     1   109.5600471 388.275200
   1124   1136   1139     1   107.2600461 396.643200
   1125   1123   1137     1   109.5600471 388.275200
   1125   1123   1145     1   109.7800468 425.094400
   1126   1124   1127     1   109.5600471 388.275200
   1126   1124   1136     1   110.2600474 425.931200
   1127   1128   1130     1   109.5600471 388.275200
   1127   1135   1138     1   107.2600461 396.643200
   1128   1127   1131     1   109.5600471 388.275200
   1128   1129   1132     1   110.2200475 386.601600
   1128   1134   1140     1   107.2600461 396.643200
   1129   1128   1130     1   109.5600471 388.275200
   1130   1128   1134     1   110.2600474 425.931200
   1131   1127   1135     1   110.2600474 425.931200
   1132   1129   1133     1   109.5800467 425.931200
   1132   1129   1145     1   109.5800467 425.931200
   1137   1143   1144     1   107.2600461 396.643200
   1141   1137   1143     1   110.2600474 425.931200
   1141   1137   1142     1   108.4600466 328.025600
   1142   1137   1143     1   110.2600474 425.931200
   1146   1147   1149     1   109.5600471 388.275200
   1146   1160   1164     1   109.5600471 388.275200
   1146   1160   1165     1   109.5600471 388.275200
   1147   1146   1148     1   109.5600471 388.275200
   1147   1150   1154     1   109.5600471 388.275200
   1147   1159   1162     1   107.2600461 396.643200
   1148   1146   1160     1   109.5600471 388.275200
   1148   1146   1168     1   109.7800468 425.094400
   1149   1147   1150     1   109.5600471 388.275200
   1149   1147   1159     1   110.2600474 425.931200
   1150   1151   1153     1   109.5600471 388.275200
   1150   1158   1161     1   107.2600461 396.643200
   1151   1150   1154     1   109.5600471 388.275200
   1151   1152   1155     1   110.2200475 386.601600
   1151   1157   1163     1   107.2600461 396.643200
   1152   1151   1153     1   109.5600471 388.275200
   1153   1151   1157     1   110.2600474 425.931200
   1154   1150   1158     1   110.2600474 425.931200
   1155   1152   1156     1   109.5800467 425.931200
   1155   1152   1168     1   109.5800467 425.931200
   1160   1166   1167     1   107.2600461 396.643200
   1164   1160   1166     1   110.2600474 425.931200
   1164   1160   1165     1   108.4600466 328.025600
   1165   1160   1166     1   110.2600474 425.931200
   1169   1170   1172     1   109.5600471 388.275200
   1169   1183   1187     1   109.5600471 388.275200
   1169   1183   1188     1   109.5600471 388.275200
   1170   1169   1171     1   109.5600471 388.275200
   1170   1173   1177     1   109.5600471 388.275200
   1170   1182   1185     1   107.2600461 396.643200
   1171   1169   1183     1   109.5600471 388.275200
   1171   1169   1191     1   109.7800468 425.094400
   1172   1170   1173     1   109.5600471 388.275200
   1172   1170   1182     1   110.2600474 425.931200
   1173   1174   1176     1   109.5600471 388.275200
   1173   1181   1184     1   107.2600461 396.643200
   1174   1173   1177     1   109.5600471 388.275200
   1174   1175   1178     1   110.2200475 386.601600
   1174   1180   1186     1   107.2600461 396.643200
   1175   1174   1176     1   109.5600471 388.275200
   1176   1174   1180     1   110.2600474 425.931200
   1177   1173   1181     1   110.2600474 425.931200
   1178   1175   1179     1   109.5800467 425.931200
   1178   1175   1191     1   109.5800467 425.931200
   1183   1189   1190     1   107.2600461 396.643200
   1187   1183   1189     1   110.2600474 425.931200
   1187   1183   1188     1   108.4600466 328.025600
   1188   1183   1189     1   110.2600474 425.931200
   1192   1193   1195     1   109.5600471 388.275200
   1192   1206   1210     1   109.5600471 388.275200
   1192   1206   1211     1   109.5600471 388.275200
   1193   1192   1194     1   109.5600471 388.275200
   1193   1196   1200     1   109.5600471 388.275200
   1193   1205   1208     1   107.2600461 396.643200
   1194   1192   1206     1   109.5600471 388.275200
   1194   1192   1214     1   109.7800468 425.094400
   1195   1193   1196     1   109.5600471 388.275200
   1195   1193   1205     1   110.2600474 425.931200
   1196   1197   1199     1   109.5600471 388.275200
   1196   1204   1207     1   107.2600461 396.643200
   1197   1196   1200     1   109.5600471 388.275200
   1197   1198   1201     1   110.2200475 386.601600
   1197   1203   1209     1   107.2600461 396.643200
   1198   1197   1199     1   109.5600471 388.275200
   1199   1197   1203     1   110.2600474 425.931200
   1200   1196   1204     1   110.2600474 425.931200
   1201   1198   1202     1   109.5800467 425.931200
   1201   1198   1214     1   109.5800467 425.931200
   1206   1212   1213     1   107.2600461 396.643200
   1210   1206   1212     1   110.2600474 425.931200
   1210   1206   1211     1   108.4600466 328.025600
   1211   1206   1212     1   110.2600474 425.931200
   1215   1216   1218     1   109.5600471 388.275200
   1215   1229   1233     1   109.5600471 388.275200
   1215   1229   1234     1   109.5600471 388.275200
   1216   1215   1217     1   109.5600471 388.275200
   1216   1219   1223     1   109.5600471 388.275200
   1216   1228   1231     1   107.2600461 396.643200
   1217   1215   1229     1   109.5600471 388.275200
   1217   1215   1237     1   109.7800468 425.094400
   1218   1216   1219     1   109.5600471 388.275200
   1218   1216   1228     1   110.2600474 425.931200
   1219   1220   1222     1   109.5600471 388.275200
   1219   1227   1230     1   107.2600461 396.643200
   1220   1219   1223     1   109.5600471 388.275200
   1220   1221   1224     1   110.2200475 386.601600
   1220   1226   1232     1   107.2600461 396.643200
   1221   1220   1222     1   109.5600471 388.275200
   1222   1220   1226     1   110.2600474 425.931200
   1223   1219   1227     1   110.2600474 425.931200
   1224   1221   1225     1   109.5800467 425.931200
   1224   1221   1237     1   109.5800467 425.931200
   1229   1235   1236     1   107.2600461 396.643200
   1233   1229   1235     1   110.2600474 425.931200
   1233   1229   1234     1   108.4600466 328.025600
   1234   1229   1235     1   110.2600474 425.931200
   1238   1239   1241     1   109.5600471 388.275200
   1238   1252   1256     1   109.5600471 388.275200
   1238   1252   1257     1   109.5600471 388.275200
   1239   1238   1240     1   109.5600471 388.275200
   1239   1242   1246     1   109.5600471 388.275200
   1239   1251   1254     1   107.2600461 396.643200
   1240   1238   1252     1   109.5600471 388.275200
   1240   1238   1260     1   109.7800468 425.094400
   1241   1239   1242     1   109.5600471 388.275200
   1241   1239   1251     1   110.2600474 425.931200
   1242   1243   1245     1   109.5600471 388.275200
   1242   1250   1253     1   107.2600461 396.643200
   1243   1242   1246     1   109.5600471 388.275200
   1243   1244   1247     1   110.2200475 386.601600
   1243   1249   1255     1   107.2600461 396.643200
   1244   1243   1245     1   109.5600471 388.275200
   1245   1243   1249     1   110.2600474 425.931200
   1246   1242   1250     1   110.2600474 425.931200
   1247   1244   1248     1   109.5800467 425.931200
   1247   1244   1260     1   109.5800467 425.931200
   1252   1258   1259     1   107.2600461 396.643200
   1256   1252   1258     1   110.2600474 425.931200
   1256   1252   1257     1   108.4600466 328.025600
   1257   1252   1258     1   110.2600474 425.931200
   1261   1262   1264     1   109.5600471 388.275200
   1261   1275   1279     1   109.5600471 388.275200
   1261   1275   1280     1   109.5600471 388.275200
   1262   1261   1263     1   109.5600471 388.275200
   1262   1265   1269     1   109.5600471 388.275200
   1262   1274   1277     1   107.2600461 396.643200
   1263   1261   1275     1   109.5600471 388.275200
   1263   1261   1283     1   109.7800468 425.094400
   1264   1262   1265     1   109.5600471 388.275200
   1264   1262   1274     1   110.2600474 425.931200
   1265   1266   1268     1   109.5600471 388.275200
   1265   1273   1276     1   107.2600461 396.643200
   1266   1265   1269     1   109.5600471 388.275200
   1266   1267   1270     1   110.2200475 386.601600
   1266   1272   1278     1   107.2600461 396.643200
   1267   1266   1268     1   109.5600471 388.275200
   1268   1266   1272     1   110.2600474 425.931200
   1269   1265   1273     1   110.2600474 425.931200
   1270   1267   1271     1   109.5800467 425.931200
   1270   1267   1283     1   109.5800467 425.931200
   1275   1281   1282     1   107.2600461 396.643200
   1279   1275   1281     1   110.2600474 425.931200
   1279   1275   1280     1   108.4600466 328.025600
   1280   1275   1281     1   110.2600474 425.931200
   1284   1285   1287     1   109.5600471 388.275200
   1284   1298   1302     1   109.5600471 388.275200
   1284   1298   1303     1   109.5600471 388.275200
   1285   1284   1286     1   109.5600471 388.275200
   1285   1288   1292     1   109.5600471 388.275200
   1285   1297   1300     1   107.2600461 396.643200
   1286   1284   1298     1   109.5600471 388.275200
   1286   1284   1306     1   109.7800468 425.094400
   1287   1285   1288     1   109.5600471 388.275200
   1287   1285   1297     1   110.2600474 425.931200
   1288   1289   1291     1   109.5600471 388.275200
   1288   1296   1299     1   107.2600461 396.643200
   1289   1288   1292     1   109.5600471 388.275200
   1289   1290   1293     1   110.2200475 386.601600
   1289   1295   1301     1   107.2600461 396.643200
   1290   1289   1291     1   109.5600471 388.275200
   1291   1289   1295     1   110.2600474 425.931200
   1292   1288   1296     1   110.2600474 425.931200
   1293   1290   1294     1   109.5800467 425.931200
   1293   1290   1306     1   109.5800467 425.931200
   1298   1304   1305     1   107.2600461 396.643200
   1302   1298   1304     1   110.2600474 425.931200
   1302   1298   1303     1   108.4600466 328.025600
   1303   1298   1304     1   110.2600474 425.931200
   1307   1308   1310     1   109.5600471 388.275200
   1307   1321   1325     1   109.5600471 388.275200
   1307   1321   1326     1   109.5600471 388.275200
   1308   1307   1309     1   109.5600471 388.275200
   1308   1311   1315     1   109.5600471 388.275200
   1308   1320   1323     1   107.2600461 396.643200
   1309   1307   1321     1   109.5600471 388.275200
   1309   1307   1329     1   109.7800468 425.094400
   1310   1308   1311     1   109.5600471 388.275200
   1310   1308   1320     1   110.2600474 425.931200
   1311   1312   1314     1   109.5600471 388.275200
   1311   1319   1322     1   107.2600461 396.643200
   1312   1311   1315     1   109.5600471 388.275200
   1312   1313   1316     1   110.2200475 386.601600
   1312   1318   1324     1   107.2600461 396.643200
   1313   1312   1314     1   109.5600471 388.275200
   1314   1312   1318     1   110.2600474 425.931200
   1315   1311   1319     1   110.2600474 425.931200
   1316   1313   1317     1   109.5800467 425.931200
   1316   1313   1329     1   109.5800467 425.931200
   1321   1327   1328     1   107.2600461 396.643200
   1325   1321   1327     1   110.2600474 425.931200
   1325   1321   1326     1   108.4600466 328.025600
   1326   1321   1327     1   110.2600474 425.931200
   1330   1331   1333     1   109.5600471 388.275200
   1330   1344   1348     1   109.5600471 388.275200
   1330   1344   1349     1   109.5600471 388.275200
   1331   1330   1332     1   109.5600471 388.275200
   1331   1334   1338     1   109.5600471 388.275200
   1331   1343   1346     1   107.2600461 396.643200
   1332   1330   1344     1   109.5600471 388.275200
   1332   1330   1352     1   109.7800468 425.094400
   1333   1331   1334     1   109.5600471 388.275200
   1333   1331   1343     1   110.2600474 425.931200
   1334   1335   1337     1   109.5600471 388.275200
   1334   1342   1345     1   107.2600461 396.643200
   1335   1334   1338     1   109.5600471 388.275200
   1335   1336   1339     1   110.2200475 386.601600
   1335   1341   1347     1   107.2600461 396.643200
   1336   1335   1337     1   109.5600471 388.275200
   1337   1335   1341     1   110.2600474 425.931200
   1338   1334   1342     1   110.2600474 425.931200
   1339   1336   1340     1   109.5800467 425.931200
   1339   1336   1352     1   109.5800467 425.931200
   1344   1350   1351     1   107.2600461 396.643200
   1348   1344   1350     1   110.2600474 425.931200
   1348   1344   1349     1   108.4600466 328.025600
   1349   1344   1350     1   110.2600474 425.931200
   1353   1354   1356     1   109.5600471 388.275200
   1353   1367   1371     1   109.5600471 388.275200
   1353   1367   1372     1   109.5600471 388.275200
   1354   1353   1355     1   109.5600471 388.275200
   1354   1357   1361     1   109.5600471 388.275200
   1354   1366   1369     1   107.2600461 396.643200
   1355   1353   1367     1   109.5600471 388.275200
   1355   1353   1375     1   109.7800468 425.094400
   1356   1354   1357     1   109.5600471 388.275200
   1356   1354   1366     1   110.2600474 425.931200
   1357   1358   1360     1   109.5600471 388.275200
   1357   1365   1368     1   107.2600461 396.643200
   1358   1357   1361     1   109.5600471 388.275200
   1358   1359   1362     1   110.2200475 386.601600
   1358   1364   1370     1   107.2600461 396.643200
   1359   1358   1360     1   109.5600471 388.275200
   1360   1358   1364     1   110.2600474 425.931200
   1361   1357   1365     1   110.2600474 425.931200
   1362   1359   1363     1   109.5800467 425.931200
   1362   1359   1375     1   109.5800467 425.931200
   1367   1373   1374     1   107.2600461 396.643200
   1371   1367   1373     1   110.2600474 425.931200
   1371   1367   1372     1   108.4600466 328.025600
   1372   1367   1373     1   110.2600474 425.931200
   1376   1377   1379     1   109.5600471 388.275200
   1376   1390   1394     1   109.5600471 388.275200
   1376   1390   1395     1   109.5600471 388.275200
   1377   1376   1378     1   109.5600471 388.275200
   1377   1380   1384     1   109.5600471 388.275200
   1377   1389   1392     1   107.2600461 396.643200
   1378   1376   1390     1   109.5600471 388.275200
   1378   1376   1398     1   109.7800468 425.094400
   1379   1377   1380     1   109.5600471 388.275200
   1379   1377   1389     1   110.2600474 425.931200
   1380   1381   1383     1   109.5600471 388.275200
   1380   1388   1391     1   107.2600461 396.643200
   1381   1380   1384     1   109.5600471 388.275200
   1381   1382   1385     1   110.2200475 386.601600
   1381   1387   1393     1   107.2600461 396.643200
   1382   1381   1383     1   109.5600471 388.275200
   1383   1381   1387     1   110.2600474 425.931200
   1384   1380   1388     1   110.2600474 425.931200
   1385   1382   1386     1   109.5800467 425.931200
   1385   1382   1398     1   109.5800467 425.931200
   1390   1396   1397     1   107.2600461 396.643200
   1394   1390   1396     1   110.2600474 425.931200
   1394   1390   1395     1   108.4600466 328.025600
   1395   1390   1396     1   110.2600474 425.931200
   1399   1400   1402     1   109.5600471 388.275200
   1399   1413   1417     1   109.5600471 388.275200
   1399   1413   1418     1   109.5600471 388.275200
   1400   1399   1401     1   109.5600471 388.275200
   1400   1403   1407     1   109.5600471 388.275200
   1400   1412   1415     1   107.2600461 396.643200
   1401   1399   1413     1   109.5600471 388.275200
   1401   1399   1421     1   109.7800468 425.094400
   1402   1400   1403     1   109.5600471 388.275200
   1402   1400   1412     1   110.2600474 425.931200
   1403   1404   1406     1   109.5600471 388.275200
   1403   1411   1414     1   107.2600461 396.643200
   1404   1403   1407     1   109.5600471 388.275200
   1404   1405   1408     1   110.2200475 386.601600
   1404   1410   1416     1   107.2600461 396.643200
   1405   1404   1406     1   109.5600471 388.275200
   1406   1404   1410     1   110.2600474 425.931200
   1407   1403   1411     1   110.2600474 425.931200
   1408   1405   1409     1   109.5800467 425.931200
   1408   1405   1421     1   109.5800467 425.931200
   1413   1419   1420     1   107.2600461 396.643200
   1417   1413   1419     1   110.2600474 425.931200
   1417   1413   1418     1   108.4600466 328.025600
   1418   1413   1419     1   110.2600474 425.931200
   1422   1423   1425     1   109.5600471 388.275200
   1422   1436   1440     1   109.5600471 388.275200
   1422   1436   1441     1   109.5600471 388.275200
   1423   1422   1424     1   109.5600471 388.275200
   1423   1426   1430     1   109.5600471 388.275200
   1423   1435   1438     1   107.2600461 396.643200
   1424   1422   1436     1   109.5600471 388.275200
   1424   1422   1444     1   109.7800468 425.094400
   1425   1423   1426     1   109.5600471 388.275200
   1425   1423   1435     1   110.2600474 425.931200
   1426   1427   1429     1   109.5600471 388.275200
   1426   1434   1437     1   107.2600461 396.643200
   1427   1426   1430     1   109.5600471 388.275200
   1427   1428   1431     1   110.2200475 386.601600
   1427   1433   1439     1   107.2600461 396.643200
   1428   1427   1429     1   109.5600471 388.275200
   1429   1427   1433     1   110.2600474 425.931200
   1430   1426   1434     1   110.2600474 425.931200
   1431   1428   1432     1   109.5800467 425.931200
   1431   1428   1444     1   109.5800467 425.931200
   1436   1442   1443     1   107.2600461 396.643200
   1440   1436   1442     1   110.2600474 425.931200
   1440   1436   1441     1   108.4600466 328.025600
   1441   1436   1442     1   110.2600474 425.931200
   1445   1446   1448     1   109.5600471 388.275200
   1445   1459   1463     1   109.5600471 388.275200
   1445   1459   1464     1   109.5600471 388.275200
   1446   1445   1447     1   109.5600471 388.275200
   1446   1449   1453     1   109.5600471 388.275200
   1446   1458   1461     1   107.2600461 396.643200
   1447   1445   1459     1   109.5600471 388.275200
   1447   1445   1467     1   109.7800468 425.094400
   1448   1446   1449     1   109.5600471 388.275200
   1448   1446   1458     1   110.2600474 425.931200
   1449   1450   1452     1   109.5600471 388.275200
   1449   1457   1460     1   107.2600461 396.643200
   1450   1449   1453     1   109.5600471 388.275200
   1450   1451   1454     1   110.2200475 386.601600
   1450   1456   1462     1   107.2600461 396.643200
   1451   1450   1452     1   109.5600471 388.275200
   1452   1450   1456     1   110.2600474 425.931200
   1453   1449   1457     1   110.2600474 425.931200
   1454   1451   1455     1   109.5800467 425.931200
   1454   1451   1467     1   109.5800467 425.931200
   1459   1465   1466     1   107.2600461 396.643200
   1463   1459   1465     1   110.2600474 425.931200
   1463   1459   1464     1   108.4600466 328.025600
   1464   1459   1465     1   110.2600474 425.931200
   1468   1469   1471     1   109.5600471 388.275200
   1468   1482   1486     1   109.5600471 388.275200
   1468   1482   1487     1   109.5600471 388.275200
   1469   1468   1470     1   109.5600471 388.275200
   1469   1472   1476     1   109.5600471 388.275200
   1469   1481   1484     1   107.2600461 396.643200
   1470   1468   1482     1   109.5600471 388.275200
   1470   1468   1490     1   109.7800468 425.094400
   1471   1469   1472     1   109.5600471 388.275200
   1471   1469   1481     1   110.2600474 425.931200
   1472   1473   1475     1   109.5600471 388.275200
   1472   1480   1483     1   107.2600461 396.643200
   1473   1472   1476     1   109.5600471 388.275200
   1473   1474   1477     1   110.2200475 386.601600
   1473   1479   1485     1   107.2600461 396.643200
   1474   1473   1475     1   109.5600471 388.275200
   1475   1473   1479     1   110.2600474 425.931200
   1476   1472   1480     1   110.2600474 425.931200
   1477   1474   1478     1   109.5800467 425.931200
   1477   1474   1490     1   109.5800467 425.931200
   1482   1488   1489     1   107.2600461 396.643200
   1486   1482   1488     1   110.2600474 425.931200
   1486   1482   1487     1   108.4600466 328.025600
   1487   1482   1488     1   110.2600474 425.931200
   1491   1492   1494     1   109.5600471 388.275200
   1491   1505   1509     1   109.5600471 388.275200
   1491   1505   1510     1   109.5600471 388.275200
   1492   1491   1493     1   109.5600471 388.275200
   1492   1495   1499     1   109.5600471 388.275200
   1492   1504   1507     1   107.2600461 396.643200
   1493   1491   1505     1   109.5600471 388.275200
   1493   1491   1513     1   109.7800468 425.094400
   1494   1492   1495     1   109.5600471 388.275200
   1494   1492   1504     1   110.2600474 425.931200
   1495   1496   1498     1   109.5600471 388.275200
   1495   1503   1506     1   107.2600461 396.643200
   1496   1495   1499     1   109.5600471 388.275200
   1496   1497   1500     1   110.2200475 386.601600
   1496   1502   1508     1   107.2600461 396.643200
   1497   1496   1498     1   109.5600471 388.275200
   1498   1496   1502     1   110.2600474 425.931200
   1499   1495   1503     1   110.2600474 425.931200
   1500   1497   1501     1   109.5800467 425.931200
   1500   1497   1513     1   109.5800467 425.931200
   1505   1511   1512     1   107.2600461 396.643200
   1509   1505   1511     1   110.2600474 425.931200
   1509   1505   1510     1   108.4600466 328.025600
   1510   1505   1511     1   110.2600474 425.931200
   1514   1515   1517     1   109.5600471 388.275200
   1514   1528   1532     1   109.5600471 388.275200
   1514   1528   1533     1   109.5600471 388.275200
   1515   1514   1516     1   109.5600471 388.275200
   1515   1518   1522     1   109.5600471 388.275200
   1515   1527   1530     1   107.2600461 396.643200
   1516   1514   1528     1   109.5600471 388.275200
   1516   1514   1536     1   109.7800468 425.094400
   1517   1515   1518     1   109.5600471 388.275200
   1517   1515   1527     1   110.2600474 425.931200
   1518   1519   1521     1   109.5600471 388.275200
   1518   1526   1529     1   107.2600461 396.643200
   1519   1518   1522     1   109.5600471 388.275200
   1519   1520   1523     1   110.2200475 386.601600
   1519   1525   1531     1   107.2600461 396.643200
   1520   1519   1521     1   109.5600471 388.275200
   1521   1519   1525     1   110.2600474 425.931200
   1522   1518   1526     1   110.2600474 425.931200
   1523   1520   1524     1   109.5800467 425.931200
   1523   1520   1536     1   109.5800467 425.931200
   1528   1534   1535     1   107.2600461 396.643200
   1532   1528   1534     1   110.2600474 425.931200
   1532   1528   1533     1   108.4600466 328.025600
   1533   1528   1534     1   110.2600474 425.931200
   1537   1538   1540     1   109.5600471 388.275200
   1537   1551   1555     1   109.5600471 388.275200
   1537   1551   1556     1   109.5600471 388.275200
   1538   1537   1539     1   109.5600471 388.275200
   1538   1541   1545     1   109.5600471 388.275200
   1538   1550   1553     1   107.2600461 396.643200
   1539   1537   1551     1   109.5600471 388.275200
   1539   1537   1559     1   109.7800468 425.094400
   1540   1538   1541     1   109.5600471 388.275200
   1540   1538   1550     1   110.2600474 425.931200
   1541   1542   1544     1   109.5600471 388.275200
   1541   1549   1552     1   107.2600461 396.643200
   1542   1541   1545     1   109.5600471 388.275200
   1542   1543   1546     1   110.2200475 386.601600
   1542   1548   1554     1   107.2600461 396.643200
   1543   1542   1544     1   109.5600471 388.275200
   1544   1542   1548     1   110.2600474 425.931200
   1545   1541   1549     1   110.2600474 425.931200
   1546   1543   1547     1   109.5800467 425.931200
   1546   1543   1559     1   109.5800467 425.931200
   1551   1557   1558     1   107.2600461 396.643200
   1555   1551   1557     1   110.2600474 425.931200
   1555   1551   1556     1   108.4600466 328.025600
   1556   1551   1557     1   110.2600474 425.931200
   1560   1561   1563     1   109.5600471 388.275200
   1560   1574   1578     1   109.5600471 388.275200
   1560   1574   1579     1   109.5600471 388.275200
   1561   1560   1562     1   109.5600471 388.275200
   1561   1564   1568     1   109.5600471 388.275200
   1561   1573   1576     1   107.2600461 396.643200
   1562   1560   1574     1   109.5600471 388.275200
   1562   1560   1582     1   109.7800468 425.094400
   1563   1561   1564     1   109.5600471 388.275200
   1563   1561   1573     1   110.2600474 425.931200
   1564   1565   1567     1   109.5600471 388.275200
   1564   1572   1575     1   107.2600461 396.643200
   1565   1564   1568     1   109.5600471 388.275200
   1565   1566   1569     1   110.2200475 386.601600
   1565   1571   1577     1   107.2600461 396.643200
   1566   1565   1567     1   109.5600471 388.275200
   1567   1565   1571     1   110.2600474 425.931200
   1568   1564   1572     1   110.2600474 425.931200
   1569   1566   1570     1   109.5800467 425.931200
   1569   1566   1582     1   109.5800467 425.931200
   1574   1580   1581     1   107.2600461 396.643200
   1578   1574   1580     1   110.2600474 425.931200
   1578   1574   1579     1   108.4600466 328.025600
   1579   1574   1580     1   110.2600474 425.931200
   1583   1584   1586     1   109.5600471 388.275200
   1583   1597   1601     1   109.5600471 388.275200
   1583   1597   1602     1   109.5600471 388.275200
   1584   1583   1585     1   109.5600471 388.275200
   1584   1587   1591     1   109.5600471 388.275200
   1584   1596   1599     1   107.2600461 396.643200
   1585   1583   1597     1   109.5600471 388.275200
   1585   1583   1605     1   109.7800468 425.094400
   1586   1584   1587     1   109.5600471 388.275200
   1586   1584   1596     1   110.2600474 425.931200
   1587   1588   1590     1   109.5600471 388.275200
   1587   1595   1598     1   107.2600461 396.643200
   1588   1587   1591     1   109.5600471 388.275200
   1588   1589   1592     1   110.2200475 386.601600
   1588   1594   1600     1   107.2600461 396.643200
   1589   1588   1590     1   109.5600471 388.275200
   1590   1588   1594     1   110.2600474 425.931200
   1591   1587   1595     1   110.2600474 425.931200
   1592   1589   1593     1   109.5800467 425.931200
   1592   1589   1605     1   109.5800467 425.931200
   1597   1603   1604     1   107.2600461 396.643200
   1601   1597   1603     1   110.2600474 425.931200
   1601   1597   1602     1   108.4600466 328.025600
   1602   1597   1603     1   110.2600474 425.931200

[ dihedrals ]
;    ai     aj     ak     al funct         c0         c1         c2         c3         c4         c5
      1      2      8     14     1  0.0000000  0.6508444  3
      1      5     11     17     1  0.0000000  0.6508444  3
      2      1      5     11     1  180.0000771  0.4184000  2
      2      1      5     11     1  0.0000000  1.6024720  3
      2      8     14     20     1  0.0000000  0.6508444  3
      5      1      2      8     1  180.0000771  0.4184000  2
      5      1      2      8     1  0.0000000  1.6024720  3
      5     11     17     21     1  0.0000000  0.6508444  3
      8     14     20     28     1  180.0000771  2.0083200  2
      8     14     20     28     1  0.0000000  1.2552000  3
      8     14     20     31     1  180.0000771  2.0083200  2
      8     14     20     31     1  0.0000000  1.2552000  3
     11     17     21     22     1  180.0000771  2.0083200  2
     11     17     21     22     1  0.0000000  1.2552000  3
     11     17     21     25     1  180.0000771  2.0083200  2
     11     17     21     25     1  0.0000000  1.2552000  3
     14     20     28     40     1  180.0000771  2.0083200  2
     14     20     28     40     1  0.0000000  1.2552000  3
     14     20     31     43     1  180.0000771  2.0083200  2
     14     20     31     43     1  0.0000000  1.2552000  3
     17     21     22     34     1  180.0000771  2.0083200  2
     17     21     22     34     1  0.0000000  1.2552000  3
     17     21     25     37     1  180.0000771  2.0083200  2
     17     21     25     37     1  0.0000000  1.2552000  3
     20     28     40     49     1  0.0000000  0.6508444  3
     20     31     43     46     1  0.0000000  0.6508444  3
     21     22     34     55     1  0.0000000  0.6508444  3
     21     25     37     52     1  0.0000000  0.6508444  3
     22     21     25     37     1  180.0000771  2.0083200  2
     22     21     25     37     1  0.0000000  1.2552000  3
     22     34     55    173     1  0.0000000  0.6508444  3
     25     21     22     34     1  180.0000771  2.0083200  2
     25     21     22     34     1  0.0000000  1.2552000  3
     25     37     52    144     1  0.0000000  0.6508444  3
     28     20     31     43     1  180.0000771  2.0083200  2
     28     20     31     43     1  0.0000000  1.2552000  3
     28     40     49    115     1  0.0000000  0.6508444  3
     31     20     28     40     1  180.0000771  2.0083200  2
     31     20     28     40     1  0.0000000  1.2552000  3
     31     43     46     86     1  0.0000000  0.6508444  3
     34     55    173    164     1  180.0000771  0.4184000  2
     34     55    173    164     1  0.0000000  1.6024720  3
     37     52    144    135     1  180.0000771  0.4184000  2
     37     52    144    135     1  0.0000000  1.6024720  3
     40     49    115    106     1  180.0000771  0.4184000  2
     40     49    115    106     1  0.0000000  1.6024720  3
     43     46     86     77     1  180.0000771  0.4184000  2
     43     46     86     77     1  0.0000000  1.6024720  3
     46     86     77     68     1  180.0000771  0.4184000  2
     46     86     77     68     1  0.0000000  1.6024720  3
     49    115    106     97     1  180.0000771  0.4184000  2
     49    115    106     97     1  0.0000000  1.6024720  3
     52    144    135    126     1  180.0000771  0.4184000  2
     52    144    135    126     1  0.0000000  1.6024720  3
     55    173    164    155     1  180.0000771  0.4184000  2
     55    173    164    155     1  0.0000000  1.6024720  3
     58     59     71     83     1  0.0000000  0.6508444  3
     58     62     74     80     1  0.0000000  0.6508444  3
     58     65     68     77     1  0.0000000  0.6508444  3
     59     58     62     74     1  180.0000771  2.0083200  2
     59     58     62     74     1  0.0000000  1.2552000  3
     59     58     65     68     1  180.0000771  2.0083200  2
     59     58     65     68     1  0.0000000  1.2552000  3
     59     71     83    231     1  0.0000000  0.6508444  3
     62     58     59     71     1  180.0000771  2.0083200  2
     62     58     59     71     1  0.0000000  1.2552000  3
     62     58     65     68     1  180.0000771  2.0083200  2
     62     58     65     68     1  0.0000000  1.2552000  3
     62     74     80    202     1  0.0000000  0.6508444  3
     65     58     59     71     1  180.0000771  2.0083200  2
     65     58     59     71     1  0.0000000  1.2552000  3
     65     58     62     74     1  180.0000771  2.0083200  2
     65     58     62     74     1  0.0000000  1.2552000  3
     65     68     77     86     1  0.0000000  0.6508444  3
     71     83    231    222     1  180.0000771  0.4184000  2
     71     83    231    222     1  0.0000000  1.6024720  3
     74     80    202    193     1  180.0000771  0.4184000  2
     74     80    202    193     1  0.0000000  1.6024720  3
     80    202    193    184     1  180.0000771  0.4184000  2
     80    202    193    184     1  0.0000000  1.6024720  3
     83    231    222    213     1  180.0000771  0.4184000  2
     83    231    222    213     1  0.0000000  1.6024720  3
     87     88    100    112     1  0.0000000  0.6508444  3
     87     91    103    109     1  0.0000000  0.6508444  3
     87     94     97    106     1  0.0000000  0.6508444  3
     88     87     91    103     1  180.0000771  2.0083200  2
     88     87     91    103     1  0.0000000  1.2552000  3
     88     87     94     97     1  180.0000771  2.0083200  2
     88     87     94     97     1  0.0000000  1.2552000  3
     88    100    112    289     1  0.0000000  0.6508444  3
     91     87     88    100     1  180.0000771  2.0083200  2
     91     87     88    100     1  0.0000000  1.2552000  3
     91     87     94     97     1  180.0000771  2.0083200  2
     91     87     94     97     1  0.0000000  1.2552000  3
     91    103    109    260     1  0.0000000  0.6508444  3
     94     87     88    100     1  180.0000771  2.0083200  2
     94     87     88    100     1  0.0000000  1.2552000  3
     94     87     91    103     1  180.0000771  2.0083200  2
     94     87     91    103     1  0.0000000  1.2552000  3
     94     97    106    115     1  0.0000000  0.6508444  3
    100    112    289    280     1  180.0000771  0.4184000  2
    100    112    289    280     1  0.0000000  1.6024720  3
    103    109    260    251     1  180.0000771  0.4184000  2
    103    109    260    251     1  0.0000000  1.6024720  3
    109    260    251    242     1  180.0000771  0.4184000  2
    109    260    251    242     1  0.0000000  1.6024720  3
    112    289    280    271     1  180.0000771  0.4184000  2
    112    289    280    271     1  0.0000000  1.6024720  3
    116    117    129    141     1  0.0000000  0.6508444  3
    116    120    132    138     1  0.0000000  0.6508444  3
    116    123    126    135     1  0.0000000  0.6508444  3
    117    116    120    132     1  180.0000771  2.0083200  2
    117    116    120    132     1  0.0000000  1.2552000  3
    117    116    123    126     1  180.0000771  2.0083200  2
    117    116    123    126     1  0.0000000  1.2552000  3
    117    129    141    347     1  0.0000000  0.6508444  3
    120    116    117    129     1  180.0000771  2.0083200  2
    120    116    117    129     1  0.0000000  1.2552000  3
    120    116    123    126     1  180.0000771  2.0083200  2
    120    116    123    126     1  0.0000000  1.2552000  3
    120    132    138    318     1  0.0000000  0.6508444  3
    123    116    117    129     1  180.0000771  2.0083200  2
    123    116    117    129     1  0.0000000  1.2552000  3
    123    116    120    132     1  180.0000771  2.0083200  2
    123    116    120    132     1  0.0000000  1.2552000  3
    123    126    135    144     1  0.0000000  0.6508444  3
    129    141    347    338     1  180.0000771  0.4184000  2
    129    141    347    338     1  0.0000000  1.6024720  3
    132    138    318    309     1  180.0000771  0.4184000  2
    132    138    318    309     1  0.0000000  1.6024720  3
    138    318    309    300     1  180.0000771  0.4184000  2
    138    318    309    300     1  0.0000000  1.6024720  3
    141    347    338    329     1  180.0000771  0.4184000  2
    141    347    338    329     1  0.0000000  1.6024720  3
    145    146    158    170     1  0.0000000  0.6508444  3
    145    149    161    167     1  0.0000000  0.6508444  3
    145    152    155    164     1  0.0000000  0.6508444  3
    146    145    149    161     1  180.0000771  2.0083200  2
    146    145    149    161     1  0.0000000  1.2552000  3
    146    145    152    155     1  180.0000771  2.0083200  2
    146    145    152    155     1  0.0000000  1.2552000  3
    146    158    170    405     1  0.0000000  0.6508444  3
    149    145    146    158     1  180.0000771  2.0083200  2
    149    145    146    158     1  0.0000000  1.2552000  3
    149    145    152    155     1  180.0000771  2.0083200  2
    149    145    152    155     1  0.0000000  1.2552000  3
    149    161    167    376     1  0.0000000  0.6508444  3
    152    145    146    158     1  180.0000771  2.0083200  2
    152    145    146    158     1  0.0000000  1.2552000  3
    152    145    149    161     1  180.0000771  2.0083200  2
    152    145    149    161     1  0.0000000  1.2552000  3
    152    155    164    173     1  0.0000000  0.6508444  3
    158    170    405    396     1  180.0000771  0.4184000  2
    158    170    405    396     1  0.0000000  1.6024720  3
    161    167    376    367     1  180.0000771  0.4184000  2
    161    167    376    367     1  0.0000000  1.6024720  3
    167    376    367    358     1  180.0000771  0.4184000  2
    167    376    367    358     1  0.0000000  1.6024720  3
    170    405    396    387     1  180.0000771  0.4184000  2
    170    405    396    387     1  0.0000000  1.6024720  3
    174    175    187    199     1  0.0000000  0.6508444  3
    174    178    190    196     1  0.0000000  0.6508444  3
    174    181    184    193     1  0.0000000  0.6508444  3
    175    174    178    190     1  180.0000771  2.0083200  2
    175    174    178    190     1  0.0000000  1.2552000  3
    175    174    181    184     1  180.0000771  2.0083200  2
    175    174    181    184     1  0.0000000  1.2552000  3
    175    187    199    463     1  0.0000000  0.6508444  3
    178    174    175    187     1  180.0000771  2.0083200  2
    178    174    175    187     1  0.0000000  1.2552000  3
    178    174    181    184     1  180.0000771  2.0083200  2
    178    174    181    184     1  0.0000000  1.2552000  3
    178    190    196    434     1  0.0000000  0.6508444  3
    181    174    175    187     1  180.0000771  2.0083200  2
    181    174    175    187     1  0.0000000  1.2552000  3
    181    174    178    190     1  180.0000771  2.0083200  2
    181    174    178    190     1  0.0000000  1.2552000  3
    181    184    193    202     1  0.0000000  0.6508444  3
    187    199    463    454     1  180.0000771  0.4184000  2
    187    199    463    454     1  0.0000000  1.6024720  3
    190    196    434    425     1  180.0000771  0.4184000  2
    190    196    434    425     1  0.0000000  1.6024720  3
    196    434    425    416     1  180.0000771  0.4184000  2
    196    434    425    416     1  0.0000000  1.6024720  3
    199    463    454    445     1  180.0000771  0.4184000  2
    199    463    454    445     1  0.0000000  1.6024720  3
    203    204    216    228     1  0.0000000  0.6508444  3
    203    207    219    225     1  0.0000000  0.6508444  3
    203    210    213    222     1  0.0000000  0.6508444  3
    204    203    207    219     1  180.0000771  2.0083200  2
    204    203    207    219     1  0.0000000  1.2552000  3
    204    203    210    213     1  180.0000771  2.0083200  2
    204    203    210    213     1  0.0000000  1.2552000  3
    204    216    228    521     1  0.0000000  0.6508444  3
    207    203    204    216     1  180.0000771  2.0083200  2
    207    203    204    216     1  0.0000000  1.2552000  3
    207    203    210    213     1  180.0000771  2.0083200  2
    207    203    210    213     1  0.0000000  1.2552000  3
    207    219    225    492     1  0.0000000  0.6508444  3
    210    203    204    216     1  180.0000771  2.0083200  2
    210    203    204    216     1  0.0000000  1.2552000  3
    210    203    207    219     1  180.0000771  2.0083200  2
    210    203    207    219     1  0.0000000  1.2552000  3
    210    213    222    231     1  0.0000000  0.6508444  3
    216    228    521    512     1  180.0000771  0.4184000  2
    216    228    521    512     1  0.0000000  1.6024720  3
    219    225    492    483     1  180.0000771  0.4184000  2
    219    225    492    483     1  0.0000000  1.6024720  3
    225    492    483    474     1  180.0000771  0.4184000  2
    225    492    483    474     1  0.0000000  1.6024720  3
    228    521    512    503     1  180.0000771  0.4184000  2
    228    521    512    503     1  0.0000000  1.6024720  3
    232    233    245    257     1  0.0000000  0.6508444  3
    232    236    248    254     1  0.0000000  0.6508444  3
    232    239    242    251     1  0.0000000  0.6508444  3
    233    232    236    248     1  180.0000771  2.0083200  2
    233    232    236    248     1  0.0000000  1.2552000  3
    233    232    239    242     1  180.0000771  2.0083200  2
    233    232    239    242     1  0.0000000  1.2552000  3
    233    245    257    579     1  0.0000000  0.6508444  3
    236    232    233    245     1  180.0000771  2.0083200  2
    236    232    233    245     1  0.0000000  1.2552000  3
    236    232    239    242     1  180.0000771  2.0083200  2
    236    232    239    242     1  0.0000000  1.2552000  3
    236    248    254    550     1  0.0000000  0.6508444  3
    239    232    233    245     1  180.0000771  2.0083200  2
    239    232    233    245     1  0.0000000  1.2552000  3
    239    232    236    248     1  180.0000771  2.0083200  2
    239    232    236    248     1  0.0000000  1.2552000  3
    239    242    251    260     1  0.0000000  0.6508444  3
    245    257    579    570     1  180.0000771  0.4184000  2
    245    257    579    570     1  0.0000000  1.6024720  3
    248    254    550    541     1  180.0000771  0.4184000  2
    248    254    550    541     1  0.0000000  1.6024720  3
    254    550    541    532     1  180.0000771  0.4184000  2
    254    550    541    532     1  0.0000000  1.6024720  3
    257    579    570    561     1  180.0000771  0.4184000  2
    257    579    570    561     1  0.0000000  1.6024720  3
    261    262    274    286     1  0.0000000  0.6508444  3
    261    265    277    283     1  0.0000000  0.6508444  3
    261    268    271    280     1  0.0000000  0.6508444  3
    262    261    265    277     1  180.0000771  2.0083200  2
    262    261    265    277     1  0.0000000  1.2552000  3
    262    261    268    271     1  180.0000771  2.0083200  2
    262    261    268    271     1  0.0000000  1.2552000  3
    262    274    286    637     1  0.0000000  0.6508444  3
    265    261    262    274     1  180.0000771  2.0083200  2
    265    261    262    274     1  0.0000000  1.2552000  3
    265    261    268    271     1  180.0000771  2.0083200  2
    265    261    268    271     1  0.0000000  1.2552000  3
    265    277    283    608     1  0.0000000  0.6508444  3
    268    261    262    274     1  180.0000771  2.0083200  2
    268    261    262    274     1  0.0000000  1.2552000  3
    268    261    265    277     1  180.0000771  2.0083200  2
    268    261    265    277     1  0.0000000  1.2552000  3
    268    271    280    289     1  0.0000000  0.6508444  3
    274    286    637    628     1  180.0000771  0.4184000  2
    274    286    637    628     1  0.0000000  1.6024720  3
    277    283    608    599     1  180.0000771  0.4184000  2
    277    283    608    599     1  0.0000000  1.6024720  3
    283    608    599    590     1  180.0000771  0.4184000  2
    283    608    599    590     1  0.0000000  1.6024720  3
    286    637    628    619     1  180.0000771  0.4184000  2
    286    637    628    619     1  0.0000000  1.6024720  3
    290    291    303    315     1  0.0000000  0.6508444  3
    290    294    306    312     1  0.0000000  0.6508444  3
    290    297    300    309     1  0.0000000  0.6508444  3
    291    290    294    306     1  180.0000771  2.0083200  2
    291    290    294    306     1  0.0000000  1.2552000  3
    291    290    297    300     1  180.0000771  2.0083200  2
    291    290    297    300     1  0.0000000  1.2552000  3
    291    303    315    695     1  0.0000000  0.6508444  3
    294    290    291    303     1  180.0000771  2.0083200  2
    294    290    291    303     1  0.0000000  1.2552000  3
    294    290    297    300     1  180.0000771  2.0083200  2
    294    290    297    300     1  0.0000000  1.2552000  3
    294    306    312    666     1  0.0000000  0.6508444  3
    297    290    291    303     1  180.0000771  2.0083200  2
    297    290    291    303     1  0.0000000  1.2552000  3
    297    290    294    306     1  180.0000771  2.0083200  2
    297    290    294    306     1  0.0000000  1.2552000  3
    297    300    309    318     1  0.0000000  0.6508444  3
    303    315    695    686     1  180.0000771  0.4184000  2
    303    315    695    686     1  0.0000000  1.6024720  3
    306    312    666    657     1  180.0000771  0.4184000  2
    306    312    666    657     1  0.0000000  1.6024720  3
    312    666    657    648     1  180.0000771  0.4184000  2
    312    666    657    648     1  0.0000000  1.6024720  3
    315    695    686    677     1  180.0000771  0.4184000  2
    315    695    686    677     1  0.0000000  1.6024720  3
    319    320    332    344     1  0.0000000  0.6508444  3
    319    323    335    341     1  0.0000000  0.6508444  3
    319    326    329    338     1  0.0000000  0.6508444  3
    320    319    323    335     1  180.0000771  2.0083200  2
    320    319    323    335     1  0.0000000  1.2552000  3
    320    319    326    329     1  180.0000771  2.0083200  2
    320    319    326    329     1  0.0000000  1.2552000  3
    320    332    344    753     1  0.0000000  0.6508444  3
    323    319    320    332     1  180.0000771  2.0083200  2
    323    319    320    332     1  0.0000000  1.2552000  3
    323    319    326    329     1  180.0000771  2.0083200  2
    323    319    326    329     1  0.0000000  1.2552000  3
    323    335    341    724     1  0.0000000  0.6508444  3
    326    319    320    332     1  180.0000771  2.0083200  2
    326    319    320    332     1  0.0000000  1.2552000  3
    326    319    323    335     1  180.0000771  2.0083200  2
    326    319    323    335     1  0.0000000  1.2552000  3
    326    329    338    347     1  0.0000000  0.6508444  3
    332    344    753    744     1  180.0000771  0.4184000  2
    332    344    753    744     1  0.0000000  1.6024720  3
    335    341    724    715     1  180.0000771  0.4184000  2
    335    341    724    715     1  0.0000000  1.6024720  3
    341    724    715    706     1  180.0000771  0.4184000  2
    341    724    715    706     1  0.0000000  1.6024720  3
    344    753    744    735     1  180.0000771  0.4184000  2
    344    753    744    735     1  0.0000000  1.6024720  3
    348    349    361    373     1  0.0000000  0.6508444  3
    348    352    364    370     1  0.0000000  0.6508444  3
    348    355    358    367     1  0.0000000  0.6508444  3
    349    348    352    364     1  180.0000771  2.0083200  2
    349    348    352    364     1  0.0000000  1.2552000  3
    349    348    355    358     1  180.0000771  2.0083200  2
    349    348    355    358     1  0.0000000  1.2552000  3
    349    361    373    811     1  0.0000000  0.6508444  3
    352    348    349    361     1  180.0000771  2.0083200  2
    352    348    349    361     1  0.0000000  1.2552000  3
    352    348    355    358     1  180.0000771  2.0083200  2
    352    348    355    358     1  0.0000000  1.2552000  3
    352    364    370    782     1  0.0000000  0.6508444  3
    355    348    349    361     1  180.0000771  2.0083200  2
    355    348    349    361     1  0.0000000  1.2552000  3
    355    348    352    364     1  180.0000771  2.0083200  2
    355    348    352    364     1  0.0000000  1.2552000  3
    355    358    367    376     1  0.0000000  0.6508444  3
    361    373    811    802     1  180.0000771  0.4184000  2
    361    373    811    802     1  0.0000000  1.6024720  3
    364    370    782    773     1  180.0000771  0.4184000  2
    364    370    782    773     1  0.0000000  1.6024720  3
    370    782    773    764     1  180.0000771  0.4184000  2
    370    782    773    764     1  0.0000000  1.6024720  3
    373    811    802    793     1  180.0000771  0.4184000  2
    373    811    802    793     1  0.0000000  1.6024720  3
    377    378    390    402     1  0.0000000  0.6508444  3
    377    381    393    399     1  0.0000000  0.6508444  3
    377    384    387    396     1  0.0000000  0.6508444  3
    378    377    381    393     1  180.0000771  2.0083200  2
    378    377    381    393     1  0.0000000  1.2552000  3
    378    377    384    387     1  180.0000771  2.0083200  2
    378    377    384    387     1  0.0000000  1.2552000  3
    378    390    402    869     1  0.0000000  0.6508444  3
    381    377    378    390     1  180.0000771  2.0083200  2
    381    377    378    390     1  0.0000000  1.2552000  3
    381    377    384    387     1  180.0000771  2.0083200  2
    381    377    384    387     1  0.0000000  1.2552000  3
    381    393    399    840     1  0.0000000  0.6508444  3
    384    377    378    390     1  180.0000771  2.0083200  2
    384    377    378    390     1  0.0000000  1.2552000  3
    384    377    381    393     1  180.0000771  2.0083200  2
    384    377    381    393     1  0.0000000  1.2552000  3
    384    387    396    405     1  0.0000000  0.6508444  3
    390    402    869    860     1  180.0000771  0.4184000  2
    390    402    869    860     1  0.0000000  1.6024720  3
    393    399    840    831     1  180.0000771  0.4184000  2
    393    399    840    831     1  0.0000000  1.6024720  3
    399    840    831    822     1  180.0000771  0.4184000  2
    399    840    831    822     1  0.0000000  1.6024720  3
    402    869    860    851     1  180.0000771  0.4184000  2
    402    869    860    851     1  0.0000000  1.6024720  3
    406    407    419    431     1  0.0000000  0.6508444  3
    406    410    422    428     1  0.0000000  0.6508444  3
    406    413    416    425     1  0.0000000  0.6508444  3
    407    406    410    422     1  180.0000771  2.0083200  2
    407    406    410    422     1  0.0000000  1.2552000  3
    407    406    413    416     1  180.0000771  2.0083200  2
    407    406    413    416     1  0.0000000  1.2552000  3
    407    419    431    903     1  0.0000000  0.6508444  3
    410    406    407    419     1  180.0000771  2.0083200  2
    410    406    407    419     1  0.0000000  1.2552000  3
    410    406    413    416     1  180.0000771  2.0083200  2
    410    406    413    416     1  0.0000000  1.2552000  3
    410    422    428    880     1  0.0000000  0.6508444  3
    413    406    407    419     1  180.0000771  2.0083200  2
    413    406    407    419     1  0.0000000  1.2552000  3
    413    406    410    422     1  180.0000771  2.0083200  2
    413    406    410    422     1  0.0000000  1.2552000  3
    413    416    425    434     1  0.0000000  0.6508444  3
    419    431    903    899     1  180.0000771  0.4184000  2
    419    431    903    899     1  0.0000000  1.6024720  3
    422    428    880    876     1  180.0000771  0.4184000  2
    422    428    880    876     1  0.0000000  1.6024720  3
    428    880    876    875     1  180.0000771  0.4184000  2
    428    880    876    875     1  0.0000000  1.6024720  3
    428    880    876    892     1  180.0000771  5.6484000  1
    428    880    876    892     1  180.0000771  3.5564000  2
    428    880    876    892     1  0.0000000  0.4184000  3
    431    903    899    898     1  180.0000771  0.4184000  2
    431    903    899    898     1  0.0000000  1.6024720  3
    431    903    899    915     1  180.0000771  5.6484000  1
    431    903    899    915     1  180.0000771  3.5564000  2
    431    903    899    915     1  0.0000000  0.4184000  3
    435    436    448    460     1  0.0000000  0.6508444  3
    435    439    451    457     1  0.0000000  0.6508444  3
    435    442    445    454     1  0.0000000  0.6508444  3
    436    435    439    451     1  180.0000771  2.0083200  2
    436    435    439    451     1  0.0000000  1.2552000  3
    436    435    442    445     1  180.0000771  2.0083200  2
    436    435    442    445     1  0.0000000  1.2552000  3
    436    448    460    949     1  0.0000000  0.6508444  3
    439    435    436    448     1  180.0000771  2.0083200  2
    439    435    436    448     1  0.0000000  1.2552000  3
    439    435    442    445     1  180.0000771  2.0083200  2
    439    435    442    445     1  0.0000000  1.2552000  3
    439    451    457    926     1  0.0000000  0.6508444  3
    442    435    436    448     1  180.0000771  2.0083200  2
    442    435    436    448     1  0.0000000  1.2552000  3
    442    435    439    451     1  180.0000771  2.0083200  2
    442    435    439    451     1  0.0000000  1.2552000  3
    442    445    454    463     1  0.0000000  0.6508444  3
    448    460    949    945     1  180.0000771  0.4184000  2
    448    460    949    945     1  0.0000000  1.6024720  3
    451    457    926    922     1  180.0000771  0.4184000  2
    451    457    926    922     1  0.0000000  1.6024720  3
    457    926    922    921     1  180.0000771  0.4184000  2
    457    926    922    921     1  0.0000000  1.6024720  3
    457    926    922    938     1  180.0000771  5.6484000  1
    457    926    922    938     1  180.0000771  3.5564000  2
    457    926    922    938     1  0.0000000  0.4184000  3
    460    949    945    944     1  180.0000771  0.4184000  2
    460    949    945    944     1  0.0000000  1.6024720  3
    460    949    945    961     1  180.0000771  5.6484000  1
    460    949    945    961     1  180.0000771  3.5564000  2
    460    949    945    961     1  0.0000000  0.4184000  3
    464    465    477    489     1  0.0000000  0.6508444  3
    464    468    480    486     1  0.0000000  0.6508444  3
    464    471    474    483     1  0.0000000  0.6508444  3
    465    464    468    480     1  180.0000771  2.0083200  2
    465    464    468    480     1  0.0000000  1.2552000  3
    465    464    471    474     1  180.0000771  2.0083200  2
    465    464    471    474     1  0.0000000  1.2552000  3
    465    477    489    995     1  0.0000000  0.6508444  3
    468    464    465    477     1  180.0000771  2.0083200  2
    468    464    465    477     1  0.0000000  1.2552000  3
    468    464    471    474     1  180.0000771  2.0083200  2
    468    464    471    474     1  0.0000000  1.2552000  3
    468    480    486    972     1  0.0000000  0.6508444  3
    471    464    465    477     1  180.0000771  2.0083200  2
    471    464    465    477     1  0.0000000  1.2552000  3
    471    464    468    480     1  180.0000771  2.0083200  2
    471    464    468    480     1  0.0000000  1.2552000  3
    471    474    483    492     1  0.0000000  0.6508444  3
    477    489    995    991     1  180.0000771  0.4184000  2
    477    489    995    991     1  0.0000000  1.6024720  3
    480    486    972    968     1  180.0000771  0.4184000  2
    480    486    972    968     1  0.0000000  1.6024720  3
    486    972    968    967     1  180.0000771  0.4184000  2
    486    972    968    967     1  0.0000000  1.6024720  3
    486    972    968    984     1  180.0000771  5.6484000  1
    486    972    968    984     1  180.0000771  3.5564000  2
    486    972    968    984     1  0.0000000  0.4184000  3
    489    995    991    990     1  180.0000771  0.4184000  2
    489    995    991    990     1  0.0000000  1.6024720  3
    489    995    991   1007     1  180.0000771  5.6484000  1
    489    995    991   1007     1  180.0000771  3.5564000  2
    489    995    991   1007     1  0.0000000  0.4184000  3
    493    494    506    518     1  0.0000000  0.6508444  3
    493    497    509    515     1  0.0000000  0.6508444  3
    493    500    503    512     1  0.0000000  0.6508444  3
    494    493    497    509     1  180.0000771  2.0083200  2
    494    493    497    509     1  0.0000000  1.2552000  3
    494    493    500    503     1  180.0000771  2.0083200  2
    494    493    500    503     1  0.0000000  1.2552000  3
    494    506    518   1041     1  0.0000000  0.6508444  3
    497    493    494    506     1  180.0000771  2.0083200  2
    497    493    494    506     1  0.0000000  1.2552000  3
    497    493    500    503     1  180.0000771  2.0083200  2
    497    493    500    503     1  0.0000000  1.2552000  3
    497    509    515   1018     1  0.0000000  0.6508444  3
    500    493    494    506     1  180.0000771  2.0083200  2
    500    493    494    506     1  0.0000000  1.2552000  3
    500    493    497    509     1  180.0000771  2.0083200  2
    500    493    497    509     1  0.0000000  1.2552000  3
    500    503    512    521     1  0.0000000  0.6508444  3
    506    518   1041   1037     1  180.0000771  0.4184000  2
    506    518   1041   1037     1  0.0000000  1.6024720  3
    509    515   1018   1014     1  180.0000771  0.4184000  2
    509    515   1018   1014     1  0.0000000  1.6024720  3
    515   1018   1014   1013     1  180.0000771  0.4184000  2
    515   1018   1014   1013     1  0.0000000  1.6024720  3
    515   1018   1014   1030     1  180.0000771  5.6484000  1
    515   1018   1014   1030     1  180.0000771  3.5564000  2
    515   1018   1014   1030     1  0.0000000  0.4184000  3
    518   1041   1037   1036     1  180.0000771  0.4184000  2
    518   1041   1037   1036     1  0.0000000  1.6024720  3
    518   1041   1037   1053     1  180.0000771  5.6484000  1
    518   1041   1037   1053     1  180.0000771  3.5564000  2
    518   1041   1037   1053     1  0.0000000  0.4184000  3
    522    523    535    547     1  0.0000000  0.6508444  3
    522    526    538    544     1  0.0000000  0.6508444  3
    522    529    532    541     1  0.0000000  0.6508444  3
    523    522    526    538     1  180.0000771  2.0083200  2
    523    522    526    538     1  0.0000000  1.2552000  3
    523    522    529    532     1  180.0000771  2.0083200  2
    523    522    529    532     1  0.0000000  1.2552000  3
    523    535    547   1087     1  0.0000000  0.6508444  3
    526    522    523    535     1  180.0000771  2.0083200  2
    526    522    523    535     1  0.0000000  1.2552000  3
    526    522    529    532     1  180.0000771  2.0083200  2
    526    522    529    532     1  0.0000000  1.2552000  3
    526    538    544   1064     1  0.0000000  0.6508444  3
    529    522    523    535     1  180.0000771  2.0083200  2
    529    522    523    535     1  0.0000000  1.2552000  3
    529    522    526    538     1  180.0000771  2.0083200  2
    529    522    526    538     1  0.0000000  1.2552000  3
    529    532    541    550     1  0.0000000  0.6508444  3
    535    547   1087   1083     1  180.0000771  0.4184000  2
    535    547   1087   1083     1  0.0000000  1.6024720  3
    538    544   1064   1060     1  180.0000771  0.4184000  2
    538    544   1064   1060     1  0.0000000  1.6024720  3
    544   1064   1060   1059     1  180.0000771  0.4184000  2
    544   1064   1060   1059     1  0.0000000  1.6024720  3
    544   1064   1060   1076     1  180.0000771  5.6484000  1
    544   1064   1060   1076     1  180.0000771  3.5564000  2
    544   1064   1060   1076     1  0.0000000  0.4184000  3
    547   1087   1083   1082     1  180.0000771  0.4184000  2
    547   1087   1083   1082     1  0.0000000  1.6024720  3
    547   1087   1083   1099     1  180.0000771  5.6484000  1
    547   1087   1083   1099     1  180.0000771  3.5564000  2
    547   1087   1083   1099     1  0.0000000  0.4184000  3
    551    552    564    576     1  0.0000000  0.6508444  3
    551    555    567    573     1  0.0000000  0.6508444  3
    551    558    561    570     1  0.0000000  0.6508444  3
    552    551    555    567     1  180.0000771  2.0083200  2
    552    551    555    567     1  0.0000000  1.2552000  3
    552    551    558    561     1  180.0000771  2.0083200  2
    552    551    558    561     1  0.0000000  1.2552000  3
    552    564    576   1133     1  0.0000000  0.6508444  3
    555    551    552    564     1  180.0000771  2.0083200  2
    555    551    552    564     1  0.0000000  1.2552000  3
    555    551    558    561     1  180.0000771  2.0083200  2
    555    551    558    561     1  0.0000000  1.2552000  3
    555    567    573   1110     1  0.0000000  0.6508444  3
    558    551    552    564     1  180.0000771  2.0083200  2
    558    551    552    564     1  0.0000000  1.2552000  3
    558    551    555    567     1  180.0000771  2.0083200  2
    558    551    555    567     1  0.0000000  1.2552000  3
    558    561    570    579     1  0.0000000  0.6508444  3
    564    576   1133   1129     1  180.0000771  0.4184000  2
    564    576   1133   1129     1  0.0000000  1.6024720  3
    567    573   1110   1106     1  180.0000771  0.4184000  2
    567    573   1110   1106     1  0.0000000  1.6024720  3
    573   1110   1106   1105     1  180.0000771  0.4184000  2
    573   1110   1106   1105     1  0.0000000  1.6024720  3
    573   1110   1106   1122     1  180.0000771  5.6484000  1
    573   1110   1106   1122     1  180.0000771  3.5564000  2
    573   1110   1106   1122     1  0.0000000  0.4184000  3
    576   1133   1129   1128     1  180.0000771  0.4184000  2
    576   1133   1129   1128     1  0.0000000  1.6024720  3
    576   1133   1129   1145     1  180.0000771  5.6484000  1
    576   1133   1129   1145     1  180.0000771  3.5564000  2
    576   1133   1129   1145     1  0.0000000  0.4184000  3
    580    581    593    605     1  0.0000000  0.6508444  3
    580    584    596    602     1  0.0000000  0.6508444  3
    580    587    590    599     1  0.0000000  0.6508444  3
    581    580    584    596     1  180.0000771  2.0083200  2
    581    580    584    596     1  0.0000000  1.2552000  3
    581    580    587    590     1  180.0000771  2.0083200  2
    581    580    587    590     1  0.0000000  1.2552000  3
    581    593    605   1179     1  0.0000000  0.6508444  3
    584    580    581    593     1  180.0000771  2.0083200  2
    584    580    581    593     1  0.0000000  1.2552000  3
    584    580    587    590     1  180.0000771  2.0083200  2
    584    580    587    590     1  0.0000000  1.2552000  3
    584    596    602   1156     1  0.0000000  0.6508444  3
    587    580    581    593     1  180.0000771  2.0083200  2
    587    580    581    593     1  0.0000000  1.2552000  3
    587    580    584    596     1  180.0000771  2.0083200  2
    587    580    584    596     1  0.0000000  1.2552000  3
    587    590    599    608     1  0.0000000  0.6508444  3
    593    605   1179   1175     1  180.0000771  0.4184000  2
    593    605   1179   1175     1  0.0000000  1.6024720  3
    596    602   1156   1152     1  180.0000771  0.4184000  2
    596    602   1156   1152     1  0.0000000  1.6024720  3
    602   1156   1152   1151     1  180.0000771  0.4184000  2
    602   1156   1152   1151     1  0.0000000  1.6024720  3
    602   1156   1152   1168     1  180.0000771  5.6484000  1
    602   1156   1152   1168     1  180.0000771  3.5564000  2
    602   1156   1152   1168     1  0.0000000  0.4184000  3
    605   1179   1175   1174     1  180.0000771  0.4184000  2
    605   1179   1175   1174     1  0.0000000  1.6024720  3
    605   1179   1175   1191     1  180.0000771  5.6484000  1
    605   1179   1175   1191     1  180.0000771  3.5564000  2
    605   1179   1175   1191     1  0.0000000  0.4184000  3
    609    610    622    634     1  0.0000000  0.6508444  3
    609    613    625    631     1  0.0000000  0.6508444  3
    609    616    619    628     1  0.0000000  0.6508444  3
    610    609    613    625     1  180.0000771  2.0083200  2
    610    609    613    625     1  0.0000000  1.2552000  3
    610    609    616    619     1  180.0000771  2.0083200  2
    610    609    616    619     1  0.0000000  1.2552000  3
    610    622    634   1225     1  0.0000000  0.6508444  3
    613    609    610    622     1  180.0000771  2.0083200  2
    613    609    610    622     1  0.0000000  1.2552000  3
    613    609    616    619     1  180.0000771  2.0083200  2
    613    609    616    619     1  0.0000000  1.2552000  3
    613    625    631   1202     1  0.0000000  0.6508444  3
    616    609    610    622     1  180.0000771  2.0083200  2
    616    609    610    622     1  0.0000000  1.2552000  3
    616    609    613    625     1  180.0000771  2.0083200  2
    616    609    613    625     1  0.0000000  1.2552000  3
    616    619    628    637     1  0.0000000  0.6508444  3
    622    634   1225   1221     1  180.0000771  0.4184000  2
    622    634   1225   1221     1  0.0000000  1.6024720  3
    625    631   1202   1198     1  180.0000771  0.4184000  2
    625    631   1202   1198     1  0.0000000  1.6024720  3
    631   1202   1198   1197     1  180.0000771  0.4184000  2
    631   1202   1198   1197     1  0.0000000  1.6024720  3
    631   1202   1198   1214     1  180.0000771  5.6484000  1
    631   1202   1198   1214     1  180.0000771  3.5564000  2
    631   1202   1198   1214     1  0.0000000  0.4184000  3
    634   1225   1221   1220     1  180.0000771  0.4184000  2
    634   1225   1221   1220     1  0.0000000  1.6024720  3
    634   1225   1221   1237     1  180.0000771  5.6484000  1
    634   1225   1221   1237     1  180.0000771  3.5564000  2
    634   1225   1221   1237     1  0.0000000  0.4184000  3
    638    639    651    663     1  0.0000000  0.6508444  3
    638    642    654    660     1  0.0000000  0.6508444  3
    638    645    648    657     1  0.0000000  0.6508444  3
    639    638    642    654     1  180.0000771  2.0083200  2
    639    638    642    654     1  0.0000000  1.2552000  3
    639    638    645    648     1  180.0000771  2.0083200  2
    639    638    645    648     1  0.0000000  1.2552000  3
    639    651    663   1271     1  0.0000000  0.6508444  3
    642    638    639    651     1  180.0000771  2.0083200  2
    642    638    639    651     1  0.0000000  1.2552000  3
    642    638    645    648     1  180.0000771  2.0083200  2
    642    638    645    648     1  0.0000000  1.2552000  3
    642    654    660   1248     1  0.0000000  0.6508444  3
    645    638    639    651     1  180.0000771  2.0083200  2
    645    638    639    651     1  0.0000000  1.2552000  3
    645    638    642    654     1  180.0000771  2.0083200  2
    645    638    642    654     1  0.0000000  1.2552000  3
    645    648    657    666     1  0.0000000  0.6508444  3
    651    663   1271   1267     1  180.0000771  0.4184000  2
    651    663   1271   1267     1  0.0000000  1.6024720  3
    654    660   1248   1244     1  180.0000771  0.4184000  2
    654    660   1248   1244     1  0.0000000  1.6024720  3
    660   1248   1244   1243     1  180.0000771  0.4184000  2
    660   1248   1244   1243     1  0.0000000  1.6024720  3
    660   1248   1244   1260     1  180.0000771  5.6484000  1
    660   1248   1244   1260     1  180.0000771  3.5564000  2
    660   1248   1244   1260     1  0.0000000  0.4184000  3
    663   1271   1267   1266     1  180.0000771  0.4184000  2
    663   1271   1267   1266     1  0.0000000  1.6024720  3
    663   1271   1267   1283     1  180.0000771  5.6484000  1
    663   1271   1267   1283     1  180.0000771  3.5564000  2
    663   1271   1267   1283     1  0.0000000  0.4184000  3
    667    668    680    692     1  0.0000000  0.6508444  3
    667    671    683    689     1  0.0000000  0.6508444  3
    667    674    677    686     1  0.0000000  0.6508444  3
    668    667    671    683     1  180.0000771  2.0083200  2
    668    667    671    683     1  0.0000000  1.2552000  3
    668    667    674    677     1  180.0000771  2.0083200  2
    668    667    674    677     1  0.0000000  1.2552000  3
    668    680    692   1317     1  0.0000000  0.6508444  3
    671    667    668    680     1  180.0000771  2.0083200  2
    671    667    668    680     1  0.0000000  1.2552000  3
    671    667    674    677     1  180.0000771  2.0083200  2
    671    667    674    677     1  0.0000000  1.2552000  3
    671    683    689   1294     1  0.0000000  0.6508444  3
    674    667    668    680     1  180.0000771  2.0083200  2
    674    667    668    680     1  0.0000000  1.2552000  3
    674    667    671    683     1  180.0000771  2.0083200  2
    674    667    671    683     1  0.0000000  1.2552000  3
    674    677    686    695     1  0.0000000  0.6508444  3
    680    692   1317   1313     1  180.0000771  0.4184000  2
    680    692   1317   1313     1  0.0000000  1.6024720  3
    683    689   1294   1290     1  180.0000771  0.4184000  2
    683    689   1294   1290     1  0.0000000  1.6024720  3
    689   1294   1290   1289     1  180.0000771  0.4184000  2
    689   1294   1290   1289     1  0.0000000  1.6024720  3
    689   1294   1290   1306     1  180.0000771  5.6484000  1
    689   1294   1290   1306     1  180.0000771  3.5564000  2
    689   1294   1290   1306     1  0.0000000  0.4184000  3
    692   1317   1313   1312     1  180.0000771  0.4184000  2
    692   1317   1313   1312     1  0.0000000  1.6024720  3
    692   1317   1313   1329     1  180.0000771  5.6484000  1
    692   1317   1313   1329     1  180.0000771  3.5564000  2
    692   1317   1313   1329     1  0.0000000  0.4184000  3
    696    697    709    721     1  0.0000000  0.6508444  3
    696    700    712    718     1  0.0000000  0.6508444  3
    696    703    706    715     1  0.0000000  0.6508444  3
    697    696    700    712     1  180.0000771  2.0083200  2
    697    696    700    712     1  0.0000000  1.2552000  3
    697    696    703    706     1  180.0000771  2.0083200  2
    697    696    703    706     1  0.0000000  1.2552000  3
    697    709    721   1363     1  0.0000000  0.6508444  3
    700    696    697    709     1  180.0000771  2.0083200  2
    700    696    697    709     1  0.0000000  1.2552000  3
    700    696    703    706     1  180.0000771  2.0083200  2
    700    696    703    706     1  0.0000000  1.2552000  3
    700    712    718   1340     1  0.0000000  0.6508444  3
    703    696    697    709     1  180.0000771  2.0083200  2
    703    696    697    709     1  0.0000000  1.2552000  3
    703    696    700    712     1  180.0000771  2.0083200  2
    703    696    700    712     1  0.0000000  1.2552000  3
    703    706    715    724     1  0.0000000  0.6508444  3
    709    721   1363   1359     1  180.0000771  0.4184000  2
    709    721   1363   1359     1  0.0000000  1.6024720  3
    712    718   1340   1336     1  180.0000771  0.4184000  2
    712    718   1340   1336     1  0.0000000  1.6024720  3
    718   1340   1336   1335     1  180.0000771  0.4184000  2
    718   1340   1336   1335     1  0.0000000  1.6024720  3
    718   1340   1336   1352     1  180.0000771  5.6484000  1
    718   1340   1336   1352     1  180.0000771  3.5564000  2
    718   1340   1336   1352     1  0.0000000  0.4184000  3
    721   1363   1359   1358     1  180.0000771  0.4184000  2
    721   1363   1359   1358     1  0.0000000  1.6024720  3
    721   1363   1359   1375     1  180.0000771  5.6484000  1
    721   1363   1359   1375     1  180.0000771  3.5564000  2
    721   1363   1359   1375     1  0.0000000  0.4184000  3
    725    726    738    750     1  0.0000000  0.6508444  3
    725    729    741    747     1  0.0000000  0.6508444  3
    725    732    735    744     1  0.0000000  0.6508444  3
    726    725    729    741     1  180.0000771  2.0083200  2
    726    725    729    741     1  0.0000000  1.2552000  3
    726    725    732    735     1  180.0000771  2.0083200  2
    726    725    732    735     1  0.0000000  1.2552000  3
    726    738    750   1409     1  0.0000000  0.6508444  3
    729    725    726    738     1  180.0000771  2.0083200  2
    729    725    726    738     1  0.0000000  1.2552000  3
    729    725    732    735     1  180.0000771  2.0083200  2
    729    725    732    735     1  0.0000000  1.2552000  3
    729    741    747   1386     1  0.0000000  0.6508444  3
    732    725    726    738     1  180.0000771  2.0083200  2
    732    725    726    738     1  0.0000000  1.2552000  3
    732    725    729    741     1  180.0000771  2.0083200  2
    732    725    729    741     1  0.0000000  1.2552000  3
    732    735    744    753     1  0.0000000  0.6508444  3
    738    750   1409   1405     1  180.0000771  0.4184000  2
    738    750   1409   1405     1  0.0000000  1.6024720  3
    741    747   1386   1382     1  180.0000771  0.4184000  2
    741    747   1386   1382     1  0.0000000  1.6024720  3
    747   1386   1382   1381     1  180.0000771  0.4184000  2
    747   1386   1382   1381     1  0.0000000  1.6024720  3
    747   1386   1382   1398     1  180.0000771  5.6484000  1
    747   1386   1382   1398     1  180.0000771  3.5564000  2
    747   1386   1382   1398     1  0.0000000  0.4184000  3
    750   1409   1405   1404     1  180.0000771  0.4184000  2
    750   1409   1405   1404     1  0.0000000  1.6024720  3
    750   1409   1405   1421     1  180.0000771  5.6484000  1
    750   1409   1405   1421     1  180.0000771  3.5564000  2
    750   1409   1405   1421     1  0.0000000  0.4184000  3
    754    755    767    779     1  0.0000000  0.6508444  3
    754    758    770    776     1  0.0000000  0.6508444  3
    754    761    764    773     1  0.0000000  0.6508444  3
    755    754    758    770     1  180.0000771  2.0083200  2
    755    754    758    770     1  0.0000000  1.2552000  3
    755    754    761    764     1  180.0000771  2.0083200  2
    755    754    761    764     1  0.0000000  1.2552000  3
    755    767    779   1455     1  0.0000000  0.6508444  3
    758    754    755    767     1  180.0000771  2.0083200  2
    758    754    755    767     1  0.0000000  1.2552000  3
    758    754    761    764     1  180.0000771  2.0083200  2
    758    754    761    764     1  0.0000000  1.2552000  3
    758    770    776   1432     1  0.0000000  0.6508444  3
    761    754    755    767     1  180.0000771  2.0083200  2
    761    754    755    767     1  0.0000000  1.2552000  3
    761    754    758    770     1  180.0000771  2.0083200  2
    761    754    758    770     1  0.0000000  1.2552000  3
    761    764    773    782     1  0.0000000  0.6508444  3
    767    779   1455   1451     1  180.0000771  0.4184000  2
    767    779   1455   1451     1  0.0000000  1.6024720  3
    770    776   1432   1428     1  180.0000771  0.4184000  2
    770    776   1432   1428     1  0.0000000  1.6024720  3
    776   1432   1428   1427     1  180.0000771  0.4184000  2
    776   1432   1428   1427     1  0.0000000  1.6024720  3
    776   1432   1428   1444     1  180.0000771  5.6484000  1
    776   1432   1428   1444     1  180.0000771  3.5564000  2
    776   1432   1428   1444     1  0.0000000  0.4184000  3
    779   1455   1451   1450     1  180.0000771  0.4184000  2
    779   1455   1451   1450     1  0.0000000  1.6024720  3
    779   1455   1451   1467     1  180.0000771  5.6484000  1
    779   1455   1451   1467     1  180.0000771  3.5564000  2
    779   1455   1451   1467     1  0.0000000  0.4184000  3
    783    784    796    808     1  0.0000000  0.6508444  3
    783    787    799    805     1  0.0000000  0.6508444  3
    783    790    793    802     1  0.0000000  0.6508444  3
    784    783    787    799     1  180.0000771  2.0083200  2
    784    783    787    799     1  0.0000000  1.2552000  3
    784    783    790    793     1  180.0000771  2.0083200  2
    784    783    790    793     1  0.0000000  1.2552000  3
    784    796    808   1501     1  0.0000000  0.6508444  3
    787    783    784    796     1  180.0000771  2.0083200  2
    787    783    784    796     1  0.0000000  1.2552000  3
    787    783    790    793     1  180.0000771  2.0083200  2
    787    783    790    793     1  0.0000000  1.2552000  3
    787    799    805   1478     1  0.0000000  0.6508444  3
    790    783    784    796     1  180.0000771  2.0083200  2
    790    783    784    796     1  0.0000000  1.2552000  3
    790    783    787    799     1  180.0000771  2.0083200  2
    790    783    787    799     1  0.0000000  1.2552000  3
    790    793    802    811     1  0.0000000  0.6508444  3
    796    808   1501   1497     1  180.0000771  0.4184000  2
    796    808   1501   1497     1  0.0000000  1.6024720  3
    799    805   1478   1474     1  180.0000771  0.4184000  2
    799    805   1478   1474     1  0.0000000  1.6024720  3
    805   1478   1474   1473     1  180.0000771  0.4184000  2
    805   1478   1474   1473     1  0.0000000  1.6024720  3
    805   1478   1474   1490     1  180.0000771  5.6484000  1
    805   1478   1474   1490     1  180.0000771  3.5564000  2
    805   1478   1474   1490     1  0.0000000  0.4184000  3
    808   1501   1497   1496     1  180.0000771  0.4184000  2
    808   1501   1497   1496     1  0.0000000  1.6024720  3
    808   1501   1497   1513     1  180.0000771  5.6484000  1
    808   1501   1497   1513     1  180.0000771  3.5564000  2
    808   1501   1497   1513     1  0.0000000  0.4184000  3
    812    813    825    837     1  0.0000000  0.6508444  3
    812    816    828    834     1  0.0000000  0.6508444  3
    812    819    822    831     1  0.0000000  0.6508444  3
    813    812    816    828     1  180.0000771  2.0083200  2
    813    812    816    828     1  0.0000000  1.2552000  3
    813    812    819    822     1  180.0000771  2.0083200  2
    813    812    819    822     1  0.0000000  1.2552000  3
    813    825    837   1547     1  0.0000000  0.6508444  3
    816    812    813    825     1  180.0000771  2.0083200  2
    816    812    813    825     1  0.0000000  1.2552000  3
    816    812    819    822     1  180.0000771  2.0083200  2
    816    812    819    822     1  0.0000000  1.2552000  3
    816    828    834   1524     1  0.0000000  0.6508444  3
    819    812    813    825     1  180.0000771  2.0083200  2
    819    812    813    825     1  0.0000000  1.2552000  3
    819    812    816    828     1  180.0000771  2.0083200  2
    819    812    816    828     1  0.0000000  1.2552000  3
    819    822    831    840     1  0.0000000  0.6508444  3
    825    837   1547   1543     1  180.0000771  0.4184000  2
    825    837   1547   1543     1  0.0000000  1.6024720  3
    828    834   1524   1520     1  180.0000771  0.4184000  2
    828    834   1524   1520     1  0.0000000  1.6024720  3
    834   1524   1520   1519     1  180.0000771  0.4184000  2
    834   1524   1520   1519     1  0.0000000  1.6024720  3
    834   1524   1520   1536     1  180.0000771  5.6484000  1
    834   1524   1520   1536     1  180.0000771  3.5564000  2
    834   1524   1520   1536     1  0.0000000  0.4184000  3
    837   1547   1543   1542     1  180.0000771  0.4184000  2
    837   1547   1543   1542     1  0.0000000  1.6024720  3
    837   1547   1543   1559     1  180.0000771  5.6484000  1
    837   1547   1543   1559     1  180.0000771  3.5564000  2
    837   1547   1543   1559     1  0.0000000  0.4184000  3
    841    842    854    866     1  0.0000000  0.6508444  3
    841    845    857    863     1  0.0000000  0.6508444  3
    841    848    851    860     1  0.0000000  0.6508444  3
    842    841    845    857     1  180.0000771  2.0083200  2
    842    841    845    857     1  0.0000000  1.2552000  3
    842    841    848    851     1  180.0000771  2.0083200  2
    842    841    848    851     1  0.0000000  1.2552000  3
    842    854    866   1593     1  0.0000000  0.6508444  3
    845    841    842    854     1  180.0000771  2.0083200  2
    845    841    842    854     1  0.0000000  1.2552000  3
    845    841    848    851     1  180.0000771  2.0083200  2
    845    841    848    851     1  0.0000000  1.2552000  3
    845    857    863   1570     1  0.0000000  0.6508444  3
    848    841    842    854     1  180.0000771  2.0083200  2
    848    841    842    854     1  0.0000000  1.2552000  3
    848    841    845    857     1  180.0000771  2.0083200  2
    848    841    845    857     1  0.0000000  1.2552000  3
    848    851    860    869     1  0.0000000  0.6508444  3
    854    866   1593   1589     1  180.0000771  0.4184000  2
    854    866   1593   1589     1  0.0000000  1.6024720  3
    857    863   1570   1566     1  180.0000771  0.4184000  2
    857    863   1570   1566     1  0.0000000  1.6024720  3
    863   1570   1566   1565     1  180.0000771  0.4184000  2
    863   1570   1566   1565     1  0.0000000  1.6024720  3
    863   1570   1566   1582     1  180.0000771  5.6484000  1
    863   1570   1566   1582     1  180.0000771  3.5564000  2
    863   1570   1566   1582     1  0.0000000  0.4184000  3
    866   1593   1589   1588     1  180.0000771  0.4184000  2
    866   1593   1589   1588     1  0.0000000  1.6024720  3
    866   1593   1589   1605     1  180.0000771  5.6484000  1
    866   1593   1589   1605     1  180.0000771  3.5564000  2
    866   1593   1589   1605     1  0.0000000  0.4184000  3
    870    871    874    875     1  180.0000771  0.8368000  1
    870    871    874    875     1  180.0000771  1.0460000  2
    870    871    874    875     1  0.0000000  0.7531200  3
    870    871    874    882     1  0.0000000  0.6508444  3
    870    892    876    875     1  180.0000771  0.4184000  2
    870    892    876    875     1  0.0000000  1.6024720  3
    870    892    876    880     1  180.0000771  5.6484000  1
    870    892    876    880     1  180.0000771  3.5564000  2
    870    892    876    880     1  0.0000000  0.4184000  3
    871    870    884    890     1  0.0000000  0.6508444  3
    871    870    892    876     1  180.0000771  0.4184000  2
    871    870    892    876     1  0.0000000  1.6024720  3
    871    874    875    876     1  180.0000771  0.8368000  1
    871    874    875    876     1  180.0000771  1.0460000  2
    871    874    875    876     1  0.0000000  0.7531200  3
    871    874    875    881     1  0.0000000  0.6508444  3
    874    871    870    884     1  180.0000771  0.8368000  1
    874    871    870    884     1  180.0000771  1.0460000  2
    874    871    870    884     1  0.0000000  0.7531200  3
    874    871    870    892     1  0.0000000  0.6508444  3
    874    875    876    880     1  0.0000000  0.6508444  3
    874    875    876    892     1  0.0000000  0.6508444  3
    875    874    871    883     1  0.0000000  0.6508444  3
    876    875    874    882     1  0.0000000  0.6508444  3
    876    892    870    884     1  180.0000771  0.4184000  2
    876    892    870    884     1  0.0000000  1.6024720  3
    880    876    875    881     1  0.0000000  4.9162000  2
    880    876    875    881     1  0.0000000  0.6024960  3
    881    875    874    882     1  0.0000000  4.9162000  2
    881    875    874    882     1  0.0000000  0.6024960  3
    881    875    876    892     1  0.0000000  4.9162000  2
    881    875    876    892     1  0.0000000  0.6024960  3
    882    874    871    883     1  0.0000000  4.9162000  2
    882    874    871    883     1  0.0000000  0.6024960  3
    883    871    870    884     1  0.0000000  0.6508444  3
    883    871    870    892     1  0.0000000  4.9162000  2
    883    871    870    892     1  0.0000000  0.6024960  3
    890    884    870    892     1  0.0000000  4.9162000  2
    890    884    870    892     1  0.0000000  0.6024960  3
    893    894    897    898     1  180.0000771  0.8368000  1
    893    894    897    898     1  180.0000771  1.0460000  2
    893    894    897    898     1  0.0000000  0.7531200  3
    893    894    897    905     1  0.0000000  0.6508444  3
    893    915    899    898     1  180.0000771  0.4184000  2
    893    915    899    898     1  0.0000000  1.6024720  3
    893    915    899    903     1  180.0000771  5.6484000  1
    893    915    899    903     1  180.0000771  3.5564000  2
    893    915    899    903     1  0.0000000  0.4184000  3
    894    893    907    913     1  0.0000000  0.6508444  3
    894    893    915    899     1  180.0000771  0.4184000  2
    894    893    915    899     1  0.0000000  1.6024720  3
    894    897    898    899     1  180.0000771  0.8368000  1
    894    897    898    899     1  180.0000771  1.0460000  2
    894    897    898    899     1  0.0000000  0.7531200  3
    894    897    898    904     1  0.0000000  0.6508444  3
    897    894    893    907     1  180.0000771  0.8368000  1
    897    894    893    907     1  180.0000771  1.0460000  2
    897    894    893    907     1  0.0000000  0.7531200  3
    897    894    893    915     1  0.0000000  0.6508444  3
    897    898    899    903     1  0.0000000  0.6508444  3
    897    898    899    915     1  0.0000000  0.6508444  3
    898    897    894    906     1  0.0000000  0.6508444  3
    899    898    897    905     1  0.0000000  0.6508444  3
    899    915    893    907     1  180.0000771  0.4184000  2
    899    915    893    907     1  0.0000000  1.6024720  3
    903    899    898    904     1  0.0000000  4.9162000  2
    903    899    898    904     1  0.0000000  0.6024960  3
    904    898    897    905     1  0.0000000  4.9162000  2
    904    898    897    905     1  0.0000000  0.6024960  3
    904    898    899    915     1  0.0000000  4.9162000  2
    904    898    899    915     1  0.0000000  0.6024960  3
    905    897    894    906     1  0.0000000  4.9162000  2
    905    897    894    906     1  0.0000000  0.6024960  3
    906    894    893    907     1  0.0000000  0.6508444  3
    906    894    893    915     1  0.0000000  4.9162000  2
    906    894    893    915     1  0.0000000  0.6024960  3
    913    907    893    915     1  0.0000000  4.9162000  2
    913    907    893    915     1  0.0000000  0.6024960  3
    916    917    920    921     1  180.0000771  0.8368000  1
    916    917    920    921     1  180.0000771  1.0460000  2
    916    917    920    921     1  0.0000000  0.7531200  3
    916    917    920    928     1  0.0000000  0.6508444  3
    916    938    922    921     1  180.0000771  0.4184000  2
    916    938    922    921     1  0.0000000  1.6024720  3
    916    938    922    926     1  180.0000771  5.6484000  1
    916    938    922    926     1  180.0000771  3.5564000  2
    916    938    922    926     1  0.0000000  0.4184000  3
    917    916    930    936     1  0.0000000  0.6508444  3
    917    916    938    922     1  180.0000771  0.4184000  2
    917    916    938    922     1  0.0000000  1.6024720  3
    917    920    921    922     1  180.0000771  0.8368000  1
    917    920    921    922     1  180.0000771  1.0460000  2
    917    920    921    922     1  0.0000000  0.7531200  3
    917    920    921    927     1  0.0000000  0.6508444  3
    920    917    916    930     1  180.0000771  0.8368000  1
    920    917    916    930     1  180.0000771  1.0460000  2
    920    917    916    930     1  0.0000000  0.7531200  3
    920    917    916    938     1  0.0000000  0.6508444  3
    920    921    922    926     1  0.0000000  0.6508444  3
    920    921    922    938     1  0.0000000  0.6508444  3
    921    920    917    929     1  0.0000000  0.6508444  3
    922    921    920    928     1  0.0000000  0.6508444  3
    922    938    916    930     1  180.0000771  0.4184000  2
    922    938    916    930     1  0.0000000  1.6024720  3
    926    922    921    927     1  0.0000000  4.9162000  2
    926    922    921    927     1  0.0000000  0.6024960  3
    927    921    920    928     1  0.0000000  4.9162000  2
    927    921    920    928     1  0.0000000  0.6024960  3
    927    921    922    938     1  0.0000000  4.9162000  2
    927    921    922    938     1  0.0000000  0.6024960  3
    928    920    917    929     1  0.0000000  4.9162000  2
    928    920    917    929     1  0.0000000  0.6024960  3
    929    917    916    930     1  0.0000000  0.6508444  3
    929    917    916    938     1  0.0000000  4.9162000  2
    929    917    916    938     1  0.0000000  0.6024960  3
    936    930    916    938     1  0.0000000  4.9162000  2
    936    930    916    938     1  0.0000000  0.6024960  3
    939    940    943    944     1  180.0000771  0.8368000  1
    939    940    943    944     1  180.0000771  1.0460000  2
    939    940    943    944     1  0.0000000  0.7531200  3
    939    940    943    951     1  0.0000000  0.6508444  3
    939    961    945    944     1  180.0000771  0.4184000  2
    939    961    945    944     1  0.0000000  1.6024720  3
    939    961    945    949     1  180.0000771  5.6484000  1
    939    961    945    949     1  180.0000771  3.5564000  2
    939    961    945    949     1  0.0000000  0.4184000  3
    940    939    953    959     1  0.0000000  0.6508444  3
    940    939    961    945     1  180.0000771  0.4184000  2
    940    939    961    945     1  0.0000000  1.6024720  3
    940    943    944    945     1  180.0000771  0.8368000  1
    940    943    944    945     1  180.0000771  1.0460000  2
    940    943    944    945     1  0.0000000  0.7531200  3
    940    943    944    950     1  0.0000000  0.6508444  3
    943    940    939    953     1  180.0000771  0.8368000  1
    943    940    939    953     1  180.0000771  1.0460000  2
    943    940    939    953     1  0.0000000  0.7531200  3
    943    940    939    961     1  0.0000000  0.6508444  3
    943    944    945    949     1  0.0000000  0.6508444  3
    943    944    945    961     1  0.0000000  0.6508444  3
    944    943    940    952     1  0.0000000  0.6508444  3
    945    944    943    951     1  0.0000000  0.6508444  3
    945    961    939    953     1  180.0000771  0.4184000  2
    945    961    939    953     1  0.0000000  1.6024720  3
    949    945    944    950     1  0.0000000  4.9162000  2
    949    945    944    950     1  0.0000000  0.6024960  3
    950    944    943    951     1  0.0000000  4.9162000  2
    950    944    943    951     1  0.0000000  0.6024960  3
    950    944    945    961     1  0.0000000  4.9162000  2
    950    944    945    961     1  0.0000000  0.6024960  3
    951    943    940    952     1  0.0000000  4.9162000  2
    951    943    940    952     1  0.0000000  0.6024960  3
    952    940    939    953     1  0.0000000  0.6508444  3
    952    940    939    961     1  0.0000000  4.9162000  2
    952    940    939    961     1  0.0000000  0.6024960  3
    959    953    939    961     1  0.0000000  4.9162000  2
    959    953    939    961     1  0.0000000  0.6024960  3
    962    963    966    967     1  180.0000771  0.8368000  1
    962    963    966    967     1  180.0000771  1.0460000  2
    962    963    966    967     1  0.0000000  0.7531200  3
    962    963    966    974     1  0.0000000  0.6508444  3
    962    984    968    967     1  180.0000771  0.4184000  2
    962    984    968    967     1  0.0000000  1.6024720  3
    962    984    968    972     1  180.0000771  5.6484000  1
    962    984    968    972     1  180.0000771  3.5564000  2
    962    984    968    972     1  0.0000000  0.4184000  3
    963    962    976    982     1  0.0000000  0.6508444  3
    963    962    984    968     1  180.0000771  0.4184000  2
    963    962    984    968     1  0.0000000  1.6024720  3
    963    966    967    968     1  180.0000771  0.8368000  1
    963    966    967    968     1  180.0000771  1.0460000  2
    963    966    967    968     1  0.0000000  0.7531200  3
    963    966    967    973     1  0.0000000  0.6508444  3
    966    963    962    976     1  180.0000771  0.8368000  1
    966    963    962    976     1  180.0000771  1.0460000  2
    966    963    962    976     1  0.0000000  0.7531200  3
    966    963    962    984     1  0.0000000  0.6508444  3
    966    967    968    972     1  0.0000000  0.6508444  3
    966    967    968    984     1  0.0000000  0.6508444  3
    967    966    963    975     1  0.0000000  0.6508444  3
    968    967    966    974     1  0.0000000  0.6508444  3
    968    984    962    976     1  180.0000771  0.4184000  2
    968    984    962    976     1  0.0000000  1.6024720  3
    972    968    967    973     1  0.0000000  4.9162000  2
    972    968    967    973     1  0.0000000  0.6024960  3
    973    967    966    974     1  0.0000000  4.9162000  2
    973    967    966    974     1  0.0000000  0.6024960  3
    973    967    968    984     1  0.0000000  4.9162000  2
    973    967    968    984     1  0.0000000  0.6024960  3
    974    966    963    975     1  0.0000000  4.9162000  2
    974    966    963    975     1  0.0000000  0.6024960  3
    975    963    962    976     1  0.0000000  0.6508444  3
    975    963    962    984     1  0.0000000  4.9162000  2
    975    963    962    984     1  0.0000000  0.6024960  3
    982    976    962    984     1  0.0000000  4.9162000  2
    982    976    962    984     1  0.0000000  0.6024960  3
    985    986    989    990     1  180.0000771  0.8368000  1
    985    986    989    990     1  180.0000771  1.0460000  2
    985    986    989    990     1  0.0000000  0.7531200  3
    985    986    989    997     1  0.0000000  0.6508444  3
    985   1007    991    990     1  180.0000771  0.4184000  2
    985   1007    991    990     1  0.0000000  1.6024720  3
    985   1007    991    995     1  180.0000771  5.6484000  1
    985   1007    991    995     1  180.0000771  3.5564000  2
    985   1007    991    995     1  0.0000000  0.4184000  3
    986    985    999   1005     1  0.0000000  0.6508444  3
    986    985   1007    991     1  180.0000771  0.4184000  2
    986    985   1007    991     1  0.0000000  1.6024720  3
    986    989    990    991     1  180.0000771  0.8368000  1
    986    989    990    991     1  180.0000771  1.0460000  2
    986    989    990    991     1  0.0000000  0.7531200  3
    986    989    990    996     1  0.0000000  0.6508444  3
    989    986    985    999     1  180.0000771  0.8368000  1
    989    986    985    999     1  180.0000771  1.0460000  2
    989    986    985    999     1  0.0000000  0.7531200  3
    989    986    985   1007     1  0.0000000  0.6508444  3
    989    990    991    995     1  0.0000000  0.6508444  3
    989    990    991   1007     1  0.0000000  0.6508444  3
    990    989    986    998     1  0.0000000  0.6508444  3
    991    990    989    997     1  0.0000000  0.6508444  3
    991   1007    985    999     1  180.0000771  0.4184000  2
    991   1007    985    999     1  0.0000000  1.6024720  3
    995    991    990    996     1  0.0000000  4.9162000  2
    995    991    990    996     1  0.0000000  0.6024960  3
    996    990    989    997     1  0.0000000  4.9162000  2
    996    990    989    997     1  0.0000000  0.6024960  3
    996    990    991   1007     1  0.0000000  4.9162000  2
    996    990    991   1007     1  0.0000000  0.6024960  3
    997    989    986    998     1  0.0000000  4.9162000  2
    997    989    986    998     1  0.0000000  0.6024960  3
    998    986    985    999     1  0.0000000  0.6508444  3
    998    986    985   1007     1  0.0000000  4.9162000  2
    998    986    985   1007     1  0.0000000  0.6024960  3
   1005    999    985   1007     1  0.0000000  4.9162000  2
   1005    999    985   1007     1  0.0000000  0.6024960  3
   1008   1009   1012   1013     1  180.0000771  0.8368000  1
   1008   1009   1012   1013     1  180.0000771  1.0460000  2
   1008   1009   1012   1013     1  0.0000000  0.7531200  3
   1008   1009   1012   1020     1  0.0000000  0.6508444  3
   1008   1030   1014   1013     1  180.0000771  0.4184000  2
   1008   1030   1014   1013     1  0.0000000  1.6024720  3
   1008   1030   1014   1018     1  180.0000771  5.6484000  1
   1008   1030   1014   1018     1  180.0000771  3.5564000  2
   1008   1030   1014   1018     1  0.0000000  0.4184000  3
   1009   1008   1022   1028     1  0.0000000  0.6508444  3
   1009   1008   1030   1014     1  180.0000771  0.4184000  2
   1009   1008   1030   1014     1  0.0000000  1.6024720  3
   1009   1012   1013   1014     1  180.0000771  0.8368000  1
   1009   1012   1013   1014     1  180.0000771  1.0460000  2
   1009   1012   1013   1014     1  0.0000000  0.7531200  3
   1009   1012   1013   1019     1  0.0000000  0.6508444  3
   1012   1009   1008   1022     1  180.0000771  0.8368000  1
   1012   1009   1008   1022     1  180.0000771  1.0460000  2
   1012   1009   1008   1022     1  0.0000000  0.7531200  3
   1012   1009   1008   1030     1  0.0000000  0.6508444  3
   1012   1013   1014   1018     1  0.0000000  0.6508444  3
   1012   1013   1014   1030     1  0.0000000  0.6508444  3
   1013   1012   1009   1021     1  0.0000000  0.6508444  3
   1014   1013   1012   1020     1  0.0000000  0.6508444  3
   1014   1030   1008   1022     1  180.0000771  0.4184000  2
   1014   1030   1008   1022     1  0.0000000  1.6024720  3
   1018   1014   1013   1019     1  0.0000000  4.9162000  2
   1018   1014   1013   1019     1  0.0000000  0.6024960  3
   1019   1013   1012   1020     1  0.0000000  4.9162000  2
   1019   1013   1012   1020     1  0.0000000  0.6024960  3
   1019   1013   1014   1030     1  0.0000000  4.9162000  2
   1019   1013   1014   1030     1  0.0000000  0.6024960  3
   1020   1012   1009   1021     1  0.0000000  4.9162000  2
   1020   1012   1009   1021     1  0.0000000  0.6024960  3
   1021   1009   1008   1022     1  0.0000000  0.6508444  3
   1021   1009   1008   1030     1  0.0000000  4.9162000  2
   1021   1009   1008   1030     1  0.0000000  0.6024960  3
   1028   1022   1008   1030     1  0.0000000  4.9162000  2
   1028   1022   1008   1030     1  0.0000000  0.6024960  3
   1031   1032   1035   1036     1  180.0000771  0.8368000  1
   1031   1032   1035   1036     1  180.0000771  1.0460000  2
   1031   1032   1035   1036     1  0.0000000  0.7531200  3
   1031   1032   1035   1043     1  0.0000000  0.6508444  3
   1031   1053   1037   1036     1  180.0000771  0.4184000  2
   1031   1053   1037   1036     1  0.0000000  1.6024720  3
   1031   1053   1037   1041     1  180.0000771  5.6484000  1
   1031   1053   1037   1041     1  180.0000771  3.5564000  2
   1031   1053   1037   1041     1  0.0000000  0.4184000  3
   1032   1031   1045   1051     1  0.0000000  0.6508444  3
   1032   1031   1053   1037     1  180.0000771  0.4184000  2
   1032   1031   1053   1037     1  0.0000000  1.6024720  3
   1032   1035   1036   1037     1  180.0000771  0.8368000  1
   1032   1035   1036   1037     1  180.0000771  1.0460000  2
   1032   1035   1036   1037     1  0.0000000  0.7531200  3
   1032   1035   1036   1042     1  0.0000000  0.6508444  3
   1035   1032   1031   1045     1  180.0000771  0.8368000  1
   1035   1032   1031   1045     1  180.0000771  1.0460000  2
   1035   1032   1031   1045     1  0.0000000  0.7531200  3
   1035   1032   1031   1053     1  0.0000000  0.6508444  3
   1035   1036   1037   1041     1  0.0000000  0.6508444  3
   1035   1036   1037   1053     1  0.0000000  0.6508444  3
   1036   1035   1032   1044     1  0.0000000  0.6508444  3
   1037   1036   1035   1043     1  0.0000000  0.6508444  3
   1037   1053   1031   1045     1  180.0000771  0.4184000  2
   1037   1053   1031   1045     1  0.0000000  1.6024720  3
   1041   1037   1036   1042     1  0.0000000  4.9162000  2
   1041   1037   1036   1042     1  0.0000000  0.6024960  3
   1042   1036   1035   1043     1  0.0000000  4.9162000  2
   1042   1036   1035   1043     1  0.0000000  0.6024960  3
   1042   1036   1037   1053     1  0.0000000  4.9162000  2
   1042   1036   1037   1053     1  0.0000000  0.6024960  3
   1043   1035   1032   1044     1  0.0000000  4.9162000  2
   1043   1035   1032   1044     1  0.0000000  0.6024960  3
   1044   1032   1031   1045     1  0.0000000  0.6508444  3
   1044   1032   1031   1053     1  0.0000000  4.9162000  2
   1044   1032   1031   1053     1  0.0000000  0.6024960  3
   1051   1045   1031   1053     1  0.0000000  4.9162000  2
   1051   1045   1031   1053     1  0.0000000  0.6024960  3
   1054   1055   1058   1059     1  180.0000771  0.8368000  1
   1054   1055   1058   1059     1  180.0000771  1.0460000  2
   1054   1055   1058   1059     1  0.0000000  0.7531200  3
   1054   1055   1058   1066     1  0.0000000  0.6508444  3
   1054   1076   1060   1059     1  180.0000771  0.4184000  2
   1054   1076   1060   1059     1  0.0000000  1.6024720  3
   1054   1076   1060   1064     1  180.0000771  5.6484000  1
   1054   1076   1060   1064     1  180.0000771  3.5564000  2
   1054   1076   1060   1064     1  0.0000000  0.4184000  3
   1055   1054   1068   1074     1  0.0000000  0.6508444  3
   1055   1054   1076   1060     1  180.0000771  0.4184000  2
   1055   1054   1076   1060     1  0.0000000  1.6024720  3
   1055   1058   1059   1060     1  180.0000771  0.8368000  1
   1055   1058   1059   1060     1  180.0000771  1.0460000  2
   1055   1058   1059   1060     1  0.0000000  0.7531200  3
   1055   1058   1059   1065     1  0.0000000  0.6508444  3
   1058   1055   1054   1068     1  180.0000771  0.8368000  1
   1058   1055   1054   1068     1  180.0000771  1.0460000  2
   1058   1055   1054   1068     1  0.0000000  0.7531200  3
   1058   1055   1054   1076     1  0.0000000  0.6508444  3
   1058   1059   1060   1064     1  0.0000000  0.6508444  3
   1058   1059   1060   1076     1  0.0000000  0.6508444  3
   1059   1058   1055   1067     1  0.0000000  0.6508444  3
   1060   1059   1058   1066     1  0.0000000  0.6508444  3
   1060   1076   1054   1068     1  180.0000771  0.4184000  2
   1060   1076   1054   1068     1  0.0000000  1.6024720  3
   1064   1060   1059   1065     1  0.0000000  4.9162000  2
   1064   1060   1059   1065     1  0.0000000  0.6024960  3
   1065   1059   1058   1066     1  0.0000000  4.9162000  2
   1065   1059   1058   1066     1  0.0000000  0.6024960  3
   1065   1059   1060   1076     1  0.0000000  4.9162000  2
   1065   1059   1060   1076     1  0.0000000  0.6024960  3
   1066   1058   1055   1067     1  0.0000000  4.9162000  2
   1066   1058   1055   1067     1  0.0000000  0.6024960  3
   1067   1055   1054   1068     1  0.0000000  0.6508444  3
   1067   1055   1054   1076     1  0.0000000  4.9162000  2
   1067   1055   1054   1076     1  0.0000000  0.6024960  3
   1074   1068   1054   1076     1  0.0000000  4.9162000  2
   1074   1068   1054   1076     1  0.0000000  0.6024960  3
   1077   1078   1081   1082     1  180.0000771  0.8368000  1
   1077   1078   1081   1082     1  180.0000771  1.0460000  2
   1077   1078   1081   1082     1  0.0000000  0.7531200  3
   1077   1078   1081   1089     1  0.0000000  0.6508444  3
   1077   1099   1083   1082     1  180.0000771  0.4184000  2
   1077   1099   1083   1082     1  0.0000000  1.6024720  3
   1077   1099   1083   1087     1  180.0000771  5.6484000  1
   1077   1099   1083   1087     1  180.0000771  3.5564000  2
   1077   1099   1083   1087     1  0.0000000  0.4184000  3
   1078   1077   1091   1097     1  0.0000000  0.6508444  3
   1078   1077   1099   1083     1  180.0000771  0.4184000  2
   1078   1077   1099   1083     1  0.0000000  1.6024720  3
   1078   1081   1082   1083     1  180.0000771  0.8368000  1
   1078   1081   1082   1083     1  180.0000771  1.0460000  2
   1078   1081   1082   1083     1  0.0000000  0.7531200  3
   1078   1081   1082   1088     1  0.0000000  0.6508444  3
   1081   1078   1077   1091     1  180.0000771  0.8368000  1
   1081   1078   1077   1091     1  180.0000771  1.0460000  2
   1081   1078   1077   1091     1  0.0000000  0.7531200  3
   1081   1078   1077   1099     1  0.0000000  0.6508444  3
   1081   1082   1083   1087     1  0.0000000  0.6508444  3
   1081   1082   1083   1099     1  0.0000000  0.6508444  3
   1082   1081   1078   1090     1  0.0000000  0.6508444  3
   1083   1082   1081   1089     1  0.0000000  0.6508444  3
   1083   1099   1077   1091     1  180.0000771  0.4184000  2
   1083   1099   1077   1091     1  0.0000000  1.6024720  3
   1087   1083   1082   1088     1  0.0000000  4.9162000  2
   1087   1083   1082   1088     1  0.0000000  0.6024960  3
   1088   1082   1081   1089     1  0.0000000  4.9162000  2
   1088   1082   1081   1089     1  0.0000000  0.6024960  3
   1088   1082   1083   1099     1  0.0000000  4.9162000  2
   1088   1082   1083   1099     1  0.0000000  0.6024960  3
   1089   1081   1078   1090     1  0.0000000  4.9162000  2
   1089   1081   1078   1090     1  0.0000000  0.6024960  3
   1090   1078   1077   1091     1  0.0000000  0.6508444  3
   1090   1078   1077   1099     1  0.0000000  4.9162000  2
   1090   1078   1077   1099     1  0.0000000  0.6024960  3
   1097   1091   1077   1099     1  0.0000000  4.9162000  2
   1097   1091   1077   1099     1  0.0000000  0.6024960  3
   1100   1101   1104   1105     1  180.0000771  0.8368000  1
   1100   1101   1104   1105     1  180.0000771  1.0460000  2
   1100   1101   1104   1105     1  0.0000000  0.7531200  3
   1100   1101   1104   1112     1  0.0000000  0.6508444  3
   1100   1122   1106   1105     1  180.0000771  0.4184000  2
   1100   1122   1106   1105     1  0.0000000  1.6024720  3
   1100   1122   1106   1110     1  180.0000771  5.6484000  1
   1100   1122   1106   1110     1  180.0000771  3.5564000  2
   1100   1122   1106   1110     1  0.0000000  0.4184000  3
   1101   1100   1114   1120     1  0.0000000  0.6508444  3
   1101   1100   1122   1106     1  180.0000771  0.4184000  2
   1101   1100   1122   1106     1  0.0000000  1.6024720  3
   1101   1104   1105   1106     1  180.0000771  0.8368000  1
   1101   1104   1105   1106     1  180.0000771  1.0460000  2
   1101   1104   1105   1106     1  0.0000000  0.7531200  3
   1101   1104   1105   1111     1  0.0000000  0.6508444  3
   1104   1101   1100   1114     1  180.0000771  0.8368000  1
   1104   1101   1100   1114     1  180.0000771  1.0460000  2
   1104   1101   1100   1114     1  0.0000000  0.7531200  3
   1104   1101   1100   1122     1  0.0000000  0.6508444  3
   1104   1105   1106   1110     1  0.0000000  0.6508444  3
   1104   1105   1106   1122     1  0.0000000  0.6508444  3
   1105   1104   1101   1113     1  0.0000000  0.6508444  3
   1106   1105   1104   1112     1  0.0000000  0.6508444  3
   1106   1122   1100   1114     1  180.0000771  0.4184000  2
   1106   1122   1100   1114     1  0.0000000  1.6024720  3
   1110   1106   1105   1111     1  0.0000000  4.9162000  2
   1110   1106   1105   1111     1  0.0000000  0.6024960  3
   1111   1105   1104   1112     1  0.0000000  4.9162000  2
   1111   1105   1104   1112     1  0.0000000  0.6024960  3
   1111   1105   1106   1122     1  0.0000000  4.9162000  2
   1111   1105   1106   1122     1  0.0000000  0.6024960  3
   1112   1104   1101   1113     1  0.0000000  4.9162000  2
   1112   1104   1101   1113     1  0.0000000  0.6024960  3
   1113   1101   1100   1114     1  0.0000000  0.6508444  3
   1113   1101   1100   1122     1  0.0000000  4.9162000  2
   1113   1101   1100   1122     1  0.0000000  0.6024960  3
   1120   1114   1100   1122     1  0.0000000  4.9162000  2
   1120   1114   1100   1122     1  0.0000000  0.6024960  3
   1123   1124   1127   1128     1  180.0000771  0.8368000  1
   1123   1124   1127   1128     1  180.0000771  1.0460000  2
   1123   1124   1127   1128     1  0.0000000  0.7531200  3
   1123   1124   1127   1135     1  0.0000000  0.6508444  3
   1123   1145   1129   1128     1  180.0000771  0.4184000  2
   1123   1145   1129   1128     1  0.0000000  1.6024720  3
   1123   1145   1129   1133     1  180.0000771  5.6484000  1
   1123   1145   1129   1133     1  180.0000771  3.5564000  2
   1123   1145   1129   1133     1  0.0000000  0.4184000  3
   1124   1123   1137   1143     1  0.0000000  0.6508444  3
   1124   1123   1145   1129     1  180.0000771  0.4184000  2
   1124   1123   1145   1129     1  0.0000000  1.6024720  3
   1124   1127   1128   1129     1  180.0000771  0.8368000  1
   1124   1127   1128   1129     1  180.0000771  1.0460000  2
   1124   1127   1128   1129     1  0.0000000  0.7531200  3
   1124   1127   1128   1134     1  0.0000000  0.6508444  3
   1127   1124   1123   1137     1  180.0000771  0.8368000  1
   1127   1124   1123   1137     1  180.0000771  1.0460000  2
   1127   1124   1123   1137     1  0.0000000  0.7531200  3
   1127   1124   1123   1145     1  0.0000000  0.6508444  3
   1127   1128   1129   1133     1  0.0000000  0.6508444  3
   1127   1128   1129   1145     1  0.0000000  0.6508444  3
   1128   1127   1124   1136     1  0.0000000  0.6508444  3
   1129   1128   1127   1135     1  0.0000000  0.6508444  3
   1129   1145   1123   1137     1  180.0000771  0.4184000  2
   1129   1145   1123   1137     1  0.0000000  1.6024720  3
   1133   1129   1128   1134     1  0.0000000  4.9162000  2
   1133   1129   1128   1134     1  0.0000000  0.6024960  3
   1134   1128   1127   1135     1  0.0000000  4.9162000  2
   1134   1128   1127   1135     1  0.0000000  0.6024960  3
   1134   1128   1129   1145     1  0.0000000  4.9162000  2
   1134   1128   1129   1145     1  0.0000000  0.6024960  3
   1135   1127   1124   1136     1  0.0000000  4.9162000  2
   1135   1127   1124   1136     1  0.0000000  0.6024960  3
   1136   1124   1123   1137     1  0.0000000  0.6508444  3
   1136   1124   1123   1145     1  0.0000000  4.9162000  2
   1136   1124   1123   1145     1  0.0000000  0.6024960  3
   1143   1137   1123   1145     1  0.0000000  4.9162000  2
   1143   1137   1123   1145     1  0.0000000  0.6024960  3
   1146   1147   1150   1151     1  180.0000771  0.8368000  1
   1146   1147   1150   1151     1  180.0000771  1.0460000  2
   1146   1147   1150   1151     1  0.0000000  0.7531200  3
   1146   1147   1150   1158     1  0.0000000  0.6508444  3
   1146   1168   1152   1151     1  180.0000771  0.4184000  2
   1146   1168   1152   1151     1  0.0000000  1.6024720  3
   1146   1168   1152   1156     1  180.0000771  5.6484000  1
   1146   1168   1152   1156     1  180.0000771  3.5564000  2
   1146   1168   1152   1156     1  0.0000000  0.4184000  3
   1147   1146   1160   1166     1  0.0000000  0.6508444  3
   1147   1146   1168   1152     1  180.0000771  0.4184000  2
   1147   1146   1168   1152     1  0.0000000  1.6024720  3
   1147   1150   1151   1152     1  180.0000771  0.8368000  1
   1147   1150   1151   1152     1  180.0000771  1.0460000  2
   1147   1150   1151   1152     1  0.0000000  0.7531200  3
   1147   1150   1151   1157     1  0.0000000  0.6508444  3
   1150   1147   1146   1160     1  180.0000771  0.8368000  1
   1150   1147   1146   1160     1  180.0000771  1.0460000  2
   1150   1147   1146   1160     1  0.0000000  0.7531200  3
   1150   1147   1146   1168     1  0.0000000  0.6508444  3
   1150   1151   1152   1156     1  0.0000000  0.6508444  3
   1150   1151   1152   1168     1  0.0000000  0.6508444  3
   1151   1150   1147   1159     1  0.0000000  0.6508444  3
   1152   1151   1150   1158     1  0.0000000  0.6508444  3
   1152   1168   1146   1160     1  180.0000771  0.4184000  2
   1152   1168   1146   1160     1  0.0000000  1.6024720  3
   1156   1152   1151   1157     1  0.0000000  4.9162000  2
   1156   1152   1151   1157     1  0.0000000  0.6024960  3
   1157   1151   1150   1158     1  0.0000000  4.9162000  2
   1157   1151   1150   1158     1  0.0000000  0.6024960  3
   1157   1151   1152   1168     1  0.0000000  4.9162000  2
   1157   1151   1152   1168     1  0.0000000  0.6024960  3
   1158   1150   1147   1159     1  0.0000000  4.9162000  2
   1158   1150   1147   1159     1  0.0000000  0.6024960  3
   1159   1147   1146   1160     1  0.0000000  0.6508444  3
   1159   1147   1146   1168     1  0.0000000  4.9162000  2
   1159   1147   1146   1168     1  0.0000000  0.6024960  3
   1166   1160   1146   1168     1  0.0000000  4.9162000  2
   1166   1160   1146   1168     1  0.0000000  0.6024960  3
   1169   1170   1173   1174     1  180.0000771  0.8368000  1
   1169   1170   1173   1174     1  180.0000771  1.0460000  2
   1169   1170   1173   1174     1  0.0000000  0.7531200  3
   1169   1170   1173   1181     1  0.0000000  0.6508444  3
   1169   1191   1175   1174     1  180.0000771  0.4184000  2
   1169   1191   1175   1174     1  0.0000000  1.6024720  3
   1169   1191   1175   1179     1  180.0000771  5.6484000  1
   1169   1191   1175   1179     1  180.0000771  3.5564000  2
   1169   1191   1175   1179     1  0.0000000  0.4184000  3
   1170   1169   1183   1189     1  0.0000000  0.6508444  3
   1170   1169   1191   1175     1  180.0000771  0.4184000  2
   1170   1169   1191   1175     1  0.0000000  1.6024720  3
   1170   1173   1174   1175     1  180.0000771  0.8368000  1
   1170   1173   1174   1175     1  180.0000771  1.0460000  2
   1170   1173   1174   1175     1  0.0000000  0.7531200  3
   1170   1173   1174   1180     1  0.0000000  0.6508444  3
   1173   1170   1169   1183     1  180.0000771  0.8368000  1
   1173   1170   1169   1183     1  180.0000771  1.0460000  2
   1173   1170   1169   1183     1  0.0000000  0.7531200  3
   1173   1170   1169   1191     1  0.0000000  0.6508444  3
   1173   1174   1175   1179     1  0.0000000  0.6508444  3
   1173   1174   1175   1191     1  0.0000000  0.6508444  3
   1174   1173   1170   1182     1  0.0000000  0.6508444  3
   1175   1174   1173   1181     1  0.0000000  0.6508444  3
   1175   1191   1169   1183     1  180.0000771  0.4184000  2
   1175   1191   1169   1183     1  0.0000000  1.6024720  3
   1179   1175   1174   1180     1  0.0000000  4.9162000  2
   1179   1175   1174   1180     1  0.0000000  0.6024960  3
   1180   1174   1173   1181     1  0.0000000  4.9162000  2
   1180   1174   1173   1181     1  0.0000000  0.6024960  3
   1180   1174   1175   1191     1  0.0000000  4.9162000  2
   1180   1174   1175   1191     1  0.0000000  0.6024960  3
   1181   1173   1170   1182     1  0.0000000  4.9162000  2
   1181   1173   1170   1182     1  0.0000000  0.6024960  3
   1182   1170   1169   1183     1  0.0000000  0.6508444  3
   1182   1170   1169   1191     1  0.0000000  4.9162000  2
   1182   1170   1169   1191     1  0.0000000  0.6024960  3
   1189   1183   1169   1191     1  0.0000000  4.9162000  2
   1189   1183   1169   1191     1  0.0000000  0.6024960  3
   1192   1193   1196   1197     1  180.0000771  0.8368000  1
   1192   1193   1196   1197     1  180.0000771  1.0460000  2
   1192   1193   1196   1197     1  0.0000000  0.7531200  3
   1192   1193   1196   1204     1  0.0000000  0.6508444  3
   1192   1214   1198   1197     1  180.0000771  0.4184000  2
   1192   1214   1198   1197     1  0.0000000  1.6024720  3
   1192   1214   1198   1202     1  180.0000771  5.6484000  1
   1192   1214   1198   1202     1  180.0000771  3.5564000  2
   1192   1214   1198   1202     1  0.0000000  0.4184000  3
   1193   1192   1206   1212     1  0.0000000  0.6508444  3
   1193   1192   1214   1198     1  180.0000771  0.4184000  2
   1193   1192   1214   1198     1  0.0000000  1.6024720  3
   1193   1196   1197   1198     1  180.0000771  0.8368000  1
   1193   1196   1197   1198     1  180.0000771  1.0460000  2
   1193   1196   1197   1198     1  0.0000000  0.7531200  3
   1193   1196   1197   1203     1  0.0000000  0.6508444  3
   1196   1193   1192   1206     1  180.0000771  0.8368000  1
   1196   1193   1192   1206     1  180.0000771  1.0460000  2
   1196   1193   1192   1206     1  0.0000000  0.7531200  3
   1196   1193   1192   1214     1  0.0000000  0.6508444  3
   1196   1197   1198   1202     1  0.0000000  0.6508444  3
   1196   1197   1198   1214     1  0.0000000  0.6508444  3
   1197   1196   1193   1205     1  0.0000000  0.6508444  3
   1198   1197   1196   1204     1  0.0000000  0.6508444  3
   1198   1214   1192   1206     1  180.0000771  0.4184000  2
   1198   1214   1192   1206     1  0.0000000  1.6024720  3
   1202   1198   1197   1203     1  0.0000000  4.9162000  2
   1202   1198   1197   1203     1  0.0000000  0.6024960  3
   1203   1197   1196   1204     1  0.0000000  4.9162000  2
   1203   1197   1196   1204     1  0.0000000  0.6024960  3
   1203   1197   1198   1214     1  0.0000000  4.9162000  2
   1203   1197   1198   1214     1  0.0000000  0.6024960  3
   1204   1196   1193   1205     1  0.0000000  4.9162000  2
   1204   1196   1193   1205     1  0.0000000  0.6024960  3
   1205   1193   1192   1206     1  0.0000000  0.6508444  3
   1205   1193   1192   1214     1  0.0000000  4.9162000  2
   1205   1193   1192   1214     1  0.0000000  0.6024960  3
   1212   1206   1192   1214     1  0.0000000  4.9162000  2
   1212   1206   1192   1214     1  0.0000000  0.6024960  3
   1215   1216   1219   1220     1  180.0000771  0.8368000  1
   1215   1216   1219   1220     1  180.0000771  1.0460000  2
   1215   1216   1219   1220     1  0.0000000  0.7531200  3
   1215   1216   1219   1227     1  0.0000000  0.6508444  3
   1215   1237   1221   1220     1  180.0000771  0.4184000  2
   1215   1237   1221   1220     1  0.0000000  1.6024720  3
   1215   1237   1221   1225     1  180.0000771  5.6484000  1
   1215   1237   1221   1225     1  180.0000771  3.5564000  2
   1215   1237   1221   1225     1  0.0000000  0.4184000  3
   1216   1215   1229   1235     1  0.0000000  0.6508444  3
   1216   1215   1237   1221     1  180.0000771  0.4184000  2
   1216   1215   1237   1221     1  0.0000000  1.6024720  3
   1216   1219   1220   1221     1  180.0000771  0.8368000  1
   1216   1219   1220   1221     1  180.0000771  1.0460000  2
   1216   1219   1220   1221     1  0.0000000  0.7531200  3
   1216   1219   1220   1226     1  0.0000000  0.6508444  3
   1219   1216   1215   1229     1  180.0000771  0.8368000  1
   1219   1216   1215   1229     1  180.0000771  1.0460000  2
   1219   1216   1215   1229     1  0.0000000  0.7531200  3
   1219   1216   1215   1237     1  0.0000000  0.6508444  3
   1219   1220   1221   1225     1  0.0000000  0.6508444  3
   1219   1220   1221   1237     1  0.0000000  0.6508444  3
   1220   1219   1216   1228     1  0.0000000  0.6508444  3
   1221   1220   1219   1227     1  0.0000000  0.6508444  3
   1221   1237   1215   1229     1  180.0000771  0.4184000  2
   1221   1237   1215   1229     1  0.0000000  1.6024720  3
   1225   1221   1220   1226     1  0.0000000  4.9162000  2
   1225   1221   1220   1226     1  0.0000000  0.6024960  3
   1226   1220   1219   1227     1  0.0000000  4.9162000  2
   1226   1220   1219   1227     1  0.0000000  0.6024960  3
   1226   1220   1221   1237     1  0.0000000  4.9162000  2
   1226   1220   1221   1237     1  0.0000000  0.6024960  3
   1227   1219   1216   1228     1  0.0000000  4.9162000  2
   1227   1219   1216   1228     1  0.0000000  0.6024960  3
   1228   1216   1215   1229     1  0.0000000  0.6508444  3
   1228   1216   1215   1237     1  0.0000000  4.9162000  2
   1228   1216   1215   1237     1  0.0000000  0.6024960  3
   1235   1229   1215   1237     1  0.0000000  4.9162000  2
   1235   1229   1215   1237     1  0.0000000  0.6024960  3
   1238   1239   1242   1243     1  180.0000771  0.8368000  1
   1238   1239   1242   1243     1  180.0000771  1.0460000  2
   1238   1239   1242   1243     1  0.0000000  0.7531200  3
   1238   1239   1242   1250     1  0.0000000  0.6508444  3
   1238   1260   1244   1243     1  180.0000771  0.4184000  2
   1238   1260   1244   1243     1  0.0000000  1.6024720  3
   1238   1260   1244   1248     1  180.0000771  5.6484000  1
   1238   1260   1244   1248     1  180.0000771  3.5564000  2
   1238   1260   1244   1248     1  0.0000000  0.4184000  3
   1239   1238   1252   1258     1  0.0000000  0.6508444  3
   1239   1238   1260   1244     1  180.0000771  0.4184000  2
   1239   1238   1260   1244     1  0.0000000  1.6024720  3
   1239   1242   1243   1244     1  180.0000771  0.8368000  1
   1239   1242   1243   1244     1  180.0000771  1.0460000  2
   1239   1242   1243   1244     1  0.0000000  0.7531200  3
   1239   1242   1243   1249     1  0.0000000  0.6508444  3
   1242   1239   1238   1252     1  180.0000771  0.8368000  1
   1242   1239   1238   1252     1  180.0000771  1.0460000  2
   1242   1239   1238   1252     1  0.0000000  0.7531200  3
   1242   1239   1238   1260     1  0.0000000  0.6508444  3
   1242   1243   1244   1248     1  0.0000000  0.6508444  3
   1242   1243   1244   1260     1  0.0000000  0.6508444  3
   1243   1242   1239   1251     1  0.0000000  0.6508444  3
   1244   1243   1242   1250     1  0.0000000  0.6508444  3
   1244   1260   1238   1252     1  180.0000771  0.4184000  2
   1244   1260   1238   1252     1  0.0000000  1.6024720  3
   1248   1244   1243   1249     1  0.0000000  4.9162000  2
   1248   1244   1243   1249     1  0.0000000  0.6024960  3
   1249   1243   1242   1250     1  0.0000000  4.9162000  2
   1249   1243   1242   1250     1  0.0000000  0.6024960  3
   1249   1243   1244   1260     1  0.0000000  4.9162000  2
   1249   1243   1244   1260     1  0.0000000  0.6024960  3
   1250   1242   1239   1251     1  0.0000000  4.9162000  2
   1250   1242   1239   1251     1  0.0000000  0.6024960  3
   1251   1239   1238   1252     1  0.0000000  0.6508444  3
   1251   1239   1238   1260     1  0.0000000  4.9162000  2
   1251   1239   1238   1260     1  0.0000000  0.6024960  3
   1258   1252   1238   1260     1  0.0000000  4.9162000  2
   1258   1252   1238   1260     1  0.0000000  0.6024960  3
   1261   1262   1265   1266     1  180.0000771  0.8368000  1
   1261   1262   1265   1266     1  180.0000771  1.0460000  2
   1261   1262   1265   1266     1  0.0000000  0.7531200  3
   1261   1262   1265   1273     1  0.0000000  0.6508444  3
   1261   1283   1267   1266     1  180.0000771  0.4184000  2
   1261   1283   1267   1266     1  0.0000000  1.6024720  3
   1261   1283   1267   1271     1  180.0000771  5.6484000  1
   1261   1283   1267   1271     1  180.0000771  3.5564000  2
   1261   1283   1267   1271     1  0.0000000  0.4184000  3
   1262   1261   1275   1281     1  0.0000000  0.6508444  3
   1262   1261   1283   1267     1  180.0000771  0.4184000  2
   1262   1261   1283   1267     1  0.0000000  1.6024720  3
   1262   1265   1266   1267     1  180.0000771  0.8368000  1
   1262   1265   1266   1267     1  180.0000771  1.0460000  2
   1262   1265   1266   1267     1  0.0000000  0.7531200  3
   1262   1265   1266   1272     1  0.0000000  0.6508444  3
   1265   1262   1261   1275     1  180.0000771  0.8368000  1
   1265   1262   1261   1275     1  180.0000771  1.0460000  2
   1265   1262   1261   1275     1  0.0000000  0.7531200  3
   1265   1262   1261   1283     1  0.0000000  0.6508444  3
   1265   1266   1267   1271     1  0.0000000  0.6508444  3
   1265   1266   1267   1283     1  0.0000000  0.6508444  3
   1266   1265   1262   1274     1  0.0000000  0.6508444  3
   1267   1266   1265   1273     1  0.0000000  0.6508444  3
   1267   1283   1261   1275     1  180.0000771  0.4184000  2
   1267   1283   1261   1275     1  0.0000000  1.6024720  3
   1271   1267   1266   1272     1  0.0000000  4.9162000  2
   1271   1267   1266   1272     1  0.0000000  0.6024960  3
   1272   1266   1265   1273     1  0.0000000  4.9162000  2
   1272   1266   1265   1273     1  0.0000000  0.6024960  3
   1272   1266   1267   1283     1  0.0000000  4.9162000  2
   1272   1266   1267   1283     1  0.0000000  0.6024960  3
   1273   1265   1262   1274     1  0.0000000  4.9162000  2
   1273   1265   1262   1274     1  0.0000000  0.6024960  3
   1274   1262   1261   1275     1  0.0000000  0.6508444  3
   1274   1262   1261   1283     1  0.0000000  4.9162000  2
   1274   1262   1261   1283     1  0.0000000  0.6024960  3
   1281   1275   1261   1283     1  0.0000000  4.9162000  2
   1281   1275   1261   1283     1  0.0000000  0.6024960  3
   1284   1285   1288   1289     1  180.0000771  0.8368000  1
   1284   1285   1288   1289     1  180.0000771  1.0460000  2
   1284   1285   1288   1289     1  0.0000000  0.7531200  3
   1284   1285   1288   1296     1  0.0000000  0.6508444  3
   1284   1306   1290   1289     1  180.0000771  0.4184000  2
   1284   1306   1290   1289     1  0.0000000  1.6024720  3
   1284   1306   1290   1294     1  180.0000771  5.6484000  1
   1284   1306   1290   1294     1  180.0000771  3.5564000  2
   1284   1306   1290   1294     1  0.0000000  0.4184000  3
   1285   1284   1298   1304     1  0.0000000  0.6508444  3
   1285   1284   1306   1290     1  180.0000771  0.4184000  2
   1285   1284   1306   1290     1  0.0000000  1.6024720  3
   1285   1288   1289   1290     1  180.0000771  0.8368000  1
   1285   1288   1289   1290     1  180.0000771  1.0460000  2
   1285   1288   1289   1290     1  0.0000000  0.7531200  3
   1285   1288   1289   1295     1  0.0000000  0.6508444  3
   1288   1285   1284   1298     1  180.0000771  0.8368000  1
   1288   1285   1284   1298     1  180.0000771  1.0460000  2
   1288   1285   1284   1298     1  0.0000000  0.7531200  3
   1288   1285   1284   1306     1  0.0000000  0.6508444  3
   1288   1289   1290   1294     1  0.0000000  0.6508444  3
   1288   1289   1290   1306     1  0.0000000  0.6508444  3
   1289   1288   1285   1297     1  0.0000000  0.6508444  3
   1290   1289   1288   1296     1  0.0000000  0.6508444  3
   1290   1306   1284   1298     1  180.0000771  0.4184000  2
   1290   1306   1284   1298     1  0.0000000  1.6024720  3
   1294   1290   1289   1295     1  0.0000000  4.9162000  2
   1294   1290   1289   1295     1  0.0000000  0.6024960  3
   1295   1289   1288   1296     1  0.0000000  4.9162000  2
   1295   1289   1288   1296     1  0.0000000  0.6024960  3
   1295   1289   1290   1306     1  0.0000000  4.9162000  2
   1295   1289   1290   1306     1  0.0000000  0.6024960  3
   1296   1288   1285   1297     1  0.0000000  4.9162000  2
   1296   1288   1285   1297     1  0.0000000  0.6024960  3
   1297   1285   1284   1298     1  0.0000000  0.6508444  3
   1297   1285   1284   1306     1  0.0000000  4.9162000  2
   1297   1285   1284   1306     1  0.0000000  0.6024960  3
   1304   1298   1284   1306     1  0.0000000  4.9162000  2
   1304   1298   1284   1306     1  0.0000000  0.6024960  3
   1307   1308   1311   1312     1  180.0000771  0.8368000  1
   1307   1308   1311   1312     1  180.0000771  1.0460000  2
   1307   1308   1311   1312     1  0.0000000  0.7531200  3
   1307   1308   1311   1319     1  0.0000000  0.6508444  3
   1307   1329   1313   1312     1  180.0000771  0.4184000  2
   1307   1329   1313   1312     1  0.0000000  1.6024720  3
   1307   1329   1313   1317     1  180.0000771  5.6484000  1
   1307   1329   1313   1317     1  180.0000771  3.5564000  2
   1307   1329   1313   1317     1  0.0000000  0.4184000  3
   1308   1307   1321   1327     1  0.0000000  0.6508444  3
   1308   1307   1329   1313     1  180.0000771  0.4184000  2
   1308   1307   1329   1313     1  0.0000000  1.6024720  3
   1308   1311   1312   1313     1  180.0000771  0.8368000  1
   1308   1311   1312   1313     1  180.0000771  1.0460000  2
   1308   1311   1312   1313     1  0.0000000  0.7531200  3
   1308   1311   1312   1318     1  0.0000000  0.6508444  3
   1311   1308   1307   1321     1  180.0000771  0.8368000  1
   1311   1308   1307   1321     1  180.0000771  1.0460000  2
   1311   1308   1307   1321     1  0.0000000  0.7531200  3
   1311   1308   1307   1329     1  0.0000000  0.6508444  3
   1311   1312   1313   1317     1  0.0000000  0.6508444  3
   1311   1312   1313   1329     1  0.0000000  0.6508444  3
   1312   1311   1308   1320     1  0.0000000  0.6508444  3
   1313   1312   1311   1319     1  0.0000000  0.6508444  3
   1313   1329   1307   1321     1  180.0000771  0.4184000  2
   1313   1329   1307   1321     1  0.0000000  1.6024720  3
   1317   1313   1312   1318     1  0.0000000  4.9162000  2
   1317   1313   1312   1318     1  0.0000000  0.6024960  3
   1318   1312   1311   1319     1  0.0000000  4.9162000  2
   1318   1312   1311   1319     1  0.0000000  0.6024960  3
   1318   1312   1313   1329     1  0.0000000  4.9162000  2
   1318   1312   1313   1329     1  0.0000000  0.6024960  3
   1319   1311   1308   1320     1  0.0000000  4.9162000  2
   1319   1311   1308   1320     1  0.0000000  0.6024960  3
   1320   1308   1307   1321     1  0.0000000  0.6508444  3
   1320   1308   1307   1329     1  0.0000000  4.9162000  2
   1320   1308   1307   1329     1  0.0000000  0.6024960  3
   1327   1321   1307   1329     1  0.0000000  4.9162000  2
   1327   1321   1307   1329     1  0.0000000  0.6024960  3
   1330   1331   1334   1335     1  180.0000771  0.8368000  1
   1330   1331   1334   1335     1  180.0000771  1.0460000  2
   1330   1331   1334   1335     1  0.0000000  0.7531200  3
   1330   1331   1334   1342     1  0.0000000  0.6508444  3
   1330   1352   1336   1335     1  180.0000771  0.4184000  2
   1330   1352   1336   1335     1  0.0000000  1.6024720  3
   1330   1352   1336   1340     1  180.0000771  5.6484000  1
   1330   1352   1336   1340     1  180.0000771  3.5564000  2
   1330   1352   1336   1340     1  0.0000000  0.4184000  3
   1331   1330   1344   1350     1  0.0000000  0.6508444  3
   1331   1330   1352   1336     1  180.0000771  0.4184000  2
   1331   1330   1352   1336     1  0.0000000  1.6024720  3
   1331   1334   1335   1336     1  180.0000771  0.8368000  1
   1331   1334   1335   1336     1  180.0000771  1.0460000  2
   1331   1334   1335   1336     1  0.0000000  0.7531200  3
   1331   1334   1335   1341     1  0.0000000  0.6508444  3
   1334   1331   1330   1344     1  180.0000771  0.8368000  1
   1334   1331   1330   1344     1  180.0000771  1.0460000  2
   1334   1331   1330   1344     1  0.0000000  0.7531200  3
   1334   1331   1330   1352     1  0.0000000  0.6508444  3
   1334   1335   1336   1340     1  0.0000000  0.6508444  3
   1334   1335   1336   1352     1  0.0000000  0.6508444  3
   1335   1334   1331   1343     1  0.0000000  0.6508444  3
   1336   1335   1334   1342     1  0.0000000  0.6508444  3
   1336   1352   1330   1344     1  180.0000771  0.4184000  2
   1336   1352   1330   1344     1  0.0000000  1.6024720  3
   1340   1336   1335   1341     1  0.0000000  4.9162000  2
   1340   1336   1335   1341     1  0.0000000  0.6024960  3
   1341   1335   1334   1342     1  0.0000000  4.9162000  2
   1341   1335   1334   1342     1  0.0000000  0.6024960  3
   1341   1335   1336   1352     1  0.0000000  4.9162000  2
   1341   1335   1336   1352     1  0.0000000  0.6024960  3
   1342   1334   1331   1343     1  0.0000000  4.9162000  2
   1342   1334   1331   1343     1  0.0000000  0.6024960  3
   1343   1331   1330   1344     1  0.0000000  0.6508444  3
   1343   1331   1330   1352     1  0.0000000  4.9162000  2
   1343   1331   1330   1352     1  0.0000000  0.6024960  3
   1350   1344   1330   1352     1  0.0000000  4.9162000  2
   1350   1344   1330   1352     1  0.0000000  0.6024960  3
   1353   1354   1357   1358     1  180.0000771  0.8368000  1
   1353   1354   1357   1358     1  180.0000771  1.0460000  2
   1353   1354   1357   1358     1  0.0000000  0.7531200  3
   1353   1354   1357   1365     1  0.0000000  0.6508444  3
   1353   1375   1359   1358     1  180.0000771  0.4184000  2
   1353   1375   1359   1358     1  0.0000000  1.6024720  3
   1353   1375   1359   1363     1  180.0000771  5.6484000  1
   1353   1375   1359   1363     1  180.0000771  3.5564000  2
   1353   1375   1359   1363     1  0.0000000  0.4184000  3
   1354   1353   1367   1373     1  0.0000000  0.6508444  3
   1354   1353   1375   1359     1  180.0000771  0.4184000  2
   1354   1353   1375   1359     1  0.0000000  1.6024720  3
   1354   1357   1358   1359     1  180.0000771  0.8368000  1
   1354   1357   1358   1359     1  180.0000771  1.0460000  2
   1354   1357   1358   1359     1  0.0000000  0.7531200  3
   1354   1357   1358   1364     1  0.0000000  0.6508444  3
   1357   1354   1353   1367     1  180.0000771  0.8368000  1
   1357   1354   1353   1367     1  180.0000771  1.0460000  2
   1357   1354   1353   1367     1  0.0000000  0.7531200  3
   1357   1354   1353   1375     1  0.0000000  0.6508444  3
   1357   1358   1359   1363     1  0.0000000  0.6508444  3
   1357   1358   1359   1375     1  0.0000000  0.6508444  3
   1358   1357   1354   1366     1  0.0000000  0.6508444  3
   1359   1358   1357   1365     1  0.0000000  0.6508444  3
   1359   1375   1353   1367     1  180.0000771  0.4184000  2
   1359   1375   1353   1367     1  0.0000000  1.6024720  3
   1363   1359   1358   1364     1  0.0000000  4.9162000  2
   1363   1359   1358   1364     1  0.0000000  0.6024960  3
   1364   1358   1357   1365     1  0.0000000  4.9162000  2
   1364   1358   1357   1365     1  0.0000000  0.6024960  3
   1364   1358   1359   1375     1  0.0000000  4.9162000  2
   1364   1358   1359   1375     1  0.0000000  0.6024960  3
   1365   1357   1354   1366     1  0.0000000  4.9162000  2
   1365   1357   1354   1366     1  0.0000000  0.6024960  3
   1366   1354   1353   1367     1  0.0000000  0.6508444  3
   1366   1354   1353   1375     1  0.0000000  4.9162000  2
   1366   1354   1353   1375     1  0.0000000  0.6024960  3
   1373   1367   1353   1375     1  0.0000000  4.9162000  2
   1373   1367   1353   1375     1  0.0000000  0.6024960  3
   1376   1377   1380   1381     1  180.0000771  0.8368000  1
   1376   1377   1380   1381     1  180.0000771  1.0460000  2
   1376   1377   1380   1381     1  0.0000000  0.7531200  3
   1376   1377   1380   1388     1  0.0000000  0.6508444  3
   1376   1398   1382   1381     1  180.0000771  0.4184000  2
   1376   1398   1382   1381     1  0.0000000  1.6024720  3
   1376   1398   1382   1386     1  180.0000771  5.6484000  1
   1376   1398   1382   1386     1  180.0000771  3.5564000  2
   1376   1398   1382   1386     1  0.0000000  0.4184000  3
   1377   1376   1390   1396     1  0.0000000  0.6508444  3
   1377   1376   1398   1382     1  180.0000771  0.4184000  2
   1377   1376   1398   1382     1  0.0000000  1.6024720  3
   1377   1380   1381   1382     1  180.0000771  0.8368000  1
   1377   1380   1381   1382     1  180.0000771  1.0460000  2
   1377   1380   1381   1382     1  0.0000000  0.7531200  3
   1377   1380   1381   1387     1  0.0000000  0.6508444  3
   1380   1377   1376   1390     1  180.0000771  0.8368000  1
   1380   1377   1376   1390     1  180.0000771  1.0460000  2
   1380   1377   1376   1390     1  0.0000000  0.7531200  3
   1380   1377   1376   1398     1  0.0000000  0.6508444  3
   1380   1381   1382   1386     1  0.0000000  0.6508444  3
   1380   1381   1382   1398     1  0.0000000  0.6508444  3
   1381   1380   1377   1389     1  0.0000000  0.6508444  3
   1382   1381   1380   1388     1  0.0000000  0.6508444  3
   1382   1398   1376   1390     1  180.0000771  0.4184000  2
   1382   1398   1376   1390     1  0.0000000  1.6024720  3
   1386   1382   1381   1387     1  0.0000000  4.9162000  2
   1386   1382   1381   1387     1  0.0000000  0.6024960  3
   1387   1381   1380   1388     1  0.0000000  4.9162000  2
   1387   1381   1380   1388     1  0.0000000  0.6024960  3
   1387   1381   1382   1398     1  0.0000000  4.9162000  2
   1387   1381   1382   1398     1  0.0000000  0.6024960  3
   1388   1380   1377   1389     1  0.0000000  4.9162000  2
   1388   1380   1377   1389     1  0.0000000  0.6024960  3
   1389   1377   1376   1390     1  0.0000000  0.6508444  3
   1389   1377   1376   1398     1  0.0000000  4.9162000  2
   1389   1377   1376   1398     1  0.0000000  0.6024960  3
   1396   1390   1376   1398     1  0.0000000  4.9162000  2
   1396   1390   1376   1398     1  0.0000000  0.6024960  3
   1399   1400   1403   1404     1  180.0000771  0.8368000  1
   1399   1400   1403   1404     1  180.0000771  1.0460000  2
   1399   1400   1403   1404     1  0.0000000  0.7531200  3
   1399   1400   1403   1411     1  0.0000000  0.6508444  3
   1399   1421   1405   1404     1  180.0000771  0.4184000  2
   1399   1421   1405   1404     1  0.0000000  1.6024720  3
   1399   1421   1405   1409     1  180.0000771  5.6484000  1
   1399   1421   1405   1409     1  180.0000771  3.5564000  2
   1399   1421   1405   1409     1  0.0000000  0.4184000  3
   1400   1399   1413   1419     1  0.0000000  0.6508444  3
   1400   1399   1421   1405     1  180.0000771  0.4184000  2
   1400   1399   1421   1405     1  0.0000000  1.6024720  3
   1400   1403   1404   1405     1  180.0000771  0.8368000  1
   1400   1403   1404   1405     1  180.0000771  1.0460000  2
   1400   1403   1404   1405     1  0.0000000  0.7531200  3
   1400   1403   1404   1410     1  0.0000000  0.6508444  3
   1403   1400   1399   1413     1  180.0000771  0.8368000  1
   1403   1400   1399   1413     1  180.0000771  1.0460000  2
   1403   1400   1399   1413     1  0.0000000  0.7531200  3
   1403   1400   1399   1421     1  0.0000000  0.6508444  3
   1403   1404   1405   1409     1  0.0000000  0.6508444  3
   1403   1404   1405   1421     1  0.0000000  0.6508444  3
   1404   1403   1400   1412     1  0.0000000  0.6508444  3
   1405   1404   1403   1411     1  0.0000000  0.6508444  3
   1405   1421   1399   1413     1  180.0000771  0.4184000  2
   1405   1421   1399   1413     1  0.0000000  1.6024720  3
   1409   1405   1404   1410     1  0.0000000  4.9162000  2
   1409   1405   1404   1410     1  0.0000000  0.6024960  3
   1410   1404   1403   1411     1  0.0000000  4.9162000  2
   1410   1404   1403   1411     1  0.0000000  0.6024960  3
   1410   1404   1405   1421     1  0.0000000  4.9162000  2
   1410   1404   1405   1421     1  0.0000000  0.6024960  3
   1411   1403   1400   1412     1  0.0000000  4.9162000  2
   1411   1403   1400   1412     1  0.0000000  0.6024960  3
   1412   1400   1399   1413     1  0.0000000  0.6508444  3
   1412   1400   1399   1421     1  0.0000000  4.9162000  2
   1412   1400   1399   1421     1  0.0000000  0.6024960  3
   1419   1413   1399   1421     1  0.0000000  4.9162000  2
   1419   1413   1399   1421     1  0.0000000  0.6024960  3
   1422   1423   1426   1427     1  180.0000771  0.8368000  1
   1422   1423   1426   1427     1  180.0000771  1.0460000  2
   1422   1423   1426   1427     1  0.0000000  0.7531200  3
   1422   1423   1426   1434     1  0.0000000  0.6508444  3
   1422   1444   1428   1427     1  180.0000771  0.4184000  2
   1422   1444   1428   1427     1  0.0000000  1.6024720  3
   1422   1444   1428   1432     1  180.0000771  5.6484000  1
   1422   1444   1428   1432     1  180.0000771  3.5564000  2
   1422   1444   1428   1432     1  0.0000000  0.4184000  3
   1423   1422   1436   1442     1  0.0000000  0.6508444  3
   1423   1422   1444   1428     1  180.0000771  0.4184000  2
   1423   1422   1444   1428     1  0.0000000  1.6024720  3
   1423   1426   1427   1428     1  180.0000771  0.8368000  1
   1423   1426   1427   1428     1  180.0000771  1.0460000  2
   1423   1426   1427   1428     1  0.0000000  0.7531200  3
   1423   1426   1427   1433     1  0.0000000  0.6508444  3
   1426   1423   1422   1436     1  180.0000771  0.8368000  1
   1426   1423   1422   1436     1  180.0000771  1.0460000  2
   1426   1423   1422   1436     1  0.0000000  0.7531200  3
   1426   1423   1422   1444     1  0.0000000  0.6508444  3
   1426   1427   1428   1432     1  0.0000000  0.6508444  3
   1426   1427   1428   1444     1  0.0000000  0.6508444  3
   1427   1426   1423   1435     1  0.0000000  0.6508444  3
   1428   1427   1426   1434     1  0.0000000  0.6508444  3
   1428   1444   1422   1436     1  180.0000771  0.4184000  2
   1428   1444   1422   1436     1  0.0000000  1.6024720  3
   1432   1428   1427   1433     1  0.0000000  4.9162000  2
   1432   1428   1427   1433     1  0.0000000  0.6024960  3
   1433   1427   1426   1434     1  0.0000000  4.9162000  2
   1433   1427   1426   1434     1  0.0000000  0.6024960  3
   1433   1427   1428   1444     1  0.0000000  4.9162000  2
   1433   1427   1428   1444     1  0.0000000  0.6024960  3
   1434   1426   1423   1435     1  0.0000000  4.9162000  2
   1434   1426   1423   1435     1  0.0000000  0.6024960  3
   1435   1423   1422   1436     1  0.0000000  0.6508444  3
   1435   1423   1422   1444     1  0.0000000  4.9162000  2
   1435   1423   1422   1444     1  0.0000000  0.6024960  3
   1442   1436   1422   1444     1  0.0000000  4.9162000  2
   1442   1436   1422   1444     1  0.0000000  0.6024960  3
   1445   1446   1449   1450     1  180.0000771  0.8368000  1
   1445   1446   1449   1450     1  180.0000771  1.0460000  2
   1445   1446   1449   1450     1  0.0000000  0.7531200  3
   1445   1446   1449   1457     1  0.0000000  0.6508444  3
   1445   1467   1451   1450     1  180.0000771  0.4184000  2
   1445   1467   1451   1450     1  0.0000000  1.6024720  3
   1445   1467   1451   1455     1  180.0000771  5.6484000  1
   1445   1467   1451   1455     1  180.0000771  3.5564000  2
   1445   1467   1451   1455     1  0.0000000  0.4184000  3
   1446   1445   1459   1465     1  0.0000000  0.6508444  3
   1446   1445   1467   1451     1  180.0000771  0.4184000  2
   1446   1445   1467   1451     1  0.0000000  1.6024720  3
   1446   1449   1450   1451     1  180.0000771  0.8368000  1
   1446   1449   1450   1451     1  180.0000771  1.0460000  2
   1446   1449   1450   1451     1  0.0000000  0.7531200  3
   1446   1449   1450   1456     1  0.0000000  0.6508444  3
   1449   1446   1445   1459     1  180.0000771  0.8368000  1
   1449   1446   1445   1459     1  180.0000771  1.0460000  2
   1449   1446   1445   1459     1  0.0000000  0.7531200  3
   1449   1446   1445   1467     1  0.0000000  0.6508444  3
   1449   1450   1451   1455     1  0.0000000  0.6508444  3
   1449   1450   1451   1467     1  0.0000000  0.6508444  3
   1450   1449   1446   1458     1  0.0000000  0.6508444  3
   1451   1450   1449   1457     1  0.0000000  0.6508444  3
   1451   1467   1445   1459     1  180.0000771  0.4184000  2
   1451   1467   1445   1459     1  0.0000000  1.6024720  3
   1455   1451   1450   1456     1  0.0000000  4.9162000  2
   1455   1451   1450   1456     1  0.0000000  0.6024960  3
   1456   1450   1449   1457     1  0.0000000  4.9162000  2
   1456   1450   1449   1457     1  0.0000000  0.6024960  3
   1456   1450   1451   1467     1  0.0000000  4.9162000  2
   1456   1450   1451   1467     1  0.0000000  0.6024960  3
   1457   1449   1446   1458     1  0.0000000  4.9162000  2
   1457   1449   1446   1458     1  0.0000000  0.6024960  3
   1458   1446   1445   1459     1  0.0000000  0.6508444  3
   1458   1446   1445   1467     1  0.0000000  4.9162000  2
   1458   1446   1445   1467     1  0.0000000  0.6024960  3
   1465   1459   1445   1467     1  0.0000000  4.9162000  2
   1465   1459   1445   1467     1  0.0000000  0.6024960  3
   1468   1469   1472   1473     1  180.0000771  0.8368000  1
   1468   1469   1472   1473     1  180.0000771  1.0460000  2
   1468   1469   1472   1473     1  0.0000000  0.7531200  3
   1468   1469   1472   1480     1  0.0000000  0.6508444  3
   1468   1490   1474   1473     1  180.0000771  0.4184000  2
   1468   1490   1474   1473     1  0.0000000  1.6024720  3
   1468   1490   1474   1478     1  180.0000771  5.6484000  1
   1468   1490   1474   1478     1  180.0000771  3.5564000  2
   1468   1490   1474   1478     1  0.0000000  0.4184000  3
   1469   1468   1482   1488     1  0.0000000  0.6508444  3
   1469   1468   1490   1474     1  180.0000771  0.4184000  2
   1469   1468   1490   1474     1  0.0000000  1.6024720  3
   1469   1472   1473   1474     1  180.0000771  0.8368000  1
   1469   1472   1473   1474     1  180.0000771  1.0460000  2
   1469   1472   1473   1474     1  0.0000000  0.7531200  3
   1469   1472   1473   1479     1  0.0000000  0.6508444  3
   1472   1469   1468   1482     1  180.0000771  0.8368000  1
   1472   1469   1468   1482     1  180.0000771  1.0460000  2
   1472   1469   1468   1482     1  0.0000000  0.7531200  3
   1472   1469   1468   1490     1  0.0000000  0.6508444  3
   1472   1473   1474   1478     1  0.0000000  0.6508444  3
   1472   1473   1474   1490     1  0.0000000  0.6508444  3
   1473   1472   1469   1481     1  0.0000000  0.6508444  3
   1474   1473   1472   1480     1  0.0000000  0.6508444  3
   1474   1490   1468   1482     1  180.0000771  0.4184000  2
   1474   1490   1468   1482     1  0.0000000  1.6024720  3
   1478   1474   1473   1479     1  0.0000000  4.9162000  2
   1478   1474   1473   1479     1  0.0000000  0.6024960  3
   1479   1473   1472   1480     1  0.0000000  4.9162000  2
   1479   1473   1472   1480     1  0.0000000  0.6024960  3
   1479   1473   1474   1490     1  0.0000000  4.9162000  2
   1479   1473   1474   1490     1  0.0000000  0.6024960  3
   1480   1472   1469   1481     1  0.0000000  4.9162000  2
   1480   1472   1469   1481     1  0.0000000  0.6024960  3
   1481   1469   1468   1482     1  0.0000000  0.6508444  3
   1481   1469   1468   1490     1  0.0000000  4.9162000  2
   1481   1469   1468   1490     1  0.0000000  0.6024960  3
   1488   1482   1468   1490     1  0.0000000  4.9162000  2
   1488   1482   1468   1490     1  0.0000000  0.6024960  3
   1491   1492   1495   1496     1  180.0000771  0.8368000  1
   1491   1492   1495   1496     1  180.0000771  1.0460000  2
   1491   1492   1495   1496     1  0.0000000  0.7531200  3
   1491   1492   1495   1503     1  0.0000000  0.6508444  3
   1491   1513   1497   1496     1  180.0000771  0.4184000  2
   1491   1513   1497   1496     1  0.0000000  1.6024720  3
   1491   1513   1497   1501     1  180.0000771  5.6484000  1
   1491   1513   1497   1501     1  180.0000771  3.5564000  2
   1491   1513   1497   1501     1  0.0000000  0.4184000  3
   1492   1491   1505   1511     1  0.0000000  0.6508444  3
   1492   1491   1513   1497     1  180.0000771  0.4184000  2
   1492   1491   1513   1497     1  0.0000000  1.6024720  3
   1492   1495   1496   1497     1  180.0000771  0.8368000  1
   1492   1495   1496   1497     1  180.0000771  1.0460000  2
   1492   1495   1496   1497     1  0.0000000  0.7531200  3
   1492   1495   1496   1502     1  0.0000000  0.6508444  3
   1495   1492   1491   1505     1  180.0000771  0.8368000  1
   1495   1492   1491   1505     1  180.0000771  1.0460000  2
   1495   1492   1491   1505     1  0.0000000  0.7531200  3
   1495   1492   1491   1513     1  0.0000000  0.6508444  3
   1495   1496   1497   1501     1  0.0000000  0.6508444  3
   1495   1496   1497   1513     1  0.0000000  0.6508444  3
   1496   1495   1492   1504     1  0.0000000  0.6508444  3
   1497   1496   1495   1503     1  0.0000000  0.6508444  3
   1497   1513   1491   1505     1  180.0000771  0.4184000  2
   1497   1513   1491   1505     1  0.0000000  1.6024720  3
   1501   1497   1496   1502     1  0.0000000  4.9162000  2
   1501   1497   1496   1502     1  0.0000000  0.6024960  3
   1502   1496   1495   1503     1  0.0000000  4.9162000  2
   1502   1496   1495   1503     1  0.0000000  0.6024960  3
   1502   1496   1497   1513     1  0.0000000  4.9162000  2
   1502   1496   1497   1513     1  0.0000000  0.6024960  3
   1503   1495   1492   1504     1  0.0000000  4.9162000  2
   1503   1495   1492   1504     1  0.0000000  0.6024960  3
   1504   1492   1491   1505     1  0.0000000  0.6508444  3
   1504   1492   1491   1513     1  0.0000000  4.9162000  2
   1504   1492   1491   1513     1  0.0000000  0.6024960  3
   1511   1505   1491   1513     1  0.0000000  4.9162000  2
   1511   1505   1491   1513     1  0.0000000  0.6024960  3
   1514   1515   1518   1519     1  180.0000771  0.8368000  1
   1514   1515   1518   1519     1  180.0000771  1.0460000  2
   1514   1515   1518   1519     1  0.0000000  0.7531200  3
   1514   1515   1518   1526     1  0.0000000  0.6508444  3
   1514   1536   1520   1519     1  180.0000771  0.4184000  2
   1514   1536   1520   1519     1  0.0000000  1.6024720  3
   1514   1536   1520   1524     1  180.0000771  5.6484000  1
   1514   1536   1520   1524     1  180.0000771  3.5564000  2
   1514   1536   1520   1524     1  0.0000000  0.4184000  3
   1515   1514   1528   1534     1  0.0000000  0.6508444  3
   1515   1514   1536   1520     1  180.0000771  0.4184000  2
   1515   1514   1536   1520     1  0.0000000  1.6024720  3
   1515   1518   1519   1520     1  180.0000771  0.8368000  1
   1515   1518   1519   1520     1  180.0000771  1.0460000  2
   1515   1518   1519   1520     1  0.0000000  0.7531200  3
   1515   1518   1519   1525     1  0.0000000  0.6508444  3
   1518   1515   1514   1528     1  180.0000771  0.8368000  1
   1518   1515   1514   1528     1  180.0000771  1.0460000  2
   1518   1515   1514   1528     1  0.0000000  0.7531200  3
   1518   1515   1514   1536     1  0.0000000  0.6508444  3
   1518   1519   1520   1524     1  0.0000000  0.6508444  3
   1518   1519   1520   1536     1  0.0000000  0.6508444  3
   1519   1518   1515   1527     1  0.0000000  0.6508444  3
   1520   1519   1518   1526     1  0.0000000  0.6508444  3
   1520   1536   1514   1528     1  180.0000771  0.4184000  2
   1520   1536   1514   1528     1  0.0000000  1.6024720  3
   1524   1520   1519   1525     1  0.0000000  4.9162000  2
   1524   1520   1519   1525     1  0.0000000  0.6024960  3
   1525   1519   1518   1526     1  0.0000000  4.9162000  2
   1525   1519   1518   1526     1  0.0000000  0.6024960  3
   1525   1519   1520   1536     1  0.0000000  4.9162000  2
   1525   1519   1520   1536     1  0.0000000  0.6024960  3
   1526   1518   1515   1527     1  0.0000000  4.9162000  2
   1526   1518   1515   1527     1  0.0000000  0.6024960  3
   1527   1515   1514   1528     1  0.0000000  0.6508444  3
   1527   1515   1514   1536     1  0.0000000  4.9162000  2
   1527   1515   1514   1536     1  0.0000000  0.6024960  3
   1534   1528   1514   1536     1  0.0000000  4.9162000  2
   1534   1528   1514   1536     1  0.0000000  0.6024960  3
   1537   1538   1541   1542     1  180.0000771  0.8368000  1
   1537   1538   1541   1542     1  180.0000771  1.0460000  2
   1537   1538   1541   1542     1  0.0000000  0.7531200  3
   1537   1538   1541   1549     1  0.0000000  0.6508444  3
   1537   1559   1543   1542     1  180.0000771  0.4184000  2
   1537   1559   1543   1542     1  0.0000000  1.6024720  3
   1537   1559   1543   1547     1  180.0000771  5.6484000  1
   1537   1559   1543   1547     1  180.0000771  3.5564000  2
   1537   1559   1543   1547     1  0.0000000  0.4184000  3
   1538   1537   1551   1557     1  0.0000000  0.6508444  3
   1538   1537   1559   1543     1  180.0000771  0.4184000  2
   1538   1537   1559   1543     1  0.0000000  1.6024720  3
   1538   1541   1542   1543     1  180.0000771  0.8368000  1
   1538   1541   1542   1543     1  180.0000771  1.0460000  2
   1538   1541   1542   1543     1  0.0000000  0.7531200  3
   1538   1541   1542   1548     1  0.0000000  0.6508444  3
   1541   1538   1537   1551     1  180.0000771  0.8368000  1
   1541   1538   1537   1551     1  180.0000771  1.0460000  2
   1541   1538   1537   1551     1  0.0000000  0.7531200  3
   1541   1538   1537   1559     1  0.0000000  0.6508444  3
   1541   1542   1543   1547     1  0.0000000  0.6508444  3
   1541   1542   1543   1559     1  0.0000000  0.6508444  3
   1542   1541   1538   1550     1  0.0000000  0.6508444  3
   1543   1542   1541   1549     1  0.0000000  0.6508444  3
   1543   1559   1537   1551     1  180.0000771  0.4184000  2
   1543   1559   1537   1551     1  0.0000000  1.6024720  3
   1547   1543   1542   1548     1  0.0000000  4.9162000  2
   1547   1543   1542   1548     1  0.0000000  0.6024960  3
   1548   1542   1541   1549     1  0.0000000  4.9162000  2
   1548   1542   1541   1549     1  0.0000000  0.6024960  3
   1548   1542   1543   1559     1  0.0000000  4.9162000  2
   1548   1542   1543   1559     1  0.0000000  0.6024960  3
   1549   1541   1538   1550     1  0.0000000  4.9162000  2
   1549   1541   1538   1550     1  0.0000000  0.6024960  3
   1550   1538   1537   1551     1  0.0000000  0.6508444  3
   1550   1538   1537   1559     1  0.0000000  4.9162000  2
   1550   1538   1537   1559     1  0.0000000  0.6024960  3
   1557   1551   1537   1559     1  0.0000000  4.9162000  2
   1557   1551   1537   1559     1  0.0000000  0.6024960  3
   1560   1561   1564   1565     1  180.0000771  0.8368000  1
   1560   1561   1564   1565     1  180.0000771  1.0460000  2
   1560   1561   1564   1565     1  0.0000000  0.7531200  3
   1560   1561   1564   1572     1  0.0000000  0.6508444  3
   1560   1582   1566   1565     1  180.0000771  0.4184000  2
   1560   1582   1566   1565     1  0.0000000  1.6024720  3
   1560   1582   1566   1570     1  180.0000771  5.6484000  1
   1560   1582   1566   1570     1  180.0000771  3.5564000  2
   1560   1582   1566   1570     1  0.0000000  0.4184000  3
   1561   1560   1574   1580     1  0.0000000  0.6508444  3
   1561   1560   1582   1566     1  180.0000771  0.4184000  2
   1561   1560   1582   1566     1  0.0000000  1.6024720  3
   1561   1564   1565   1566     1  180.0000771  0.8368000  1
   1561   1564   1565   1566     1  180.0000771  1.0460000  2
   1561   1564   1565   1566     1  0.0000000  0.7531200  3
   1561   1564   1565   1571     1  0.0000000  0.6508444  3
   1564   1561   1560   1574     1  180.0000771  0.8368000  1
   1564   1561   1560   1574     1  180.0000771  1.0460000  2
   1564   1561   1560   1574     1  0.0000000  0.7531200  3
   1564   1561   1560   1582     1  0.0000000  0.6508444  3
   1564   1565   1566   1570     1  0.0000000  0.6508444  3
   1564   1565   1566   1582     1  0.0000000  0.6508444  3
   1565   1564   1561   1573     1  0.0000000  0.6508444  3
   1566   1565   1564   1572     1  0.0000000  0.6508444  3
   1566   1582   1560   1574     1  180.0000771  0.4184000  2
   1566   1582   1560   1574     1  0.0000000  1.6024720  3
   1570   1566   1565   1571     1  0.0000000  4.9162000  2
   1570   1566   1565   1571     1  0.0000000  0.6024960  3
   1571   1565   1564   1572     1  0.0000000  4.9162000  2
   1571   1565   1564   1572     1  0.0000000  0.6024960  3
   1571   1565   1566   1582     1  0.0000000  4.9162000  2
   1571   1565   1566   1582     1  0.0000000  0.6024960  3
   1572   1564   1561   1573     1  0.0000000  4.9162000  2
   1572   1564   1561   1573     1  0.0000000  0.6024960  3
   1573   1561   1560   1574     1  0.0000000  0.6508444  3
   1573   1561   1560   1582     1  0.0000000  4.9162000  2
   1573   1561   1560   1582     1  0.0000000  0.6024960  3
   1580   1574   1560   1582     1  0.0000000  4.9162000  2
   1580   1574   1560   1582     1  0.0000000  0.6024960  3
   1583   1584   1587   1588     1  180.0000771  0.8368000  1
   1583   1584   1587   1588     1  180.0000771  1.0460000  2
   1583   1584   1587   1588     1  0.0000000  0.7531200  3
   1583   1584   1587   1595     1  0.0000000  0.6508444  3
   1583   1605   1589   1588     1  180.0000771  0.4184000  2
   1583   1605   1589   1588     1  0.0000000  1.6024720  3
   1583   1605   1589   1593     1  180.0000771  5.6484000  1
   1583   1605   1589   1593     1  180.0000771  3.5564000  2
   1583   1605   1589   1593     1  0.0000000  0.4184000  3
   1584   1583   1597   1603     1  0.0000000  0.6508444  3
   1584   1583   1605   1589     1  180.0000771  0.4184000  2
   1584   1583   1605   1589     1  0.0000000  1.6024720  3
   1584   1587   1588   1589     1  180.0000771  0.8368000  1
   1584   1587   1588   1589     1  180.0000771  1.0460000  2
   1584   1587   1588   1589     1  0.0000000  0.7531200  3
   1584   1587   1588   1594     1  0.0000000  0.6508444  3
   1587   1584   1583   1597     1  180.0000771  0.8368000  1
   1587   1584   1583   1597     1  180.0000771  1.0460000  2
   1587   1584   1583   1597     1  0.0000000  0.7531200  3
   1587   1584   1583   1605     1  0.0000000  0.6508444  3
   1587   1588   1589   1593     1  0.0000000  0.6508444  3
   1587   1588   1589   1605     1  0.0000000  0.6508444  3
   1588   1587   1584   1596     1  0.0000000  0.6508444  3
   1589   1588   1587   1595     1  0.0000000  0.6508444  3
   1589   1605   1583   1597     1  180.0000771  0.4184000  2
   1589   1605   1583   1597     1  0.0000000  1.6024720  3
   1593   1589   1588   1594     1  0.0000000  4.9162000  2
   1593   1589   1588   1594     1  0.0000000  0.6024960  3
   1594   1588   1587   1595     1  0.0000000  4.9162000  2
   1594   1588   1587   1595     1  0.0000000  0.6024960  3
   1594   1588   1589   1605     1  0.0000000  4.9162000  2
   1594   1588   1589   1605     1  0.0000000  0.6024960  3
   1595   1587   1584   1596     1  0.0000000  4.9162000  2
   1595   1587   1584   1596     1  0.0000000  0.6024960  3
   1596   1584   1583   1597     1  0.0000000  0.6508444  3
   1596   1584   1583   1605     1  0.0000000  4.9162000  2
   1596   1584   1583   1605     1  0.0000000  0.6024960  3
   1603   1597   1583   1605     1  0.0000000  4.9162000  2
   1603   1597   1583   1605     1  0.0000000  0.6024960  3
      1      2      8      9     1  0.0000000  1.0460000  1
      1      2      8      9     1  0.0000000  0.0000000  3
      1      2      8     10     1  0.0000000  1.0460000  1
      1      2      8     10     1  0.0000000  0.0000000  3
      1      5     11     12     1  0.0000000  1.0460000  1
      1      5     11     12     1  0.0000000  0.0000000  3
      1      5     11     13     1  0.0000000  1.0460000  1
      1      5     11     13     1  0.0000000  0.0000000  3
      2      1      5      6     1  0.0000000  1.6038667  3
      2      1      5      7     1  0.0000000  1.6038667  3
      2      8     14     15     1  0.0000000  0.6508444  3
      2      8     14     16     1  0.0000000  0.6508444  3
      5      1      2      3     1  0.0000000  1.6038667  3
      3      2      8     14     1  0.0000000  0.6508444  3
      3      2      8      9     1  0.0000000  0.6508444  3
      3      2      8     10     1  0.0000000  0.6508444  3
      5      1      2      4     1  0.0000000  1.6038667  3
      4      2      8     14     1  0.0000000  0.6508444  3
      4      2      8      9     1  0.0000000  0.6508444  3
      4      2      8     10     1  0.0000000  0.6508444  3
      5     11     17     18     1  0.0000000  0.6508444  3
      5     11     17     19     1  0.0000000  0.6508444  3
      6      5     11     17     1  0.0000000  0.6508444  3
      6      5     11     12     1  0.0000000  0.6508444  3
      6      5     11     13     1  0.0000000  0.6508444  3
      7      5     11     17     1  0.0000000  0.6508444  3
      7      5     11     12     1  0.0000000  0.6508444  3
      7      5     11     13     1  0.0000000  0.6508444  3
      9      8     14     20     1  0.0000000  0.6508444  3
      9      8     14     15     1  0.0000000  0.6508444  3
      9      8     14     16     1  0.0000000  0.6508444  3
     10      8     14     20     1  0.0000000  0.6508444  3
     10      8     14     15     1  0.0000000  0.6508444  3
     10      8     14     16     1  0.0000000  0.6508444  3
     12     11     17     21     1  0.0000000  0.6508444  3
     12     11     17     18     1  0.0000000  0.6508444  3
     12     11     17     19     1  0.0000000  0.6508444  3
     13     11     17     21     1  0.0000000  0.6508444  3
     13     11     17     18     1  0.0000000  0.6508444  3
     13     11     17     19     1  0.0000000  0.6508444  3
     14     20     28     29     1  0.0000000  1.2552000  3
     14     20     28     30     1  0.0000000  1.2552000  3
     14     20     31     32     1  0.0000000  1.2552000  3
     14     20     31     33     1  0.0000000  1.2552000  3
     15     14     20     28     1  0.0000000  1.2552000  3
     15     14     20     31     1  0.0000000  1.2552000  3
     16     14     20     28     1  0.0000000  1.2552000  3
     16     14     20     31     1  0.0000000  1.2552000  3
     17     21     22     23     1  0.0000000  1.2552000  3
     17     21     22     24     1  0.0000000  1.2552000  3
     17     21     25     26     1  0.0000000  1.2552000  3
     17     21     25     27     1  0.0000000  1.2552000  3
     18     17     21     22     1  0.0000000  1.2552000  3
     18     17     21     25     1  0.0000000  1.2552000  3
     19     17     21     22     1  0.0000000  1.2552000  3
     19     17     21     25     1  0.0000000  1.2552000  3
     20     28     40     41     1  0.0000000  0.6508444  3
     20     28     40     42     1  0.0000000  0.6508444  3
     20     31     43     44     1  0.0000000  0.6508444  3
     20     31     43     45     1  0.0000000  0.6508444  3
     21     22     34     35     1  0.0000000  0.6508444  3
     21     22     34     36     1  0.0000000  0.6508444  3
     21     25     37     38     1  0.0000000  0.6508444  3
     21     25     37     39     1  0.0000000  0.6508444  3
     22     21     25     26     1  0.0000000  1.2552000  3
     22     21     25     27     1  0.0000000  1.2552000  3
     22     34     55     56     1  0.0000000  0.6508444  3
     22     34     55     57     1  0.0000000  0.6508444  3
     23     22     21     25     1  0.0000000  1.2552000  3
     23     22     34     55     1  0.0000000  0.6508444  3
     23     22     34     35     1  0.0000000  0.6508444  3
     23     22     34     36     1  0.0000000  0.6508444  3
     24     22     21     25     1  0.0000000  1.2552000  3
     24     22     34     55     1  0.0000000  0.6508444  3
     24     22     34     35     1  0.0000000  0.6508444  3
     24     22     34     36     1  0.0000000  0.6508444  3
     25     37     52     53     1  0.0000000  0.6508444  3
     25     37     52     54     1  0.0000000  0.6508444  3
     26     25     37     52     1  0.0000000  0.6508444  3
     26     25     37     38     1  0.0000000  0.6508444  3
     26     25     37     39     1  0.0000000  0.6508444  3
     27     25     37     52     1  0.0000000  0.6508444  3
     27     25     37     38     1  0.0000000  0.6508444  3
     27     25     37     39     1  0.0000000  0.6508444  3
     28     20     31     32     1  0.0000000  1.2552000  3
     28     20     31     33     1  0.0000000  1.2552000  3
     28     40     49     50     1  0.0000000  0.6508444  3
     28     40     49     51     1  0.0000000  0.6508444  3
     29     28     20     31     1  0.0000000  1.2552000  3
     29     28     40     49     1  0.0000000  0.6508444  3
     29     28     40     41     1  0.0000000  0.6508444  3
     29     28     40     42     1  0.0000000  0.6508444  3
     30     28     20     31     1  0.0000000  1.2552000  3
     30     28     40     49     1  0.0000000  0.6508444  3
     30     28     40     41     1  0.0000000  0.6508444  3
     30     28     40     42     1  0.0000000  0.6508444  3
     31     43     46     47     1  0.0000000  0.6508444  3
     31     43     46     48     1  0.0000000  0.6508444  3
     32     31     43     46     1  0.0000000  0.6508444  3
     32     31     43     44     1  0.0000000  0.6508444  3
     32     31     43     45     1  0.0000000  0.6508444  3
     33     31     43     46     1  0.0000000  0.6508444  3
     33     31     43     44     1  0.0000000  0.6508444  3
     33     31     43     45     1  0.0000000  0.6508444  3
     35     34     55    173     1  0.0000000  1.0460000  1
     35     34     55    173     1  0.0000000  0.0000000  3
     35     34     55     56     1  0.0000000  0.6508444  3
     35     34     55     57     1  0.0000000  0.6508444  3
     36     34     55    173     1  0.0000000  1.0460000  1
     36     34     55    173     1  0.0000000  0.0000000  3
     36     34     55     56     1  0.0000000  0.6508444  3
     36     34     55     57     1  0.0000000  0.6508444  3
     38     37     52    144     1  0.0000000  1.0460000  1
     38     37     52    144     1  0.0000000  0.0000000  3
     38     37     52     53     1  0.0000000  0.6508444  3
     38     37     52     54     1  0.0000000  0.6508444  3
     39     37     52    144     1  0.0000000  1.0460000  1
     39     37     52    144     1  0.0000000  0.0000000  3
     39     37     52     53     1  0.0000000  0.6508444  3
     39     37     52     54     1  0.0000000  0.6508444  3
     41     40     49    115     1  0.0000000  1.0460000  1
     41     40     49    115     1  0.0000000  0.0000000  3
     41     40     49     50     1  0.0000000  0.6508444  3
     41     40     49     51     1  0.0000000  0.6508444  3
     42     40     49    115     1  0.0000000  1.0460000  1
     42     40     49    115     1  0.0000000  0.0000000  3
     42     40     49     50     1  0.0000000  0.6508444  3
     42     40     49     51     1  0.0000000  0.6508444  3
     44     43     46     86     1  0.0000000  1.0460000  1
     44     43     46     86     1  0.0000000  0.0000000  3
     44     43     46     47     1  0.0000000  0.6508444  3
     44     43     46     48     1  0.0000000  0.6508444  3
     45     43     46     86     1  0.0000000  1.0460000  1
     45     43     46     86     1  0.0000000  0.0000000  3
     45     43     46     47     1  0.0000000  0.6508444  3
     45     43     46     48     1  0.0000000  0.6508444  3
     46     86     77     78     1  0.0000000  1.6038667  3
     46     86     77     79     1  0.0000000  1.6038667  3
     47     46     86     77     1  0.0000000  1.6038667  3
     48     46     86     77     1  0.0000000  1.6038667  3
     49    115    106    107     1  0.0000000  1.6038667  3
     49    115    106    108     1  0.0000000  1.6038667  3
     50     49    115    106     1  0.0000000  1.6038667  3
     51     49    115    106     1  0.0000000  1.6038667  3
     52    144    135    136     1  0.0000000  1.6038667  3
     52    144    135    137     1  0.0000000  1.6038667  3
     53     52    144    135     1  0.0000000  1.6038667  3
     54     52    144    135     1  0.0000000  1.6038667  3
     55    173    164    165     1  0.0000000  1.6038667  3
     55    173    164    166     1  0.0000000  1.6038667  3
     56     55    173    164     1  0.0000000  1.6038667  3
     57     55    173    164     1  0.0000000  1.6038667  3
     58     59     71     72     1  0.0000000  0.6508444  3
     58     59     71     73     1  0.0000000  0.6508444  3
     58     62     74     75     1  0.0000000  0.6508444  3
     58     62     74     76     1  0.0000000  0.6508444  3
     58     65     68     69     1  0.0000000  0.6508444  3
     58     65     68     70     1  0.0000000  0.6508444  3
     59     58     62     63     1  0.0000000  1.2552000  3
     59     58     62     64     1  0.0000000  1.2552000  3
     59     58     65     66     1  0.0000000  1.2552000  3
     59     58     65     67     1  0.0000000  1.2552000  3
     59     71     83     84     1  0.0000000  0.6508444  3
     59     71     83     85     1  0.0000000  0.6508444  3
     60     59     58     62     1  0.0000000  1.2552000  3
     60     59     58     65     1  0.0000000  1.2552000  3
     60     59     71     83     1  0.0000000  0.6508444  3
     60     59     71     72     1  0.0000000  0.6508444  3
     60     59     71     73     1  0.0000000  0.6508444  3
     61     59     58     62     1  0.0000000  1.2552000  3
     61     59     58     65     1  0.0000000  1.2552000  3
     61     59     71     83     1  0.0000000  0.6508444  3
     61     59     71     72     1  0.0000000  0.6508444  3
     61     59     71     73     1  0.0000000  0.6508444  3
     62     58     65     66     1  0.0000000  1.2552000  3
     62     58     65     67     1  0.0000000  1.2552000  3
     62     74     80     81     1  0.0000000  0.6508444  3
     62     74     80     82     1  0.0000000  0.6508444  3
     63     62     58     65     1  0.0000000  1.2552000  3
     63     62     74     80     1  0.0000000  0.6508444  3
     63     62     74     75     1  0.0000000  0.6508444  3
     63     62     74     76     1  0.0000000  0.6508444  3
     64     62     58     65     1  0.0000000  1.2552000  3
     64     62     74     80     1  0.0000000  0.6508444  3
     64     62     74     75     1  0.0000000  0.6508444  3
     64     62     74     76     1  0.0000000  0.6508444  3
     65     68     77     78     1  0.0000000  0.6508444  3
     65     68     77     79     1  0.0000000  0.6508444  3
     66     65     68     77     1  0.0000000  0.6508444  3
     66     65     68     69     1  0.0000000  0.6508444  3
     66     65     68     70     1  0.0000000  0.6508444  3
     67     65     68     77     1  0.0000000  0.6508444  3
     67     65     68     69     1  0.0000000  0.6508444  3
     67     65     68     70     1  0.0000000  0.6508444  3
     69     68     77     86     1  0.0000000  1.0460000  1
     69     68     77     86     1  0.0000000  0.0000000  3
     69     68     77     78     1  0.0000000  0.6508444  3
     69     68     77     79     1  0.0000000  0.6508444  3
     70     68     77     86     1  0.0000000  1.0460000  1
     70     68     77     86     1  0.0000000  0.0000000  3
     70     68     77     78     1  0.0000000  0.6508444  3
     70     68     77     79     1  0.0000000  0.6508444  3
     72     71     83    231     1  0.0000000  1.0460000  1
     72     71     83    231     1  0.0000000  0.0000000  3
     72     71     83     84     1  0.0000000  0.6508444  3
     72     71     83     85     1  0.0000000  0.6508444  3
     73     71     83    231     1  0.0000000  1.0460000  1
     73     71     83    231     1  0.0000000  0.0000000  3
     73     71     83     84     1  0.0000000  0.6508444  3
     73     71     83     85     1  0.0000000  0.6508444  3
     75     74     80    202     1  0.0000000  1.0460000  1
     75     74     80    202     1  0.0000000  0.0000000  3
     75     74     80     81     1  0.0000000  0.6508444  3
     75     74     80     82     1  0.0000000  0.6508444  3
     76     74     80    202     1  0.0000000  1.0460000  1
     76     74     80    202     1  0.0000000  0.0000000  3
     76     74     80     81     1  0.0000000  0.6508444  3
     76     74     80     82     1  0.0000000  0.6508444  3
     80    202    193    194     1  0.0000000  1.6038667  3
     80    202    193    195     1  0.0000000  1.6038667  3
     81     80    202    193     1  0.0000000  1.6038667  3
     82     80    202    193     1  0.0000000  1.6038667  3
     83    231    222    223     1  0.0000000  1.6038667  3
     83    231    222    224     1  0.0000000  1.6038667  3
     84     83    231    222     1  0.0000000  1.6038667  3
     85     83    231    222     1  0.0000000  1.6038667  3
     87     88    100    101     1  0.0000000  0.6508444  3
     87     88    100    102     1  0.0000000  0.6508444  3
     87     91    103    104     1  0.0000000  0.6508444  3
     87     91    103    105     1  0.0000000  0.6508444  3
     87     94     97     98     1  0.0000000  0.6508444  3
     87     94     97     99     1  0.0000000  0.6508444  3
     88     87     91     92     1  0.0000000  1.2552000  3
     88     87     91     93     1  0.0000000  1.2552000  3
     88     87     94     95     1  0.0000000  1.2552000  3
     88     87     94     96     1  0.0000000  1.2552000  3
     88    100    112    113     1  0.0000000  0.6508444  3
     88    100    112    114     1  0.0000000  0.6508444  3
     89     88     87     91     1  0.0000000  1.2552000  3
     89     88     87     94     1  0.0000000  1.2552000  3
     89     88    100    112     1  0.0000000  0.6508444  3
     89     88    100    101     1  0.0000000  0.6508444  3
     89     88    100    102     1  0.0000000  0.6508444  3
     90     88     87     91     1  0.0000000  1.2552000  3
     90     88     87     94     1  0.0000000  1.2552000  3
     90     88    100    112     1  0.0000000  0.6508444  3
     90     88    100    101     1  0.0000000  0.6508444  3
     90     88    100    102     1  0.0000000  0.6508444  3
     91     87     94     95     1  0.0000000  1.2552000  3
     91     87     94     96     1  0.0000000  1.2552000  3
     91    103    109    110     1  0.0000000  0.6508444  3
     91    103    109    111     1  0.0000000  0.6508444  3
     92     91     87     94     1  0.0000000  1.2552000  3
     92     91    103    109     1  0.0000000  0.6508444  3
     92     91    103    104     1  0.0000000  0.6508444  3
     92     91    103    105     1  0.0000000  0.6508444  3
     93     91     87     94     1  0.0000000  1.2552000  3
     93     91    103    109     1  0.0000000  0.6508444  3
     93     91    103    104     1  0.0000000  0.6508444  3
     93     91    103    105     1  0.0000000  0.6508444  3
     94     97    106    107     1  0.0000000  0.6508444  3
     94     97    106    108     1  0.0000000  0.6508444  3
     95     94     97    106     1  0.0000000  0.6508444  3
     95     94     97     98     1  0.0000000  0.6508444  3
     95     94     97     99     1  0.0000000  0.6508444  3
     96     94     97    106     1  0.0000000  0.6508444  3
     96     94     97     98     1  0.0000000  0.6508444  3
     96     94     97     99     1  0.0000000  0.6508444  3
     98     97    106    115     1  0.0000000  1.0460000  1
     98     97    106    115     1  0.0000000  0.0000000  3
     98     97    106    107     1  0.0000000  0.6508444  3
     98     97    106    108     1  0.0000000  0.6508444  3
     99     97    106    115     1  0.0000000  1.0460000  1
     99     97    106    115     1  0.0000000  0.0000000  3
     99     97    106    107     1  0.0000000  0.6508444  3
     99     97    106    108     1  0.0000000  0.6508444  3
    101    100    112    289     1  0.0000000  1.0460000  1
    101    100    112    289     1  0.0000000  0.0000000  3
    101    100    112    113     1  0.0000000  0.6508444  3
    101    100    112    114     1  0.0000000  0.6508444  3
    102    100    112    289     1  0.0000000  1.0460000  1
    102    100    112    289     1  0.0000000  0.0000000  3
    102    100    112    113     1  0.0000000  0.6508444  3
    102    100    112    114     1  0.0000000  0.6508444  3
    104    103    109    260     1  0.0000000  1.0460000  1
    104    103    109    260     1  0.0000000  0.0000000  3
    104    103    109    110     1  0.0000000  0.6508444  3
    104    103    109    111     1  0.0000000  0.6508444  3
    105    103    109    260     1  0.0000000  1.0460000  1
    105    103    109    260     1  0.0000000  0.0000000  3
    105    103    109    110     1  0.0000000  0.6508444  3
    105    103    109    111     1  0.0000000  0.6508444  3
    109    260    251    252     1  0.0000000  1.6038667  3
    109    260    251    253     1  0.0000000  1.6038667  3
    110    109    260    251     1  0.0000000  1.6038667  3
    111    109    260    251     1  0.0000000  1.6038667  3
    112    289    280    281     1  0.0000000  1.6038667  3
    112    289    280    282     1  0.0000000  1.6038667  3
    113    112    289    280     1  0.0000000  1.6038667  3
    114    112    289    280     1  0.0000000  1.6038667  3
    116    117    129    130     1  0.0000000  0.6508444  3
    116    117    129    131     1  0.0000000  0.6508444  3
    116    120    132    133     1  0.0000000  0.6508444  3
    116    120    132    134     1  0.0000000  0.6508444  3
    116    123    126    127     1  0.0000000  0.6508444  3
    116    123    126    128     1  0.0000000  0.6508444  3
    117    116    120    121     1  0.0000000  1.2552000  3
    117    116    120    122     1  0.0000000  1.2552000  3
    117    116    123    124     1  0.0000000  1.2552000  3
    117    116    123    125     1  0.0000000  1.2552000  3
    117    129    141    142     1  0.0000000  0.6508444  3
    117    129    141    143     1  0.0000000  0.6508444  3
    118    117    116    120     1  0.0000000  1.2552000  3
    118    117    116    123     1  0.0000000  1.2552000  3
    118    117    129    141     1  0.0000000  0.6508444  3
    118    117    129    130     1  0.0000000  0.6508444  3
    118    117    129    131     1  0.0000000  0.6508444  3
    119    117    116    120     1  0.0000000  1.2552000  3
    119    117    116    123     1  0.0000000  1.2552000  3
    119    117    129    141     1  0.0000000  0.6508444  3
    119    117    129    130     1  0.0000000  0.6508444  3
    119    117    129    131     1  0.0000000  0.6508444  3
    120    116    123    124     1  0.0000000  1.2552000  3
    120    116    123    125     1  0.0000000  1.2552000  3
    120    132    138    139     1  0.0000000  0.6508444  3
    120    132    138    140     1  0.0000000  0.6508444  3
    121    120    116    123     1  0.0000000  1.2552000  3
    121    120    132    138     1  0.0000000  0.6508444  3
    121    120    132    133     1  0.0000000  0.6508444  3
    121    120    132    134     1  0.0000000  0.6508444  3
    122    120    116    123     1  0.0000000  1.2552000  3
    122    120    132    138     1  0.0000000  0.6508444  3
    122    120    132    133     1  0.0000000  0.6508444  3
    122    120    132    134     1  0.0000000  0.6508444  3
    123    126    135    136     1  0.0000000  0.6508444  3
    123    126    135    137     1  0.0000000  0.6508444  3
    124    123    126    135     1  0.0000000  0.6508444  3
    124    123    126    127     1  0.0000000  0.6508444  3
    124    123    126    128     1  0.0000000  0.6508444  3
    125    123    126    135     1  0.0000000  0.6508444  3
    125    123    126    127     1  0.0000000  0.6508444  3
    125    123    126    128     1  0.0000000  0.6508444  3
    127    126    135    144     1  0.0000000  1.0460000  1
    127    126    135    144     1  0.0000000  0.0000000  3
    127    126    135    136     1  0.0000000  0.6508444  3
    127    126    135    137     1  0.0000000  0.6508444  3
    128    126    135    144     1  0.0000000  1.0460000  1
    128    126    135    144     1  0.0000000  0.0000000  3
    128    126    135    136     1  0.0000000  0.6508444  3
    128    126    135    137     1  0.0000000  0.6508444  3
    130    129    141    347     1  0.0000000  1.0460000  1
    130    129    141    347     1  0.0000000  0.0000000  3
    130    129    141    142     1  0.0000000  0.6508444  3
    130    129    141    143     1  0.0000000  0.6508444  3
    131    129    141    347     1  0.0000000  1.0460000  1
    131    129    141    347     1  0.0000000  0.0000000  3
    131    129    141    142     1  0.0000000  0.6508444  3
    131    129    141    143     1  0.0000000  0.6508444  3
    133    132    138    318     1  0.0000000  1.0460000  1
    133    132    138    318     1  0.0000000  0.0000000  3
    133    132    138    139     1  0.0000000  0.6508444  3
    133    132    138    140     1  0.0000000  0.6508444  3
    134    132    138    318     1  0.0000000  1.0460000  1
    134    132    138    318     1  0.0000000  0.0000000  3
    134    132    138    139     1  0.0000000  0.6508444  3
    134    132    138    140     1  0.0000000  0.6508444  3
    138    318    309    310     1  0.0000000  1.6038667  3
    138    318    309    311     1  0.0000000  1.6038667  3
    139    138    318    309     1  0.0000000  1.6038667  3
    140    138    318    309     1  0.0000000  1.6038667  3
    141    347    338    339     1  0.0000000  1.6038667  3
    141    347    338    340     1  0.0000000  1.6038667  3
    142    141    347    338     1  0.0000000  1.6038667  3
    143    141    347    338     1  0.0000000  1.6038667  3
    145    146    158    159     1  0.0000000  0.6508444  3
    145    146    158    160     1  0.0000000  0.6508444  3
    145    149    161    162     1  0.0000000  0.6508444  3
    145    149    161    163     1  0.0000000  0.6508444  3
    145    152    155    156     1  0.0000000  0.6508444  3
    145    152    155    157     1  0.0000000  0.6508444  3
    146    145    149    150     1  0.0000000  1.2552000  3
    146    145    149    151     1  0.0000000  1.2552000  3
    146    145    152    153     1  0.0000000  1.2552000  3
    146    145    152    154     1  0.0000000  1.2552000  3
    146    158    170    171     1  0.0000000  0.6508444  3
    146    158    170    172     1  0.0000000  0.6508444  3
    147    146    145    149     1  0.0000000  1.2552000  3
    147    146    145    152     1  0.0000000  1.2552000  3
    147    146    158    170     1  0.0000000  0.6508444  3
    147    146    158    159     1  0.0000000  0.6508444  3
    147    146    158    160     1  0.0000000  0.6508444  3
    148    146    145    149     1  0.0000000  1.2552000  3
    148    146    145    152     1  0.0000000  1.2552000  3
    148    146    158    170     1  0.0000000  0.6508444  3
    148    146    158    159     1  0.0000000  0.6508444  3
    148    146    158    160     1  0.0000000  0.6508444  3
    149    145    152    153     1  0.0000000  1.2552000  3
    149    145    152    154     1  0.0000000  1.2552000  3
    149    161    167    168     1  0.0000000  0.6508444  3
    149    161    167    169     1  0.0000000  0.6508444  3
    150    149    145    152     1  0.0000000  1.2552000  3
    150    149    161    167     1  0.0000000  0.6508444  3
    150    149    161    162     1  0.0000000  0.6508444  3
    150    149    161    163     1  0.0000000  0.6508444  3
    151    149    145    152     1  0.0000000  1.2552000  3
    151    149    161    167     1  0.0000000  0.6508444  3
    151    149    161    162     1  0.0000000  0.6508444  3
    151    149    161    163     1  0.0000000  0.6508444  3
    152    155    164    165     1  0.0000000  0.6508444  3
    152    155    164    166     1  0.0000000  0.6508444  3
    153    152    155    164     1  0.0000000  0.6508444  3
    153    152    155    156     1  0.0000000  0.6508444  3
    153    152    155    157     1  0.0000000  0.6508444  3
    154    152    155    164     1  0.0000000  0.6508444  3
    154    152    155    156     1  0.0000000  0.6508444  3
    154    152    155    157     1  0.0000000  0.6508444  3
    156    155    164    173     1  0.0000000  1.0460000  1
    156    155    164    173     1  0.0000000  0.0000000  3
    156    155    164    165     1  0.0000000  0.6508444  3
    156    155    164    166     1  0.0000000  0.6508444  3
    157    155    164    173     1  0.0000000  1.0460000  1
    157    155    164    173     1  0.0000000  0.0000000  3
    157    155    164    165     1  0.0000000  0.6508444  3
    157    155    164    166     1  0.0000000  0.6508444  3
    159    158    170    405     1  0.0000000  1.0460000  1
    159    158    170    405     1  0.0000000  0.0000000  3
    159    158    170    171     1  0.0000000  0.6508444  3
    159    158    170    172     1  0.0000000  0.6508444  3
    160    158    170    405     1  0.0000000  1.0460000  1
    160    158    170    405     1  0.0000000  0.0000000  3
    160    158    170    171     1  0.0000000  0.6508444  3
    160    158    170    172     1  0.0000000  0.6508444  3
    162    161    167    376     1  0.0000000  1.0460000  1
    162    161    167    376     1  0.0000000  0.0000000  3
    162    161    167    168     1  0.0000000  0.6508444  3
    162    161    167    169     1  0.0000000  0.6508444  3
    163    161    167    376     1  0.0000000  1.0460000  1
    163    161    167    376     1  0.0000000  0.0000000  3
    163    161    167    168     1  0.0000000  0.6508444  3
    163    161    167    169     1  0.0000000  0.6508444  3
    167    376    367    368     1  0.0000000  1.6038667  3
    167    376    367    369     1  0.0000000  1.6038667  3
    168    167    376    367     1  0.0000000  1.6038667  3
    169    167    376    367     1  0.0000000  1.6038667  3
    170    405    396    397     1  0.0000000  1.6038667  3
    170    405    396    398     1  0.0000000  1.6038667  3
    171    170    405    396     1  0.0000000  1.6038667  3
    172    170    405    396     1  0.0000000  1.6038667  3
    174    175    187    188     1  0.0000000  0.6508444  3
    174    175    187    189     1  0.0000000  0.6508444  3
    174    178    190    191     1  0.0000000  0.6508444  3
    174    178    190    192     1  0.0000000  0.6508444  3
    174    181    184    185     1  0.0000000  0.6508444  3
    174    181    184    186     1  0.0000000  0.6508444  3
    175    174    178    179     1  0.0000000  1.2552000  3
    175    174    178    180     1  0.0000000  1.2552000  3
    175    174    181    182     1  0.0000000  1.2552000  3
    175    174    181    183     1  0.0000000  1.2552000  3
    175    187    199    200     1  0.0000000  0.6508444  3
    175    187    199    201     1  0.0000000  0.6508444  3
    176    175    174    178     1  0.0000000  1.2552000  3
    176    175    174    181     1  0.0000000  1.2552000  3
    176    175    187    199     1  0.0000000  0.6508444  3
    176    175    187    188     1  0.0000000  0.6508444  3
    176    175    187    189     1  0.0000000  0.6508444  3
    177    175    174    178     1  0.0000000  1.2552000  3
    177    175    174    181     1  0.0000000  1.2552000  3
    177    175    187    199     1  0.0000000  0.6508444  3
    177    175    187    188     1  0.0000000  0.6508444  3
    177    175    187    189     1  0.0000000  0.6508444  3
    178    174    181    182     1  0.0000000  1.2552000  3
    178    174    181    183     1  0.0000000  1.2552000  3
    178    190    196    197     1  0.0000000  0.6508444  3
    178    190    196    198     1  0.0000000  0.6508444  3
    179    178    174    181     1  0.0000000  1.2552000  3
    179    178    190    196     1  0.0000000  0.6508444  3
    179    178    190    191     1  0.0000000  0.6508444  3
    179    178    190    192     1  0.0000000  0.6508444  3
    180    178    174    181     1  0.0000000  1.2552000  3
    180    178    190    196     1  0.0000000  0.6508444  3
    180    178    190    191     1  0.0000000  0.6508444  3
    180    178    190    192     1  0.0000000  0.6508444  3
    181    184    193    194     1  0.0000000  0.6508444  3
    181    184    193    195     1  0.0000000  0.6508444  3
    182    181    184    193     1  0.0000000  0.6508444  3
    182    181    184    185     1  0.0000000  0.6508444  3
    182    181    184    186     1  0.0000000  0.6508444  3
    183    181    184    193     1  0.0000000  0.6508444  3
    183    181    184    185     1  0.0000000  0.6508444  3
    183    181    184    186     1  0.0000000  0.6508444  3
    185    184    193    202     1  0.0000000  1.0460000  1
    185    184    193    202     1  0.0000000  0.0000000  3
    185    184    193    194     1  0.0000000  0.6508444  3
    185    184    193    195     1  0.0000000  0.6508444  3
    186    184    193    202     1  0.0000000  1.0460000  1
    186    184    193    202     1  0.0000000  0.0000000  3
    186    184    193    194     1  0.0000000  0.6508444  3
    186    184    193    195     1  0.0000000  0.6508444  3
    188    187    199    463     1  0.0000000  1.0460000  1
    188    187    199    463     1  0.0000000  0.0000000  3
    188    187    199    200     1  0.0000000  0.6508444  3
    188    187    199    201     1  0.0000000  0.6508444  3
    189    187    199    463     1  0.0000000  1.0460000  1
    189    187    199    463     1  0.0000000  0.0000000  3
    189    187    199    200     1  0.0000000  0.6508444  3
    189    187    199    201     1  0.0000000  0.6508444  3
    191    190    196    434     1  0.0000000  1.0460000  1
    191    190    196    434     1  0.0000000  0.0000000  3
    191    190    196    197     1  0.0000000  0.6508444  3
    191    190    196    198     1  0.0000000  0.6508444  3
    192    190    196    434     1  0.0000000  1.0460000  1
    192    190    196    434     1  0.0000000  0.0000000  3
    192    190    196    197     1  0.0000000  0.6508444  3
    192    190    196    198     1  0.0000000  0.6508444  3
    196    434    425    426     1  0.0000000  1.6038667  3
    196    434    425    427     1  0.0000000  1.6038667  3
    197    196    434    425     1  0.0000000  1.6038667  3
    198    196    434    425     1  0.0000000  1.6038667  3
    199    463    454    455     1  0.0000000  1.6038667  3
    199    463    454    456     1  0.0000000  1.6038667  3
    200    199    463    454     1  0.0000000  1.6038667  3
    201    199    463    454     1  0.0000000  1.6038667  3
    203    204    216    217     1  0.0000000  0.6508444  3
    203    204    216    218     1  0.0000000  0.6508444  3
    203    207    219    220     1  0.0000000  0.6508444  3
    203    207    219    221     1  0.0000000  0.6508444  3
    203    210    213    214     1  0.0000000  0.6508444  3
    203    210    213    215     1  0.0000000  0.6508444  3
    204    203    207    208     1  0.0000000  1.2552000  3
    204    203    207    209     1  0.0000000  1.2552000  3
    204    203    210    211     1  0.0000000  1.2552000  3
    204    203    210    212     1  0.0000000  1.2552000  3
    204    216    228    229     1  0.0000000  0.6508444  3
    204    216    228    230     1  0.0000000  0.6508444  3
    205    204    203    207     1  0.0000000  1.2552000  3
    205    204    203    210     1  0.0000000  1.2552000  3
    205    204    216    228     1  0.0000000  0.6508444  3
    205    204    216    217     1  0.0000000  0.6508444  3
    205    204    216    218     1  0.0000000  0.6508444  3
    206    204    203    207     1  0.0000000  1.2552000  3
    206    204    203    210     1  0.0000000  1.2552000  3
    206    204    216    228     1  0.0000000  0.6508444  3
    206    204    216    217     1  0.0000000  0.6508444  3
    206    204    216    218     1  0.0000000  0.6508444  3
    207    203    210    211     1  0.0000000  1.2552000  3
    207    203    210    212     1  0.0000000  1.2552000  3
    207    219    225    226     1  0.0000000  0.6508444  3
    207    219    225    227     1  0.0000000  0.6508444  3
    208    207    203    210     1  0.0000000  1.2552000  3
    208    207    219    225     1  0.0000000  0.6508444  3
    208    207    219    220     1  0.0000000  0.6508444  3
    208    207    219    221     1  0.0000000  0.6508444  3
    209    207    203    210     1  0.0000000  1.2552000  3
    209    207    219    225     1  0.0000000  0.6508444  3
    209    207    219    220     1  0.0000000  0.6508444  3
    209    207    219    221     1  0.0000000  0.6508444  3
    210    213    222    223     1  0.0000000  0.6508444  3
    210    213    222    224     1  0.0000000  0.6508444  3
    211    210    213    222     1  0.0000000  0.6508444  3
    211    210    213    214     1  0.0000000  0.6508444  3
    211    210    213    215     1  0.0000000  0.6508444  3
    212    210    213    222     1  0.0000000  0.6508444  3
    212    210    213    214     1  0.0000000  0.6508444  3
    212    210    213    215     1  0.0000000  0.6508444  3
    214    213    222    231     1  0.0000000  1.0460000  1
    214    213    222    231     1  0.0000000  0.0000000  3
    214    213    222    223     1  0.0000000  0.6508444  3
    214    213    222    224     1  0.0000000  0.6508444  3
    215    213    222    231     1  0.0000000  1.0460000  1
    215    213    222    231     1  0.0000000  0.0000000  3
    215    213    222    223     1  0.0000000  0.6508444  3
    215    213    222    224     1  0.0000000  0.6508444  3
    217    216    228    521     1  0.0000000  1.0460000  1
    217    216    228    521     1  0.0000000  0.0000000  3
    217    216    228    229     1  0.0000000  0.6508444  3
    217    216    228    230     1  0.0000000  0.6508444  3
    218    216    228    521     1  0.0000000  1.0460000  1
    218    216    228    521     1  0.0000000  0.0000000  3
    218    216    228    229     1  0.0000000  0.6508444  3
    218    216    228    230     1  0.0000000  0.6508444  3
    220    219    225    492     1  0.0000000  1.0460000  1
    220    219    225    492     1  0.0000000  0.0000000  3
    220    219    225    226     1  0.0000000  0.6508444  3
    220    219    225    227     1  0.0000000  0.6508444  3
    221    219    225    492     1  0.0000000  1.0460000  1
    221    219    225    492     1  0.0000000  0.0000000  3
    221    219    225    226     1  0.0000000  0.6508444  3
    221    219    225    227     1  0.0000000  0.6508444  3
    225    492    483    484     1  0.0000000  1.6038667  3
    225    492    483    485     1  0.0000000  1.6038667  3
    226    225    492    483     1  0.0000000  1.6038667  3
    227    225    492    483     1  0.0000000  1.6038667  3
    228    521    512    513     1  0.0000000  1.6038667  3
    228    521    512    514     1  0.0000000  1.6038667  3
    229    228    521    512     1  0.0000000  1.6038667  3
    230    228    521    512     1  0.0000000  1.6038667  3
    232    233    245    246     1  0.0000000  0.6508444  3
    232    233    245    247     1  0.0000000  0.6508444  3
    232    236    248    249     1  0.0000000  0.6508444  3
    232    236    248    250     1  0.0000000  0.6508444  3
    232    239    242    243     1  0.0000000  0.6508444  3
    232    239    242    244     1  0.0000000  0.6508444  3
    233    232    236    237     1  0.0000000  1.2552000  3
    233    232    236    238     1  0.0000000  1.2552000  3
    233    232    239    240     1  0.0000000  1.2552000  3
    233    232    239    241     1  0.0000000  1.2552000  3
    233    245    257    258     1  0.0000000  0.6508444  3
    233    245    257    259     1  0.0000000  0.6508444  3
    234    233    232    236     1  0.0000000  1.2552000  3
    234    233    232    239     1  0.0000000  1.2552000  3
    234    233    245    257     1  0.0000000  0.6508444  3
    234    233    245    246     1  0.0000000  0.6508444  3
    234    233    245    247     1  0.0000000  0.6508444  3
    235    233    232    236     1  0.0000000  1.2552000  3
    235    233    232    239     1  0.0000000  1.2552000  3
    235    233    245    257     1  0.0000000  0.6508444  3
    235    233    245    246     1  0.0000000  0.6508444  3
    235    233    245    247     1  0.0000000  0.6508444  3
    236    232    239    240     1  0.0000000  1.2552000  3
    236    232    239    241     1  0.0000000  1.2552000  3
    236    248    254    255     1  0.0000000  0.6508444  3
    236    248    254    256     1  0.0000000  0.6508444  3
    237    236    232    239     1  0.0000000  1.2552000  3
    237    236    248    254     1  0.0000000  0.6508444  3
    237    236    248    249     1  0.0000000  0.6508444  3
    237    236    248    250     1  0.0000000  0.6508444  3
    238    236    232    239     1  0.0000000  1.2552000  3
    238    236    248    254     1  0.0000000  0.6508444  3
    238    236    248    249     1  0.0000000  0.6508444  3
    238    236    248    250     1  0.0000000  0.6508444  3
    239    242    251    252     1  0.0000000  0.6508444  3
    239    242    251    253     1  0.0000000  0.6508444  3
    240    239    242    251     1  0.0000000  0.6508444  3
    240    239    242    243     1  0.0000000  0.6508444  3
    240    239    242    244     1  0.0000000  0.6508444  3
    241    239    242    251     1  0.0000000  0.6508444  3
    241    239    242    243     1  0.0000000  0.6508444  3
    241    239    242    244     1  0.0000000  0.6508444  3
    243    242    251    260     1  0.0000000  1.0460000  1
    243    242    251    260     1  0.0000000  0.0000000  3
    243    242    251    252     1  0.0000000  0.6508444  3
    243    242    251    253     1  0.0000000  0.6508444  3
    244    242    251    260     1  0.0000000  1.0460000  1
    244    242    251    260     1  0.0000000  0.0000000  3
    244    242    251    252     1  0.0000000  0.6508444  3
    244    242    251    253     1  0.0000000  0.6508444  3
    246    245    257    579     1  0.0000000  1.0460000  1
    246    245    257    579     1  0.0000000  0.0000000  3
    246    245    257    258     1  0.0000000  0.6508444  3
    246    245    257    259     1  0.0000000  0.6508444  3
    247    245    257    579     1  0.0000000  1.0460000  1
    247    245    257    579     1  0.0000000  0.0000000  3
    247    245    257    258     1  0.0000000  0.6508444  3
    247    245    257    259     1  0.0000000  0.6508444  3
    249    248    254    550     1  0.0000000  1.0460000  1
    249    248    254    550     1  0.0000000  0.0000000  3
    249    248    254    255     1  0.0000000  0.6508444  3
    249    248    254    256     1  0.0000000  0.6508444  3
    250    248    254    550     1  0.0000000  1.0460000  1
    250    248    254    550     1  0.0000000  0.0000000  3
    250    248    254    255     1  0.0000000  0.6508444  3
    250    248    254    256     1  0.0000000  0.6508444  3
    254    550    541    542     1  0.0000000  1.6038667  3
    254    550    541    543     1  0.0000000  1.6038667  3
    255    254    550    541     1  0.0000000  1.6038667  3
    256    254    550    541     1  0.0000000  1.6038667  3
    257    579    570    571     1  0.0000000  1.6038667  3
    257    579    570    572     1  0.0000000  1.6038667  3
    258    257    579    570     1  0.0000000  1.6038667  3
    259    257    579    570     1  0.0000000  1.6038667  3
    261    262    274    275     1  0.0000000  0.6508444  3
    261    262    274    276     1  0.0000000  0.6508444  3
    261    265    277    278     1  0.0000000  0.6508444  3
    261    265    277    279     1  0.0000000  0.6508444  3
    261    268    271    272     1  0.0000000  0.6508444  3
    261    268    271    273     1  0.0000000  0.6508444  3
    262    261    265    266     1  0.0000000  1.2552000  3
    262    261    265    267     1  0.0000000  1.2552000  3
    262    261    268    269     1  0.0000000  1.2552000  3
    262    261    268    270     1  0.0000000  1.2552000  3
    262    274    286    287     1  0.0000000  0.6508444  3
    262    274    286    288     1  0.0000000  0.6508444  3
    263    262    261    265     1  0.0000000  1.2552000  3
    263    262    261    268     1  0.0000000  1.2552000  3
    263    262    274    286     1  0.0000000  0.6508444  3
    263    262    274    275     1  0.0000000  0.6508444  3
    263    262    274    276     1  0.0000000  0.6508444  3
    264    262    261    265     1  0.0000000  1.2552000  3
    264    262    261    268     1  0.0000000  1.2552000  3
    264    262    274    286     1  0.0000000  0.6508444  3
    264    262    274    275     1  0.0000000  0.6508444  3
    264    262    274    276     1  0.0000000  0.6508444  3
    265    261    268    269     1  0.0000000  1.2552000  3
    265    261    268    270     1  0.0000000  1.2552000  3
    265    277    283    284     1  0.0000000  0.6508444  3
    265    277    283    285     1  0.0000000  0.6508444  3
    266    265    261    268     1  0.0000000  1.2552000  3
    266    265    277    283     1  0.0000000  0.6508444  3
    266    265    277    278     1  0.0000000  0.6508444  3
    266    265    277    279     1  0.0000000  0.6508444  3
    267    265    261    268     1  0.0000000  1.2552000  3
    267    265    277    283     1  0.0000000  0.6508444  3
    267    265    277    278     1  0.0000000  0.6508444  3
    267    265    277    279     1  0.0000000  0.6508444  3
    268    271    280    281     1  0.0000000  0.6508444  3
    268    271    280    282     1  0.0000000  0.6508444  3
    269    268    271    280     1  0.0000000  0.6508444  3
    269    268    271    272     1  0.0000000  0.6508444  3
    269    268    271    273     1  0.0000000  0.6508444  3
    270    268    271    280     1  0.0000000  0.6508444  3
    270    268    271    272     1  0.0000000  0.6508444  3
    270    268    271    273     1  0.0000000  0.6508444  3
    272    271    280    289     1  0.0000000  1.0460000  1
    272    271    280    289     1  0.0000000  0.0000000  3
    272    271    280    281     1  0.0000000  0.6508444  3
    272    271    280    282     1  0.0000000  0.6508444  3
    273    271    280    289     1  0.0000000  1.0460000  1
    273    271    280    289     1  0.0000000  0.0000000  3
    273    271    280    281     1  0.0000000  0.6508444  3
    273    271    280    282     1  0.0000000  0.6508444  3
    275    274    286    637     1  0.0000000  1.0460000  1
    275    274    286    637     1  0.0000000  0.0000000  3
    275    274    286    287     1  0.0000000  0.6508444  3
    275    274    286    288     1  0.0000000  0.6508444  3
    276    274    286    637     1  0.0000000  1.0460000  1
    276    274    286    637     1  0.0000000  0.0000000  3
    276    274    286    287     1  0.0000000  0.6508444  3
    276    274    286    288     1  0.0000000  0.6508444  3
    278    277    283    608     1  0.0000000  1.0460000  1
    278    277    283    608     1  0.0000000  0.0000000  3
    278    277    283    284     1  0.0000000  0.6508444  3
    278    277    283    285     1  0.0000000  0.6508444  3
    279    277    283    608     1  0.0000000  1.0460000  1
    279    277    283    608     1  0.0000000  0.0000000  3
    279    277    283    284     1  0.0000000  0.6508444  3
    279    277    283    285     1  0.0000000  0.6508444  3
    283    608    599    600     1  0.0000000  1.6038667  3
    283    608    599    601     1  0.0000000  1.6038667  3
    284    283    608    599     1  0.0000000  1.6038667  3
    285    283    608    599     1  0.0000000  1.6038667  3
    286    637    628    629     1  0.0000000  1.6038667  3
    286    637    628    630     1  0.0000000  1.6038667  3
    287    286    637    628     1  0.0000000  1.6038667  3
    288    286    637    628     1  0.0000000  1.6038667  3
    290    291    303    304     1  0.0000000  0.6508444  3
    290    291    303    305     1  0.0000000  0.6508444  3
    290    294    306    307     1  0.0000000  0.6508444  3
    290    294    306    308     1  0.0000000  0.6508444  3
    290    297    300    301     1  0.0000000  0.6508444  3
    290    297    300    302     1  0.0000000  0.6508444  3
    291    290    294    295     1  0.0000000  1.2552000  3
    291    290    294    296     1  0.0000000  1.2552000  3
    291    290    297    298     1  0.0000000  1.2552000  3
    291    290    297    299     1  0.0000000  1.2552000  3
    291    303    315    316     1  0.0000000  0.6508444  3
    291    303    315    317     1  0.0000000  0.6508444  3
    292    291    290    294     1  0.0000000  1.2552000  3
    292    291    290    297     1  0.0000000  1.2552000  3
    292    291    303    315     1  0.0000000  0.6508444  3
    292    291    303    304     1  0.0000000  0.6508444  3
    292    291    303    305     1  0.0000000  0.6508444  3
    293    291    290    294     1  0.0000000  1.2552000  3
    293    291    290    297     1  0.0000000  1.2552000  3
    293    291    303    315     1  0.0000000  0.6508444  3
    293    291    303    304     1  0.0000000  0.6508444  3
    293    291    303    305     1  0.0000000  0.6508444  3
    294    290    297    298     1  0.0000000  1.2552000  3
    294    290    297    299     1  0.0000000  1.2552000  3
    294    306    312    313     1  0.0000000  0.6508444  3
    294    306    312    314     1  0.0000000  0.6508444  3
    295    294    290    297     1  0.0000000  1.2552000  3
    295    294    306    312     1  0.0000000  0.6508444  3
    295    294    306    307     1  0.0000000  0.6508444  3
    295    294    306    308     1  0.0000000  0.6508444  3
    296    294    290    297     1  0.0000000  1.2552000  3
    296    294    306    312     1  0.0000000  0.6508444  3
    296    294    306    307     1  0.0000000  0.6508444  3
    296    294    306    308     1  0.0000000  0.6508444  3
    297    300    309    310     1  0.0000000  0.6508444  3
    297    300    309    311     1  0.0000000  0.6508444  3
    298    297    300    309     1  0.0000000  0.6508444  3
    298    297    300    301     1  0.0000000  0.6508444  3
    298    297    300    302     1  0.0000000  0.6508444  3
    299    297    300    309     1  0.0000000  0.6508444  3
    299    297    300    301     1  0.0000000  0.6508444  3
    299    297    300    302     1  0.0000000  0.6508444  3
    301    300    309    318     1  0.0000000  1.0460000  1
    301    300    309    318     1  0.0000000  0.0000000  3
    301    300    309    310     1  0.0000000  0.6508444  3
    301    300    309    311     1  0.0000000  0.6508444  3
    302    300    309    318     1  0.0000000  1.0460000  1
    302    300    309    318     1  0.0000000  0.0000000  3
    302    300    309    310     1  0.0000000  0.6508444  3
    302    300    309    311     1  0.0000000  0.6508444  3
    304    303    315    695     1  0.0000000  1.0460000  1
    304    303    315    695     1  0.0000000  0.0000000  3
    304    303    315    316     1  0.0000000  0.6508444  3
    304    303    315    317     1  0.0000000  0.6508444  3
    305    303    315    695     1  0.0000000  1.0460000  1
    305    303    315    695     1  0.0000000  0.0000000  3
    305    303    315    316     1  0.0000000  0.6508444  3
    305    303    315    317     1  0.0000000  0.6508444  3
    307    306    312    666     1  0.0000000  1.0460000  1
    307    306    312    666     1  0.0000000  0.0000000  3
    307    306    312    313     1  0.0000000  0.6508444  3
    307    306    312    314     1  0.0000000  0.6508444  3
    308    306    312    666     1  0.0000000  1.0460000  1
    308    306    312    666     1  0.0000000  0.0000000  3
    308    306    312    313     1  0.0000000  0.6508444  3
    308    306    312    314     1  0.0000000  0.6508444  3
    312    666    657    658     1  0.0000000  1.6038667  3
    312    666    657    659     1  0.0000000  1.6038667  3
    313    312    666    657     1  0.0000000  1.6038667  3
    314    312    666    657     1  0.0000000  1.6038667  3
    315    695    686    687     1  0.0000000  1.6038667  3
    315    695    686    688     1  0.0000000  1.6038667  3
    316    315    695    686     1  0.0000000  1.6038667  3
    317    315    695    686     1  0.0000000  1.6038667  3
    319    320    332    333     1  0.0000000  0.6508444  3
    319    320    332    334     1  0.0000000  0.6508444  3
    319    323    335    336     1  0.0000000  0.6508444  3
    319    323    335    337     1  0.0000000  0.6508444  3
    319    326    329    330     1  0.0000000  0.6508444  3
    319    326    329    331     1  0.0000000  0.6508444  3
    320    319    323    324     1  0.0000000  1.2552000  3
    320    319    323    325     1  0.0000000  1.2552000  3
    320    319    326    327     1  0.0000000  1.2552000  3
    320    319    326    328     1  0.0000000  1.2552000  3
    320    332    344    345     1  0.0000000  0.6508444  3
    320    332    344    346     1  0.0000000  0.6508444  3
    321    320    319    323     1  0.0000000  1.2552000  3
    321    320    319    326     1  0.0000000  1.2552000  3
    321    320    332    344     1  0.0000000  0.6508444  3
    321    320    332    333     1  0.0000000  0.6508444  3
    321    320    332    334     1  0.0000000  0.6508444  3
    322    320    319    323     1  0.0000000  1.2552000  3
    322    320    319    326     1  0.0000000  1.2552000  3
    322    320    332    344     1  0.0000000  0.6508444  3
    322    320    332    333     1  0.0000000  0.6508444  3
    322    320    332    334     1  0.0000000  0.6508444  3
    323    319    326    327     1  0.0000000  1.2552000  3
    323    319    326    328     1  0.0000000  1.2552000  3
    323    335    341    342     1  0.0000000  0.6508444  3
    323    335    341    343     1  0.0000000  0.6508444  3
    324    323    319    326     1  0.0000000  1.2552000  3
    324    323    335    341     1  0.0000000  0.6508444  3
    324    323    335    336     1  0.0000000  0.6508444  3
    324    323    335    337     1  0.0000000  0.6508444  3
    325    323    319    326     1  0.0000000  1.2552000  3
    325    323    335    341     1  0.0000000  0.6508444  3
    325    323    335    336     1  0.0000000  0.6508444  3
    325    323    335    337     1  0.0000000  0.6508444  3
    326    329    338    339     1  0.0000000  0.6508444  3
    326    329    338    340     1  0.0000000  0.6508444  3
    327    326    329    338     1  0.0000000  0.6508444  3
    327    326    329    330     1  0.0000000  0.6508444  3
    327    326    329    331     1  0.0000000  0.6508444  3
    328    326    329    338     1  0.0000000  0.6508444  3
    328    326    329    330     1  0.0000000  0.6508444  3
    328    326    329    331     1  0.0000000  0.6508444  3
    330    329    338    347     1  0.0000000  1.0460000  1
    330    329    338    347     1  0.0000000  0.0000000  3
    330    329    338    339     1  0.0000000  0.6508444  3
    330    329    338    340     1  0.0000000  0.6508444  3
    331    329    338    347     1  0.0000000  1.0460000  1
    331    329    338    347     1  0.0000000  0.0000000  3
    331    329    338    339     1  0.0000000  0.6508444  3
    331    329    338    340     1  0.0000000  0.6508444  3
    333    332    344    753     1  0.0000000  1.0460000  1
    333    332    344    753     1  0.0000000  0.0000000  3
    333    332    344    345     1  0.0000000  0.6508444  3
    333    332    344    346     1  0.0000000  0.6508444  3
    334    332    344    753     1  0.0000000  1.0460000  1
    334    332    344    753     1  0.0000000  0.0000000  3
    334    332    344    345     1  0.0000000  0.6508444  3
    334    332    344    346     1  0.0000000  0.6508444  3
    336    335    341    724     1  0.0000000  1.0460000  1
    336    335    341    724     1  0.0000000  0.0000000  3
    336    335    341    342     1  0.0000000  0.6508444  3
    336    335    341    343     1  0.0000000  0.6508444  3
    337    335    341    724     1  0.0000000  1.0460000  1
    337    335    341    724     1  0.0000000  0.0000000  3
    337    335    341    342     1  0.0000000  0.6508444  3
    337    335    341    343     1  0.0000000  0.6508444  3
    341    724    715    716     1  0.0000000  1.6038667  3
    341    724    715    717     1  0.0000000  1.6038667  3
    342    341    724    715     1  0.0000000  1.6038667  3
    343    341    724    715     1  0.0000000  1.6038667  3
    344    753    744    745     1  0.0000000  1.6038667  3
    344    753    744    746     1  0.0000000  1.6038667  3
    345    344    753    744     1  0.0000000  1.6038667  3
    346    344    753    744     1  0.0000000  1.6038667  3
    348    349    361    362     1  0.0000000  0.6508444  3
    348    349    361    363     1  0.0000000  0.6508444  3
    348    352    364    365     1  0.0000000  0.6508444  3
    348    352    364    366     1  0.0000000  0.6508444  3
    348    355    358    359     1  0.0000000  0.6508444  3
    348    355    358    360     1  0.0000000  0.6508444  3
    349    348    352    353     1  0.0000000  1.2552000  3
    349    348    352    354     1  0.0000000  1.2552000  3
    349    348    355    356     1  0.0000000  1.2552000  3
    349    348    355    357     1  0.0000000  1.2552000  3
    349    361    373    374     1  0.0000000  0.6508444  3
    349    361    373    375     1  0.0000000  0.6508444  3
    350    349    348    352     1  0.0000000  1.2552000  3
    350    349    348    355     1  0.0000000  1.2552000  3
    350    349    361    373     1  0.0000000  0.6508444  3
    350    349    361    362     1  0.0000000  0.6508444  3
    350    349    361    363     1  0.0000000  0.6508444  3
    351    349    348    352     1  0.0000000  1.2552000  3
    351    349    348    355     1  0.0000000  1.2552000  3
    351    349    361    373     1  0.0000000  0.6508444  3
    351    349    361    362     1  0.0000000  0.6508444  3
    351    349    361    363     1  0.0000000  0.6508444  3
    352    348    355    356     1  0.0000000  1.2552000  3
    352    348    355    357     1  0.0000000  1.2552000  3
    352    364    370    371     1  0.0000000  0.6508444  3
    352    364    370    372     1  0.0000000  0.6508444  3
    353    352    348    355     1  0.0000000  1.2552000  3
    353    352    364    370     1  0.0000000  0.6508444  3
    353    352    364    365     1  0.0000000  0.6508444  3
    353    352    364    366     1  0.0000000  0.6508444  3
    354    352    348    355     1  0.0000000  1.2552000  3
    354    352    364    370     1  0.0000000  0.6508444  3
    354    352    364    365     1  0.0000000  0.6508444  3
    354    352    364    366     1  0.0000000  0.6508444  3
    355    358    367    368     1  0.0000000  0.6508444  3
    355    358    367    369     1  0.0000000  0.6508444  3
    356    355    358    367     1  0.0000000  0.6508444  3
    356    355    358    359     1  0.0000000  0.6508444  3
    356    355    358    360     1  0.0000000  0.6508444  3
    357    355    358    367     1  0.0000000  0.6508444  3
    357    355    358    359     1  0.0000000  0.6508444  3
    357    355    358    360     1  0.0000000  0.6508444  3
    359    358    367    376     1  0.0000000  1.0460000  1
    359    358    367    376     1  0.0000000  0.0000000  3
    359    358    367    368     1  0.0000000  0.6508444  3
    359    358    367    369     1  0.0000000  0.6508444  3
    360    358    367    376     1  0.0000000  1.0460000  1
    360    358    367    376     1  0.0000000  0.0000000  3
    360    358    367    368     1  0.0000000  0.6508444  3
    360    358    367    369     1  0.0000000  0.6508444  3
    362    361    373    811     1  0.0000000  1.0460000  1
    362    361    373    811     1  0.0000000  0.0000000  3
    362    361    373    374     1  0.0000000  0.6508444  3
    362    361    373    375     1  0.0000000  0.6508444  3
    363    361    373    811     1  0.0000000  1.0460000  1
    363    361    373    811     1  0.0000000  0.0000000  3
    363    361    373    374     1  0.0000000  0.6508444  3
    363    361    373    375     1  0.0000000  0.6508444  3
    365    364    370    782     1  0.0000000  1.0460000  1
    365    364    370    782     1  0.0000000  0.0000000  3
    365    364    370    371     1  0.0000000  0.6508444  3
    365    364    370    372     1  0.0000000  0.6508444  3
    366    364    370    782     1  0.0000000  1.0460000  1
    366    364    370    782     1  0.0000000  0.0000000  3
    366    364    370    371     1  0.0000000  0.6508444  3
    366    364    370    372     1  0.0000000  0.6508444  3
    370    782    773    774     1  0.0000000  1.6038667  3
    370    782    773    775     1  0.0000000  1.6038667  3
    371    370    782    773     1  0.0000000  1.6038667  3
    372    370    782    773     1  0.0000000  1.6038667  3
    373    811    802    803     1  0.0000000  1.6038667  3
    373    811    802    804     1  0.0000000  1.6038667  3
    374    373    811    802     1  0.0000000  1.6038667  3
    375    373    811    802     1  0.0000000  1.6038667  3
    377    378    390    391     1  0.0000000  0.6508444  3
    377    378    390    392     1  0.0000000  0.6508444  3
    377    381    393    394     1  0.0000000  0.6508444  3
    377    381    393    395     1  0.0000000  0.6508444  3
    377    384    387    388     1  0.0000000  0.6508444  3
    377    384    387    389     1  0.0000000  0.6508444  3
    378    377    381    382     1  0.0000000  1.2552000  3
    378    377    381    383     1  0.0000000  1.2552000  3
    378    377    384    385     1  0.0000000  1.2552000  3
    378    377    384    386     1  0.0000000  1.2552000  3
    378    390    402    403     1  0.0000000  0.6508444  3
    378    390    402    404     1  0.0000000  0.6508444  3
    379    378    377    381     1  0.0000000  1.2552000  3
    379    378    377    384     1  0.0000000  1.2552000  3
    379    378    390    402     1  0.0000000  0.6508444  3
    379    378    390    391     1  0.0000000  0.6508444  3
    379    378    390    392     1  0.0000000  0.6508444  3
    380    378    377    381     1  0.0000000  1.2552000  3
    380    378    377    384     1  0.0000000  1.2552000  3
    380    378    390    402     1  0.0000000  0.6508444  3
    380    378    390    391     1  0.0000000  0.6508444  3
    380    378    390    392     1  0.0000000  0.6508444  3
    381    377    384    385     1  0.0000000  1.2552000  3
    381    377    384    386     1  0.0000000  1.2552000  3
    381    393    399    400     1  0.0000000  0.6508444  3
    381    393    399    401     1  0.0000000  0.6508444  3
    382    381    377    384     1  0.0000000  1.2552000  3
    382    381    393    399     1  0.0000000  0.6508444  3
    382    381    393    394     1  0.0000000  0.6508444  3
    382    381    393    395     1  0.0000000  0.6508444  3
    383    381    377    384     1  0.0000000  1.2552000  3
    383    381    393    399     1  0.0000000  0.6508444  3
    383    381    393    394     1  0.0000000  0.6508444  3
    383    381    393    395     1  0.0000000  0.6508444  3
    384    387    396    397     1  0.0000000  0.6508444  3
    384    387    396    398     1  0.0000000  0.6508444  3
    385    384    387    396     1  0.0000000  0.6508444  3
    385    384    387    388     1  0.0000000  0.6508444  3
    385    384    387    389     1  0.0000000  0.6508444  3
    386    384    387    396     1  0.0000000  0.6508444  3
    386    384    387    388     1  0.0000000  0.6508444  3
    386    384    387    389     1  0.0000000  0.6508444  3
    388    387    396    405     1  0.0000000  1.0460000  1
    388    387    396    405     1  0.0000000  0.0000000  3
    388    387    396    397     1  0.0000000  0.6508444  3
    388    387    396    398     1  0.0000000  0.6508444  3
    389    387    396    405     1  0.0000000  1.0460000  1
    389    387    396    405     1  0.0000000  0.0000000  3
    389    387    396    397     1  0.0000000  0.6508444  3
    389    387    396    398     1  0.0000000  0.6508444  3
    391    390    402    869     1  0.0000000  1.0460000  1
    391    390    402    869     1  0.0000000  0.0000000  3
    391    390    402    403     1  0.0000000  0.6508444  3
    391    390    402    404     1  0.0000000  0.6508444  3
    392    390    402    869     1  0.0000000  1.0460000  1
    392    390    402    869     1  0.0000000  0.0000000  3
    392    390    402    403     1  0.0000000  0.6508444  3
    392    390    402    404     1  0.0000000  0.6508444  3
    394    393    399    840     1  0.0000000  1.0460000  1
    394    393    399    840     1  0.0000000  0.0000000  3
    394    393    399    400     1  0.0000000  0.6508444  3
    394    393    399    401     1  0.0000000  0.6508444  3
    395    393    399    840     1  0.0000000  1.0460000  1
    395    393    399    840     1  0.0000000  0.0000000  3
    395    393    399    400     1  0.0000000  0.6508444  3
    395    393    399    401     1  0.0000000  0.6508444  3
    399    840    831    832     1  0.0000000  1.6038667  3
    399    840    831    833     1  0.0000000  1.6038667  3
    400    399    840    831     1  0.0000000  1.6038667  3
    401    399    840    831     1  0.0000000  1.6038667  3
    402    869    860    861     1  0.0000000  1.6038667  3
    402    869    860    862     1  0.0000000  1.6038667  3
    403    402    869    860     1  0.0000000  1.6038667  3
    404    402    869    860     1  0.0000000  1.6038667  3
    406    407    419    420     1  0.0000000  0.6508444  3
    406    407    419    421     1  0.0000000  0.6508444  3
    406    410    422    423     1  0.0000000  0.6508444  3
    406    410    422    424     1  0.0000000  0.6508444  3
    406    413    416    417     1  0.0000000  0.6508444  3
    406    413    416    418     1  0.0000000  0.6508444  3
    407    406    410    411     1  0.0000000  1.2552000  3
    407    406    410    412     1  0.0000000  1.2552000  3
    407    406    413    414     1  0.0000000  1.2552000  3
    407    406    413    415     1  0.0000000  1.2552000  3
    407    419    431    432     1  0.0000000  0.6508444  3
    407    419    431    433     1  0.0000000  0.6508444  3
    408    407    406    410     1  0.0000000  1.2552000  3
    408    407    406    413     1  0.0000000  1.2552000  3
    408    407    419    431     1  0.0000000  0.6508444  3
    408    407    419    420     1  0.0000000  0.6508444  3
    408    407    419    421     1  0.0000000  0.6508444  3
    409    407    406    410     1  0.0000000  1.2552000  3
    409    407    406    413     1  0.0000000  1.2552000  3
    409    407    419    431     1  0.0000000  0.6508444  3
    409    407    419    420     1  0.0000000  0.6508444  3
    409    407    419    421     1  0.0000000  0.6508444  3
    410    406    413    414     1  0.0000000  1.2552000  3
    410    406    413    415     1  0.0000000  1.2552000  3
    410    422    428    429     1  0.0000000  0.6508444  3
    410    422    428    430     1  0.0000000  0.6508444  3
    411    410    406    413     1  0.0000000  1.2552000  3
    411    410    422    428     1  0.0000000  0.6508444  3
    411    410    422    423     1  0.0000000  0.6508444  3
    411    410    422    424     1  0.0000000  0.6508444  3
    412    410    406    413     1  0.0000000  1.2552000  3
    412    410    422    428     1  0.0000000  0.6508444  3
    412    410    422    423     1  0.0000000  0.6508444  3
    412    410    422    424     1  0.0000000  0.6508444  3
    413    416    425    426     1  0.0000000  0.6508444  3
    413    416    425    427     1  0.0000000  0.6508444  3
    414    413    416    425     1  0.0000000  0.6508444  3
    414    413    416    417     1  0.0000000  0.6508444  3
    414    413    416    418     1  0.0000000  0.6508444  3
    415    413    416    425     1  0.0000000  0.6508444  3
    415    413    416    417     1  0.0000000  0.6508444  3
    415    413    416    418     1  0.0000000  0.6508444  3
    417    416    425    434     1  0.0000000  1.0460000  1
    417    416    425    434     1  0.0000000  0.0000000  3
    417    416    425    426     1  0.0000000  0.6508444  3
    417    416    425    427     1  0.0000000  0.6508444  3
    418    416    425    434     1  0.0000000  1.0460000  1
    418    416    425    434     1  0.0000000  0.0000000  3
    418    416    425    426     1  0.0000000  0.6508444  3
    418    416    425    427     1  0.0000000  0.6508444  3
    420    419    431    903     1  0.0000000  1.0460000  1
    420    419    431    903     1  0.0000000  0.0000000  3
    420    419    431    432     1  0.0000000  0.6508444  3
    420    419    431    433     1  0.0000000  0.6508444  3
    421    419    431    903     1  0.0000000  1.0460000  1
    421    419    431    903     1  0.0000000  0.0000000  3
    421    419    431    432     1  0.0000000  0.6508444  3
    421    419    431    433     1  0.0000000  0.6508444  3
    423    422    428    880     1  0.0000000  1.0460000  1
    423    422    428    880     1  0.0000000  0.0000000  3
    423    422    428    429     1  0.0000000  0.6508444  3
    423    422    428    430     1  0.0000000  0.6508444  3
    424    422    428    880     1  0.0000000  1.0460000  1
    424    422    428    880     1  0.0000000  0.0000000  3
    424    422    428    429     1  0.0000000  0.6508444  3
    424    422    428    430     1  0.0000000  0.6508444  3
    428    880    876    879     1  0.0000000  1.6038667  3
    429    428    880    876     1  0.0000000  1.6038667  3
    430    428    880    876     1  0.0000000  1.6038667  3
    431    903    899    902     1  0.0000000  1.6038667  3
    432    431    903    899     1  0.0000000  1.6038667  3
    433    431    903    899     1  0.0000000  1.6038667  3
    435    436    448    449     1  0.0000000  0.6508444  3
    435    436    448    450     1  0.0000000  0.6508444  3
    435    439    451    452     1  0.0000000  0.6508444  3
    435    439    451    453     1  0.0000000  0.6508444  3
    435    442    445    446     1  0.0000000  0.6508444  3
    435    442    445    447     1  0.0000000  0.6508444  3
    436    435    439    440     1  0.0000000  1.2552000  3
    436    435    439    441     1  0.0000000  1.2552000  3
    436    435    442    443     1  0.0000000  1.2552000  3
    436    435    442    444     1  0.0000000  1.2552000  3
    436    448    460    461     1  0.0000000  0.6508444  3
    436    448    460    462     1  0.0000000  0.6508444  3
    437    436    435    439     1  0.0000000  1.2552000  3
    437    436    435    442     1  0.0000000  1.2552000  3
    437    436    448    460     1  0.0000000  0.6508444  3
    437    436    448    449     1  0.0000000  0.6508444  3
    437    436    448    450     1  0.0000000  0.6508444  3
    438    436    435    439     1  0.0000000  1.2552000  3
    438    436    435    442     1  0.0000000  1.2552000  3
    438    436    448    460     1  0.0000000  0.6508444  3
    438    436    448    449     1  0.0000000  0.6508444  3
    438    436    448    450     1  0.0000000  0.6508444  3
    439    435    442    443     1  0.0000000  1.2552000  3
    439    435    442    444     1  0.0000000  1.2552000  3
    439    451    457    458     1  0.0000000  0.6508444  3
    439    451    457    459     1  0.0000000  0.6508444  3
    440    439    435    442     1  0.0000000  1.2552000  3
    440    439    451    457     1  0.0000000  0.6508444  3
    440    439    451    452     1  0.0000000  0.6508444  3
    440    439    451    453     1  0.0000000  0.6508444  3
    441    439    435    442     1  0.0000000  1.2552000  3
    441    439    451    457     1  0.0000000  0.6508444  3
    441    439    451    452     1  0.0000000  0.6508444  3
    441    439    451    453     1  0.0000000  0.6508444  3
    442    445    454    455     1  0.0000000  0.6508444  3
    442    445    454    456     1  0.0000000  0.6508444  3
    443    442    445    454     1  0.0000000  0.6508444  3
    443    442    445    446     1  0.0000000  0.6508444  3
    443    442    445    447     1  0.0000000  0.6508444  3
    444    442    445    454     1  0.0000000  0.6508444  3
    444    442    445    446     1  0.0000000  0.6508444  3
    444    442    445    447     1  0.0000000  0.6508444  3
    446    445    454    463     1  0.0000000  1.0460000  1
    446    445    454    463     1  0.0000000  0.0000000  3
    446    445    454    455     1  0.0000000  0.6508444  3
    446    445    454    456     1  0.0000000  0.6508444  3
    447    445    454    463     1  0.0000000  1.0460000  1
    447    445    454    463     1  0.0000000  0.0000000  3
    447    445    454    455     1  0.0000000  0.6508444  3
    447    445    454    456     1  0.0000000  0.6508444  3
    449    448    460    949     1  0.0000000  1.0460000  1
    449    448    460    949     1  0.0000000  0.0000000  3
    449    448    460    461     1  0.0000000  0.6508444  3
    449    448    460    462     1  0.0000000  0.6508444  3
    450    448    460    949     1  0.0000000  1.0460000  1
    450    448    460    949     1  0.0000000  0.0000000  3
    450    448    460    461     1  0.0000000  0.6508444  3
    450    448    460    462     1  0.0000000  0.6508444  3
    452    451    457    926     1  0.0000000  1.0460000  1
    452    451    457    926     1  0.0000000  0.0000000  3
    452    451    457    458     1  0.0000000  0.6508444  3
    452    451    457    459     1  0.0000000  0.6508444  3
    453    451    457    926     1  0.0000000  1.0460000  1
    453    451    457    926     1  0.0000000  0.0000000  3
    453    451    457    458     1  0.0000000  0.6508444  3
    453    451    457    459     1  0.0000000  0.6508444  3
    457    926    922    925     1  0.0000000  1.6038667  3
    458    457    926    922     1  0.0000000  1.6038667  3
    459    457    926    922     1  0.0000000  1.6038667  3
    460    949    945    948     1  0.0000000  1.6038667  3
    461    460    949    945     1  0.0000000  1.6038667  3
    462    460    949    945     1  0.0000000  1.6038667  3
    464    465    477    478     1  0.0000000  0.6508444  3
    464    465    477    479     1  0.0000000  0.6508444  3
    464    468    480    481     1  0.0000000  0.6508444  3
    464    468    480    482     1  0.0000000  0.6508444  3
    464    471    474    475     1  0.0000000  0.6508444  3
    464    471    474    476     1  0.0000000  0.6508444  3
    465    464    468    469     1  0.0000000  1.2552000  3
    465    464    468    470     1  0.0000000  1.2552000  3
    465    464    471    472     1  0.0000000  1.2552000  3
    465    464    471    473     1  0.0000000  1.2552000  3
    465    477    489    490     1  0.0000000  0.6508444  3
    465    477    489    491     1  0.0000000  0.6508444  3
    466    465    464    468     1  0.0000000  1.2552000  3
    466    465    464    471     1  0.0000000  1.2552000  3
    466    465    477    489     1  0.0000000  0.6508444  3
    466    465    477    478     1  0.0000000  0.6508444  3
    466    465    477    479     1  0.0000000  0.6508444  3
    467    465    464    468     1  0.0000000  1.2552000  3
    467    465    464    471     1  0.0000000  1.2552000  3
    467    465    477    489     1  0.0000000  0.6508444  3
    467    465    477    478     1  0.0000000  0.6508444  3
    467    465    477    479     1  0.0000000  0.6508444  3
    468    464    471    472     1  0.0000000  1.2552000  3
    468    464    471    473     1  0.0000000  1.2552000  3
    468    480    486    487     1  0.0000000  0.6508444  3
    468    480    486    488     1  0.0000000  0.6508444  3
    469    468    464    471     1  0.0000000  1.2552000  3
    469    468    480    486     1  0.0000000  0.6508444  3
    469    468    480    481     1  0.0000000  0.6508444  3
    469    468    480    482     1  0.0000000  0.6508444  3
    470    468    464    471     1  0.0000000  1.2552000  3
    470    468    480    486     1  0.0000000  0.6508444  3
    470    468    480    481     1  0.0000000  0.6508444  3
    470    468    480    482     1  0.0000000  0.6508444  3
    471    474    483    484     1  0.0000000  0.6508444  3
    471    474    483    485     1  0.0000000  0.6508444  3
    472    471    474    483     1  0.0000000  0.6508444  3
    472    471    474    475     1  0.0000000  0.6508444  3
    472    471    474    476     1  0.0000000  0.6508444  3
    473    471    474    483     1  0.0000000  0.6508444  3
    473    471    474    475     1  0.0000000  0.6508444  3
    473    471    474    476     1  0.0000000  0.6508444  3
    475    474    483    492     1  0.0000000  1.0460000  1
    475    474    483    492     1  0.0000000  0.0000000  3
    475    474    483    484     1  0.0000000  0.6508444  3
    475    474    483    485     1  0.0000000  0.6508444  3
    476    474    483    492     1  0.0000000  1.0460000  1
    476    474    483    492     1  0.0000000  0.0000000  3
    476    474    483    484     1  0.0000000  0.6508444  3
    476    474    483    485     1  0.0000000  0.6508444  3
    478    477    489    995     1  0.0000000  1.0460000  1
    478    477    489    995     1  0.0000000  0.0000000  3
    478    477    489    490     1  0.0000000  0.6508444  3
    478    477    489    491     1  0.0000000  0.6508444  3
    479    477    489    995     1  0.0000000  1.0460000  1
    479    477    489    995     1  0.0000000  0.0000000  3
    479    477    489    490     1  0.0000000  0.6508444  3
    479    477    489    491     1  0.0000000  0.6508444  3
    481    480    486    972     1  0.0000000  1.0460000  1
    481    480    486    972     1  0.0000000  0.0000000  3
    481    480    486    487     1  0.0000000  0.6508444  3
    481    480    486    488     1  0.0000000  0.6508444  3
    482    480    486    972     1  0.0000000  1.0460000  1
    482    480    486    972     1  0.0000000  0.0000000  3
    482    480    486    487     1  0.0000000  0.6508444  3
    482    480    486    488     1  0.0000000  0.6508444  3
    486    972    968    971     1  0.0000000  1.6038667  3
    487    486    972    968     1  0.0000000  1.6038667  3
    488    486    972    968     1  0.0000000  1.6038667  3
    489    995    991    994     1  0.0000000  1.6038667  3
    490    489    995    991     1  0.0000000  1.6038667  3
    491    489    995    991     1  0.0000000  1.6038667  3
    493    494    506    507     1  0.0000000  0.6508444  3
    493    494    506    508     1  0.0000000  0.6508444  3
    493    497    509    510     1  0.0000000  0.6508444  3
    493    497    509    511     1  0.0000000  0.6508444  3
    493    500    503    504     1  0.0000000  0.6508444  3
    493    500    503    505     1  0.0000000  0.6508444  3
    494    493    497    498     1  0.0000000  1.2552000  3
    494    493    497    499     1  0.0000000  1.2552000  3
    494    493    500    501     1  0.0000000  1.2552000  3
    494    493    500    502     1  0.0000000  1.2552000  3
    494    506    518    519     1  0.0000000  0.6508444  3
    494    506    518    520     1  0.0000000  0.6508444  3
    495    494    493    497     1  0.0000000  1.2552000  3
    495    494    493    500     1  0.0000000  1.2552000  3
    495    494    506    518     1  0.0000000  0.6508444  3
    495    494    506    507     1  0.0000000  0.6508444  3
    495    494    506    508     1  0.0000000  0.6508444  3
    496    494    493    497     1  0.0000000  1.2552000  3
    496    494    493    500     1  0.0000000  1.2552000  3
    496    494    506    518     1  0.0000000  0.6508444  3
    496    494    506    507     1  0.0000000  0.6508444  3
    496    494    506    508     1  0.0000000  0.6508444  3
    497    493    500    501     1  0.0000000  1.2552000  3
    497    493    500    502     1  0.0000000  1.2552000  3
    497    509    515    516     1  0.0000000  0.6508444  3
    497    509    515    517     1  0.0000000  0.6508444  3
    498    497    493    500     1  0.0000000  1.2552000  3
    498    497    509    515     1  0.0000000  0.6508444  3
    498    497    509    510     1  0.0000000  0.6508444  3
    498    497    509    511     1  0.0000000  0.6508444  3
    499    497    493    500     1  0.0000000  1.2552000  3
    499    497    509    515     1  0.0000000  0.6508444  3
    499    497    509    510     1  0.0000000  0.6508444  3
    499    497    509    511     1  0.0000000  0.6508444  3
    500    503    512    513     1  0.0000000  0.6508444  3
    500    503    512    514     1  0.0000000  0.6508444  3
    501    500    503    512     1  0.0000000  0.6508444  3
    501    500    503    504     1  0.0000000  0.6508444  3
    501    500    503    505     1  0.0000000  0.6508444  3
    502    500    503    512     1  0.0000000  0.6508444  3
    502    500    503    504     1  0.0000000  0.6508444  3
    502    500    503    505     1  0.0000000  0.6508444  3
    504    503    512    521     1  0.0000000  1.0460000  1
    504    503    512    521     1  0.0000000  0.0000000  3
    504    503    512    513     1  0.0000000  0.6508444  3
    504    503    512    514     1  0.0000000  0.6508444  3
    505    503    512    521     1  0.0000000  1.0460000  1
    505    503    512    521     1  0.0000000  0.0000000  3
    505    503    512    513     1  0.0000000  0.6508444  3
    505    503    512    514     1  0.0000000  0.6508444  3
    507    506    518   1041     1  0.0000000  1.0460000  1
    507    506    518   1041     1  0.0000000  0.0000000  3
    507    506    518    519     1  0.0000000  0.6508444  3
    507    506    518    520     1  0.0000000  0.6508444  3
    508    506    518   1041     1  0.0000000  1.0460000  1
    508    506    518   1041     1  0.0000000  0.0000000  3
    508    506    518    519     1  0.0000000  0.6508444  3
    508    506    518    520     1  0.0000000  0.6508444  3
    510    509    515   1018     1  0.0000000  1.0460000  1
    510    509    515   1018     1  0.0000000  0.0000000  3
    510    509    515    516     1  0.0000000  0.6508444  3
    510    509    515    517     1  0.0000000  0.6508444  3
    511    509    515   1018     1  0.0000000  1.0460000  1
    511    509    515   1018     1  0.0000000  0.0000000  3
    511    509    515    516     1  0.0000000  0.6508444  3
    511    509    515    517     1  0.0000000  0.6508444  3
    515   1018   1014   1017     1  0.0000000  1.6038667  3
    516    515   1018   1014     1  0.0000000  1.6038667  3
    517    515   1018   1014     1  0.0000000  1.6038667  3
    518   1041   1037   1040     1  0.0000000  1.6038667  3
    519    518   1041   1037     1  0.0000000  1.6038667  3
    520    518   1041   1037     1  0.0000000  1.6038667  3
    522    523    535    536     1  0.0000000  0.6508444  3
    522    523    535    537     1  0.0000000  0.6508444  3
    522    526    538    539     1  0.0000000  0.6508444  3
    522    526    538    540     1  0.0000000  0.6508444  3
    522    529    532    533     1  0.0000000  0.6508444  3
    522    529    532    534     1  0.0000000  0.6508444  3
    523    522    526    527     1  0.0000000  1.2552000  3
    523    522    526    528     1  0.0000000  1.2552000  3
    523    522    529    530     1  0.0000000  1.2552000  3
    523    522    529    531     1  0.0000000  1.2552000  3
    523    535    547    548     1  0.0000000  0.6508444  3
    523    535    547    549     1  0.0000000  0.6508444  3
    524    523    522    526     1  0.0000000  1.2552000  3
    524    523    522    529     1  0.0000000  1.2552000  3
    524    523    535    547     1  0.0000000  0.6508444  3
    524    523    535    536     1  0.0000000  0.6508444  3
    524    523    535    537     1  0.0000000  0.6508444  3
    525    523    522    526     1  0.0000000  1.2552000  3
    525    523    522    529     1  0.0000000  1.2552000  3
    525    523    535    547     1  0.0000000  0.6508444  3
    525    523    535    536     1  0.0000000  0.6508444  3
    525    523    535    537     1  0.0000000  0.6508444  3
    526    522    529    530     1  0.0000000  1.2552000  3
    526    522    529    531     1  0.0000000  1.2552000  3
    526    538    544    545     1  0.0000000  0.6508444  3
    526    538    544    546     1  0.0000000  0.6508444  3
    527    526    522    529     1  0.0000000  1.2552000  3
    527    526    538    544     1  0.0000000  0.6508444  3
    527    526    538    539     1  0.0000000  0.6508444  3
    527    526    538    540     1  0.0000000  0.6508444  3
    528    526    522    529     1  0.0000000  1.2552000  3
    528    526    538    544     1  0.0000000  0.6508444  3
    528    526    538    539     1  0.0000000  0.6508444  3
    528    526    538    540     1  0.0000000  0.6508444  3
    529    532    541    542     1  0.0000000  0.6508444  3
    529    532    541    543     1  0.0000000  0.6508444  3
    530    529    532    541     1  0.0000000  0.6508444  3
    530    529    532    533     1  0.0000000  0.6508444  3
    530    529    532    534     1  0.0000000  0.6508444  3
    531    529    532    541     1  0.0000000  0.6508444  3
    531    529    532    533     1  0.0000000  0.6508444  3
    531    529    532    534     1  0.0000000  0.6508444  3
    533    532    541    550     1  0.0000000  1.0460000  1
    533    532    541    550     1  0.0000000  0.0000000  3
    533    532    541    542     1  0.0000000  0.6508444  3
    533    532    541    543     1  0.0000000  0.6508444  3
    534    532    541    550     1  0.0000000  1.0460000  1
    534    532    541    550     1  0.0000000  0.0000000  3
    534    532    541    542     1  0.0000000  0.6508444  3
    534    532    541    543     1  0.0000000  0.6508444  3
    536    535    547   1087     1  0.0000000  1.0460000  1
    536    535    547   1087     1  0.0000000  0.0000000  3
    536    535    547    548     1  0.0000000  0.6508444  3
    536    535    547    549     1  0.0000000  0.6508444  3
    537    535    547   1087     1  0.0000000  1.0460000  1
    537    535    547   1087     1  0.0000000  0.0000000  3
    537    535    547    548     1  0.0000000  0.6508444  3
    537    535    547    549     1  0.0000000  0.6508444  3
    539    538    544   1064     1  0.0000000  1.0460000  1
    539    538    544   1064     1  0.0000000  0.0000000  3
    539    538    544    545     1  0.0000000  0.6508444  3
    539    538    544    546     1  0.0000000  0.6508444  3
    540    538    544   1064     1  0.0000000  1.0460000  1
    540    538    544   1064     1  0.0000000  0.0000000  3
    540    538    544    545     1  0.0000000  0.6508444  3
    540    538    544    546     1  0.0000000  0.6508444  3
    544   1064   1060   1063     1  0.0000000  1.6038667  3
    545    544   1064   1060     1  0.0000000  1.6038667  3
    546    544   1064   1060     1  0.0000000  1.6038667  3
    547   1087   1083   1086     1  0.0000000  1.6038667  3
    548    547   1087   1083     1  0.0000000  1.6038667  3
    549    547   1087   1083     1  0.0000000  1.6038667  3
    551    552    564    565     1  0.0000000  0.6508444  3
    551    552    564    566     1  0.0000000  0.6508444  3
    551    555    567    568     1  0.0000000  0.6508444  3
    551    555    567    569     1  0.0000000  0.6508444  3
    551    558    561    562     1  0.0000000  0.6508444  3
    551    558    561    563     1  0.0000000  0.6508444  3
    552    551    555    556     1  0.0000000  1.2552000  3
    552    551    555    557     1  0.0000000  1.2552000  3
    552    551    558    559     1  0.0000000  1.2552000  3
    552    551    558    560     1  0.0000000  1.2552000  3
    552    564    576    577     1  0.0000000  0.6508444  3
    552    564    576    578     1  0.0000000  0.6508444  3
    553    552    551    555     1  0.0000000  1.2552000  3
    553    552    551    558     1  0.0000000  1.2552000  3
    553    552    564    576     1  0.0000000  0.6508444  3
    553    552    564    565     1  0.0000000  0.6508444  3
    553    552    564    566     1  0.0000000  0.6508444  3
    554    552    551    555     1  0.0000000  1.2552000  3
    554    552    551    558     1  0.0000000  1.2552000  3
    554    552    564    576     1  0.0000000  0.6508444  3
    554    552    564    565     1  0.0000000  0.6508444  3
    554    552    564    566     1  0.0000000  0.6508444  3
    555    551    558    559     1  0.0000000  1.2552000  3
    555    551    558    560     1  0.0000000  1.2552000  3
    555    567    573    574     1  0.0000000  0.6508444  3
    555    567    573    575     1  0.0000000  0.6508444  3
    556    555    551    558     1  0.0000000  1.2552000  3
    556    555    567    573     1  0.0000000  0.6508444  3
    556    555    567    568     1  0.0000000  0.6508444  3
    556    555    567    569     1  0.0000000  0.6508444  3
    557    555    551    558     1  0.0000000  1.2552000  3
    557    555    567    573     1  0.0000000  0.6508444  3
    557    555    567    568     1  0.0000000  0.6508444  3
    557    555    567    569     1  0.0000000  0.6508444  3
    558    561    570    571     1  0.0000000  0.6508444  3
    558    561    570    572     1  0.0000000  0.6508444  3
    559    558    561    570     1  0.0000000  0.6508444  3
    559    558    561    562     1  0.0000000  0.6508444  3
    559    558    561    563     1  0.0000000  0.6508444  3
    560    558    561    570     1  0.0000000  0.6508444  3
    560    558    561    562     1  0.0000000  0.6508444  3
    560    558    561    563     1  0.0000000  0.6508444  3
    562    561    570    579     1  0.0000000  1.0460000  1
    562    561    570    579     1  0.0000000  0.0000000  3
    562    561    570    571     1  0.0000000  0.6508444  3
    562    561    570    572     1  0.0000000  0.6508444  3
    563    561    570    579     1  0.0000000  1.0460000  1
    563    561    570    579     1  0.0000000  0.0000000  3
    563    561    570    571     1  0.0000000  0.6508444  3
    563    561    570    572     1  0.0000000  0.6508444  3
    565    564    576   1133     1  0.0000000  1.0460000  1
    565    564    576   1133     1  0.0000000  0.0000000  3
    565    564    576    577     1  0.0000000  0.6508444  3
    565    564    576    578     1  0.0000000  0.6508444  3
    566    564    576   1133     1  0.0000000  1.0460000  1
    566    564    576   1133     1  0.0000000  0.0000000  3
    566    564    576    577     1  0.0000000  0.6508444  3
    566    564    576    578     1  0.0000000  0.6508444  3
    568    567    573   1110     1  0.0000000  1.0460000  1
    568    567    573   1110     1  0.0000000  0.0000000  3
    568    567    573    574     1  0.0000000  0.6508444  3
    568    567    573    575     1  0.0000000  0.6508444  3
    569    567    573   1110     1  0.0000000  1.0460000  1
    569    567    573   1110     1  0.0000000  0.0000000  3
    569    567    573    574     1  0.0000000  0.6508444  3
    569    567    573    575     1  0.0000000  0.6508444  3
    573   1110   1106   1109     1  0.0000000  1.6038667  3
    574    573   1110   1106     1  0.0000000  1.6038667  3
    575    573   1110   1106     1  0.0000000  1.6038667  3
    576   1133   1129   1132     1  0.0000000  1.6038667  3
    577    576   1133   1129     1  0.0000000  1.6038667  3
    578    576   1133   1129     1  0.0000000  1.6038667  3
    580    581    593    594     1  0.0000000  0.6508444  3
    580    581    593    595     1  0.0000000  0.6508444  3
    580    584    596    597     1  0.0000000  0.6508444  3
    580    584    596    598     1  0.0000000  0.6508444  3
    580    587    590    591     1  0.0000000  0.6508444  3
    580    587    590    592     1  0.0000000  0.6508444  3
    581    580    584    585     1  0.0000000  1.2552000  3
    581    580    584    586     1  0.0000000  1.2552000  3
    581    580    587    588     1  0.0000000  1.2552000  3
    581    580    587    589     1  0.0000000  1.2552000  3
    581    593    605    606     1  0.0000000  0.6508444  3
    581    593    605    607     1  0.0000000  0.6508444  3
    582    581    580    584     1  0.0000000  1.2552000  3
    582    581    580    587     1  0.0000000  1.2552000  3
    582    581    593    605     1  0.0000000  0.6508444  3
    582    581    593    594     1  0.0000000  0.6508444  3
    582    581    593    595     1  0.0000000  0.6508444  3
    583    581    580    584     1  0.0000000  1.2552000  3
    583    581    580    587     1  0.0000000  1.2552000  3
    583    581    593    605     1  0.0000000  0.6508444  3
    583    581    593    594     1  0.0000000  0.6508444  3
    583    581    593    595     1  0.0000000  0.6508444  3
    584    580    587    588     1  0.0000000  1.2552000  3
    584    580    587    589     1  0.0000000  1.2552000  3
    584    596    602    603     1  0.0000000  0.6508444  3
    584    596    602    604     1  0.0000000  0.6508444  3
    585    584    580    587     1  0.0000000  1.2552000  3
    585    584    596    602     1  0.0000000  0.6508444  3
    585    584    596    597     1  0.0000000  0.6508444  3
    585    584    596    598     1  0.0000000  0.6508444  3
    586    584    580    587     1  0.0000000  1.2552000  3
    586    584    596    602     1  0.0000000  0.6508444  3
    586    584    596    597     1  0.0000000  0.6508444  3
    586    584    596    598     1  0.0000000  0.6508444  3
    587    590    599    600     1  0.0000000  0.6508444  3
    587    590    599    601     1  0.0000000  0.6508444  3
    588    587    590    599     1  0.0000000  0.6508444  3
    588    587    590    591     1  0.0000000  0.6508444  3
    588    587    590    592     1  0.0000000  0.6508444  3
    589    587    590    599     1  0.0000000  0.6508444  3
    589    587    590    591     1  0.0000000  0.6508444  3
    589    587    590    592     1  0.0000000  0.6508444  3
    591    590    599    608     1  0.0000000  1.0460000  1
    591    590    599    608     1  0.0000000  0.0000000  3
    591    590    599    600     1  0.0000000  0.6508444  3
    591    590    599    601     1  0.0000000  0.6508444  3
    592    590    599    608     1  0.0000000  1.0460000  1
    592    590    599    608     1  0.0000000  0.0000000  3
    592    590    599    600     1  0.0000000  0.6508444  3
    592    590    599    601     1  0.0000000  0.6508444  3
    594    593    605   1179     1  0.0000000  1.0460000  1
    594    593    605   1179     1  0.0000000  0.0000000  3
    594    593    605    606     1  0.0000000  0.6508444  3
    594    593    605    607     1  0.0000000  0.6508444  3
    595    593    605   1179     1  0.0000000  1.0460000  1
    595    593    605   1179     1  0.0000000  0.0000000  3
    595    593    605    606     1  0.0000000  0.6508444  3
    595    593    605    607     1  0.0000000  0.6508444  3
    597    596    602   1156     1  0.0000000  1.0460000  1
    597    596    602   1156     1  0.0000000  0.0000000  3
    597    596    602    603     1  0.0000000  0.6508444  3
    597    596    602    604     1  0.0000000  0.6508444  3
    598    596    602   1156     1  0.0000000  1.0460000  1
    598    596    602   1156     1  0.0000000  0.0000000  3
    598    596    602    603     1  0.0000000  0.6508444  3
    598    596    602    604     1  0.0000000  0.6508444  3
    602   1156   1152   1155     1  0.0000000  1.6038667  3
    603    602   1156   1152     1  0.0000000  1.6038667  3
    604    602   1156   1152     1  0.0000000  1.6038667  3
    605   1179   1175   1178     1  0.0000000  1.6038667  3
    606    605   1179   1175     1  0.0000000  1.6038667  3
    607    605   1179   1175     1  0.0000000  1.6038667  3
    609    610    622    623     1  0.0000000  0.6508444  3
    609    610    622    624     1  0.0000000  0.6508444  3
    609    613    625    626     1  0.0000000  0.6508444  3
    609    613    625    627     1  0.0000000  0.6508444  3
    609    616    619    620     1  0.0000000  0.6508444  3
    609    616    619    621     1  0.0000000  0.6508444  3
    610    609    613    614     1  0.0000000  1.2552000  3
    610    609    613    615     1  0.0000000  1.2552000  3
    610    609    616    617     1  0.0000000  1.2552000  3
    610    609    616    618     1  0.0000000  1.2552000  3
    610    622    634    635     1  0.0000000  0.6508444  3
    610    622    634    636     1  0.0000000  0.6508444  3
    611    610    609    613     1  0.0000000  1.2552000  3
    611    610    609    616     1  0.0000000  1.2552000  3
    611    610    622    634     1  0.0000000  0.6508444  3
    611    610    622    623     1  0.0000000  0.6508444  3
    611    610    622    624     1  0.0000000  0.6508444  3
    612    610    609    613     1  0.0000000  1.2552000  3
    612    610    609    616     1  0.0000000  1.2552000  3
    612    610    622    634     1  0.0000000  0.6508444  3
    612    610    622    623     1  0.0000000  0.6508444  3
    612    610    622    624     1  0.0000000  0.6508444  3
    613    609    616    617     1  0.0000000  1.2552000  3
    613    609    616    618     1  0.0000000  1.2552000  3
    613    625    631    632     1  0.0000000  0.6508444  3
    613    625    631    633     1  0.0000000  0.6508444  3
    614    613    609    616     1  0.0000000  1.2552000  3
    614    613    625    631     1  0.0000000  0.6508444  3
    614    613    625    626     1  0.0000000  0.6508444  3
    614    613    625    627     1  0.0000000  0.6508444  3
    615    613    609    616     1  0.0000000  1.2552000  3
    615    613    625    631     1  0.0000000  0.6508444  3
    615    613    625    626     1  0.0000000  0.6508444  3
    615    613    625    627     1  0.0000000  0.6508444  3
    616    619    628    629     1  0.0000000  0.6508444  3
    616    619    628    630     1  0.0000000  0.6508444  3
    617    616    619    628     1  0.0000000  0.6508444  3
    617    616    619    620     1  0.0000000  0.6508444  3
    617    616    619    621     1  0.0000000  0.6508444  3
    618    616    619    628     1  0.0000000  0.6508444  3
    618    616    619    620     1  0.0000000  0.6508444  3
    618    616    619    621     1  0.0000000  0.6508444  3
    620    619    628    637     1  0.0000000  1.0460000  1
    620    619    628    637     1  0.0000000  0.0000000  3
    620    619    628    629     1  0.0000000  0.6508444  3
    620    619    628    630     1  0.0000000  0.6508444  3
    621    619    628    637     1  0.0000000  1.0460000  1
    621    619    628    637     1  0.0000000  0.0000000  3
    621    619    628    629     1  0.0000000  0.6508444  3
    621    619    628    630     1  0.0000000  0.6508444  3
    623    622    634   1225     1  0.0000000  1.0460000  1
    623    622    634   1225     1  0.0000000  0.0000000  3
    623    622    634    635     1  0.0000000  0.6508444  3
    623    622    634    636     1  0.0000000  0.6508444  3
    624    622    634   1225     1  0.0000000  1.0460000  1
    624    622    634   1225     1  0.0000000  0.0000000  3
    624    622    634    635     1  0.0000000  0.6508444  3
    624    622    634    636     1  0.0000000  0.6508444  3
    626    625    631   1202     1  0.0000000  1.0460000  1
    626    625    631   1202     1  0.0000000  0.0000000  3
    626    625    631    632     1  0.0000000  0.6508444  3
    626    625    631    633     1  0.0000000  0.6508444  3
    627    625    631   1202     1  0.0000000  1.0460000  1
    627    625    631   1202     1  0.0000000  0.0000000  3
    627    625    631    632     1  0.0000000  0.6508444  3
    627    625    631    633     1  0.0000000  0.6508444  3
    631   1202   1198   1201     1  0.0000000  1.6038667  3
    632    631   1202   1198     1  0.0000000  1.6038667  3
    633    631   1202   1198     1  0.0000000  1.6038667  3
    634   1225   1221   1224     1  0.0000000  1.6038667  3
    635    634   1225   1221     1  0.0000000  1.6038667  3
    636    634   1225   1221     1  0.0000000  1.6038667  3
    638    639    651    652     1  0.0000000  0.6508444  3
    638    639    651    653     1  0.0000000  0.6508444  3
    638    642    654    655     1  0.0000000  0.6508444  3
    638    642    654    656     1  0.0000000  0.6508444  3
    638    645    648    649     1  0.0000000  0.6508444  3
    638    645    648    650     1  0.0000000  0.6508444  3
    639    638    642    643     1  0.0000000  1.2552000  3
    639    638    642    644     1  0.0000000  1.2552000  3
    639    638    645    646     1  0.0000000  1.2552000  3
    639    638    645    647     1  0.0000000  1.2552000  3
    639    651    663    664     1  0.0000000  0.6508444  3
    639    651    663    665     1  0.0000000  0.6508444  3
    640    639    638    642     1  0.0000000  1.2552000  3
    640    639    638    645     1  0.0000000  1.2552000  3
    640    639    651    663     1  0.0000000  0.6508444  3
    640    639    651    652     1  0.0000000  0.6508444  3
    640    639    651    653     1  0.0000000  0.6508444  3
    641    639    638    642     1  0.0000000  1.2552000  3
    641    639    638    645     1  0.0000000  1.2552000  3
    641    639    651    663     1  0.0000000  0.6508444  3
    641    639    651    652     1  0.0000000  0.6508444  3
    641    639    651    653     1  0.0000000  0.6508444  3
    642    638    645    646     1  0.0000000  1.2552000  3
    642    638    645    647     1  0.0000000  1.2552000  3
    642    654    660    661     1  0.0000000  0.6508444  3
    642    654    660    662     1  0.0000000  0.6508444  3
    643    642    638    645     1  0.0000000  1.2552000  3
    643    642    654    660     1  0.0000000  0.6508444  3
    643    642    654    655     1  0.0000000  0.6508444  3
    643    642    654    656     1  0.0000000  0.6508444  3
    644    642    638    645     1  0.0000000  1.2552000  3
    644    642    654    660     1  0.0000000  0.6508444  3
    644    642    654    655     1  0.0000000  0.6508444  3
    644    642    654    656     1  0.0000000  0.6508444  3
    645    648    657    658     1  0.0000000  0.6508444  3
    645    648    657    659     1  0.0000000  0.6508444  3
    646    645    648    657     1  0.0000000  0.6508444  3
    646    645    648    649     1  0.0000000  0.6508444  3
    646    645    648    650     1  0.0000000  0.6508444  3
    647    645    648    657     1  0.0000000  0.6508444  3
    647    645    648    649     1  0.0000000  0.6508444  3
    647    645    648    650     1  0.0000000  0.6508444  3
    649    648    657    666     1  0.0000000  1.0460000  1
    649    648    657    666     1  0.0000000  0.0000000  3
    649    648    657    658     1  0.0000000  0.6508444  3
    649    648    657    659     1  0.0000000  0.6508444  3
    650    648    657    666     1  0.0000000  1.0460000  1
    650    648    657    666     1  0.0000000  0.0000000  3
    650    648    657    658     1  0.0000000  0.6508444  3
    650    648    657    659     1  0.0000000  0.6508444  3
    652    651    663   1271     1  0.0000000  1.0460000  1
    652    651    663   1271     1  0.0000000  0.0000000  3
    652    651    663    664     1  0.0000000  0.6508444  3
    652    651    663    665     1  0.0000000  0.6508444  3
    653    651    663   1271     1  0.0000000  1.0460000  1
    653    651    663   1271     1  0.0000000  0.0000000  3
    653    651    663    664     1  0.0000000  0.6508444  3
    653    651    663    665     1  0.0000000  0.6508444  3
    655    654    660   1248     1  0.0000000  1.0460000  1
    655    654    660   1248     1  0.0000000  0.0000000  3
    655    654    660    661     1  0.0000000  0.6508444  3
    655    654    660    662     1  0.0000000  0.6508444  3
    656    654    660   1248     1  0.0000000  1.0460000  1
    656    654    660   1248     1  0.0000000  0.0000000  3
    656    654    660    661     1  0.0000000  0.6508444  3
    656    654    660    662     1  0.0000000  0.6508444  3
    660   1248   1244   1247     1  0.0000000  1.6038667  3
    661    660   1248   1244     1  0.0000000  1.6038667  3
    662    660   1248   1244     1  0.0000000  1.6038667  3
    663   1271   1267   1270     1  0.0000000  1.6038667  3
    664    663   1271   1267     1  0.0000000  1.6038667  3
    665    663   1271   1267     1  0.0000000  1.6038667  3
    667    668    680    681     1  0.0000000  0.6508444  3
    667    668    680    682     1  0.0000000  0.6508444  3
    667    671    683    684     1  0.0000000  0.6508444  3
    667    671    683    685     1  0.0000000  0.6508444  3
    667    674    677    678     1  0.0000000  0.6508444  3
    667    674    677    679     1  0.0000000  0.6508444  3
    668    667    671    672     1  0.0000000  1.2552000  3
    668    667    671    673     1  0.0000000  1.2552000  3
    668    667    674    675     1  0.0000000  1.2552000  3
    668    667    674    676     1  0.0000000  1.2552000  3
    668    680    692    693     1  0.0000000  0.6508444  3
    668    680    692    694     1  0.0000000  0.6508444  3
    669    668    667    671     1  0.0000000  1.2552000  3
    669    668    667    674     1  0.0000000  1.2552000  3
    669    668    680    692     1  0.0000000  0.6508444  3
    669    668    680    681     1  0.0000000  0.6508444  3
    669    668    680    682     1  0.0000000  0.6508444  3
    670    668    667    671     1  0.0000000  1.2552000  3
    670    668    667    674     1  0.0000000  1.2552000  3
    670    668    680    692     1  0.0000000  0.6508444  3
    670    668    680    681     1  0.0000000  0.6508444  3
    670    668    680    682     1  0.0000000  0.6508444  3
    671    667    674    675     1  0.0000000  1.2552000  3
    671    667    674    676     1  0.0000000  1.2552000  3
    671    683    689    690     1  0.0000000  0.6508444  3
    671    683    689    691     1  0.0000000  0.6508444  3
    672    671    667    674     1  0.0000000  1.2552000  3
    672    671    683    689     1  0.0000000  0.6508444  3
    672    671    683    684     1  0.0000000  0.6508444  3
    672    671    683    685     1  0.0000000  0.6508444  3
    673    671    667    674     1  0.0000000  1.2552000  3
    673    671    683    689     1  0.0000000  0.6508444  3
    673    671    683    684     1  0.0000000  0.6508444  3
    673    671    683    685     1  0.0000000  0.6508444  3
    674    677    686    687     1  0.0000000  0.6508444  3
    674    677    686    688     1  0.0000000  0.6508444  3
    675    674    677    686     1  0.0000000  0.6508444  3
    675    674    677    678     1  0.0000000  0.6508444  3
    675    674    677    679     1  0.0000000  0.6508444  3
    676    674    677    686     1  0.0000000  0.6508444  3
    676    674    677    678     1  0.0000000  0.6508444  3
    676    674    677    679     1  0.0000000  0.6508444  3
    678    677    686    695     1  0.0000000  1.0460000  1
    678    677    686    695     1  0.0000000  0.0000000  3
    678    677    686    687     1  0.0000000  0.6508444  3
    678    677    686    688     1  0.0000000  0.6508444  3
    679    677    686    695     1  0.0000000  1.0460000  1
    679    677    686    695     1  0.0000000  0.0000000  3
    679    677    686    687     1  0.0000000  0.6508444  3
    679    677    686    688     1  0.0000000  0.6508444  3
    681    680    692   1317     1  0.0000000  1.0460000  1
    681    680    692   1317     1  0.0000000  0.0000000  3
    681    680    692    693     1  0.0000000  0.6508444  3
    681    680    692    694     1  0.0000000  0.6508444  3
    682    680    692   1317     1  0.0000000  1.0460000  1
    682    680    692   1317     1  0.0000000  0.0000000  3
    682    680    692    693     1  0.0000000  0.6508444  3
    682    680    692    694     1  0.0000000  0.6508444  3
    684    683    689   1294     1  0.0000000  1.0460000  1
    684    683    689   1294     1  0.0000000  0.0000000  3
    684    683    689    690     1  0.0000000  0.6508444  3
    684    683    689    691     1  0.0000000  0.6508444  3
    685    683    689   1294     1  0.0000000  1.0460000  1
    685    683    689   1294     1  0.0000000  0.0000000  3
    685    683    689    690     1  0.0000000  0.6508444  3
    685    683    689    691     1  0.0000000  0.6508444  3
    689   1294   1290   1293     1  0.0000000  1.6038667  3
    690    689   1294   1290     1  0.0000000  1.6038667  3
    691    689   1294   1290     1  0.0000000  1.6038667  3
    692   1317   1313   1316     1  0.0000000  1.6038667  3
    693    692   1317   1313     1  0.0000000  1.6038667  3
    694    692   1317   1313     1  0.0000000  1.6038667  3
    696    697    709    710     1  0.0000000  0.6508444  3
    696    697    709    711     1  0.0000000  0.6508444  3
    696    700    712    713     1  0.0000000  0.6508444  3
    696    700    712    714     1  0.0000000  0.6508444  3
    696    703    706    707     1  0.0000000  0.6508444  3
    696    703    706    708     1  0.0000000  0.6508444  3
    697    696    700    701     1  0.0000000  1.2552000  3
    697    696    700    702     1  0.0000000  1.2552000  3
    697    696    703    704     1  0.0000000  1.2552000  3
    697    696    703    705     1  0.0000000  1.2552000  3
    697    709    721    722     1  0.0000000  0.6508444  3
    697    709    721    723     1  0.0000000  0.6508444  3
    698    697    696    700     1  0.0000000  1.2552000  3
    698    697    696    703     1  0.0000000  1.2552000  3
    698    697    709    721     1  0.0000000  0.6508444  3
    698    697    709    710     1  0.0000000  0.6508444  3
    698    697    709    711     1  0.0000000  0.6508444  3
    699    697    696    700     1  0.0000000  1.2552000  3
    699    697    696    703     1  0.0000000  1.2552000  3
    699    697    709    721     1  0.0000000  0.6508444  3
    699    697    709    710     1  0.0000000  0.6508444  3
    699    697    709    711     1  0.0000000  0.6508444  3
    700    696    703    704     1  0.0000000  1.2552000  3
    700    696    703    705     1  0.0000000  1.2552000  3
    700    712    718    719     1  0.0000000  0.6508444  3
    700    712    718    720     1  0.0000000  0.6508444  3
    701    700    696    703     1  0.0000000  1.2552000  3
    701    700    712    718     1  0.0000000  0.6508444  3
    701    700    712    713     1  0.0000000  0.6508444  3
    701    700    712    714     1  0.0000000  0.6508444  3
    702    700    696    703     1  0.0000000  1.2552000  3
    702    700    712    718     1  0.0000000  0.6508444  3
    702    700    712    713     1  0.0000000  0.6508444  3
    702    700    712    714     1  0.0000000  0.6508444  3
    703    706    715    716     1  0.0000000  0.6508444  3
    703    706    715    717     1  0.0000000  0.6508444  3
    704    703    706    715     1  0.0000000  0.6508444  3
    704    703    706    707     1  0.0000000  0.6508444  3
    704    703    706    708     1  0.0000000  0.6508444  3
    705    703    706    715     1  0.0000000  0.6508444  3
    705    703    706    707     1  0.0000000  0.6508444  3
    705    703    706    708     1  0.0000000  0.6508444  3
    707    706    715    724     1  0.0000000  1.0460000  1
    707    706    715    724     1  0.0000000  0.0000000  3
    707    706    715    716     1  0.0000000  0.6508444  3
    707    706    715    717     1  0.0000000  0.6508444  3
    708    706    715    724     1  0.0000000  1.0460000  1
    708    706    715    724     1  0.0000000  0.0000000  3
    708    706    715    716     1  0.0000000  0.6508444  3
    708    706    715    717     1  0.0000000  0.6508444  3
    710    709    721   1363     1  0.0000000  1.0460000  1
    710    709    721   1363     1  0.0000000  0.0000000  3
    710    709    721    722     1  0.0000000  0.6508444  3
    710    709    721    723     1  0.0000000  0.6508444  3
    711    709    721   1363     1  0.0000000  1.0460000  1
    711    709    721   1363     1  0.0000000  0.0000000  3
    711    709    721    722     1  0.0000000  0.6508444  3
    711    709    721    723     1  0.0000000  0.6508444  3
    713    712    718   1340     1  0.0000000  1.0460000  1
    713    712    718   1340     1  0.0000000  0.0000000  3
    713    712    718    719     1  0.0000000  0.6508444  3
    713    712    718    720     1  0.0000000  0.6508444  3
    714    712    718   1340     1  0.0000000  1.0460000  1
    714    712    718   1340     1  0.0000000  0.0000000  3
    714    712    718    719     1  0.0000000  0.6508444  3
    714    712    718    720     1  0.0000000  0.6508444  3
    718   1340   1336   1339     1  0.0000000  1.6038667  3
    719    718   1340   1336     1  0.0000000  1.6038667  3
    720    718   1340   1336     1  0.0000000  1.6038667  3
    721   1363   1359   1362     1  0.0000000  1.6038667  3
    722    721   1363   1359     1  0.0000000  1.6038667  3
    723    721   1363   1359     1  0.0000000  1.6038667  3
    725    726    738    739     1  0.0000000  0.6508444  3
    725    726    738    740     1  0.0000000  0.6508444  3
    725    729    741    742     1  0.0000000  0.6508444  3
    725    729    741    743     1  0.0000000  0.6508444  3
    725    732    735    736     1  0.0000000  0.6508444  3
    725    732    735    737     1  0.0000000  0.6508444  3
    726    725    729    730     1  0.0000000  1.2552000  3
    726    725    729    731     1  0.0000000  1.2552000  3
    726    725    732    733     1  0.0000000  1.2552000  3
    726    725    732    734     1  0.0000000  1.2552000  3
    726    738    750    751     1  0.0000000  0.6508444  3
    726    738    750    752     1  0.0000000  0.6508444  3
    727    726    725    729     1  0.0000000  1.2552000  3
    727    726    725    732     1  0.0000000  1.2552000  3
    727    726    738    750     1  0.0000000  0.6508444  3
    727    726    738    739     1  0.0000000  0.6508444  3
    727    726    738    740     1  0.0000000  0.6508444  3
    728    726    725    729     1  0.0000000  1.2552000  3
    728    726    725    732     1  0.0000000  1.2552000  3
    728    726    738    750     1  0.0000000  0.6508444  3
    728    726    738    739     1  0.0000000  0.6508444  3
    728    726    738    740     1  0.0000000  0.6508444  3
    729    725    732    733     1  0.0000000  1.2552000  3
    729    725    732    734     1  0.0000000  1.2552000  3
    729    741    747    748     1  0.0000000  0.6508444  3
    729    741    747    749     1  0.0000000  0.6508444  3
    730    729    725    732     1  0.0000000  1.2552000  3
    730    729    741    747     1  0.0000000  0.6508444  3
    730    729    741    742     1  0.0000000  0.6508444  3
    730    729    741    743     1  0.0000000  0.6508444  3
    731    729    725    732     1  0.0000000  1.2552000  3
    731    729    741    747     1  0.0000000  0.6508444  3
    731    729    741    742     1  0.0000000  0.6508444  3
    731    729    741    743     1  0.0000000  0.6508444  3
    732    735    744    745     1  0.0000000  0.6508444  3
    732    735    744    746     1  0.0000000  0.6508444  3
    733    732    735    744     1  0.0000000  0.6508444  3
    733    732    735    736     1  0.0000000  0.6508444  3
    733    732    735    737     1  0.0000000  0.6508444  3
    734    732    735    744     1  0.0000000  0.6508444  3
    734    732    735    736     1  0.0000000  0.6508444  3
    734    732    735    737     1  0.0000000  0.6508444  3
    736    735    744    753     1  0.0000000  1.0460000  1
    736    735    744    753     1  0.0000000  0.0000000  3
    736    735    744    745     1  0.0000000  0.6508444  3
    736    735    744    746     1  0.0000000  0.6508444  3
    737    735    744    753     1  0.0000000  1.0460000  1
    737    735    744    753     1  0.0000000  0.0000000  3
    737    735    744    745     1  0.0000000  0.6508444  3
    737    735    744    746     1  0.0000000  0.6508444  3
    739    738    750   1409     1  0.0000000  1.0460000  1
    739    738    750   1409     1  0.0000000  0.0000000  3
    739    738    750    751     1  0.0000000  0.6508444  3
    739    738    750    752     1  0.0000000  0.6508444  3
    740    738    750   1409     1  0.0000000  1.0460000  1
    740    738    750   1409     1  0.0000000  0.0000000  3
    740    738    750    751     1  0.0000000  0.6508444  3
    740    738    750    752     1  0.0000000  0.6508444  3
    742    741    747   1386     1  0.0000000  1.0460000  1
    742    741    747   1386     1  0.0000000  0.0000000  3
    742    741    747    748     1  0.0000000  0.6508444  3
    742    741    747    749     1  0.0000000  0.6508444  3
    743    741    747   1386     1  0.0000000  1.0460000  1
    743    741    747   1386     1  0.0000000  0.0000000  3
    743    741    747    748     1  0.0000000  0.6508444  3
    743    741    747    749     1  0.0000000  0.6508444  3
    747   1386   1382   1385     1  0.0000000  1.6038667  3
    748    747   1386   1382     1  0.0000000  1.6038667  3
    749    747   1386   1382     1  0.0000000  1.6038667  3
    750   1409   1405   1408     1  0.0000000  1.6038667  3
    751    750   1409   1405     1  0.0000000  1.6038667  3
    752    750   1409   1405     1  0.0000000  1.6038667  3
    754    755    767    768     1  0.0000000  0.6508444  3
    754    755    767    769     1  0.0000000  0.6508444  3
    754    758    770    771     1  0.0000000  0.6508444  3
    754    758    770    772     1  0.0000000  0.6508444  3
    754    761    764    765     1  0.0000000  0.6508444  3
    754    761    764    766     1  0.0000000  0.6508444  3
    755    754    758    759     1  0.0000000  1.2552000  3
    755    754    758    760     1  0.0000000  1.2552000  3
    755    754    761    762     1  0.0000000  1.2552000  3
    755    754    761    763     1  0.0000000  1.2552000  3
    755    767    779    780     1  0.0000000  0.6508444  3
    755    767    779    781     1  0.0000000  0.6508444  3
    756    755    754    758     1  0.0000000  1.2552000  3
    756    755    754    761     1  0.0000000  1.2552000  3
    756    755    767    779     1  0.0000000  0.6508444  3
    756    755    767    768     1  0.0000000  0.6508444  3
    756    755    767    769     1  0.0000000  0.6508444  3
    757    755    754    758     1  0.0000000  1.2552000  3
    757    755    754    761     1  0.0000000  1.2552000  3
    757    755    767    779     1  0.0000000  0.6508444  3
    757    755    767    768     1  0.0000000  0.6508444  3
    757    755    767    769     1  0.0000000  0.6508444  3
    758    754    761    762     1  0.0000000  1.2552000  3
    758    754    761    763     1  0.0000000  1.2552000  3
    758    770    776    777     1  0.0000000  0.6508444  3
    758    770    776    778     1  0.0000000  0.6508444  3
    759    758    754    761     1  0.0000000  1.2552000  3
    759    758    770    776     1  0.0000000  0.6508444  3
    759    758    770    771     1  0.0000000  0.6508444  3
    759    758    770    772     1  0.0000000  0.6508444  3
    760    758    754    761     1  0.0000000  1.2552000  3
    760    758    770    776     1  0.0000000  0.6508444  3
    760    758    770    771     1  0.0000000  0.6508444  3
    760    758    770    772     1  0.0000000  0.6508444  3
    761    764    773    774     1  0.0000000  0.6508444  3
    761    764    773    775     1  0.0000000  0.6508444  3
    762    761    764    773     1  0.0000000  0.6508444  3
    762    761    764    765     1  0.0000000  0.6508444  3
    762    761    764    766     1  0.0000000  0.6508444  3
    763    761    764    773     1  0.0000000  0.6508444  3
    763    761    764    765     1  0.0000000  0.6508444  3
    763    761    764    766     1  0.0000000  0.6508444  3
    765    764    773    782     1  0.0000000  1.0460000  1
    765    764    773    782     1  0.0000000  0.0000000  3
    765    764    773    774     1  0.0000000  0.6508444  3
    765    764    773    775     1  0.0000000  0.6508444  3
    766    764    773    782     1  0.0000000  1.0460000  1
    766    764    773    782     1  0.0000000  0.0000000  3
    766    764    773    774     1  0.0000000  0.6508444  3
    766    764    773    775     1  0.0000000  0.6508444  3
    768    767    779   1455     1  0.0000000  1.0460000  1
    768    767    779   1455     1  0.0000000  0.0000000  3
    768    767    779    780     1  0.0000000  0.6508444  3
    768    767    779    781     1  0.0000000  0.6508444  3
    769    767    779   1455     1  0.0000000  1.0460000  1
    769    767    779   1455     1  0.0000000  0.0000000  3
    769    767    779    780     1  0.0000000  0.6508444  3
    769    767    779    781     1  0.0000000  0.6508444  3
    771    770    776   1432     1  0.0000000  1.0460000  1
    771    770    776   1432     1  0.0000000  0.0000000  3
    771    770    776    777     1  0.0000000  0.6508444  3
    771    770    776    778     1  0.0000000  0.6508444  3
    772    770    776   1432     1  0.0000000  1.0460000  1
    772    770    776   1432     1  0.0000000  0.0000000  3
    772    770    776    777     1  0.0000000  0.6508444  3
    772    770    776    778     1  0.0000000  0.6508444  3
    776   1432   1428   1431     1  0.0000000  1.6038667  3
    777    776   1432   1428     1  0.0000000  1.6038667  3
    778    776   1432   1428     1  0.0000000  1.6038667  3
    779   1455   1451   1454     1  0.0000000  1.6038667  3
    780    779   1455   1451     1  0.0000000  1.6038667  3
    781    779   1455   1451     1  0.0000000  1.6038667  3
    783    784    796    797     1  0.0000000  0.6508444  3
    783    784    796    798     1  0.0000000  0.6508444  3
    783    787    799    800     1  0.0000000  0.6508444  3
    783    787    799    801     1  0.0000000  0.6508444  3
    783    790    793    794     1  0.0000000  0.6508444  3
    783    790    793    795     1  0.0000000  0.6508444  3
    784    783    787    788     1  0.0000000  1.2552000  3
    784    783    787    789     1  0.0000000  1.2552000  3
    784    783    790    791     1  0.0000000  1.2552000  3
    784    783    790    792     1  0.0000000  1.2552000  3
    784    796    808    809     1  0.0000000  0.6508444  3
    784    796    808    810     1  0.0000000  0.6508444  3
    785    784    783    787     1  0.0000000  1.2552000  3
    785    784    783    790     1  0.0000000  1.2552000  3
    785    784    796    808     1  0.0000000  0.6508444  3
    785    784    796    797     1  0.0000000  0.6508444  3
    785    784    796    798     1  0.0000000  0.6508444  3
    786    784    783    787     1  0.0000000  1.2552000  3
    786    784    783    790     1  0.0000000  1.2552000  3
    786    784    796    808     1  0.0000000  0.6508444  3
    786    784    796    797     1  0.0000000  0.6508444  3
    786    784    796    798     1  0.0000000  0.6508444  3
    787    783    790    791     1  0.0000000  1.2552000  3
    787    783    790    792     1  0.0000000  1.2552000  3
    787    799    805    806     1  0.0000000  0.6508444  3
    787    799    805    807     1  0.0000000  0.6508444  3
    788    787    783    790     1  0.0000000  1.2552000  3
    788    787    799    805     1  0.0000000  0.6508444  3
    788    787    799    800     1  0.0000000  0.6508444  3
    788    787    799    801     1  0.0000000  0.6508444  3
    789    787    783    790     1  0.0000000  1.2552000  3
    789    787    799    805     1  0.0000000  0.6508444  3
    789    787    799    800     1  0.0000000  0.6508444  3
    789    787    799    801     1  0.0000000  0.6508444  3
    790    793    802    803     1  0.0000000  0.6508444  3
    790    793    802    804     1  0.0000000  0.6508444  3
    791    790    793    802     1  0.0000000  0.6508444  3
    791    790    793    794     1  0.0000000  0.6508444  3
    791    790    793    795     1  0.0000000  0.6508444  3
    792    790    793    802     1  0.0000000  0.6508444  3
    792    790    793    794     1  0.0000000  0.6508444  3
    792    790    793    795     1  0.0000000  0.6508444  3
    794    793    802    811     1  0.0000000  1.0460000  1
    794    793    802    811     1  0.0000000  0.0000000  3
    794    793    802    803     1  0.0000000  0.6508444  3
    794    793    802    804     1  0.0000000  0.6508444  3
    795    793    802    811     1  0.0000000  1.0460000  1
    795    793    802    811     1  0.0000000  0.0000000  3
    795    793    802    803     1  0.0000000  0.6508444  3
    795    793    802    804     1  0.0000000  0.6508444  3
    797    796    808   1501     1  0.0000000  1.0460000  1
    797    796    808   1501     1  0.0000000  0.0000000  3
    797    796    808    809     1  0.0000000  0.6508444  3
    797    796    808    810     1  0.0000000  0.6508444  3
    798    796    808   1501     1  0.0000000  1.0460000  1
    798    796    808   1501     1  0.0000000  0.0000000  3
    798    796    808    809     1  0.0000000  0.6508444  3
    798    796    808    810     1  0.0000000  0.6508444  3
    800    799    805   1478     1  0.0000000  1.0460000  1
    800    799    805   1478     1  0.0000000  0.0000000  3
    800    799    805    806     1  0.0000000  0.6508444  3
    800    799    805    807     1  0.0000000  0.6508444  3
    801    799    805   1478     1  0.0000000  1.0460000  1
    801    799    805   1478     1  0.0000000  0.0000000  3
    801    799    805    806     1  0.0000000  0.6508444  3
    801    799    805    807     1  0.0000000  0.6508444  3
    805   1478   1474   1477     1  0.0000000  1.6038667  3
    806    805   1478   1474     1  0.0000000  1.6038667  3
    807    805   1478   1474     1  0.0000000  1.6038667  3
    808   1501   1497   1500     1  0.0000000  1.6038667  3
    809    808   1501   1497     1  0.0000000  1.6038667  3
    810    808   1501   1497     1  0.0000000  1.6038667  3
    812    813    825    826     1  0.0000000  0.6508444  3
    812    813    825    827     1  0.0000000  0.6508444  3
    812    816    828    829     1  0.0000000  0.6508444  3
    812    816    828    830     1  0.0000000  0.6508444  3
    812    819    822    823     1  0.0000000  0.6508444  3
    812    819    822    824     1  0.0000000  0.6508444  3
    813    812    816    817     1  0.0000000  1.2552000  3
    813    812    816    818     1  0.0000000  1.2552000  3
    813    812    819    820     1  0.0000000  1.2552000  3
    813    812    819    821     1  0.0000000  1.2552000  3
    813    825    837    838     1  0.0000000  0.6508444  3
    813    825    837    839     1  0.0000000  0.6508444  3
    814    813    812    816     1  0.0000000  1.2552000  3
    814    813    812    819     1  0.0000000  1.2552000  3
    814    813    825    837     1  0.0000000  0.6508444  3
    814    813    825    826     1  0.0000000  0.6508444  3
    814    813    825    827     1  0.0000000  0.6508444  3
    815    813    812    816     1  0.0000000  1.2552000  3
    815    813    812    819     1  0.0000000  1.2552000  3
    815    813    825    837     1  0.0000000  0.6508444  3
    815    813    825    826     1  0.0000000  0.6508444  3
    815    813    825    827     1  0.0000000  0.6508444  3
    816    812    819    820     1  0.0000000  1.2552000  3
    816    812    819    821     1  0.0000000  1.2552000  3
    816    828    834    835     1  0.0000000  0.6508444  3
    816    828    834    836     1  0.0000000  0.6508444  3
    817    816    812    819     1  0.0000000  1.2552000  3
    817    816    828    834     1  0.0000000  0.6508444  3
    817    816    828    829     1  0.0000000  0.6508444  3
    817    816    828    830     1  0.0000000  0.6508444  3
    818    816    812    819     1  0.0000000  1.2552000  3
    818    816    828    834     1  0.0000000  0.6508444  3
    818    816    828    829     1  0.0000000  0.6508444  3
    818    816    828    830     1  0.0000000  0.6508444  3
    819    822    831    832     1  0.0000000  0.6508444  3
    819    822    831    833     1  0.0000000  0.6508444  3
    820    819    822    831     1  0.0000000  0.6508444  3
    820    819    822    823     1  0.0000000  0.6508444  3
    820    819    822    824     1  0.0000000  0.6508444  3
    821    819    822    831     1  0.0000000  0.6508444  3
    821    819    822    823     1  0.0000000  0.6508444  3
    821    819    822    824     1  0.0000000  0.6508444  3
    823    822    831    840     1  0.0000000  1.0460000  1
    823    822    831    840     1  0.0000000  0.0000000  3
    823    822    831    832     1  0.0000000  0.6508444  3
    823    822    831    833     1  0.0000000  0.6508444  3
    824    822    831    840     1  0.0000000  1.0460000  1
    824    822    831    840     1  0.0000000  0.0000000  3
    824    822    831    832     1  0.0000000  0.6508444  3
    824    822    831    833     1  0.0000000  0.6508444  3
    826    825    837   1547     1  0.0000000  1.0460000  1
    826    825    837   1547     1  0.0000000  0.0000000  3
    826    825    837    838     1  0.0000000  0.6508444  3
    826    825    837    839     1  0.0000000  0.6508444  3
    827    825    837   1547     1  0.0000000  1.0460000  1
    827    825    837   1547     1  0.0000000  0.0000000  3
    827    825    837    838     1  0.0000000  0.6508444  3
    827    825    837    839     1  0.0000000  0.6508444  3
    829    828    834   1524     1  0.0000000  1.0460000  1
    829    828    834   1524     1  0.0000000  0.0000000  3
    829    828    834    835     1  0.0000000  0.6508444  3
    829    828    834    836     1  0.0000000  0.6508444  3
    830    828    834   1524     1  0.0000000  1.0460000  1
    830    828    834   1524     1  0.0000000  0.0000000  3
    830    828    834    835     1  0.0000000  0.6508444  3
    830    828    834    836     1  0.0000000  0.6508444  3
    834   1524   1520   1523     1  0.0000000  1.6038667  3
    835    834   1524   1520     1  0.0000000  1.6038667  3
    836    834   1524   1520     1  0.0000000  1.6038667  3
    837   1547   1543   1546     1  0.0000000  1.6038667  3
    838    837   1547   1543     1  0.0000000  1.6038667  3
    839    837   1547   1543     1  0.0000000  1.6038667  3
    841    842    854    855     1  0.0000000  0.6508444  3
    841    842    854    856     1  0.0000000  0.6508444  3
    841    845    857    858     1  0.0000000  0.6508444  3
    841    845    857    859     1  0.0000000  0.6508444  3
    841    848    851    852     1  0.0000000  0.6508444  3
    841    848    851    853     1  0.0000000  0.6508444  3
    842    841    845    846     1  0.0000000  1.2552000  3
    842    841    845    847     1  0.0000000  1.2552000  3
    842    841    848    849     1  0.0000000  1.2552000  3
    842    841    848    850     1  0.0000000  1.2552000  3
    842    854    866    867     1  0.0000000  0.6508444  3
    842    854    866    868     1  0.0000000  0.6508444  3
    843    842    841    845     1  0.0000000  1.2552000  3
    843    842    841    848     1  0.0000000  1.2552000  3
    843    842    854    866     1  0.0000000  0.6508444  3
    843    842    854    855     1  0.0000000  0.6508444  3
    843    842    854    856     1  0.0000000  0.6508444  3
    844    842    841    845     1  0.0000000  1.2552000  3
    844    842    841    848     1  0.0000000  1.2552000  3
    844    842    854    866     1  0.0000000  0.6508444  3
    844    842    854    855     1  0.0000000  0.6508444  3
    844    842    854    856     1  0.0000000  0.6508444  3
    845    841    848    849     1  0.0000000  1.2552000  3
    845    841    848    850     1  0.0000000  1.2552000  3
    845    857    863    864     1  0.0000000  0.6508444  3
    845    857    863    865     1  0.0000000  0.6508444  3
    846    845    841    848     1  0.0000000  1.2552000  3
    846    845    857    863     1  0.0000000  0.6508444  3
    846    845    857    858     1  0.0000000  0.6508444  3
    846    845    857    859     1  0.0000000  0.6508444  3
    847    845    841    848     1  0.0000000  1.2552000  3
    847    845    857    863     1  0.0000000  0.6508444  3
    847    845    857    858     1  0.0000000  0.6508444  3
    847    845    857    859     1  0.0000000  0.6508444  3
    848    851    860    861     1  0.0000000  0.6508444  3
    848    851    860    862     1  0.0000000  0.6508444  3
    849    848    851    860     1  0.0000000  0.6508444  3
    849    848    851    852     1  0.0000000  0.6508444  3
    849    848    851    853     1  0.0000000  0.6508444  3
    850    848    851    860     1  0.0000000  0.6508444  3
    850    848    851    852     1  0.0000000  0.6508444  3
    850    848    851    853     1  0.0000000  0.6508444  3
    852    851    860    869     1  0.0000000  1.0460000  1
    852    851    860    869     1  0.0000000  0.0000000  3
    852    851    860    861     1  0.0000000  0.6508444  3
    852    851    860    862     1  0.0000000  0.6508444  3
    853    851    860    869     1  0.0000000  1.0460000  1
    853    851    860    869     1  0.0000000  0.0000000  3
    853    851    860    861     1  0.0000000  0.6508444  3
    853    851    860    862     1  0.0000000  0.6508444  3
    855    854    866   1593     1  0.0000000  1.0460000  1
    855    854    866   1593     1  0.0000000  0.0000000  3
    855    854    866    867     1  0.0000000  0.6508444  3
    855    854    866    868     1  0.0000000  0.6508444  3
    856    854    866   1593     1  0.0000000  1.0460000  1
    856    854    866   1593     1  0.0000000  0.0000000  3
    856    854    866    867     1  0.0000000  0.6508444  3
    856    854    866    868     1  0.0000000  0.6508444  3
    858    857    863   1570     1  0.0000000  1.0460000  1
    858    857    863   1570     1  0.0000000  0.0000000  3
    858    857    863    864     1  0.0000000  0.6508444  3
    858    857    863    865     1  0.0000000  0.6508444  3
    859    857    863   1570     1  0.0000000  1.0460000  1
    859    857    863   1570     1  0.0000000  0.0000000  3
    859    857    863    864     1  0.0000000  0.6508444  3
    859    857    863    865     1  0.0000000  0.6508444  3
    863   1570   1566   1569     1  0.0000000  1.6038667  3
    864    863   1570   1566     1  0.0000000  1.6038667  3
    865    863   1570   1566     1  0.0000000  1.6038667  3
    866   1593   1589   1592     1  0.0000000  1.6038667  3
    867    866   1593   1589     1  0.0000000  1.6038667  3
    868    866   1593   1589     1  0.0000000  1.6038667  3
    870    871    874    878     1  0.0000000  0.6508444  3
    870    871    883    886     1  0.0000000  1.0460000  1
    870    871    883    886     1  0.0000000  0.6694400  3
    870    884    890    891     1  0.0000000  1.0460000  1
    870    884    890    891     1  0.0000000  0.6694400  3
    870    892    876    879     1  0.0000000  1.6038667  3
    871    870    884    888     1  0.0000000  0.6508444  3
    871    870    884    889     1  0.0000000  0.6508444  3
    871    874    875    877     1  0.0000000  0.6508444  3
    871    874    882    885     1  0.0000000  1.0460000  1
    871    874    882    885     1  0.0000000  0.6694400  3
    872    870    871    874     1  0.0000000  0.6508444  3
    872    870    871    883     1  0.0000000  1.0460000  1
    872    870    871    883     1  0.0000000  0.0000000  3
    872    870    871    873     1  0.0000000  0.6508444  3
    872    870    884    890     1  0.0000000  1.0460000  1
    872    870    884    890     1  0.0000000  0.0000000  3
    872    870    884    888     1  0.0000000  0.6508444  3
    872    870    884    889     1  0.0000000  0.6508444  3
    872    870    892    876     1  0.0000000  1.6038667  3
    873    871    870    884     1  0.0000000  0.6508444  3
    873    871    870    892     1  0.0000000  1.0460000  1
    873    871    870    892     1  0.0000000  0.0000000  3
    873    871    874    875     1  0.0000000  0.6508444  3
    873    871    874    882     1  0.0000000  1.0460000  1
    873    871    874    882     1  0.0000000  0.0000000  3
    873    871    874    878     1  0.0000000  0.6508444  3
    873    871    883    886     1  0.0000000  0.6973333  3
    874    871    883    886     1  0.0000000  1.0460000  1
    874    871    883    886     1  0.0000000  0.6694400  3
    874    875    876    879     1  0.0000000  0.6508444  3
    874    875    881    887     1  0.0000000  1.0460000  1
    874    875    881    887     1  0.0000000  0.6694400  3
    875    874    882    885     1  0.0000000  1.0460000  1
    875    874    882    885     1  0.0000000  0.6694400  3
    876    875    874    878     1  0.0000000  0.6508444  3
    876    875    881    887     1  0.0000000  1.0460000  1
    876    875    881    887     1  0.0000000  0.6694400  3
    877    875    874    882     1  0.0000000  1.0460000  1
    877    875    874    882     1  0.0000000  0.0000000  3
    877    875    874    878     1  0.0000000  0.6508444  3
    877    875    876    880     1  0.0000000  1.0460000  1
    877    875    876    880     1  0.0000000  0.0000000  3
    877    875    876    892     1  0.0000000  1.0460000  1
    877    875    876    892     1  0.0000000  0.0000000  3
    877    875    876    879     1  0.0000000  0.6508444  3
    877    875    881    887     1  0.0000000  0.6973333  3
    878    874    871    883     1  0.0000000  1.0460000  1
    878    874    871    883     1  0.0000000  0.0000000  3
    878    874    875    881     1  0.0000000  1.0460000  1
    878    874    875    881     1  0.0000000  0.0000000  3
    878    874    882    885     1  0.0000000  0.6973333  3
    879    876    875    881     1  0.0000000  0.6508444  3
    888    884    870    892     1  0.0000000  1.0460000  1
    888    884    870    892     1  0.0000000  0.0000000  3
    888    884    890    891     1  0.0000000  0.6973333  3
    889    884    870    892     1  0.0000000  1.0460000  1
    889    884    870    892     1  0.0000000  0.0000000  3
    889    884    890    891     1  0.0000000  0.6973333  3
    893    894    897    901     1  0.0000000  0.6508444  3
    893    894    906    909     1  0.0000000  1.0460000  1
    893    894    906    909     1  0.0000000  0.6694400  3
    893    907    913    914     1  0.0000000  1.0460000  1
    893    907    913    914     1  0.0000000  0.6694400  3
    893    915    899    902     1  0.0000000  1.6038667  3
    894    893    907    911     1  0.0000000  0.6508444  3
    894    893    907    912     1  0.0000000  0.6508444  3
    894    897    898    900     1  0.0000000  0.6508444  3
    894    897    905    908     1  0.0000000  1.0460000  1
    894    897    905    908     1  0.0000000  0.6694400  3
    895    893    894    897     1  0.0000000  0.6508444  3
    895    893    894    906     1  0.0000000  1.0460000  1
    895    893    894    906     1  0.0000000  0.0000000  3
    895    893    894    896     1  0.0000000  0.6508444  3
    895    893    907    913     1  0.0000000  1.0460000  1
    895    893    907    913     1  0.0000000  0.0000000  3
    895    893    907    911     1  0.0000000  0.6508444  3
    895    893    907    912     1  0.0000000  0.6508444  3
    895    893    915    899     1  0.0000000  1.6038667  3
    896    894    893    907     1  0.0000000  0.6508444  3
    896    894    893    915     1  0.0000000  1.0460000  1
    896    894    893    915     1  0.0000000  0.0000000  3
    896    894    897    898     1  0.0000000  0.6508444  3
    896    894    897    905     1  0.0000000  1.0460000  1
    896    894    897    905     1  0.0000000  0.0000000  3
    896    894    897    901     1  0.0000000  0.6508444  3
    896    894    906    909     1  0.0000000  0.6973333  3
    897    894    906    909     1  0.0000000  1.0460000  1
    897    894    906    909     1  0.0000000  0.6694400  3
    897    898    899    902     1  0.0000000  0.6508444  3
    897    898    904    910     1  0.0000000  1.0460000  1
    897    898    904    910     1  0.0000000  0.6694400  3
    898    897    905    908     1  0.0000000  1.0460000  1
    898    897    905    908     1  0.0000000  0.6694400  3
    899    898    897    901     1  0.0000000  0.6508444  3
    899    898    904    910     1  0.0000000  1.0460000  1
    899    898    904    910     1  0.0000000  0.6694400  3
    900    898    897    905     1  0.0000000  1.0460000  1
    900    898    897    905     1  0.0000000  0.0000000  3
    900    898    897    901     1  0.0000000  0.6508444  3
    900    898    899    903     1  0.0000000  1.0460000  1
    900    898    899    903     1  0.0000000  0.0000000  3
    900    898    899    915     1  0.0000000  1.0460000  1
    900    898    899    915     1  0.0000000  0.0000000  3
    900    898    899    902     1  0.0000000  0.6508444  3
    900    898    904    910     1  0.0000000  0.6973333  3
    901    897    894    906     1  0.0000000  1.0460000  1
    901    897    894    906     1  0.0000000  0.0000000  3
    901    897    898    904     1  0.0000000  1.0460000  1
    901    897    898    904     1  0.0000000  0.0000000  3
    901    897    905    908     1  0.0000000  0.6973333  3
    902    899    898    904     1  0.0000000  0.6508444  3
    911    907    893    915     1  0.0000000  1.0460000  1
    911    907    893    915     1  0.0000000  0.0000000  3
    911    907    913    914     1  0.0000000  0.6973333  3
    912    907    893    915     1  0.0000000  1.0460000  1
    912    907    893    915     1  0.0000000  0.0000000  3
    912    907    913    914     1  0.0000000  0.6973333  3
    916    917    920    924     1  0.0000000  0.6508444  3
    916    917    929    932     1  0.0000000  1.0460000  1
    916    917    929    932     1  0.0000000  0.6694400  3
    916    930    936    937     1  0.0000000  1.0460000  1
    916    930    936    937     1  0.0000000  0.6694400  3
    916    938    922    925     1  0.0000000  1.6038667  3
    917    916    930    934     1  0.0000000  0.6508444  3
    917    916    930    935     1  0.0000000  0.6508444  3
    917    920    921    923     1  0.0000000  0.6508444  3
    917    920    928    931     1  0.0000000  1.0460000  1
    917    920    928    931     1  0.0000000  0.6694400  3
    918    916    917    920     1  0.0000000  0.6508444  3
    918    916    917    929     1  0.0000000  1.0460000  1
    918    916    917    929     1  0.0000000  0.0000000  3
    918    916    917    919     1  0.0000000  0.6508444  3
    918    916    930    936     1  0.0000000  1.0460000  1
    918    916    930    936     1  0.0000000  0.0000000  3
    918    916    930    934     1  0.0000000  0.6508444  3
    918    916    930    935     1  0.0000000  0.6508444  3
    918    916    938    922     1  0.0000000  1.6038667  3
    919    917    916    930     1  0.0000000  0.6508444  3
    919    917    916    938     1  0.0000000  1.0460000  1
    919    917    916    938     1  0.0000000  0.0000000  3
    919    917    920    921     1  0.0000000  0.6508444  3
    919    917    920    928     1  0.0000000  1.0460000  1
    919    917    920    928     1  0.0000000  0.0000000  3
    919    917    920    924     1  0.0000000  0.6508444  3
    919    917    929    932     1  0.0000000  0.6973333  3
    920    917    929    932     1  0.0000000  1.0460000  1
    920    917    929    932     1  0.0000000  0.6694400  3
    920    921    922    925     1  0.0000000  0.6508444  3
    920    921    927    933     1  0.0000000  1.0460000  1
    920    921    927    933     1  0.0000000  0.6694400  3
    921    920    928    931     1  0.0000000  1.0460000  1
    921    920    928    931     1  0.0000000  0.6694400  3
    922    921    920    924     1  0.0000000  0.6508444  3
    922    921    927    933     1  0.0000000  1.0460000  1
    922    921    927    933     1  0.0000000  0.6694400  3
    923    921    920    928     1  0.0000000  1.0460000  1
    923    921    920    928     1  0.0000000  0.0000000  3
    923    921    920    924     1  0.0000000  0.6508444  3
    923    921    922    926     1  0.0000000  1.0460000  1
    923    921    922    926     1  0.0000000  0.0000000  3
    923    921    922    938     1  0.0000000  1.0460000  1
    923    921    922    938     1  0.0000000  0.0000000  3
    923    921    922    925     1  0.0000000  0.6508444  3
    923    921    927    933     1  0.0000000  0.6973333  3
    924    920    917    929     1  0.0000000  1.0460000  1
    924    920    917    929     1  0.0000000  0.0000000  3
    924    920    921    927     1  0.0000000  1.0460000  1
    924    920    921    927     1  0.0000000  0.0000000  3
    924    920    928    931     1  0.0000000  0.6973333  3
    925    922    921    927     1  0.0000000  0.6508444  3
    934    930    916    938     1  0.0000000  1.0460000  1
    934    930    916    938     1  0.0000000  0.0000000  3
    934    930    936    937     1  0.0000000  0.6973333  3
    935    930    916    938     1  0.0000000  1.0460000  1
    935    930    916    938     1  0.0000000  0.0000000  3
    935    930    936    937     1  0.0000000  0.6973333  3
    939    940    943    947     1  0.0000000  0.6508444  3
    939    940    952    955     1  0.0000000  1.0460000  1
    939    940    952    955     1  0.0000000  0.6694400  3
    939    953    959    960     1  0.0000000  1.0460000  1
    939    953    959    960     1  0.0000000  0.6694400  3
    939    961    945    948     1  0.0000000  1.6038667  3
    940    939    953    957     1  0.0000000  0.6508444  3
    940    939    953    958     1  0.0000000  0.6508444  3
    940    943    944    946     1  0.0000000  0.6508444  3
    940    943    951    954     1  0.0000000  1.0460000  1
    940    943    951    954     1  0.0000000  0.6694400  3
    941    939    940    943     1  0.0000000  0.6508444  3
    941    939    940    952     1  0.0000000  1.0460000  1
    941    939    940    952     1  0.0000000  0.0000000  3
    941    939    940    942     1  0.0000000  0.6508444  3
    941    939    953    959     1  0.0000000  1.0460000  1
    941    939    953    959     1  0.0000000  0.0000000  3
    941    939    953    957     1  0.0000000  0.6508444  3
    941    939    953    958     1  0.0000000  0.6508444  3
    941    939    961    945     1  0.0000000  1.6038667  3
    942    940    939    953     1  0.0000000  0.6508444  3
    942    940    939    961     1  0.0000000  1.0460000  1
    942    940    939    961     1  0.0000000  0.0000000  3
    942    940    943    944     1  0.0000000  0.6508444  3
    942    940    943    951     1  0.0000000  1.0460000  1
    942    940    943    951     1  0.0000000  0.0000000  3
    942    940    943    947     1  0.0000000  0.6508444  3
    942    940    952    955     1  0.0000000  0.6973333  3
    943    940    952    955     1  0.0000000  1.0460000  1
    943    940    952    955     1  0.0000000  0.6694400  3
    943    944    945    948     1  0.0000000  0.6508444  3
    943    944    950    956     1  0.0000000  1.0460000  1
    943    944    950    956     1  0.0000000  0.6694400  3
    944    943    951    954     1  0.0000000  1.0460000  1
    944    943    951    954     1  0.0000000  0.6694400  3
    945    944    943    947     1  0.0000000  0.6508444  3
    945    944    950    956     1  0.0000000  1.0460000  1
    945    944    950    956     1  0.0000000  0.6694400  3
    946    944    943    951     1  0.0000000  1.0460000  1
    946    944    943    951     1  0.0000000  0.0000000  3
    946    944    943    947     1  0.0000000  0.6508444  3
    946    944    945    949     1  0.0000000  1.0460000  1
    946    944    945    949     1  0.0000000  0.0000000  3
    946    944    945    961     1  0.0000000  1.0460000  1
    946    944    945    961     1  0.0000000  0.0000000  3
    946    944    945    948     1  0.0000000  0.6508444  3
    946    944    950    956     1  0.0000000  0.6973333  3
    947    943    940    952     1  0.0000000  1.0460000  1
    947    943    940    952     1  0.0000000  0.0000000  3
    947    943    944    950     1  0.0000000  1.0460000  1
    947    943    944    950     1  0.0000000  0.0000000  3
    947    943    951    954     1  0.0000000  0.6973333  3
    948    945    944    950     1  0.0000000  0.6508444  3
    957    953    939    961     1  0.0000000  1.0460000  1
    957    953    939    961     1  0.0000000  0.0000000  3
    957    953    959    960     1  0.0000000  0.6973333  3
    958    953    939    961     1  0.0000000  1.0460000  1
    958    953    939    961     1  0.0000000  0.0000000  3
    958    953    959    960     1  0.0000000  0.6973333  3
    962    963    966    970     1  0.0000000  0.6508444  3
    962    963    975    978     1  0.0000000  1.0460000  1
    962    963    975    978     1  0.0000000  0.6694400  3
    962    976    982    983     1  0.0000000  1.0460000  1
    962    976    982    983     1  0.0000000  0.6694400  3
    962    984    968    971     1  0.0000000  1.6038667  3
    963    962    976    980     1  0.0000000  0.6508444  3
    963    962    976    981     1  0.0000000  0.6508444  3
    963    966    967    969     1  0.0000000  0.6508444  3
    963    966    974    977     1  0.0000000  1.0460000  1
    963    966    974    977     1  0.0000000  0.6694400  3
    964    962    963    966     1  0.0000000  0.6508444  3
    964    962    963    975     1  0.0000000  1.0460000  1
    964    962    963    975     1  0.0000000  0.0000000  3
    964    962    963    965     1  0.0000000  0.6508444  3
    964    962    976    982     1  0.0000000  1.0460000  1
    964    962    976    982     1  0.0000000  0.0000000  3
    964    962    976    980     1  0.0000000  0.6508444  3
    964    962    976    981     1  0.0000000  0.6508444  3
    964    962    984    968     1  0.0000000  1.6038667  3
    965    963    962    976     1  0.0000000  0.6508444  3
    965    963    962    984     1  0.0000000  1.0460000  1
    965    963    962    984     1  0.0000000  0.0000000  3
    965    963    966    967     1  0.0000000  0.6508444  3
    965    963    966    974     1  0.0000000  1.0460000  1
    965    963    966    974     1  0.0000000  0.0000000  3
    965    963    966    970     1  0.0000000  0.6508444  3
    965    963    975    978     1  0.0000000  0.6973333  3
    966    963    975    978     1  0.0000000  1.0460000  1
    966    963    975    978     1  0.0000000  0.6694400  3
    966    967    968    971     1  0.0000000  0.6508444  3
    966    967    973    979     1  0.0000000  1.0460000  1
    966    967    973    979     1  0.0000000  0.6694400  3
    967    966    974    977     1  0.0000000  1.0460000  1
    967    966    974    977     1  0.0000000  0.6694400  3
    968    967    966    970     1  0.0000000  0.6508444  3
    968    967    973    979     1  0.0000000  1.0460000  1
    968    967    973    979     1  0.0000000  0.6694400  3
    969    967    966    974     1  0.0000000  1.0460000  1
    969    967    966    974     1  0.0000000  0.0000000  3
    969    967    966    970     1  0.0000000  0.6508444  3
    969    967    968    972     1  0.0000000  1.0460000  1
    969    967    968    972     1  0.0000000  0.0000000  3
    969    967    968    984     1  0.0000000  1.0460000  1
    969    967    968    984     1  0.0000000  0.0000000  3
    969    967    968    971     1  0.0000000  0.6508444  3
    969    967    973    979     1  0.0000000  0.6973333  3
    970    966    963    975     1  0.0000000  1.0460000  1
    970    966    963    975     1  0.0000000  0.0000000  3
    970    966    967    973     1  0.0000000  1.0460000  1
    970    966    967    973     1  0.0000000  0.0000000  3
    970    966    974    977     1  0.0000000  0.6973333  3
    971    968    967    973     1  0.0000000  0.6508444  3
    980    976    962    984     1  0.0000000  1.0460000  1
    980    976    962    984     1  0.0000000  0.0000000  3
    980    976    982    983     1  0.0000000  0.6973333  3
    981    976    962    984     1  0.0000000  1.0460000  1
    981    976    962    984     1  0.0000000  0.0000000  3
    981    976    982    983     1  0.0000000  0.6973333  3
    985    986    989    993     1  0.0000000  0.6508444  3
    985    986    998   1001     1  0.0000000  1.0460000  1
    985    986    998   1001     1  0.0000000  0.6694400  3
    985    999   1005   1006     1  0.0000000  1.0460000  1
    985    999   1005   1006     1  0.0000000  0.6694400  3
    985   1007    991    994     1  0.0000000  1.6038667  3
    986    985    999   1003     1  0.0000000  0.6508444  3
    986    985    999   1004     1  0.0000000  0.6508444  3
    986    989    990    992     1  0.0000000  0.6508444  3
    986    989    997   1000     1  0.0000000  1.0460000  1
    986    989    997   1000     1  0.0000000  0.6694400  3
    987    985    986    989     1  0.0000000  0.6508444  3
    987    985    986    998     1  0.0000000  1.0460000  1
    987    985    986    998     1  0.0000000  0.0000000  3
    987    985    986    988     1  0.0000000  0.6508444  3
    987    985    999   1005     1  0.0000000  1.0460000  1
    987    985    999   1005     1  0.0000000  0.0000000  3
    987    985    999   1003     1  0.0000000  0.6508444  3
    987    985    999   1004     1  0.0000000  0.6508444  3
    987    985   1007    991     1  0.0000000  1.6038667  3
    988    986    985    999     1  0.0000000  0.6508444  3
    988    986    985   1007     1  0.0000000  1.0460000  1
    988    986    985   1007     1  0.0000000  0.0000000  3
    988    986    989    990     1  0.0000000  0.6508444  3
    988    986    989    997     1  0.0000000  1.0460000  1
    988    986    989    997     1  0.0000000  0.0000000  3
    988    986    989    993     1  0.0000000  0.6508444  3
    988    986    998   1001     1  0.0000000  0.6973333  3
    989    986    998   1001     1  0.0000000  1.0460000  1
    989    986    998   1001     1  0.0000000  0.6694400  3
    989    990    991    994     1  0.0000000  0.6508444  3
    989    990    996   1002     1  0.0000000  1.0460000  1
    989    990    996   1002     1  0.0000000  0.6694400  3
    990    989    997   1000     1  0.0000000  1.0460000  1
    990    989    997   1000     1  0.0000000  0.6694400  3
    991    990    989    993     1  0.0000000  0.6508444  3
    991    990    996   1002     1  0.0000000  1.0460000  1
    991    990    996   1002     1  0.0000000  0.6694400  3
    992    990    989    997     1  0.0000000  1.0460000  1
    992    990    989    997     1  0.0000000  0.0000000  3
    992    990    989    993     1  0.0000000  0.6508444  3
    992    990    991    995     1  0.0000000  1.0460000  1
    992    990    991    995     1  0.0000000  0.0000000  3
    992    990    991   1007     1  0.0000000  1.0460000  1
    992    990    991   1007     1  0.0000000  0.0000000  3
    992    990    991    994     1  0.0000000  0.6508444  3
    992    990    996   1002     1  0.0000000  0.6973333  3
    993    989    986    998     1  0.0000000  1.0460000  1
    993    989    986    998     1  0.0000000  0.0000000  3
    993    989    990    996     1  0.0000000  1.0460000  1
    993    989    990    996     1  0.0000000  0.0000000  3
    993    989    997   1000     1  0.0000000  0.6973333  3
    994    991    990    996     1  0.0000000  0.6508444  3
   1003    999    985   1007     1  0.0000000  1.0460000  1
   1003    999    985   1007     1  0.0000000  0.0000000  3
   1003    999   1005   1006     1  0.0000000  0.6973333  3
   1004    999    985   1007     1  0.0000000  1.0460000  1
   1004    999    985   1007     1  0.0000000  0.0000000  3
   1004    999   1005   1006     1  0.0000000  0.6973333  3
   1008   1009   1012   1016     1  0.0000000  0.6508444  3
   1008   1009   1021   1024     1  0.0000000  1.0460000  1
   1008   1009   1021   1024     1  0.0000000  0.6694400  3
   1008   1022   1028   1029     1  0.0000000  1.0460000  1
   1008   1022   1028   1029     1  0.0000000  0.6694400  3
   1008   1030   1014   1017     1  0.0000000  1.6038667  3
   1009   1008   1022   1026     1  0.0000000  0.6508444  3
   1009   1008   1022   1027     1  0.0000000  0.6508444  3
   1009   1012   1013   1015     1  0.0000000  0.6508444  3
   1009   1012   1020   1023     1  0.0000000  1.0460000  1
   1009   1012   1020   1023     1  0.0000000  0.6694400  3
   1010   1008   1009   1012     1  0.0000000  0.6508444  3
   1010   1008   1009   1021     1  0.0000000  1.0460000  1
   1010   1008   1009   1021     1  0.0000000  0.0000000  3
   1010   1008   1009   1011     1  0.0000000  0.6508444  3
   1010   1008   1022   1028     1  0.0000000  1.0460000  1
   1010   1008   1022   1028     1  0.0000000  0.0000000  3
   1010   1008   1022   1026     1  0.0000000  0.6508444  3
   1010   1008   1022   1027     1  0.0000000  0.6508444  3
   1010   1008   1030   1014     1  0.0000000  1.6038667  3
   1011   1009   1008   1022     1  0.0000000  0.6508444  3
   1011   1009   1008   1030     1  0.0000000  1.0460000  1
   1011   1009   1008   1030     1  0.0000000  0.0000000  3
   1011   1009   1012   1013     1  0.0000000  0.6508444  3
   1011   1009   1012   1020     1  0.0000000  1.0460000  1
   1011   1009   1012   1020     1  0.0000000  0.0000000  3
   1011   1009   1012   1016     1  0.0000000  0.6508444  3
   1011   1009   1021   1024     1  0.0000000  0.6973333  3
   1012   1009   1021   1024     1  0.0000000  1.0460000  1
   1012   1009   1021   1024     1  0.0000000  0.6694400  3
   1012   1013   1014   1017     1  0.0000000  0.6508444  3
   1012   1013   1019   1025     1  0.0000000  1.0460000  1
   1012   1013   1019   1025     1  0.0000000  0.6694400  3
   1013   1012   1020   1023     1  0.0000000  1.0460000  1
   1013   1012   1020   1023     1  0.0000000  0.6694400  3
   1014   1013   1012   1016     1  0.0000000  0.6508444  3
   1014   1013   1019   1025     1  0.0000000  1.0460000  1
   1014   1013   1019   1025     1  0.0000000  0.6694400  3
   1015   1013   1012   1020     1  0.0000000  1.0460000  1
   1015   1013   1012   1020     1  0.0000000  0.0000000  3
   1015   1013   1012   1016     1  0.0000000  0.6508444  3
   1015   1013   1014   1018     1  0.0000000  1.0460000  1
   1015   1013   1014   1018     1  0.0000000  0.0000000  3
   1015   1013   1014   1030     1  0.0000000  1.0460000  1
   1015   1013   1014   1030     1  0.0000000  0.0000000  3
   1015   1013   1014   1017     1  0.0000000  0.6508444  3
   1015   1013   1019   1025     1  0.0000000  0.6973333  3
   1016   1012   1009   1021     1  0.0000000  1.0460000  1
   1016   1012   1009   1021     1  0.0000000  0.0000000  3
   1016   1012   1013   1019     1  0.0000000  1.0460000  1
   1016   1012   1013   1019     1  0.0000000  0.0000000  3
   1016   1012   1020   1023     1  0.0000000  0.6973333  3
   1017   1014   1013   1019     1  0.0000000  0.6508444  3
   1026   1022   1008   1030     1  0.0000000  1.0460000  1
   1026   1022   1008   1030     1  0.0000000  0.0000000  3
   1026   1022   1028   1029     1  0.0000000  0.6973333  3
   1027   1022   1008   1030     1  0.0000000  1.0460000  1
   1027   1022   1008   1030     1  0.0000000  0.0000000  3
   1027   1022   1028   1029     1  0.0000000  0.6973333  3
   1031   1032   1035   1039     1  0.0000000  0.6508444  3
   1031   1032   1044   1047     1  0.0000000  1.0460000  1
   1031   1032   1044   1047     1  0.0000000  0.6694400  3
   1031   1045   1051   1052     1  0.0000000  1.0460000  1
   1031   1045   1051   1052     1  0.0000000  0.6694400  3
   1031   1053   1037   1040     1  0.0000000  1.6038667  3
   1032   1031   1045   1049     1  0.0000000  0.6508444  3
   1032   1031   1045   1050     1  0.0000000  0.6508444  3
   1032   1035   1036   1038     1  0.0000000  0.6508444  3
   1032   1035   1043   1046     1  0.0000000  1.0460000  1
   1032   1035   1043   1046     1  0.0000000  0.6694400  3
   1033   1031   1032   1035     1  0.0000000  0.6508444  3
   1033   1031   1032   1044     1  0.0000000  1.0460000  1
   1033   1031   1032   1044     1  0.0000000  0.0000000  3
   1033   1031   1032   1034     1  0.0000000  0.6508444  3
   1033   1031   1045   1051     1  0.0000000  1.0460000  1
   1033   1031   1045   1051     1  0.0000000  0.0000000  3
   1033   1031   1045   1049     1  0.0000000  0.6508444  3
   1033   1031   1045   1050     1  0.0000000  0.6508444  3
   1033   1031   1053   1037     1  0.0000000  1.6038667  3
   1034   1032   1031   1045     1  0.0000000  0.6508444  3
   1034   1032   1031   1053     1  0.0000000  1.0460000  1
   1034   1032   1031   1053     1  0.0000000  0.0000000  3
   1034   1032   1035   1036     1  0.0000000  0.6508444  3
   1034   1032   1035   1043     1  0.0000000  1.0460000  1
   1034   1032   1035   1043     1  0.0000000  0.0000000  3
   1034   1032   1035   1039     1  0.0000000  0.6508444  3
   1034   1032   1044   1047     1  0.0000000  0.6973333  3
   1035   1032   1044   1047     1  0.0000000  1.0460000  1
   1035   1032   1044   1047     1  0.0000000  0.6694400  3
   1035   1036   1037   1040     1  0.0000000  0.6508444  3
   1035   1036   1042   1048     1  0.0000000  1.0460000  1
   1035   1036   1042   1048     1  0.0000000  0.6694400  3
   1036   1035   1043   1046     1  0.0000000  1.0460000  1
   1036   1035   1043   1046     1  0.0000000  0.6694400  3
   1037   1036   1035   1039     1  0.0000000  0.6508444  3
   1037   1036   1042   1048     1  0.0000000  1.0460000  1
   1037   1036   1042   1048     1  0.0000000  0.6694400  3
   1038   1036   1035   1043     1  0.0000000  1.0460000  1
   1038   1036   1035   1043     1  0.0000000  0.0000000  3
   1038   1036   1035   1039     1  0.0000000  0.6508444  3
   1038   1036   1037   1041     1  0.0000000  1.0460000  1
   1038   1036   1037   1041     1  0.0000000  0.0000000  3
   1038   1036   1037   1053     1  0.0000000  1.0460000  1
   1038   1036   1037   1053     1  0.0000000  0.0000000  3
   1038   1036   1037   1040     1  0.0000000  0.6508444  3
   1038   1036   1042   1048     1  0.0000000  0.6973333  3
   1039   1035   1032   1044     1  0.0000000  1.0460000  1
   1039   1035   1032   1044     1  0.0000000  0.0000000  3
   1039   1035   1036   1042     1  0.0000000  1.0460000  1
   1039   1035   1036   1042     1  0.0000000  0.0000000  3
   1039   1035   1043   1046     1  0.0000000  0.6973333  3
   1040   1037   1036   1042     1  0.0000000  0.6508444  3
   1049   1045   1031   1053     1  0.0000000  1.0460000  1
   1049   1045   1031   1053     1  0.0000000  0.0000000  3
   1049   1045   1051   1052     1  0.0000000  0.6973333  3
   1050   1045   1031   1053     1  0.0000000  1.0460000  1
   1050   1045   1031   1053     1  0.0000000  0.0000000  3
   1050   1045   1051   1052     1  0.0000000  0.6973333  3
   1054   1055   1058   1062     1  0.0000000  0.6508444  3
   1054   1055   1067   1070     1  0.0000000  1.0460000  1
   1054   1055   1067   1070     1  0.0000000  0.6694400  3
   1054   1068   1074   1075     1  0.0000000  1.0460000  1
   1054   1068   1074   1075     1  0.0000000  0.6694400  3
   1054   1076   1060   1063     1  0.0000000  1.6038667  3
   1055   1054   1068   1072     1  0.0000000  0.6508444  3
   1055   1054   1068   1073     1  0.0000000  0.6508444  3
   1055   1058   1059   1061     1  0.0000000  0.6508444  3
   1055   1058   1066   1069     1  0.0000000  1.0460000  1
   1055   1058   1066   1069     1  0.0000000  0.6694400  3
   1056   1054   1055   1058     1  0.0000000  0.6508444  3
   1056   1054   1055   1067     1  0.0000000  1.0460000  1
   1056   1054   1055   1067     1  0.0000000  0.0000000  3
   1056   1054   1055   1057     1  0.0000000  0.6508444  3
   1056   1054   1068   1074     1  0.0000000  1.0460000  1
   1056   1054   1068   1074     1  0.0000000  0.0000000  3
   1056   1054   1068   1072     1  0.0000000  0.6508444  3
   1056   1054   1068   1073     1  0.0000000  0.6508444  3
   1056   1054   1076   1060     1  0.0000000  1.6038667  3
   1057   1055   1054   1068     1  0.0000000  0.6508444  3
   1057   1055   1054   1076     1  0.0000000  1.0460000  1
   1057   1055   1054   1076     1  0.0000000  0.0000000  3
   1057   1055   1058   1059     1  0.0000000  0.6508444  3
   1057   1055   1058   1066     1  0.0000000  1.0460000  1
   1057   1055   1058   1066     1  0.0000000  0.0000000  3
   1057   1055   1058   1062     1  0.0000000  0.6508444  3
   1057   1055   1067   1070     1  0.0000000  0.6973333  3
   1058   1055   1067   1070     1  0.0000000  1.0460000  1
   1058   1055   1067   1070     1  0.0000000  0.6694400  3
   1058   1059   1060   1063     1  0.0000000  0.6508444  3
   1058   1059   1065   1071     1  0.0000000  1.0460000  1
   1058   1059   1065   1071     1  0.0000000  0.6694400  3
   1059   1058   1066   1069     1  0.0000000  1.0460000  1
   1059   1058   1066   1069     1  0.0000000  0.6694400  3
   1060   1059   1058   1062     1  0.0000000  0.6508444  3
   1060   1059   1065   1071     1  0.0000000  1.0460000  1
   1060   1059   1065   1071     1  0.0000000  0.6694400  3
   1061   1059   1058   1066     1  0.0000000  1.0460000  1
   1061   1059   1058   1066     1  0.0000000  0.0000000  3
   1061   1059   1058   1062     1  0.0000000  0.6508444  3
   1061   1059   1060   1064     1  0.0000000  1.0460000  1
   1061   1059   1060   1064     1  0.0000000  0.0000000  3
   1061   1059   1060   1076     1  0.0000000  1.0460000  1
   1061   1059   1060   1076     1  0.0000000  0.0000000  3
   1061   1059   1060   1063     1  0.0000000  0.6508444  3
   1061   1059   1065   1071     1  0.0000000  0.6973333  3
   1062   1058   1055   1067     1  0.0000000  1.0460000  1
   1062   1058   1055   1067     1  0.0000000  0.0000000  3
   1062   1058   1059   1065     1  0.0000000  1.0460000  1
   1062   1058   1059   1065     1  0.0000000  0.0000000  3
   1062   1058   1066   1069     1  0.0000000  0.6973333  3
   1063   1060   1059   1065     1  0.0000000  0.6508444  3
   1072   1068   1054   1076     1  0.0000000  1.0460000  1
   1072   1068   1054   1076     1  0.0000000  0.0000000  3
   1072   1068   1074   1075     1  0.0000000  0.6973333  3
   1073   1068   1054   1076     1  0.0000000  1.0460000  1
   1073   1068   1054   1076     1  0.0000000  0.0000000  3
   1073   1068   1074   1075     1  0.0000000  0.6973333  3
   1077   1078   1081   1085     1  0.0000000  0.6508444  3
   1077   1078   1090   1093     1  0.0000000  1.0460000  1
   1077   1078   1090   1093     1  0.0000000  0.6694400  3
   1077   1091   1097   1098     1  0.0000000  1.0460000  1
   1077   1091   1097   1098     1  0.0000000  0.6694400  3
   1077   1099   1083   1086     1  0.0000000  1.6038667  3
   1078   1077   1091   1095     1  0.0000000  0.6508444  3
   1078   1077   1091   1096     1  0.0000000  0.6508444  3
   1078   1081   1082   1084     1  0.0000000  0.6508444  3
   1078   1081   1089   1092     1  0.0000000  1.0460000  1
   1078   1081   1089   1092     1  0.0000000  0.6694400  3
   1079   1077   1078   1081     1  0.0000000  0.6508444  3
   1079   1077   1078   1090     1  0.0000000  1.0460000  1
   1079   1077   1078   1090     1  0.0000000  0.0000000  3
   1079   1077   1078   1080     1  0.0000000  0.6508444  3
   1079   1077   1091   1097     1  0.0000000  1.0460000  1
   1079   1077   1091   1097     1  0.0000000  0.0000000  3
   1079   1077   1091   1095     1  0.0000000  0.6508444  3
   1079   1077   1091   1096     1  0.0000000  0.6508444  3
   1079   1077   1099   1083     1  0.0000000  1.6038667  3
   1080   1078   1077   1091     1  0.0000000  0.6508444  3
   1080   1078   1077   1099     1  0.0000000  1.0460000  1
   1080   1078   1077   1099     1  0.0000000  0.0000000  3
   1080   1078   1081   1082     1  0.0000000  0.6508444  3
   1080   1078   1081   1089     1  0.0000000  1.0460000  1
   1080   1078   1081   1089     1  0.0000000  0.0000000  3
   1080   1078   1081   1085     1  0.0000000  0.6508444  3
   1080   1078   1090   1093     1  0.0000000  0.6973333  3
   1081   1078   1090   1093     1  0.0000000  1.0460000  1
   1081   1078   1090   1093     1  0.0000000  0.6694400  3
   1081   1082   1083   1086     1  0.0000000  0.6508444  3
   1081   1082   1088   1094     1  0.0000000  1.0460000  1
   1081   1082   1088   1094     1  0.0000000  0.6694400  3
   1082   1081   1089   1092     1  0.0000000  1.0460000  1
   1082   1081   1089   1092     1  0.0000000  0.6694400  3
   1083   1082   1081   1085     1  0.0000000  0.6508444  3
   1083   1082   1088   1094     1  0.0000000  1.0460000  1
   1083   1082   1088   1094     1  0.0000000  0.6694400  3
   1084   1082   1081   1089     1  0.0000000  1.0460000  1
   1084   1082   1081   1089     1  0.0000000  0.0000000  3
   1084   1082   1081   1085     1  0.0000000  0.6508444  3
   1084   1082   1083   1087     1  0.0000000  1.0460000  1
   1084   1082   1083   1087     1  0.0000000  0.0000000  3
   1084   1082   1083   1099     1  0.0000000  1.0460000  1
   1084   1082   1083   1099     1  0.0000000  0.0000000  3
   1084   1082   1083   1086     1  0.0000000  0.6508444  3
   1084   1082   1088   1094     1  0.0000000  0.6973333  3
   1085   1081   1078   1090     1  0.0000000  1.0460000  1
   1085   1081   1078   1090     1  0.0000000  0.0000000  3
   1085   1081   1082   1088     1  0.0000000  1.0460000  1
   1085   1081   1082   1088     1  0.0000000  0.0000000  3
   1085   1081   1089   1092     1  0.0000000  0.6973333  3
   1086   1083   1082   1088     1  0.0000000  0.6508444  3
   1095   1091   1077   1099     1  0.0000000  1.0460000  1
   1095   1091   1077   1099     1  0.0000000  0.0000000  3
   1095   1091   1097   1098     1  0.0000000  0.6973333  3
   1096   1091   1077   1099     1  0.0000000  1.0460000  1
   1096   1091   1077   1099     1  0.0000000  0.0000000  3
   1096   1091   1097   1098     1  0.0000000  0.6973333  3
   1100   1101   1104   1108     1  0.0000000  0.6508444  3
   1100   1101   1113   1116     1  0.0000000  1.0460000  1
   1100   1101   1113   1116     1  0.0000000  0.6694400  3
   1100   1114   1120   1121     1  0.0000000  1.0460000  1
   1100   1114   1120   1121     1  0.0000000  0.6694400  3
   1100   1122   1106   1109     1  0.0000000  1.6038667  3
   1101   1100   1114   1118     1  0.0000000  0.6508444  3
   1101   1100   1114   1119     1  0.0000000  0.6508444  3
   1101   1104   1105   1107     1  0.0000000  0.6508444  3
   1101   1104   1112   1115     1  0.0000000  1.0460000  1
   1101   1104   1112   1115     1  0.0000000  0.6694400  3
   1102   1100   1101   1104     1  0.0000000  0.6508444  3
   1102   1100   1101   1113     1  0.0000000  1.0460000  1
   1102   1100   1101   1113     1  0.0000000  0.0000000  3
   1102   1100   1101   1103     1  0.0000000  0.6508444  3
   1102   1100   1114   1120     1  0.0000000  1.0460000  1
   1102   1100   1114   1120     1  0.0000000  0.0000000  3
   1102   1100   1114   1118     1  0.0000000  0.6508444  3
   1102   1100   1114   1119     1  0.0000000  0.6508444  3
   1102   1100   1122   1106     1  0.0000000  1.6038667  3
   1103   1101   1100   1114     1  0.0000000  0.6508444  3
   1103   1101   1100   1122     1  0.0000000  1.0460000  1
   1103   1101   1100   1122     1  0.0000000  0.0000000  3
   1103   1101   1104   1105     1  0.0000000  0.6508444  3
   1103   1101   1104   1112     1  0.0000000  1.0460000  1
   1103   1101   1104   1112     1  0.0000000  0.0000000  3
   1103   1101   1104   1108     1  0.0000000  0.6508444  3
   1103   1101   1113   1116     1  0.0000000  0.6973333  3
   1104   1101   1113   1116     1  0.0000000  1.0460000  1
   1104   1101   1113   1116     1  0.0000000  0.6694400  3
   1104   1105   1106   1109     1  0.0000000  0.6508444  3
   1104   1105   1111   1117     1  0.0000000  1.0460000  1
   1104   1105   1111   1117     1  0.0000000  0.6694400  3
   1105   1104   1112   1115     1  0.0000000  1.0460000  1
   1105   1104   1112   1115     1  0.0000000  0.6694400  3
   1106   1105   1104   1108     1  0.0000000  0.6508444  3
   1106   1105   1111   1117     1  0.0000000  1.0460000  1
   1106   1105   1111   1117     1  0.0000000  0.6694400  3
   1107   1105   1104   1112     1  0.0000000  1.0460000  1
   1107   1105   1104   1112     1  0.0000000  0.0000000  3
   1107   1105   1104   1108     1  0.0000000  0.6508444  3
   1107   1105   1106   1110     1  0.0000000  1.0460000  1
   1107   1105   1106   1110     1  0.0000000  0.0000000  3
   1107   1105   1106   1122     1  0.0000000  1.0460000  1
   1107   1105   1106   1122     1  0.0000000  0.0000000  3
   1107   1105   1106   1109     1  0.0000000  0.6508444  3
   1107   1105   1111   1117     1  0.0000000  0.6973333  3
   1108   1104   1101   1113     1  0.0000000  1.0460000  1
   1108   1104   1101   1113     1  0.0000000  0.0000000  3
   1108   1104   1105   1111     1  0.0000000  1.0460000  1
   1108   1104   1105   1111     1  0.0000000  0.0000000  3
   1108   1104   1112   1115     1  0.0000000  0.6973333  3
   1109   1106   1105   1111     1  0.0000000  0.6508444  3
   1118   1114   1100   1122     1  0.0000000  1.0460000  1
   1118   1114   1100   1122     1  0.0000000  0.0000000  3
   1118   1114   1120   1121     1  0.0000000  0.6973333  3
   1119   1114   1100   1122     1  0.0000000  1.0460000  1
   1119   1114   1100   1122     1  0.0000000  0.0000000  3
   1119   1114   1120   1121     1  0.0000000  0.6973333  3
   1123   1124   1127   1131     1  0.0000000  0.6508444  3
   1123   1124   1136   1139     1  0.0000000  1.0460000  1
   1123   1124   1136   1139     1  0.0000000  0.6694400  3
   1123   1137   1143   1144     1  0.0000000  1.0460000  1
   1123   1137   1143   1144     1  0.0000000  0.6694400  3
   1123   1145   1129   1132     1  0.0000000  1.6038667  3
   1124   1123   1137   1141     1  0.0000000  0.6508444  3
   1124   1123   1137   1142     1  0.0000000  0.6508444  3
   1124   1127   1128   1130     1  0.0000000  0.6508444  3
   1124   1127   1135   1138     1  0.0000000  1.0460000  1
   1124   1127   1135   1138     1  0.0000000  0.6694400  3
   1125   1123   1124   1127     1  0.0000000  0.6508444  3
   1125   1123   1124   1136     1  0.0000000  1.0460000  1
   1125   1123   1124   1136     1  0.0000000  0.0000000  3
   1125   1123   1124   1126     1  0.0000000  0.6508444  3
   1125   1123   1137   1143     1  0.0000000  1.0460000  1
   1125   1123   1137   1143     1  0.0000000  0.0000000  3
   1125   1123   1137   1141     1  0.0000000  0.6508444  3
   1125   1123   1137   1142     1  0.0000000  0.6508444  3
   1125   1123   1145   1129     1  0.0000000  1.6038667  3
   1126   1124   1123   1137     1  0.0000000  0.6508444  3
   1126   1124   1123   1145     1  0.0000000  1.0460000  1
   1126   1124   1123   1145     1  0.0000000  0.0000000  3
   1126   1124   1127   1128     1  0.0000000  0.6508444  3
   1126   1124   1127   1135     1  0.0000000  1.0460000  1
   1126   1124   1127   1135     1  0.0000000  0.0000000  3
   1126   1124   1127   1131     1  0.0000000  0.6508444  3
   1126   1124   1136   1139     1  0.0000000  0.6973333  3
   1127   1124   1136   1139     1  0.0000000  1.0460000  1
   1127   1124   1136   1139     1  0.0000000  0.6694400  3
   1127   1128   1129   1132     1  0.0000000  0.6508444  3
   1127   1128   1134   1140     1  0.0000000  1.0460000  1
   1127   1128   1134   1140     1  0.0000000  0.6694400  3
   1128   1127   1135   1138     1  0.0000000  1.0460000  1
   1128   1127   1135   1138     1  0.0000000  0.6694400  3
   1129   1128   1127   1131     1  0.0000000  0.6508444  3
   1129   1128   1134   1140     1  0.0000000  1.0460000  1
   1129   1128   1134   1140     1  0.0000000  0.6694400  3
   1130   1128   1127   1135     1  0.0000000  1.0460000  1
   1130   1128   1127   1135     1  0.0000000  0.0000000  3
   1130   1128   1127   1131     1  0.0000000  0.6508444  3
   1130   1128   1129   1133     1  0.0000000  1.0460000  1
   1130   1128   1129   1133     1  0.0000000  0.0000000  3
   1130   1128   1129   1145     1  0.0000000  1.0460000  1
   1130   1128   1129   1145     1  0.0000000  0.0000000  3
   1130   1128   1129   1132     1  0.0000000  0.6508444  3
   1130   1128   1134   1140     1  0.0000000  0.6973333  3
   1131   1127   1124   1136     1  0.0000000  1.0460000  1
   1131   1127   1124   1136     1  0.0000000  0.0000000  3
   1131   1127   1128   1134     1  0.0000000  1.0460000  1
   1131   1127   1128   1134     1  0.0000000  0.0000000  3
   1131   1127   1135   1138     1  0.0000000  0.6973333  3
   1132   1129   1128   1134     1  0.0000000  0.6508444  3
   1141   1137   1123   1145     1  0.0000000  1.0460000  1
   1141   1137   1123   1145     1  0.0000000  0.0000000  3
   1141   1137   1143   1144     1  0.0000000  0.6973333  3
   1142   1137   1123   1145     1  0.0000000  1.0460000  1
   1142   1137   1123   1145     1  0.0000000  0.0000000  3
   1142   1137   1143   1144     1  0.0000000  0.6973333  3
   1146   1147   1150   1154     1  0.0000000  0.6508444  3
   1146   1147   1159   1162     1  0.0000000  1.0460000  1
   1146   1147   1159   1162     1  0.0000000  0.6694400  3
   1146   1160   1166   1167     1  0.0000000  1.0460000  1
   1146   1160   1166   1167     1  0.0000000  0.6694400  3
   1146   1168   1152   1155     1  0.0000000  1.6038667  3
   1147   1146   1160   1164     1  0.0000000  0.6508444  3
   1147   1146   1160   1165     1  0.0000000  0.6508444  3
   1147   1150   1151   1153     1  0.0000000  0.6508444  3
   1147   1150   1158   1161     1  0.0000000  1.0460000  1
   1147   1150   1158   1161     1  0.0000000  0.6694400  3
   1148   1146   1147   1150     1  0.0000000  0.6508444  3
   1148   1146   1147   1159     1  0.0000000  1.0460000  1
   1148   1146   1147   1159     1  0.0000000  0.0000000  3
   1148   1146   1147   1149     1  0.0000000  0.6508444  3
   1148   1146   1160   1166     1  0.0000000  1.0460000  1
   1148   1146   1160   1166     1  0.0000000  0.0000000  3
   1148   1146   1160   1164     1  0.0000000  0.6508444  3
   1148   1146   1160   1165     1  0.0000000  0.6508444  3
   1148   1146   1168   1152     1  0.0000000  1.6038667  3
   1149   1147   1146   1160     1  0.0000000  0.6508444  3
   1149   1147   1146   1168     1  0.0000000  1.0460000  1
   1149   1147   1146   1168     1  0.0000000  0.0000000  3
   1149   1147   1150   1151     1  0.0000000  0.6508444  3
   1149   1147   1150   1158     1  0.0000000  1.0460000  1
   1149   1147   1150   1158     1  0.0000000  0.0000000  3
   1149   1147   1150   1154     1  0.0000000  0.6508444  3
   1149   1147   1159   1162     1  0.0000000  0.6973333  3
   1150   1147   1159   1162     1  0.0000000  1.0460000  1
   1150   1147   1159   1162     1  0.0000000  0.6694400  3
   1150   1151   1152   1155     1  0.0000000  0.6508444  3
   1150   1151   1157   1163     1  0.0000000  1.0460000  1
   1150   1151   1157   1163     1  0.0000000  0.6694400  3
   1151   1150   1158   1161     1  0.0000000  1.0460000  1
   1151   1150   1158   1161     1  0.0000000  0.6694400  3
   1152   1151   1150   1154     1  0.0000000  0.6508444  3
   1152   1151   1157   1163     1  0.0000000  1.0460000  1
   1152   1151   1157   1163     1  0.0000000  0.6694400  3
   1153   1151   1150   1158     1  0.0000000  1.0460000  1
   1153   1151   1150   1158     1  0.0000000  0.0000000  3
   1153   1151   1150   1154     1  0.0000000  0.6508444  3
   1153   1151   1152   1156     1  0.0000000  1.0460000  1
   1153   1151   1152   1156     1  0.0000000  0.0000000  3
   1153   1151   1152   1168     1  0.0000000  1.0460000  1
   1153   1151   1152   1168     1  0.0000000  0.0000000  3
   1153   1151   1152   1155     1  0.0000000  0.6508444  3
   1153   1151   1157   1163     1  0.0000000  0.6973333  3
   1154   1150   1147   1159     1  0.0000000  1.0460000  1
   1154   1150   1147   1159     1  0.0000000  0.0000000  3
   1154   1150   1151   1157     1  0.0000000  1.0460000  1
   1154   1150   1151   1157     1  0.0000000  0.0000000  3
   1154   1150   1158   1161     1  0.0000000  0.6973333  3
   1155   1152   1151   1157     1  0.0000000  0.6508444  3
   1164   1160   1146   1168     1  0.0000000  1.0460000  1
   1164   1160   1146   1168     1  0.0000000  0.0000000  3
   1164   1160   1166   1167     1  0.0000000  0.6973333  3
   1165   1160   1146   1168     1  0.0000000  1.0460000  1
   1165   1160   1146   1168     1  0.0000000  0.0000000  3
   1165   1160   1166   1167     1  0.0000000  0.6973333  3
   1169   1170   1173   1177     1  0.0000000  0.6508444  3
   1169   1170   1182   1185     1  0.0000000  1.0460000  1
   1169   1170   1182   1185     1  0.0000000  0.6694400  3
   1169   1183   1189   1190     1  0.0000000  1.0460000  1
   1169   1183   1189   1190     1  0.0000000  0.6694400  3
   1169   1191   1175   1178     1  0.0000000  1.6038667  3
   1170   1169   1183   1187     1  0.0000000  0.6508444  3
   1170   1169   1183   1188     1  0.0000000  0.6508444  3
   1170   1173   1174   1176     1  0.0000000  0.6508444  3
   1170   1173   1181   1184     1  0.0000000  1.0460000  1
   1170   1173   1181   1184     1  0.0000000  0.6694400  3
   1171   1169   1170   1173     1  0.0000000  0.6508444  3
   1171   1169   1170   1182     1  0.0000000  1.0460000  1
   1171   1169   1170   1182     1  0.0000000  0.0000000  3
   1171   1169   1170   1172     1  0.0000000  0.6508444  3
   1171   1169   1183   1189     1  0.0000000  1.0460000  1
   1171   1169   1183   1189     1  0.0000000  0.0000000  3
   1171   1169   1183   1187     1  0.0000000  0.6508444  3
   1171   1169   1183   1188     1  0.0000000  0.6508444  3
   1171   1169   1191   1175     1  0.0000000  1.6038667  3
   1172   1170   1169   1183     1  0.0000000  0.6508444  3
   1172   1170   1169   1191     1  0.0000000  1.0460000  1
   1172   1170   1169   1191     1  0.0000000  0.0000000  3
   1172   1170   1173   1174     1  0.0000000  0.6508444  3
   1172   1170   1173   1181     1  0.0000000  1.0460000  1
   1172   1170   1173   1181     1  0.0000000  0.0000000  3
   1172   1170   1173   1177     1  0.0000000  0.6508444  3
   1172   1170   1182   1185     1  0.0000000  0.6973333  3
   1173   1170   1182   1185     1  0.0000000  1.0460000  1
   1173   1170   1182   1185     1  0.0000000  0.6694400  3
   1173   1174   1175   1178     1  0.0000000  0.6508444  3
   1173   1174   1180   1186     1  0.0000000  1.0460000  1
   1173   1174   1180   1186     1  0.0000000  0.6694400  3
   1174   1173   1181   1184     1  0.0000000  1.0460000  1
   1174   1173   1181   1184     1  0.0000000  0.6694400  3
   1175   1174   1173   1177     1  0.0000000  0.6508444  3
   1175   1174   1180   1186     1  0.0000000  1.0460000  1
   1175   1174   1180   1186     1  0.0000000  0.6694400  3
   1176   1174   1173   1181     1  0.0000000  1.0460000  1
   1176   1174   1173   1181     1  0.0000000  0.0000000  3
   1176   1174   1173   1177     1  0.0000000  0.6508444  3
   1176   1174   1175   1179     1  0.0000000  1.0460000  1
   1176   1174   1175   1179     1  0.0000000  0.0000000  3
   1176   1174   1175   1191     1  0.0000000  1.0460000  1
   1176   1174   1175   1191     1  0.0000000  0.0000000  3
   1176   1174   1175   1178     1  0.0000000  0.6508444  3
   1176   1174   1180   1186     1  0.0000000  0.6973333  3
   1177   1173   1170   1182     1  0.0000000  1.0460000  1
   1177   1173   1170   1182     1  0.0000000  0.0000000  3
   1177   1173   1174   1180     1  0.0000000  1.0460000  1
   1177   1173   1174   1180     1  0.0000000  0.0000000  3
   1177   1173   1181   1184     1  0.0000000  0.6973333  3
   1178   1175   1174   1180     1  0.0000000  0.6508444  3
   1187   1183   1169   1191     1  0.0000000  1.0460000  1
   1187   1183   1169   1191     1  0.0000000  0.0000000  3
   1187   1183   1189   1190     1  0.0000000  0.6973333  3
   1188   1183   1169   1191     1  0.0000000  1.0460000  1
   1188   1183   1169   1191     1  0.0000000  0.0000000  3
   1188   1183   1189   1190     1  0.0000000  0.6973333  3
   1192   1193   1196   1200     1  0.0000000  0.6508444  3
   1192   1193   1205   1208     1  0.0000000  1.0460000  1
   1192   1193   1205   1208     1  0.0000000  0.6694400  3
   1192   1206   1212   1213     1  0.0000000  1.0460000  1
   1192   1206   1212   1213     1  0.0000000  0.6694400  3
   1192   1214   1198   1201     1  0.0000000  1.6038667  3
   1193   1192   1206   1210     1  0.0000000  0.6508444  3
   1193   1192   1206   1211     1  0.0000000  0.6508444  3
   1193   1196   1197   1199     1  0.0000000  0.6508444  3
   1193   1196   1204   1207     1  0.0000000  1.0460000  1
   1193   1196   1204   1207     1  0.0000000  0.6694400  3
   1194   1192   1193   1196     1  0.0000000  0.6508444  3
   1194   1192   1193   1205     1  0.0000000  1.0460000  1
   1194   1192   1193   1205     1  0.0000000  0.0000000  3
   1194   1192   1193   1195     1  0.0000000  0.6508444  3
   1194   1192   1206   1212     1  0.0000000  1.0460000  1
   1194   1192   1206   1212     1  0.0000000  0.0000000  3
   1194   1192   1206   1210     1  0.0000000  0.6508444  3
   1194   1192   1206   1211     1  0.0000000  0.6508444  3
   1194   1192   1214   1198     1  0.0000000  1.6038667  3
   1195   1193   1192   1206     1  0.0000000  0.6508444  3
   1195   1193   1192   1214     1  0.0000000  1.0460000  1
   1195   1193   1192   1214     1  0.0000000  0.0000000  3
   1195   1193   1196   1197     1  0.0000000  0.6508444  3
   1195   1193   1196   1204     1  0.0000000  1.0460000  1
   1195   1193   1196   1204     1  0.0000000  0.0000000  3
   1195   1193   1196   1200     1  0.0000000  0.6508444  3
   1195   1193   1205   1208     1  0.0000000  0.6973333  3
   1196   1193   1205   1208     1  0.0000000  1.0460000  1
   1196   1193   1205   1208     1  0.0000000  0.6694400  3
   1196   1197   1198   1201     1  0.0000000  0.6508444  3
   1196   1197   1203   1209     1  0.0000000  1.0460000  1
   1196   1197   1203   1209     1  0.0000000  0.6694400  3
   1197   1196   1204   1207     1  0.0000000  1.0460000  1
   1197   1196   1204   1207     1  0.0000000  0.6694400  3
   1198   1197   1196   1200     1  0.0000000  0.6508444  3
   1198   1197   1203   1209     1  0.0000000  1.0460000  1
   1198   1197   1203   1209     1  0.0000000  0.6694400  3
   1199   1197   1196   1204     1  0.0000000  1.0460000  1
   1199   1197   1196   1204     1  0.0000000  0.0000000  3
   1199   1197   1196   1200     1  0.0000000  0.6508444  3
   1199   1197   1198   1202     1  0.0000000  1.0460000  1
   1199   1197   1198   1202     1  0.0000000  0.0000000  3
   1199   1197   1198   1214     1  0.0000000  1.0460000  1
   1199   1197   1198   1214     1  0.0000000  0.0000000  3
   1199   1197   1198   1201     1  0.0000000  0.6508444  3
   1199   1197   1203   1209     1  0.0000000  0.6973333  3
   1200   1196   1193   1205     1  0.0000000  1.0460000  1
   1200   1196   1193   1205     1  0.0000000  0.0000000  3
   1200   1196   1197   1203     1  0.0000000  1.0460000  1
   1200   1196   1197   1203     1  0.0000000  0.0000000  3
   1200   1196   1204   1207     1  0.0000000  0.6973333  3
   1201   1198   1197   1203     1  0.0000000  0.6508444  3
   1210   1206   1192   1214     1  0.0000000  1.0460000  1
   1210   1206   1192   1214     1  0.0000000  0.0000000  3
   1210   1206   1212   1213     1  0.0000000  0.6973333  3
   1211   1206   1192   1214     1  0.0000000  1.0460000  1
   1211   1206   1192   1214     1  0.0000000  0.0000000  3
   1211   1206   1212   1213     1  0.0000000  0.6973333  3
   1215   1216   1219   1223     1  0.0000000  0.6508444  3
   1215   1216   1228   1231     1  0.0000000  1.0460000  1
   1215   1216   1228   1231     1  0.0000000  0.6694400  3
   1215   1229   1235   1236     1  0.0000000  1.0460000  1
   1215   1229   1235   1236     1  0.0000000  0.6694400  3
   1215   1237   1221   1224     1  0.0000000  1.6038667  3
   1216   1215   1229   1233     1  0.0000000  0.6508444  3
   1216   1215   1229   1234     1  0.0000000  0.6508444  3
   1216   1219   1220   1222     1  0.0000000  0.6508444  3
   1216   1219   1227   1230     1  0.0000000  1.0460000  1
   1216   1219   1227   1230     1  0.0000000  0.6694400  3
   1217   1215   1216   1219     1  0.0000000  0.6508444  3
   1217   1215   1216   1228     1  0.0000000  1.0460000  1
   1217   1215   1216   1228     1  0.0000000  0.0000000  3
   1217   1215   1216   1218     1  0.0000000  0.6508444  3
   1217   1215   1229   1235     1  0.0000000  1.0460000  1
   1217   1215   1229   1235     1  0.0000000  0.0000000  3
   1217   1215   1229   1233     1  0.0000000  0.6508444  3
   1217   1215   1229   1234     1  0.0000000  0.6508444  3
   1217   1215   1237   1221     1  0.0000000  1.6038667  3
   1218   1216   1215   1229     1  0.0000000  0.6508444  3
   1218   1216   1215   1237     1  0.0000000  1.0460000  1
   1218   1216   1215   1237     1  0.0000000  0.0000000  3
   1218   1216   1219   1220     1  0.0000000  0.6508444  3
   1218   1216   1219   1227     1  0.0000000  1.0460000  1
   1218   1216   1219   1227     1  0.0000000  0.0000000  3
   1218   1216   1219   1223     1  0.0000000  0.6508444  3
   1218   1216   1228   1231     1  0.0000000  0.6973333  3
   1219   1216   1228   1231     1  0.0000000  1.0460000  1
   1219   1216   1228   1231     1  0.0000000  0.6694400  3
   1219   1220   1221   1224     1  0.0000000  0.6508444  3
   1219   1220   1226   1232     1  0.0000000  1.0460000  1
   1219   1220   1226   1232     1  0.0000000  0.6694400  3
   1220   1219   1227   1230     1  0.0000000  1.0460000  1
   1220   1219   1227   1230     1  0.0000000  0.6694400  3
   1221   1220   1219   1223     1  0.0000000  0.6508444  3
   1221   1220   1226   1232     1  0.0000000  1.0460000  1
   1221   1220   1226   1232     1  0.0000000  0.6694400  3
   1222   1220   1219   1227     1  0.0000000  1.0460000  1
   1222   1220   1219   1227     1  0.0000000  0.0000000  3
   1222   1220   1219   1223     1  0.0000000  0.6508444  3
   1222   1220   1221   1225     1  0.0000000  1.0460000  1
   1222   1220   1221   1225     1  0.0000000  0.0000000  3
   1222   1220   1221   1237     1  0.0000000  1.0460000  1
   1222   1220   1221   1237     1  0.0000000  0.0000000  3
   1222   1220   1221   1224     1  0.0000000  0.6508444  3
   1222   1220   1226   1232     1  0.0000000  0.6973333  3
   1223   1219   1216   1228     1  0.0000000  1.0460000  1
   1223   1219   1216   1228     1  0.0000000  0.0000000  3
   1223   1219   1220   1226     1  0.0000000  1.0460000  1
   1223   1219   1220   1226     1  0.0000000  0.0000000  3
   1223   1219   1227   1230     1  0.0000000  0.6973333  3
   1224   1221   1220   1226     1  0.0000000  0.6508444  3
   1233   1229   1215   1237     1  0.0000000  1.0460000  1
   1233   1229   1215   1237     1  0.0000000  0.0000000  3
   1233   1229   1235   1236     1  0.0000000  0.6973333  3
   1234   1229   1215   1237     1  0.0000000  1.0460000  1
   1234   1229   1215   1237     1  0.0000000  0.0000000  3
   1234   1229   1235   1236     1  0.0000000  0.6973333  3
   1238   1239   1242   1246     1  0.0000000  0.6508444  3
   1238   1239   1251   1254     1  0.0000000  1.0460000  1
   1238   1239   1251   1254     1  0.0000000  0.6694400  3
   1238   1252   1258   1259     1  0.0000000  1.0460000  1
   1238   1252   1258   1259     1  0.0000000  0.6694400  3
   1238   1260   1244   1247     1  0.0000000  1.6038667  3
   1239   1238   1252   1256     1  0.0000000  0.6508444  3
   1239   1238   1252   1257     1  0.0000000  0.6508444  3
   1239   1242   1243   1245     1  0.0000000  0.6508444  3
   1239   1242   1250   1253     1  0.0000000  1.0460000  1
   1239   1242   1250   1253     1  0.0000000  0.6694400  3
   1240   1238   1239   1242     1  0.0000000  0.6508444  3
   1240   1238   1239   1251     1  0.0000000  1.0460000  1
   1240   1238   1239   1251     1  0.0000000  0.0000000  3
   1240   1238   1239   1241     1  0.0000000  0.6508444  3
   1240   1238   1252   1258     1  0.0000000  1.0460000  1
   1240   1238   1252   1258     1  0.0000000  0.0000000  3
   1240   1238   1252   1256     1  0.0000000  0.6508444  3
   1240   1238   1252   1257     1  0.0000000  0.6508444  3
   1240   1238   1260   1244     1  0.0000000  1.6038667  3
   1241   1239   1238   1252     1  0.0000000  0.6508444  3
   1241   1239   1238   1260     1  0.0000000  1.0460000  1
   1241   1239   1238   1260     1  0.0000000  0.0000000  3
   1241   1239   1242   1243     1  0.0000000  0.6508444  3
   1241   1239   1242   1250     1  0.0000000  1.0460000  1
   1241   1239   1242   1250     1  0.0000000  0.0000000  3
   1241   1239   1242   1246     1  0.0000000  0.6508444  3
   1241   1239   1251   1254     1  0.0000000  0.6973333  3
   1242   1239   1251   1254     1  0.0000000  1.0460000  1
   1242   1239   1251   1254     1  0.0000000  0.6694400  3
   1242   1243   1244   1247     1  0.0000000  0.6508444  3
   1242   1243   1249   1255     1  0.0000000  1.0460000  1
   1242   1243   1249   1255     1  0.0000000  0.6694400  3
   1243   1242   1250   1253     1  0.0000000  1.0460000  1
   1243   1242   1250   1253     1  0.0000000  0.6694400  3
   1244   1243   1242   1246     1  0.0000000  0.6508444  3
   1244   1243   1249   1255     1  0.0000000  1.0460000  1
   1244   1243   1249   1255     1  0.0000000  0.6694400  3
   1245   1243   1242   1250     1  0.0000000  1.0460000  1
   1245   1243   1242   1250     1  0.0000000  0.0000000  3
   1245   1243   1242   1246     1  0.0000000  0.6508444  3
   1245   1243   1244   1248     1  0.0000000  1.0460000  1
   1245   1243   1244   1248     1  0.0000000  0.0000000  3
   1245   1243   1244   1260     1  0.0000000  1.0460000  1
   1245   1243   1244   1260     1  0.0000000  0.0000000  3
   1245   1243   1244   1247     1  0.0000000  0.6508444  3
   1245   1243   1249   1255     1  0.0000000  0.6973333  3
   1246   1242   1239   1251     1  0.0000000  1.0460000  1
   1246   1242   1239   1251     1  0.0000000  0.0000000  3
   1246   1242   1243   1249     1  0.0000000  1.0460000  1
   1246   1242   1243   1249     1  0.0000000  0.0000000  3
   1246   1242   1250   1253     1  0.0000000  0.6973333  3
   1247   1244   1243   1249     1  0.0000000  0.6508444  3
   1256   1252   1238   1260     1  0.0000000  1.0460000  1
   1256   1252   1238   1260     1  0.0000000  0.0000000  3
   1256   1252   1258   1259     1  0.0000000  0.6973333  3
   1257   1252   1238   1260     1  0.0000000  1.0460000  1
   1257   1252   1238   1260     1  0.0000000  0.0000000  3
   1257   1252   1258   1259     1  0.0000000  0.6973333  3
   1261   1262   1265   1269     1  0.0000000  0.6508444  3
   1261   1262   1274   1277     1  0.0000000  1.0460000  1
   1261   1262   1274   1277     1  0.0000000  0.6694400  3
   1261   1275   1281   1282     1  0.0000000  1.0460000  1
   1261   1275   1281   1282     1  0.0000000  0.6694400  3
   1261   1283   1267   1270     1  0.0000000  1.6038667  3
   1262   1261   1275   1279     1  0.0000000  0.6508444  3
   1262   1261   1275   1280     1  0.0000000  0.6508444  3
   1262   1265   1266   1268     1  0.0000000  0.6508444  3
   1262   1265   1273   1276     1  0.0000000  1.0460000  1
   1262   1265   1273   1276     1  0.0000000  0.6694400  3
   1263   1261   1262   1265     1  0.0000000  0.6508444  3
   1263   1261   1262   1274     1  0.0000000  1.0460000  1
   1263   1261   1262   1274     1  0.0000000  0.0000000  3
   1263   1261   1262   1264     1  0.0000000  0.6508444  3
   1263   1261   1275   1281     1  0.0000000  1.0460000  1
   1263   1261   1275   1281     1  0.0000000  0.0000000  3
   1263   1261   1275   1279     1  0.0000000  0.6508444  3
   1263   1261   1275   1280     1  0.0000000  0.6508444  3
   1263   1261   1283   1267     1  0.0000000  1.6038667  3
   1264   1262   1261   1275     1  0.0000000  0.6508444  3
   1264   1262   1261   1283     1  0.0000000  1.0460000  1
   1264   1262   1261   1283     1  0.0000000  0.0000000  3
   1264   1262   1265   1266     1  0.0000000  0.6508444  3
   1264   1262   1265   1273     1  0.0000000  1.0460000  1
   1264   1262   1265   1273     1  0.0000000  0.0000000  3
   1264   1262   1265   1269     1  0.0000000  0.6508444  3
   1264   1262   1274   1277     1  0.0000000  0.6973333  3
   1265   1262   1274   1277     1  0.0000000  1.0460000  1
   1265   1262   1274   1277     1  0.0000000  0.6694400  3
   1265   1266   1267   1270     1  0.0000000  0.6508444  3
   1265   1266   1272   1278     1  0.0000000  1.0460000  1
   1265   1266   1272   1278     1  0.0000000  0.6694400  3
   1266   1265   1273   1276     1  0.0000000  1.0460000  1
   1266   1265   1273   1276     1  0.0000000  0.6694400  3
   1267   1266   1265   1269     1  0.0000000  0.6508444  3
   1267   1266   1272   1278     1  0.0000000  1.0460000  1
   1267   1266   1272   1278     1  0.0000000  0.6694400  3
   1268   1266   1265   1273     1  0.0000000  1.0460000  1
   1268   1266   1265   1273     1  0.0000000  0.0000000  3
   1268   1266   1265   1269     1  0.0000000  0.6508444  3
   1268   1266   1267   1271     1  0.0000000  1.0460000  1
   1268   1266   1267   1271     1  0.0000000  0.0000000  3
   1268   1266   1267   1283     1  0.0000000  1.0460000  1
   1268   1266   1267   1283     1  0.0000000  0.0000000  3
   1268   1266   1267   1270     1  0.0000000  0.6508444  3
   1268   1266   1272   1278     1  0.0000000  0.6973333  3
   1269   1265   1262   1274     1  0.0000000  1.0460000  1
   1269   1265   1262   1274     1  0.0000000  0.0000000  3
   1269   1265   1266   1272     1  0.0000000  1.0460000  1
   1269   1265   1266   1272     1  0.0000000  0.0000000  3
   1269   1265   1273   1276     1  0.0000000  0.6973333  3
   1270   1267   1266   1272     1  0.0000000  0.6508444  3
   1279   1275   1261   1283     1  0.0000000  1.0460000  1
   1279   1275   1261   1283     1  0.0000000  0.0000000  3
   1279   1275   1281   1282     1  0.0000000  0.6973333  3
   1280   1275   1261   1283     1  0.0000000  1.0460000  1
   1280   1275   1261   1283     1  0.0000000  0.0000000  3
   1280   1275   1281   1282     1  0.0000000  0.6973333  3
   1284   1285   1288   1292     1  0.0000000  0.6508444  3
   1284   1285   1297   1300     1  0.0000000  1.0460000  1
   1284   1285   1297   1300     1  0.0000000  0.6694400  3
   1284   1298   1304   1305     1  0.0000000  1.0460000  1
   1284   1298   1304   1305     1  0.0000000  0.6694400  3
   1284   1306   1290   1293     1  0.0000000  1.6038667  3
   1285   1284   1298   1302     1  0.0000000  0.6508444  3
   1285   1284   1298   1303     1  0.0000000  0.6508444  3
   1285   1288   1289   1291     1  0.0000000  0.6508444  3
   1285   1288   1296   1299     1  0.0000000  1.0460000  1
   1285   1288   1296   1299     1  0.0000000  0.6694400  3
   1286   1284   1285   1288     1  0.0000000  0.6508444  3
   1286   1284   1285   1297     1  0.0000000  1.0460000  1
   1286   1284   1285   1297     1  0.0000000  0.0000000  3
   1286   1284   1285   1287     1  0.0000000  0.6508444  3
   1286   1284   1298   1304     1  0.0000000  1.0460000  1
   1286   1284   1298   1304     1  0.0000000  0.0000000  3
   1286   1284   1298   1302     1  0.0000000  0.6508444  3
   1286   1284   1298   1303     1  0.0000000  0.6508444  3
   1286   1284   1306   1290     1  0.0000000  1.6038667  3
   1287   1285   1284   1298     1  0.0000000  0.6508444  3
   1287   1285   1284   1306     1  0.0000000  1.0460000  1
   1287   1285   1284   1306     1  0.0000000  0.0000000  3
   1287   1285   1288   1289     1  0.0000000  0.6508444  3
   1287   1285   1288   1296     1  0.0000000  1.0460000  1
   1287   1285   1288   1296     1  0.0000000  0.0000000  3
   1287   1285   1288   1292     1  0.0000000  0.6508444  3
   1287   1285   1297   1300     1  0.0000000  0.6973333  3
   1288   1285   1297   1300     1  0.0000000  1.0460000  1
   1288   1285   1297   1300     1  0.0000000  0.6694400  3
   1288   1289   1290   1293     1  0.0000000  0.6508444  3
   1288   1289   1295   1301     1  0.0000000  1.0460000  1
   1288   1289   1295   1301     1  0.0000000  0.6694400  3
   1289   1288   1296   1299     1  0.0000000  1.0460000  1
   1289   1288   1296   1299     1  0.0000000  0.6694400  3
   1290   1289   1288   1292     1  0.0000000  0.6508444  3
   1290   1289   1295   1301     1  0.0000000  1.0460000  1
   1290   1289   1295   1301     1  0.0000000  0.6694400  3
   1291   1289   1288   1296     1  0.0000000  1.0460000  1
   1291   1289   1288   1296     1  0.0000000  0.0000000  3
   1291   1289   1288   1292     1  0.0000000  0.6508444  3
   1291   1289   1290   1294     1  0.0000000  1.0460000  1
   1291   1289   1290   1294     1  0.0000000  0.0000000  3
   1291   1289   1290   1306     1  0.0000000  1.0460000  1
   1291   1289   1290   1306     1  0.0000000  0.0000000  3
   1291   1289   1290   1293     1  0.0000000  0.6508444  3
   1291   1289   1295   1301     1  0.0000000  0.6973333  3
   1292   1288   1285   1297     1  0.0000000  1.0460000  1
   1292   1288   1285   1297     1  0.0000000  0.0000000  3
   1292   1288   1289   1295     1  0.0000000  1.0460000  1
   1292   1288   1289   1295     1  0.0000000  0.0000000  3
   1292   1288   1296   1299     1  0.0000000  0.6973333  3
   1293   1290   1289   1295     1  0.0000000  0.6508444  3
   1302   1298   1284   1306     1  0.0000000  1.0460000  1
   1302   1298   1284   1306     1  0.0000000  0.0000000  3
   1302   1298   1304   1305     1  0.0000000  0.6973333  3
   1303   1298   1284   1306     1  0.0000000  1.0460000  1
   1303   1298   1284   1306     1  0.0000000  0.0000000  3
   1303   1298   1304   1305     1  0.0000000  0.6973333  3
   1307   1308   1311   1315     1  0.0000000  0.6508444  3
   1307   1308   1320   1323     1  0.0000000  1.0460000  1
   1307   1308   1320   1323     1  0.0000000  0.6694400  3
   1307   1321   1327   1328     1  0.0000000  1.0460000  1
   1307   1321   1327   1328     1  0.0000000  0.6694400  3
   1307   1329   1313   1316     1  0.0000000  1.6038667  3
   1308   1307   1321   1325     1  0.0000000  0.6508444  3
   1308   1307   1321   1326     1  0.0000000  0.6508444  3
   1308   1311   1312   1314     1  0.0000000  0.6508444  3
   1308   1311   1319   1322     1  0.0000000  1.0460000  1
   1308   1311   1319   1322     1  0.0000000  0.6694400  3
   1309   1307   1308   1311     1  0.0000000  0.6508444  3
   1309   1307   1308   1320     1  0.0000000  1.0460000  1
   1309   1307   1308   1320     1  0.0000000  0.0000000  3
   1309   1307   1308   1310     1  0.0000000  0.6508444  3
   1309   1307   1321   1327     1  0.0000000  1.0460000  1
   1309   1307   1321   1327     1  0.0000000  0.0000000  3
   1309   1307   1321   1325     1  0.0000000  0.6508444  3
   1309   1307   1321   1326     1  0.0000000  0.6508444  3
   1309   1307   1329   1313     1  0.0000000  1.6038667  3
   1310   1308   1307   1321     1  0.0000000  0.6508444  3
   1310   1308   1307   1329     1  0.0000000  1.0460000  1
   1310   1308   1307   1329     1  0.0000000  0.0000000  3
   1310   1308   1311   1312     1  0.0000000  0.6508444  3
   1310   1308   1311   1319     1  0.0000000  1.0460000  1
   1310   1308   1311   1319     1  0.0000000  0.0000000  3
   1310   1308   1311   1315     1  0.0000000  0.6508444  3
   1310   1308   1320   1323     1  0.0000000  0.6973333  3
   1311   1308   1320   1323     1  0.0000000  1.0460000  1
   1311   1308   1320   1323     1  0.0000000  0.6694400  3
   1311   1312   1313   1316     1  0.0000000  0.6508444  3
   1311   1312   1318   1324     1  0.0000000  1.0460000  1
   1311   1312   1318   1324     1  0.0000000  0.6694400  3
   1312   1311   1319   1322     1  0.0000000  1.0460000  1
   1312   1311   1319   1322     1  0.0000000  0.6694400  3
   1313   1312   1311   1315     1  0.0000000  0.6508444  3
   1313   1312   1318   1324     1  0.0000000  1.0460000  1
   1313   1312   1318   1324     1  0.0000000  0.6694400  3
   1314   1312   1311   1319     1  0.0000000  1.0460000  1
   1314   1312   1311   1319     1  0.0000000  0.0000000  3
   1314   1312   1311   1315     1  0.0000000  0.6508444  3
   1314   1312   1313   1317     1  0.0000000  1.0460000  1
   1314   1312   1313   1317     1  0.0000000  0.0000000  3
   1314   1312   1313   1329     1  0.0000000  1.0460000  1
   1314   1312   1313   1329     1  0.0000000  0.0000000  3
   1314   1312   1313   1316     1  0.0000000  0.6508444  3
   1314   1312   1318   1324     1  0.0000000  0.6973333  3
   1315   1311   1308   1320     1  0.0000000  1.0460000  1
   1315   1311   1308   1320     1  0.0000000  0.0000000  3
   1315   1311   1312   1318     1  0.0000000  1.0460000  1
   1315   1311   1312   1318     1  0.0000000  0.0000000  3
   1315   1311   1319   1322     1  0.0000000  0.6973333  3
   1316   1313   1312   1318     1  0.0000000  0.6508444  3
   1325   1321   1307   1329     1  0.0000000  1.0460000  1
   1325   1321   1307   1329     1  0.0000000  0.0000000  3
   1325   1321   1327   1328     1  0.0000000  0.6973333  3
   1326   1321   1307   1329     1  0.0000000  1.0460000  1
   1326   1321   1307   1329     1  0.0000000  0.0000000  3
   1326   1321   1327   1328     1  0.0000000  0.6973333  3
   1330   1331   1334   1338     1  0.0000000  0.6508444  3
   1330   1331   1343   1346     1  0.0000000  1.0460000  1
   1330   1331   1343   1346     1  0.0000000  0.6694400  3
   1330   1344   1350   1351     1  0.0000000  1.0460000  1
   1330   1344   1350   1351     1  0.0000000  0.6694400  3
   1330   1352   1336   1339     1  0.0000000  1.6038667  3
   1331   1330   1344   1348     1  0.0000000  0.6508444  3
   1331   1330   1344   1349     1  0.0000000  0.6508444  3
   1331   1334   1335   1337     1  0.0000000  0.6508444  3
   1331   1334   1342   1345     1  0.0000000  1.0460000  1
   1331   1334   1342   1345     1  0.0000000  0.6694400  3
   1332   1330   1331   1334     1  0.0000000  0.6508444  3
   1332   1330   1331   1343     1  0.0000000  1.0460000  1
   1332   1330   1331   1343     1  0.0000000  0.0000000  3
   1332   1330   1331   1333     1  0.0000000  0.6508444  3
   1332   1330   1344   1350     1  0.0000000  1.0460000  1
   1332   1330   1344   1350     1  0.0000000  0.0000000  3
   1332   1330   1344   1348     1  0.0000000  0.6508444  3
   1332   1330   1344   1349     1  0.0000000  0.6508444  3
   1332   1330   1352   1336     1  0.0000000  1.6038667  3
   1333   1331   1330   1344     1  0.0000000  0.6508444  3
   1333   1331   1330   1352     1  0.0000000  1.0460000  1
   1333   1331   1330   1352     1  0.0000000  0.0000000  3
   1333   1331   1334   1335     1  0.0000000  0.6508444  3
   1333   1331   1334   1342     1  0.0000000  1.0460000  1
   1333   1331   1334   1342     1  0.0000000  0.0000000  3
   1333   1331   1334   1338     1  0.0000000  0.6508444  3
   1333   1331   1343   1346     1  0.0000000  0.6973333  3
   1334   1331   1343   1346     1  0.0000000  1.0460000  1
   1334   1331   1343   1346     1  0.0000000  0.6694400  3
   1334   1335   1336   1339     1  0.0000000  0.6508444  3
   1334   1335   1341   1347     1  0.0000000  1.0460000  1
   1334   1335   1341   1347     1  0.0000000  0.6694400  3
   1335   1334   1342   1345     1  0.0000000  1.0460000  1
   1335   1334   1342   1345     1  0.0000000  0.6694400  3
   1336   1335   1334   1338     1  0.0000000  0.6508444  3
   1336   1335   1341   1347     1  0.0000000  1.0460000  1
   1336   1335   1341   1347     1  0.0000000  0.6694400  3
   1337   1335   1334   1342     1  0.0000000  1.0460000  1
   1337   1335   1334   1342     1  0.0000000  0.0000000  3
   1337   1335   1334   1338     1  0.0000000  0.6508444  3
   1337   1335   1336   1340     1  0.0000000  1.0460000  1
   1337   1335   1336   1340     1  0.0000000  0.0000000  3
   1337   1335   1336   1352     1  0.0000000  1.0460000  1
   1337   1335   1336   1352     1  0.0000000  0.0000000  3
   1337   1335   1336   1339     1  0.0000000  0.6508444  3
   1337   1335   1341   1347     1  0.0000000  0.6973333  3
   1338   1334   1331   1343     1  0.0000000  1.0460000  1
   1338   1334   1331   1343     1  0.0000000  0.0000000  3
   1338   1334   1335   1341     1  0.0000000  1.0460000  1
   1338   1334   1335   1341     1  0.0000000  0.0000000  3
   1338   1334   1342   1345     1  0.0000000  0.6973333  3
   1339   1336   1335   1341     1  0.0000000  0.6508444  3
   1348   1344   1330   1352     1  0.0000000  1.0460000  1
   1348   1344   1330   1352     1  0.0000000  0.0000000  3
   1348   1344   1350   1351     1  0.0000000  0.6973333  3
   1349   1344   1330   1352     1  0.0000000  1.0460000  1
   1349   1344   1330   1352     1  0.0000000  0.0000000  3
   1349   1344   1350   1351     1  0.0000000  0.6973333  3
   1353   1354   1357   1361     1  0.0000000  0.6508444  3
   1353   1354   1366   1369     1  0.0000000  1.0460000  1
   1353   1354   1366   1369     1  0.0000000  0.6694400  3
   1353   1367   1373   1374     1  0.0000000  1.0460000  1
   1353   1367   1373   1374     1  0.0000000  0.6694400  3
   1353   1375   1359   1362     1  0.0000000  1.6038667  3
   1354   1353   1367   1371     1  0.0000000  0.6508444  3
   1354   1353   1367   1372     1  0.0000000  0.6508444  3
   1354   1357   1358   1360     1  0.0000000  0.6508444  3
   1354   1357   1365   1368     1  0.0000000  1.0460000  1
   1354   1357   1365   1368     1  0.0000000  0.6694400  3
   1355   1353   1354   1357     1  0.0000000  0.6508444  3
   1355   1353   1354   1366     1  0.0000000  1.0460000  1
   1355   1353   1354   1366     1  0.0000000  0.0000000  3
   1355   1353   1354   1356     1  0.0000000  0.6508444  3
   1355   1353   1367   1373     1  0.0000000  1.0460000  1
   1355   1353   1367   1373     1  0.0000000  0.0000000  3
   1355   1353   1367   1371     1  0.0000000  0.6508444  3
   1355   1353   1367   1372     1  0.0000000  0.6508444  3
   1355   1353   1375   1359     1  0.0000000  1.6038667  3
   1356   1354   1353   1367     1  0.0000000  0.6508444  3
   1356   1354   1353   1375     1  0.0000000  1.0460000  1
   1356   1354   1353   1375     1  0.0000000  0.0000000  3
   1356   1354   1357   1358     1  0.0000000  0.6508444  3
   1356   1354   1357   1365     1  0.0000000  1.0460000  1
   1356   1354   1357   1365     1  0.0000000  0.0000000  3
   1356   1354   1357   1361     1  0.0000000  0.6508444  3
   1356   1354   1366   1369     1  0.0000000  0.6973333  3
   1357   1354   1366   1369     1  0.0000000  1.0460000  1
   1357   1354   1366   1369     1  0.0000000  0.6694400  3
   1357   1358   1359   1362     1  0.0000000  0.6508444  3
   1357   1358   1364   1370     1  0.0000000  1.0460000  1
   1357   1358   1364   1370     1  0.0000000  0.6694400  3
   1358   1357   1365   1368     1  0.0000000  1.0460000  1
   1358   1357   1365   1368     1  0.0000000  0.6694400  3
   1359   1358   1357   1361     1  0.0000000  0.6508444  3
   1359   1358   1364   1370     1  0.0000000  1.0460000  1
   1359   1358   1364   1370     1  0.0000000  0.6694400  3
   1360   1358   1357   1365     1  0.0000000  1.0460000  1
   1360   1358   1357   1365     1  0.0000000  0.0000000  3
   1360   1358   1357   1361     1  0.0000000  0.6508444  3
   1360   1358   1359   1363     1  0.0000000  1.0460000  1
   1360   1358   1359   1363     1  0.0000000  0.0000000  3
   1360   1358   1359   1375     1  0.0000000  1.0460000  1
   1360   1358   1359   1375     1  0.0000000  0.0000000  3
   1360   1358   1359   1362     1  0.0000000  0.6508444  3
   1360   1358   1364   1370     1  0.0000000  0.6973333  3
   1361   1357   1354   1366     1  0.0000000  1.0460000  1
   1361   1357   1354   1366     1  0.0000000  0.0000000  3
   1361   1357   1358   1364     1  0.0000000  1.0460000  1
   1361   1357   1358   1364     1  0.0000000  0.0000000  3
   1361   1357   1365   1368     1  0.0000000  0.6973333  3
   1362   1359   1358   1364     1  0.0000000  0.6508444  3
   1371   1367   1353   1375     1  0.0000000  1.0460000  1
   1371   1367   1353   1375     1  0.0000000  0.0000000  3
   1371   1367   1373   1374     1  0.0000000  0.6973333  3
   1372   1367   1353   1375     1  0.0000000  1.0460000  1
   1372   1367   1353   1375     1  0.0000000  0.0000000  3
   1372   1367   1373   1374     1  0.0000000  0.6973333  3
   1376   1377   1380   1384     1  0.0000000  0.6508444  3
   1376   1377   1389   1392     1  0.0000000  1.0460000  1
   1376   1377   1389   1392     1  0.0000000  0.6694400  3
   1376   1390   1396   1397     1  0.0000000  1.0460000  1
   1376   1390   1396   1397     1  0.0000000  0.6694400  3
   1376   1398   1382   1385     1  0.0000000  1.6038667  3
   1377   1376   1390   1394     1  0.0000000  0.6508444  3
   1377   1376   1390   1395     1  0.0000000  0.6508444  3
   1377   1380   1381   1383     1  0.0000000  0.6508444  3
   1377   1380   1388   1391     1  0.0000000  1.0460000  1
   1377   1380   1388   1391     1  0.0000000  0.6694400  3
   1378   1376   1377   1380     1  0.0000000  0.6508444  3
   1378   1376   1377   1389     1  0.0000000  1.0460000  1
   1378   1376   1377   1389     1  0.0000000  0.0000000  3
   1378   1376   1377   1379     1  0.0000000  0.6508444  3
   1378   1376   1390   1396     1  0.0000000  1.0460000  1
   1378   1376   1390   1396     1  0.0000000  0.0000000  3
   1378   1376   1390   1394     1  0.0000000  0.6508444  3
   1378   1376   1390   1395     1  0.0000000  0.6508444  3
   1378   1376   1398   1382     1  0.0000000  1.6038667  3
   1379   1377   1376   1390     1  0.0000000  0.6508444  3
   1379   1377   1376   1398     1  0.0000000  1.0460000  1
   1379   1377   1376   1398     1  0.0000000  0.0000000  3
   1379   1377   1380   1381     1  0.0000000  0.6508444  3
   1379   1377   1380   1388     1  0.0000000  1.0460000  1
   1379   1377   1380   1388     1  0.0000000  0.0000000  3
   1379   1377   1380   1384     1  0.0000000  0.6508444  3
   1379   1377   1389   1392     1  0.0000000  0.6973333  3
   1380   1377   1389   1392     1  0.0000000  1.0460000  1
   1380   1377   1389   1392     1  0.0000000  0.6694400  3
   1380   1381   1382   1385     1  0.0000000  0.6508444  3
   1380   1381   1387   1393     1  0.0000000  1.0460000  1
   1380   1381   1387   1393     1  0.0000000  0.6694400  3
   1381   1380   1388   1391     1  0.0000000  1.0460000  1
   1381   1380   1388   1391     1  0.0000000  0.6694400  3
   1382   1381   1380   1384     1  0.0000000  0.6508444  3
   1382   1381   1387   1393     1  0.0000000  1.0460000  1
   1382   1381   1387   1393     1  0.0000000  0.6694400  3
   1383   1381   1380   1388     1  0.0000000  1.0460000  1
   1383   1381   1380   1388     1  0.0000000  0.0000000  3
   1383   1381   1380   1384     1  0.0000000  0.6508444  3
   1383   1381   1382   1386     1  0.0000000  1.0460000  1
   1383   1381   1382   1386     1  0.0000000  0.0000000  3
   1383   1381   1382   1398     1  0.0000000  1.0460000  1
   1383   1381   1382   1398     1  0.0000000  0.0000000  3
   1383   1381   1382   1385     1  0.0000000  0.6508444  3
   1383   1381   1387   1393     1  0.0000000  0.6973333  3
   1384   1380   1377   1389     1  0.0000000  1.0460000  1
   1384   1380   1377   1389     1  0.0000000  0.0000000  3
   1384   1380   1381   1387     1  0.0000000  1.0460000  1
   1384   1380   1381   1387     1  0.0000000  0.0000000  3
   1384   1380   1388   1391     1  0.0000000  0.6973333  3
   1385   1382   1381   1387     1  0.0000000  0.6508444  3
   1394   1390   1376   1398     1  0.0000000  1.0460000  1
   1394   1390   1376   1398     1  0.0000000  0.0000000  3
   1394   1390   1396   1397     1  0.0000000  0.6973333  3
   1395   1390   1376   1398     1  0.0000000  1.0460000  1
   1395   1390   1376   1398     1  0.0000000  0.0000000  3
   1395   1390   1396   1397     1  0.0000000  0.6973333  3
   1399   1400   1403   1407     1  0.0000000  0.6508444  3
   1399   1400   1412   1415     1  0.0000000  1.0460000  1
   1399   1400   1412   1415     1  0.0000000  0.6694400  3
   1399   1413   1419   1420     1  0.0000000  1.0460000  1
   1399   1413   1419   1420     1  0.0000000  0.6694400  3
   1399   1421   1405   1408     1  0.0000000  1.6038667  3
   1400   1399   1413   1417     1  0.0000000  0.6508444  3
   1400   1399   1413   1418     1  0.0000000  0.6508444  3
   1400   1403   1404   1406     1  0.0000000  0.6508444  3
   1400   1403   1411   1414     1  0.0000000  1.0460000  1
   1400   1403   1411   1414     1  0.0000000  0.6694400  3
   1401   1399   1400   1403     1  0.0000000  0.6508444  3
   1401   1399   1400   1412     1  0.0000000  1.0460000  1
   1401   1399   1400   1412     1  0.0000000  0.0000000  3
   1401   1399   1400   1402     1  0.0000000  0.6508444  3
   1401   1399   1413   1419     1  0.0000000  1.0460000  1
   1401   1399   1413   1419     1  0.0000000  0.0000000  3
   1401   1399   1413   1417     1  0.0000000  0.6508444  3
   1401   1399   1413   1418     1  0.0000000  0.6508444  3
   1401   1399   1421   1405     1  0.0000000  1.6038667  3
   1402   1400   1399   1413     1  0.0000000  0.6508444  3
   1402   1400   1399   1421     1  0.0000000  1.0460000  1
   1402   1400   1399   1421     1  0.0000000  0.0000000  3
   1402   1400   1403   1404     1  0.0000000  0.6508444  3
   1402   1400   1403   1411     1  0.0000000  1.0460000  1
   1402   1400   1403   1411     1  0.0000000  0.0000000  3
   1402   1400   1403   1407     1  0.0000000  0.6508444  3
   1402   1400   1412   1415     1  0.0000000  0.6973333  3
   1403   1400   1412   1415     1  0.0000000  1.0460000  1
   1403   1400   1412   1415     1  0.0000000  0.6694400  3
   1403   1404   1405   1408     1  0.0000000  0.6508444  3
   1403   1404   1410   1416     1  0.0000000  1.0460000  1
   1403   1404   1410   1416     1  0.0000000  0.6694400  3
   1404   1403   1411   1414     1  0.0000000  1.0460000  1
   1404   1403   1411   1414     1  0.0000000  0.6694400  3
   1405   1404   1403   1407     1  0.0000000  0.6508444  3
   1405   1404   1410   1416     1  0.0000000  1.0460000  1
   1405   1404   1410   1416     1  0.0000000  0.6694400  3
   1406   1404   1403   1411     1  0.0000000  1.0460000  1
   1406   1404   1403   1411     1  0.0000000  0.0000000  3
   1406   1404   1403   1407     1  0.0000000  0.6508444  3
   1406   1404   1405   1409     1  0.0000000  1.0460000  1
   1406   1404   1405   1409     1  0.0000000  0.0000000  3
   1406   1404   1405   1421     1  0.0000000  1.0460000  1
   1406   1404   1405   1421     1  0.0000000  0.0000000  3
   1406   1404   1405   1408     1  0.0000000  0.6508444  3
   1406   1404   1410   1416     1  0.0000000  0.6973333  3
   1407   1403   1400   1412     1  0.0000000  1.0460000  1
   1407   1403   1400   1412     1  0.0000000  0.0000000  3
   1407   1403   1404   1410     1  0.0000000  1.0460000  1
   1407   1403   1404   1410     1  0.0000000  0.0000000  3
   1407   1403   1411   1414     1  0.0000000  0.6973333  3
   1408   1405   1404   1410     1  0.0000000  0.6508444  3
   1417   1413   1399   1421     1  0.0000000  1.0460000  1
   1417   1413   1399   1421     1  0.0000000  0.0000000  3
   1417   1413   1419   1420     1  0.0000000  0.6973333  3
   1418   1413   1399   1421     1  0.0000000  1.0460000  1
   1418   1413   1399   1421     1  0.0000000  0.0000000  3
   1418   1413   1419   1420     1  0.0000000  0.6973333  3
   1422   1423   1426   1430     1  0.0000000  0.6508444  3
   1422   1423   1435   1438     1  0.0000000  1.0460000  1
   1422   1423   1435   1438     1  0.0000000  0.6694400  3
   1422   1436   1442   1443     1  0.0000000  1.0460000  1
   1422   1436   1442   1443     1  0.0000000  0.6694400  3
   1422   1444   1428   1431     1  0.0000000  1.6038667  3
   1423   1422   1436   1440     1  0.0000000  0.6508444  3
   1423   1422   1436   1441     1  0.0000000  0.6508444  3
   1423   1426   1427   1429     1  0.0000000  0.6508444  3
   1423   1426   1434   1437     1  0.0000000  1.0460000  1
   1423   1426   1434   1437     1  0.0000000  0.6694400  3
   1424   1422   1423   1426     1  0.0000000  0.6508444  3
   1424   1422   1423   1435     1  0.0000000  1.0460000  1
   1424   1422   1423   1435     1  0.0000000  0.0000000  3
   1424   1422   1423   1425     1  0.0000000  0.6508444  3
   1424   1422   1436   1442     1  0.0000000  1.0460000  1
   1424   1422   1436   1442     1  0.0000000  0.0000000  3
   1424   1422   1436   1440     1  0.0000000  0.6508444  3
   1424   1422   1436   1441     1  0.0000000  0.6508444  3
   1424   1422   1444   1428     1  0.0000000  1.6038667  3
   1425   1423   1422   1436     1  0.0000000  0.6508444  3
   1425   1423   1422   1444     1  0.0000000  1.0460000  1
   1425   1423   1422   1444     1  0.0000000  0.0000000  3
   1425   1423   1426   1427     1  0.0000000  0.6508444  3
   1425   1423   1426   1434     1  0.0000000  1.0460000  1
   1425   1423   1426   1434     1  0.0000000  0.0000000  3
   1425   1423   1426   1430     1  0.0000000  0.6508444  3
   1425   1423   1435   1438     1  0.0000000  0.6973333  3
   1426   1423   1435   1438     1  0.0000000  1.0460000  1
   1426   1423   1435   1438     1  0.0000000  0.6694400  3
   1426   1427   1428   1431     1  0.0000000  0.6508444  3
   1426   1427   1433   1439     1  0.0000000  1.0460000  1
   1426   1427   1433   1439     1  0.0000000  0.6694400  3
   1427   1426   1434   1437     1  0.0000000  1.0460000  1
   1427   1426   1434   1437     1  0.0000000  0.6694400  3
   1428   1427   1426   1430     1  0.0000000  0.6508444  3
   1428   1427   1433   1439     1  0.0000000  1.0460000  1
   1428   1427   1433   1439     1  0.0000000  0.6694400  3
   1429   1427   1426   1434     1  0.0000000  1.0460000  1
   1429   1427   1426   1434     1  0.0000000  0.0000000  3
   1429   1427   1426   1430     1  0.0000000  0.6508444  3
   1429   1427   1428   1432     1  0.0000000  1.0460000  1
   1429   1427   1428   1432     1  0.0000000  0.0000000  3
   1429   1427   1428   1444     1  0.0000000  1.0460000  1
   1429   1427   1428   1444     1  0.0000000  0.0000000  3
   1429   1427   1428   1431     1  0.0000000  0.6508444  3
   1429   1427   1433   1439     1  0.0000000  0.6973333  3
   1430   1426   1423   1435     1  0.0000000  1.0460000  1
   1430   1426   1423   1435     1  0.0000000  0.0000000  3
   1430   1426   1427   1433     1  0.0000000  1.0460000  1
   1430   1426   1427   1433     1  0.0000000  0.0000000  3
   1430   1426   1434   1437     1  0.0000000  0.6973333  3
   1431   1428   1427   1433     1  0.0000000  0.6508444  3
   1440   1436   1422   1444     1  0.0000000  1.0460000  1
   1440   1436   1422   1444     1  0.0000000  0.0000000  3
   1440   1436   1442   1443     1  0.0000000  0.6973333  3
   1441   1436   1422   1444     1  0.0000000  1.0460000  1
   1441   1436   1422   1444     1  0.0000000  0.0000000  3
   1441   1436   1442   1443     1  0.0000000  0.6973333  3
   1445   1446   1449   1453     1  0.0000000  0.6508444  3
   1445   1446   1458   1461     1  0.0000000  1.0460000  1
   1445   1446   1458   1461     1  0.0000000  0.6694400  3
   1445   1459   1465   1466     1  0.0000000  1.0460000  1
   1445   1459   1465   1466     1  0.0000000  0.6694400  3
   1445   1467   1451   1454     1  0.0000000  1.6038667  3
   1446   1445   1459   1463     1  0.0000000  0.6508444  3
   1446   1445   1459   1464     1  0.0000000  0.6508444  3
   1446   1449   1450   1452     1  0.0000000  0.6508444  3
   1446   1449   1457   1460     1  0.0000000  1.0460000  1
   1446   1449   1457   1460     1  0.0000000  0.6694400  3
   1447   1445   1446   1449     1  0.0000000  0.6508444  3
   1447   1445   1446   1458     1  0.0000000  1.0460000  1
   1447   1445   1446   1458     1  0.0000000  0.0000000  3
   1447   1445   1446   1448     1  0.0000000  0.6508444  3
   1447   1445   1459   1465     1  0.0000000  1.0460000  1
   1447   1445   1459   1465     1  0.0000000  0.0000000  3
   1447   1445   1459   1463     1  0.0000000  0.6508444  3
   1447   1445   1459   1464     1  0.0000000  0.6508444  3
   1447   1445   1467   1451     1  0.0000000  1.6038667  3
   1448   1446   1445   1459     1  0.0000000  0.6508444  3
   1448   1446   1445   1467     1  0.0000000  1.0460000  1
   1448   1446   1445   1467     1  0.0000000  0.0000000  3
   1448   1446   1449   1450     1  0.0000000  0.6508444  3
   1448   1446   1449   1457     1  0.0000000  1.0460000  1
   1448   1446   1449   1457     1  0.0000000  0.0000000  3
   1448   1446   1449   1453     1  0.0000000  0.6508444  3
   1448   1446   1458   1461     1  0.0000000  0.6973333  3
   1449   1446   1458   1461     1  0.0000000  1.0460000  1
   1449   1446   1458   1461     1  0.0000000  0.6694400  3
   1449   1450   1451   1454     1  0.0000000  0.6508444  3
   1449   1450   1456   1462     1  0.0000000  1.0460000  1
   1449   1450   1456   1462     1  0.0000000  0.6694400  3
   1450   1449   1457   1460     1  0.0000000  1.0460000  1
   1450   1449   1457   1460     1  0.0000000  0.6694400  3
   1451   1450   1449   1453     1  0.0000000  0.6508444  3
   1451   1450   1456   1462     1  0.0000000  1.0460000  1
   1451   1450   1456   1462     1  0.0000000  0.6694400  3
   1452   1450   1449   1457     1  0.0000000  1.0460000  1
   1452   1450   1449   1457     1  0.0000000  0.0000000  3
   1452   1450   1449   1453     1  0.0000000  0.6508444  3
   1452   1450   1451   1455     1  0.0000000  1.0460000  1
   1452   1450   1451   1455     1  0.0000000  0.0000000  3
   1452   1450   1451   1467     1  0.0000000  1.0460000  1
   1452   1450   1451   1467     1  0.0000000  0.0000000  3
   1452   1450   1451   1454     1  0.0000000  0.6508444  3
   1452   1450   1456   1462     1  0.0000000  0.6973333  3
   1453   1449   1446   1458     1  0.0000000  1.0460000  1
   1453   1449   1446   1458     1  0.0000000  0.0000000  3
   1453   1449   1450   1456     1  0.0000000  1.0460000  1
   1453   1449   1450   1456     1  0.0000000  0.0000000  3
   1453   1449   1457   1460     1  0.0000000  0.6973333  3
   1454   1451   1450   1456     1  0.0000000  0.6508444  3
   1463   1459   1445   1467     1  0.0000000  1.0460000  1
   1463   1459   1445   1467     1  0.0000000  0.0000000  3
   1463   1459   1465   1466     1  0.0000000  0.6973333  3
   1464   1459   1445   1467     1  0.0000000  1.0460000  1
   1464   1459   1445   1467     1  0.0000000  0.0000000  3
   1464   1459   1465   1466     1  0.0000000  0.6973333  3
   1468   1469   1472   1476     1  0.0000000  0.6508444  3
   1468   1469   1481   1484     1  0.0000000  1.0460000  1
   1468   1469   1481   1484     1  0.0000000  0.6694400  3
   1468   1482   1488   1489     1  0.0000000  1.0460000  1
   1468   1482   1488   1489     1  0.0000000  0.6694400  3
   1468   1490   1474   1477     1  0.0000000  1.6038667  3
   1469   1468   1482   1486     1  0.0000000  0.6508444  3
   1469   1468   1482   1487     1  0.0000000  0.6508444  3
   1469   1472   1473   1475     1  0.0000000  0.6508444  3
   1469   1472   1480   1483     1  0.0000000  1.0460000  1
   1469   1472   1480   1483     1  0.0000000  0.6694400  3
   1470   1468   1469   1472     1  0.0000000  0.6508444  3
   1470   1468   1469   1481     1  0.0000000  1.0460000  1
   1470   1468   1469   1481     1  0.0000000  0.0000000  3
   1470   1468   1469   1471     1  0.0000000  0.6508444  3
   1470   1468   1482   1488     1  0.0000000  1.0460000  1
   1470   1468   1482   1488     1  0.0000000  0.0000000  3
   1470   1468   1482   1486     1  0.0000000  0.6508444  3
   1470   1468   1482   1487     1  0.0000000  0.6508444  3
   1470   1468   1490   1474     1  0.0000000  1.6038667  3
   1471   1469   1468   1482     1  0.0000000  0.6508444  3
   1471   1469   1468   1490     1  0.0000000  1.0460000  1
   1471   1469   1468   1490     1  0.0000000  0.0000000  3
   1471   1469   1472   1473     1  0.0000000  0.6508444  3
   1471   1469   1472   1480     1  0.0000000  1.0460000  1
   1471   1469   1472   1480     1  0.0000000  0.0000000  3
   1471   1469   1472   1476     1  0.0000000  0.6508444  3
   1471   1469   1481   1484     1  0.0000000  0.6973333  3
   1472   1469   1481   1484     1  0.0000000  1.0460000  1
   1472   1469   1481   1484     1  0.0000000  0.6694400  3
   1472   1473   1474   1477     1  0.0000000  0.6508444  3
   1472   1473   1479   1485     1  0.0000000  1.0460000  1
   1472   1473   1479   1485     1  0.0000000  0.6694400  3
   1473   1472   1480   1483     1  0.0000000  1.0460000  1
   1473   1472   1480   1483     1  0.0000000  0.6694400  3
   1474   1473   1472   1476     1  0.0000000  0.6508444  3
   1474   1473   1479   1485     1  0.0000000  1.0460000  1
   1474   1473   1479   1485     1  0.0000000  0.6694400  3
   1475   1473   1472   1480     1  0.0000000  1.0460000  1
   1475   1473   1472   1480     1  0.0000000  0.0000000  3
   1475   1473   1472   1476     1  0.0000000  0.6508444  3
   1475   1473   1474   1478     1  0.0000000  1.0460000  1
   1475   1473   1474   1478     1  0.0000000  0.0000000  3
   1475   1473   1474   1490     1  0.0000000  1.0460000  1
   1475   1473   1474   1490     1  0.0000000  0.0000000  3
   1475   1473   1474   1477     1  0.0000000  0.6508444  3
   1475   1473   1479   1485     1  0.0000000  0.6973333  3
   1476   1472   1469   1481     1  0.0000000  1.0460000  1
   1476   1472   1469   1481     1  0.0000000  0.0000000  3
   1476   1472   1473   1479     1  0.0000000  1.0460000  1
   1476   1472   1473   1479     1  0.0000000  0.0000000  3
   1476   1472   1480   1483     1  0.0000000  0.6973333  3
   1477   1474   1473   1479     1  0.0000000  0.6508444  3
   1486   1482   1468   1490     1  0.0000000  1.0460000  1
   1486   1482   1468   1490     1  0.0000000  0.0000000  3
   1486   1482   1488   1489     1  0.0000000  0.6973333  3
   1487   1482   1468   1490     1  0.0000000  1.0460000  1
   1487   1482   1468   1490     1  0.0000000  0.0000000  3
   1487   1482   1488   1489     1  0.0000000  0.6973333  3
   1491   1492   1495   1499     1  0.0000000  0.6508444  3
   1491   1492   1504   1507     1  0.0000000  1.0460000  1
   1491   1492   1504   1507     1  0.0000000  0.6694400  3
   1491   1505   1511   1512     1  0.0000000  1.0460000  1
   1491   1505   1511   1512     1  0.0000000  0.6694400  3
   1491   1513   1497   1500     1  0.0000000  1.6038667  3
   1492   1491   1505   1509     1  0.0000000  0.6508444  3
   1492   1491   1505   1510     1  0.0000000  0.6508444  3
   1492   1495   1496   1498     1  0.0000000  0.6508444  3
   1492   1495   1503   1506     1  0.0000000  1.0460000  1
   1492   1495   1503   1506     1  0.0000000  0.6694400  3
   1493   1491   1492   1495     1  0.0000000  0.6508444  3
   1493   1491   1492   1504     1  0.0000000  1.0460000  1
   1493   1491   1492   1504     1  0.0000000  0.0000000  3
   1493   1491   1492   1494     1  0.0000000  0.6508444  3
   1493   1491   1505   1511     1  0.0000000  1.0460000  1
   1493   1491   1505   1511     1  0.0000000  0.0000000  3
   1493   1491   1505   1509     1  0.0000000  0.6508444  3
   1493   1491   1505   1510     1  0.0000000  0.6508444  3
   1493   1491   1513   1497     1  0.0000000  1.6038667  3
   1494   1492   1491   1505     1  0.0000000  0.6508444  3
   1494   1492   1491   1513     1  0.0000000  1.0460000  1
   1494   1492   1491   1513     1  0.0000000  0.0000000  3
   1494   1492   1495   1496     1  0.0000000  0.6508444  3
   1494   1492   1495   1503     1  0.0000000  1.0460000  1
   1494   1492   1495   1503     1  0.0000000  0.0000000  3
   1494   1492   1495   1499     1  0.0000000  0.6508444  3
   1494   1492   1504   1507     1  0.0000000  0.6973333  3
   1495   1492   1504   1507     1  0.0000000  1.0460000  1
   1495   1492   1504   1507     1  0.0000000  0.6694400  3
   1495   1496   1497   1500     1  0.0000000  0.6508444  3
   1495   1496   1502   1508     1  0.0000000  1.0460000  1
   1495   1496   1502   1508     1  0.0000000  0.6694400  3
   1496   1495   1503   1506     1  0.0000000  1.0460000  1
   1496   1495   1503   1506     1  0.0000000  0.6694400  3
   1497   1496   1495   1499     1  0.0000000  0.6508444  3
   1497   1496   1502   1508     1  0.0000000  1.0460000  1
   1497   1496   1502   1508     1  0.0000000  0.6694400  3
   1498   1496   1495   1503     1  0.0000000  1.0460000  1
   1498   1496   1495   1503     1  0.0000000  0.0000000  3
   1498   1496   1495   1499     1  0.0000000  0.6508444  3
   1498   1496   1497   1501     1  0.0000000  1.0460000  1
   1498   1496   1497   1501     1  0.0000000  0.0000000  3
   1498   1496   1497   1513     1  0.0000000  1.0460000  1
   1498   1496   1497   1513     1  0.0000000  0.0000000  3
   1498   1496   1497   1500     1  0.0000000  0.6508444  3
   1498   1496   1502   1508     1  0.0000000  0.6973333  3
   1499   1495   1492   1504     1  0.0000000  1.0460000  1
   1499   1495   1492   1504     1  0.0000000  0.0000000  3
   1499   1495   1496   1502     1  0.0000000  1.0460000  1
   1499   1495   1496   1502     1  0.0000000  0.0000000  3
   1499   1495   1503   1506     1  0.0000000  0.6973333  3
   1500   1497   1496   1502     1  0.0000000  0.6508444  3
   1509   1505   1491   1513     1  0.0000000  1.0460000  1
   1509   1505   1491   1513     1  0.0000000  0.0000000  3
   1509   1505   1511   1512     1  0.0000000  0.6973333  3
   1510   1505   1491   1513     1  0.0000000  1.0460000  1
   1510   1505   1491   1513     1  0.0000000  0.0000000  3
   1510   1505   1511   1512     1  0.0000000  0.6973333  3
   1514   1515   1518   1522     1  0.0000000  0.6508444  3
   1514   1515   1527   1530     1  0.0000000  1.0460000  1
   1514   1515   1527   1530     1  0.0000000  0.6694400  3
   1514   1528   1534   1535     1  0.0000000  1.0460000  1
   1514   1528   1534   1535     1  0.0000000  0.6694400  3
   1514   1536   1520   1523     1  0.0000000  1.6038667  3
   1515   1514   1528   1532     1  0.0000000  0.6508444  3
   1515   1514   1528   1533     1  0.0000000  0.6508444  3
   1515   1518   1519   1521     1  0.0000000  0.6508444  3
   1515   1518   1526   1529     1  0.0000000  1.0460000  1
   1515   1518   1526   1529     1  0.0000000  0.6694400  3
   1516   1514   1515   1518     1  0.0000000  0.6508444  3
   1516   1514   1515   1527     1  0.0000000  1.0460000  1
   1516   1514   1515   1527     1  0.0000000  0.0000000  3
   1516   1514   1515   1517     1  0.0000000  0.6508444  3
   1516   1514   1528   1534     1  0.0000000  1.0460000  1
   1516   1514   1528   1534     1  0.0000000  0.0000000  3
   1516   1514   1528   1532     1  0.0000000  0.6508444  3
   1516   1514   1528   1533     1  0.0000000  0.6508444  3
   1516   1514   1536   1520     1  0.0000000  1.6038667  3
   1517   1515   1514   1528     1  0.0000000  0.6508444  3
   1517   1515   1514   1536     1  0.0000000  1.0460000  1
   1517   1515   1514   1536     1  0.0000000  0.0000000  3
   1517   1515   1518   1519     1  0.0000000  0.6508444  3
   1517   1515   1518   1526     1  0.0000000  1.0460000  1
   1517   1515   1518   1526     1  0.0000000  0.0000000  3
   1517   1515   1518   1522     1  0.0000000  0.6508444  3
   1517   1515   1527   1530     1  0.0000000  0.6973333  3
   1518   1515   1527   1530     1  0.0000000  1.0460000  1
   1518   1515   1527   1530     1  0.0000000  0.6694400  3
   1518   1519   1520   1523     1  0.0000000  0.6508444  3
   1518   1519   1525   1531     1  0.0000000  1.0460000  1
   1518   1519   1525   1531     1  0.0000000  0.6694400  3
   1519   1518   1526   1529     1  0.0000000  1.0460000  1
   1519   1518   1526   1529     1  0.0000000  0.6694400  3
   1520   1519   1518   1522     1  0.0000000  0.6508444  3
   1520   1519   1525   1531     1  0.0000000  1.0460000  1
   1520   1519   1525   1531     1  0.0000000  0.6694400  3
   1521   1519   1518   1526     1  0.0000000  1.0460000  1
   1521   1519   1518   1526     1  0.0000000  0.0000000  3
   1521   1519   1518   1522     1  0.0000000  0.6508444  3
   1521   1519   1520   1524     1  0.0000000  1.0460000  1
   1521   1519   1520   1524     1  0.0000000  0.0000000  3
   1521   1519   1520   1536     1  0.0000000  1.0460000  1
   1521   1519   1520   1536     1  0.0000000  0.0000000  3
   1521   1519   1520   1523     1  0.0000000  0.6508444  3
   1521   1519   1525   1531     1  0.0000000  0.6973333  3
   1522   1518   1515   1527     1  0.0000000  1.0460000  1
   1522   1518   1515   1527     1  0.0000000  0.0000000  3
   1522   1518   1519   1525     1  0.0000000  1.0460000  1
   1522   1518   1519   1525     1  0.0000000  0.0000000  3
   1522   1518   1526   1529     1  0.0000000  0.6973333  3
   1523   1520   1519   1525     1  0.0000000  0.6508444  3
   1532   1528   1514   1536     1  0.0000000  1.0460000  1
   1532   1528   1514   1536     1  0.0000000  0.0000000  3
   1532   1528   1534   1535     1  0.0000000  0.6973333  3
   1533   1528   1514   1536     1  0.0000000  1.0460000  1
   1533   1528   1514   1536     1  0.0000000  0.0000000  3
   1533   1528   1534   1535     1  0.0000000  0.6973333  3
   1537   1538   1541   1545     1  0.0000000  0.6508444  3
   1537   1538   1550   1553     1  0.0000000  1.0460000  1
   1537   1538   1550   1553     1  0.0000000  0.6694400  3
   1537   1551   1557   1558     1  0.0000000  1.0460000  1
   1537   1551   1557   1558     1  0.0000000  0.6694400  3
   1537   1559   1543   1546     1  0.0000000  1.6038667  3
   1538   1537   1551   1555     1  0.0000000  0.6508444  3
   1538   1537   1551   1556     1  0.0000000  0.6508444  3
   1538   1541   1542   1544     1  0.0000000  0.6508444  3
   1538   1541   1549   1552     1  0.0000000  1.0460000  1
   1538   1541   1549   1552     1  0.0000000  0.6694400  3
   1539   1537   1538   1541     1  0.0000000  0.6508444  3
   1539   1537   1538   1550     1  0.0000000  1.0460000  1
   1539   1537   1538   1550     1  0.0000000  0.0000000  3
   1539   1537   1538   1540     1  0.0000000  0.6508444  3
   1539   1537   1551   1557     1  0.0000000  1.0460000  1
   1539   1537   1551   1557     1  0.0000000  0.0000000  3
   1539   1537   1551   1555     1  0.0000000  0.6508444  3
   1539   1537   1551   1556     1  0.0000000  0.6508444  3
   1539   1537   1559   1543     1  0.0000000  1.6038667  3
   1540   1538   1537   1551     1  0.0000000  0.6508444  3
   1540   1538   1537   1559     1  0.0000000  1.0460000  1
   1540   1538   1537   1559     1  0.0000000  0.0000000  3
   1540   1538   1541   1542     1  0.0000000  0.6508444  3
   1540   1538   1541   1549     1  0.0000000  1.0460000  1
   1540   1538   1541   1549     1  0.0000000  0.0000000  3
   1540   1538   1541   1545     1  0.0000000  0.6508444  3
   1540   1538   1550   1553     1  0.0000000  0.6973333  3
   1541   1538   1550   1553     1  0.0000000  1.0460000  1
   1541   1538   1550   1553     1  0.0000000  0.6694400  3
   1541   1542   1543   1546     1  0.0000000  0.6508444  3
   1541   1542   1548   1554     1  0.0000000  1.0460000  1
   1541   1542   1548   1554     1  0.0000000  0.6694400  3
   1542   1541   1549   1552     1  0.0000000  1.0460000  1
   1542   1541   1549   1552     1  0.0000000  0.6694400  3
   1543   1542   1541   1545     1  0.0000000  0.6508444  3
   1543   1542   1548   1554     1  0.0000000  1.0460000  1
   1543   1542   1548   1554     1  0.0000000  0.6694400  3
   1544   1542   1541   1549     1  0.0000000  1.0460000  1
   1544   1542   1541   1549     1  0.0000000  0.0000000  3
   1544   1542   1541   1545     1  0.0000000  0.6508444  3
   1544   1542   1543   1547     1  0.0000000  1.0460000  1
   1544   1542   1543   1547     1  0.0000000  0.0000000  3
   1544   1542   1543   1559     1  0.0000000  1.0460000  1
   1544   1542   1543   1559     1  0.0000000  0.0000000  3
   1544   1542   1543   1546     1  0.0000000  0.6508444  3
   1544   1542   1548   1554     1  0.0000000  0.6973333  3
   1545   1541   1538   1550     1  0.0000000  1.0460000  1
   1545   1541   1538   1550     1  0.0000000  0.0000000  3
   1545   1541   1542   1548     1  0.0000000  1.0460000  1
   1545   1541   1542   1548     1  0.0000000  0.0000000  3
   1545   1541   1549   1552     1  0.0000000  0.6973333  3
   1546   1543   1542   1548     1  0.0000000  0.6508444  3
   1555   1551   1537   1559     1  0.0000000  1.0460000  1
   1555   1551   1537   1559     1  0.0000000  0.0000000  3
   1555   1551   1557   1558     1  0.0000000  0.6973333  3
   1556   1551   1537   1559     1  0.0000000  1.0460000  1
   1556   1551   1537   1559     1  0.0000000  0.0000000  3
   1556   1551   1557   1558     1  0.0000000  0.6973333  3
   1560   1561   1564   1568     1  0.0000000  0.6508444  3
   1560   1561   1573   1576     1  0.0000000  1.0460000  1
   1560   1561   1573   1576     1  0.0000000  0.6694400  3
   1560   1574   1580   1581     1  0.0000000  1.0460000  1
   1560   1574   1580   1581     1  0.0000000  0.6694400  3
   1560   1582   1566   1569     1  0.0000000  1.6038667  3
   1561   1560   1574   1578     1  0.0000000  0.6508444  3
   1561   1560   1574   1579     1  0.0000000  0.6508444  3
   1561   1564   1565   1567     1  0.0000000  0.6508444  3
   1561   1564   1572   1575     1  0.0000000  1.0460000  1
   1561   1564   1572   1575     1  0.0000000  0.6694400  3
   1562   1560   1561   1564     1  0.0000000  0.6508444  3
   1562   1560   1561   1573     1  0.0000000  1.0460000  1
   1562   1560   1561   1573     1  0.0000000  0.0000000  3
   1562   1560   1561   1563     1  0.0000000  0.6508444  3
   1562   1560   1574   1580     1  0.0000000  1.0460000  1
   1562   1560   1574   1580     1  0.0000000  0.0000000  3
   1562   1560   1574   1578     1  0.0000000  0.6508444  3
   1562   1560   1574   1579     1  0.0000000  0.6508444  3
   1562   1560   1582   1566     1  0.0000000  1.6038667  3
   1563   1561   1560   1574     1  0.0000000  0.6508444  3
   1563   1561   1560   1582     1  0.0000000  1.0460000  1
   1563   1561   1560   1582     1  0.0000000  0.0000000  3
   1563   1561   1564   1565     1  0.0000000  0.6508444  3
   1563   1561   1564   1572     1  0.0000000  1.0460000  1
   1563   1561   1564   1572     1  0.0000000  0.0000000  3
   1563   1561   1564   1568     1  0.0000000  0.6508444  3
   1563   1561   1573   1576     1  0.0000000  0.6973333  3
   1564   1561   1573   1576     1  0.0000000  1.0460000  1
   1564   1561   1573   1576     1  0.0000000  0.6694400  3
   1564   1565   1566   1569     1  0.0000000  0.6508444  3
   1564   1565   1571   1577     1  0.0000000  1.0460000  1
   1564   1565   1571   1577     1  0.0000000  0.6694400  3
   1565   1564   1572   1575     1  0.0000000  1.0460000  1
   1565   1564   1572   1575     1  0.0000000  0.6694400  3
   1566   1565   1564   1568     1  0.0000000  0.6508444  3
   1566   1565   1571   1577     1  0.0000000  1.0460000  1
   1566   1565   1571   1577     1  0.0000000  0.6694400  3
   1567   1565   1564   1572     1  0.0000000  1.0460000  1
   1567   1565   1564   1572     1  0.0000000  0.0000000  3
   1567   1565   1564   1568     1  0.0000000  0.6508444  3
   1567   1565   1566   1570     1  0.0000000  1.0460000  1
   1567   1565   1566   1570     1  0.0000000  0.0000000  3
   1567   1565   1566   1582     1  0.0000000  1.0460000  1
   1567   1565   1566   1582     1  0.0000000  0.0000000  3
   1567   1565   1566   1569     1  0.0000000  0.6508444  3
   1567   1565   1571   1577     1  0.0000000  0.6973333  3
   1568   1564   1561   1573     1  0.0000000  1.0460000  1
   1568   1564   1561   1573     1  0.0000000  0.0000000  3
   1568   1564   1565   1571     1  0.0000000  1.0460000  1
   1568   1564   1565   1571     1  0.0000000  0.0000000  3
   1568   1564   1572   1575     1  0.0000000  0.6973333  3
   1569   1566   1565   1571     1  0.0000000  0.6508444  3
   1578   1574   1560   1582     1  0.0000000  1.0460000  1
   1578   1574   1560   1582     1  0.0000000  0.0000000  3
   1578   1574   1580   1581     1  0.0000000  0.6973333  3
   1579   1574   1560   1582     1  0.0000000  1.0460000  1
   1579   1574   1560   1582     1  0.0000000  0.0000000  3
   1579   1574   1580   1581     1  0.0000000  0.6973333  3
   1583   1584   1587   1591     1  0.0000000  0.6508444  3
   1583   1584   1596   1599     1  0.0000000  1.0460000  1
   1583   1584   1596   1599     1  0.0000000  0.6694400  3
   1583   1597   1603   1604     1  0.0000000  1.0460000  1
   1583   1597   1603   1604     1  0.0000000  0.6694400  3
   1583   1605   1589   1592     1  0.0000000  1.6038667  3
   1584   1583   1597   1601     1  0.0000000  0.6508444  3
   1584   1583   1597   1602     1  0.0000000  0.6508444  3
   1584   1587   1588   1590     1  0.0000000  0.6508444  3
   1584   1587   1595   1598     1  0.0000000  1.0460000  1
   1584   1587   1595   1598     1  0.0000000  0.6694400  3
   1585   1583   1584   1587     1  0.0000000  0.6508444  3
   1585   1583   1584   1596     1  0.0000000  1.0460000  1
   1585   1583   1584   1596     1  0.0000000  0.0000000  3
   1585   1583   1584   1586     1  0.0000000  0.6508444  3
   1585   1583   1597   1603     1  0.0000000  1.0460000  1
   1585   1583   1597   1603     1  0.0000000  0.0000000  3
   1585   1583   1597   1601     1  0.0000000  0.6508444  3
   1585   1583   1597   1602     1  0.0000000  0.6508444  3
   1585   1583   1605   1589     1  0.0000000  1.6038667  3
   1586   1584   1583   1597     1  0.0000000  0.6508444  3
   1586   1584   1583   1605     1  0.0000000  1.0460000  1
   1586   1584   1583   1605     1  0.0000000  0.0000000  3
   1586   1584   1587   1588     1  0.0000000  0.6508444  3
   1586   1584   1587   1595     1  0.0000000  1.0460000  1
   1586   1584   1587   1595     1  0.0000000  0.0000000  3
   1586   1584   1587   1591     1  0.0000000  0.6508444  3
   1586   1584   1596   1599     1  0.0000000  0.6973333  3
   1587   1584   1596   1599     1  0.0000000  1.0460000  1
   1587   1584   1596   1599     1  0.0000000  0.6694400  3
   1587   1588   1589   1592     1  0.0000000  0.6508444  3
   1587   1588   1594   1600     1  0.0000000  1.0460000  1
   1587   1588   1594   1600     1  0.0000000  0.6694400  3
   1588   1587   1595   1598     1  0.0000000  1.0460000  1
   1588   1587   1595   1598     1  0.0000000  0.6694400  3
   1589   1588   1587   1591     1  0.0000000  0.6508444  3
   1589   1588   1594   1600     1  0.0000000  1.0460000  1
   1589   1588   1594   1600     1  0.0000000  0.6694400  3
   1590   1588   1587   1595     1  0.0000000  1.0460000  1
   1590   1588   1587   1595     1  0.0000000  0.0000000  3
   1590   1588   1587   1591     1  0.0000000  0.6508444  3
   1590   1588   1589   1593     1  0.0000000  1.0460000  1
   1590   1588   1589   1593     1  0.0000000  0.0000000  3
   1590   1588   1589   1605     1  0.0000000  1.0460000  1
   1590   1588   1589   1605     1  0.0000000  0.0000000  3
   1590   1588   1589   1592     1  0.0000000  0.6508444  3
   1590   1588   1594   1600     1  0.0000000  0.6973333  3
   1591   1587   1584   1596     1  0.0000000  1.0460000  1
   1591   1587   1584   1596     1  0.0000000  0.0000000  3
   1591   1587   1588   1594     1  0.0000000  1.0460000  1
   1591   1587   1588   1594     1  0.0000000  0.0000000  3
   1591   1587   1595   1598     1  0.0000000  0.6973333  3
   1592   1589   1588   1594     1  0.0000000  0.6508444  3
   1601   1597   1583   1605     1  0.0000000  1.0460000  1
   1601   1597   1583   1605     1  0.0000000  0.0000000  3
   1601   1597   1603   1604     1  0.0000000  0.6973333  3
   1602   1597   1583   1605     1  0.0000000  1.0460000  1
   1602   1597   1583   1605     1  0.0000000  0.0000000  3
   1602   1597   1603   1604     1  0.0000000  0.6973333  3

;[ system ]
;; Name
;Generic title
;
;[ molecules ]
;; Compound       #mols
;g3npocore_petim_betagalactose              1
